Title t= 121.00000 step= 60500
29212
    1ASP      N    1   1.727   3.132   4.991
    1ASP    HT1    2   1.657   3.180   5.051
    1ASP    HT2    3   1.818   3.145   5.041
    1ASP    HT3    4   1.708   3.030   4.985
    1ASP     CA    5   1.750   3.197   4.856
    1ASP     HA    6   1.664   3.182   4.793
    1ASP     CB    7   1.800   3.343   4.876
    1ASP    HB1    8   1.812   3.395   4.779
    1ASP    HB2    9   1.893   3.353   4.936
    1ASP     CG   10   1.687   3.434   4.934
    1ASP    OD1   11   1.578   3.386   4.968
    1ASP    OD2   12   1.715   3.554   4.944
    1ASP      C   13   1.871   3.122   4.794
    1ASP      O   14   1.964   3.081   4.863
    2GLY      N   15   1.850   3.106   4.663
    2GLY     HN   16   1.767   3.132   4.614
    2GLY     CA   17   1.953   3.047   4.579
    2GLY    HA1   18   1.906   3.031   4.482
    2GLY    HA2   19   1.986   2.954   4.623
    2GLY      C   20   2.083   3.123   4.557
    2GLY      O   21   2.112   3.231   4.612
    3ASP      N   22   2.169   3.049   4.488
    3ASP     HN   23   2.138   2.955   4.471
    3ASP     CA   24   2.297   3.086   4.424
    3ASP     HA   25   2.357   3.124   4.505
    3ASP     CB   26   2.357   2.971   4.356
    3ASP    HB1   27   2.458   2.989   4.312
    3ASP    HB2   28   2.298   2.925   4.273
    3ASP     CG   29   2.391   2.863   4.456
    3ASP    OD1   30   2.407   2.887   4.574
    3ASP    OD2   31   2.429   2.752   4.409
    3ASP      C   32   2.279   3.214   4.331
    3ASP      O   33   2.195   3.217   4.238
    4GLY      N   34   2.364   3.323   4.343
    4GLY     HN   35   2.432   3.327   4.416
    4GLY     CA   36   2.366   3.439   4.249
    4GLY    HA1   37   2.411   3.524   4.297
    4GLY    HA2   38   2.260   3.454   4.231
    4GLY      C   39   2.440   3.400   4.125
    4GLY      O   40   2.459   3.280   4.102
    5PRO      N   41   2.488   3.495   4.045
    5PRO     CD   42   2.430   3.632   4.037
    5PRO    HD1   43   2.456   3.695   4.125
    5PRO    HD2   44   2.319   3.634   4.028
    5PRO     CA   45   2.598   3.479   3.952
    5PRO     HA   46   2.566   3.418   3.869
    5PRO     CB   47   2.623   3.626   3.899
    5PRO    HB1   48   2.666   3.637   3.797
    5PRO    HB2   49   2.689   3.670   3.977
    5PRO     CG   50   2.485   3.694   3.908
    5PRO    HG1   51   2.508   3.803   3.907
    5PRO    HG2   52   2.420   3.660   3.825
    5PRO      C   53   2.719   3.408   4.019
    5PRO      O   54   2.748   3.438   4.134
    6GLY      N   55   2.781   3.312   3.950
    6GLY     HN   56   2.738   3.290   3.863
    6GLY     CA   57   2.908   3.246   3.974
    6GLY    HA1   58   2.905   3.151   3.922
    6GLY    HA2   59   2.928   3.228   4.079
    6GLY      C   60   3.021   3.329   3.922
    6GLY      O   61   3.003   3.437   3.868
    7ASP      N   62   3.142   3.281   3.932
    7ASP     HN   63   3.157   3.196   3.982
    7ASP     CA   64   3.262   3.348   3.898
    7ASP     HA   65   3.244   3.452   3.923
    7ASP     CB   66   3.389   3.290   3.969
    7ASP    HB1   67   3.481   3.337   3.928
    7ASP    HB2   68   3.381   3.180   3.957
    7ASP     CG   69   3.383   3.324   4.118
    7ASP    OD1   70   3.321   3.422   4.161
    7ASP    OD2   71   3.475   3.265   4.187
    7ASP      C   72   3.282   3.339   3.743
    7ASP      O   73   3.247   3.242   3.675
    8PRO      N   74   3.326   3.445   3.675
    8PRO     CD   75   3.398   3.558   3.735
    8PRO    HD1   76   3.489   3.525   3.790
    8PRO    HD2   77   3.336   3.616   3.807
    8PRO     CA   78   3.331   3.456   3.522
    8PRO     HA   79   3.229   3.480   3.496
    8PRO     CB   80   3.433   3.570   3.502
    8PRO    HB1   81   3.413   3.634   3.413
    8PRO    HB2   82   3.534   3.528   3.490
    8PRO     CG   83   3.430   3.660   3.626
    8PRO    HG1   84   3.514   3.730   3.646
    8PRO    HG2   85   3.332   3.712   3.619
    8PRO      C   86   3.361   3.341   3.423
    8PRO      O   87   3.460   3.277   3.441
    9GLY      N   88   3.278   3.317   3.319
    9GLY     HN   89   3.193   3.369   3.309
    9GLY     CA   90   3.303   3.209   3.230
    9GLY    HA1   91   3.205   3.185   3.192
    9GLY    HA2   92   3.358   3.129   3.276
    9GLY      C   93   3.386   3.262   3.111
    9GLY      O   94   3.476   3.344   3.123
   10ASP      N   95   3.356   3.206   2.992
   10ASP     HN   96   3.295   3.127   2.990
   10ASP     CA   97   3.422   3.245   2.872
   10ASP     HA   98   3.518   3.285   2.901
   10ASP     CB   99   3.443   3.128   2.774
   10ASP    HB1  100   3.494   3.155   2.679
   10ASP    HB2  101   3.351   3.073   2.743
   10ASP     CG  102   3.543   3.038   2.840
   10ASP    OD1  103   3.510   2.920   2.861
   10ASP    OD2  104   3.654   3.086   2.866
   10ASP      C  105   3.345   3.346   2.785
   10ASP      O  106   3.224   3.355   2.775
   11GLY      N  107   3.433   3.420   2.713
   11GLY     HN  108   3.532   3.412   2.727
   11GLY     CA  109   3.391   3.516   2.617
   11GLY    HA1  110   3.454   3.603   2.610
   11GLY    HA2  111   3.294   3.556   2.642
   11GLY      C  112   3.380   3.471   2.482
   11GLY    OT1  113   3.269   3.496   2.419
   11GLY    OT2  114   3.475   3.403   2.430
   12SOD    SOD  115   4.608   0.947   2.702
   13SOD    SOD  116   7.066   1.443   1.690
   14SOD    SOD  117   2.465   0.054   2.128
   15SOD    SOD  118   4.788   6.502   3.065
   16SOD    SOD  119   4.282   2.036   3.113
   17SOD    SOD  120   2.085   2.891   5.663
   18SOD    SOD  121   6.121   2.184   1.245
   19SOD    SOD  122   5.247   0.069   4.341
   20SOD    SOD  123   5.890   1.989   4.347
   21SOD    SOD  124   2.164   4.296   5.781
   22SOD    SOD  125   6.396   1.868   5.269
   23SOD    SOD  126   3.561   2.185   2.215
   24SOD    SOD  127   2.038   0.511   5.042
   25SOD    SOD  128   3.348   4.971   0.444
   26SOD    SOD  129   3.651   5.207   3.514
   27SOD    SOD  130   4.536   3.389   4.230
   28SOD    SOD  131   6.137   2.094   3.579
   29SOD    SOD  132   0.594   2.122   3.403
   30SOD    SOD  133   3.764   0.564   2.848
   31SOD    SOD  134   5.248   0.094   3.841
   32SOD    SOD  135   3.569   3.957   2.827
   33SOD    SOD  136   1.449   3.979   2.670
   34SOD    SOD  137   5.182   6.638   2.474
   35SOD    SOD  138   3.967   2.822   2.396
   36SOD    SOD  139   6.266   3.317   5.133
   37SOD    SOD  140   4.215   5.465   0.458
   38SOD    SOD  141   1.419   5.632   3.955
   39SOD    SOD  142   6.925   4.777   3.996
   40SOD    SOD  143   4.334   0.519   0.425
   41SOD    SOD  144   0.373   3.558   1.027
   42SOD    SOD  145   5.772   4.281   5.270
   43CLA    CLA  146   1.248   4.871   4.061
   44CLA    CLA  147   4.026   0.900   4.465
   45CLA    CLA  148   2.460   4.336   0.476
   46CLA    CLA  149   5.708   4.660   4.904
   47CLA    CLA  150   0.848   5.785   1.204
   48CLA    CLA  151   2.571   6.180   3.203
   49CLA    CLA  152   6.793   3.176   5.589
   50CLA    CLA  153   6.687   0.306   4.544
   51CLA    CLA  154   0.383   4.867   3.288
   52CLA    CLA  155   0.886   2.020   2.456
   53CLA    CLA  156   0.941   3.986   1.094
   54CLA    CLA  157   5.527   5.325   4.301
   55CLA    CLA  158   5.004   6.206   2.751
   56CLA    CLA  159   3.707   4.805   5.866
   57CLA    CLA  160   2.359   5.040   2.739
   58CLA    CLA  161   4.772   3.464   3.812
   59CLA    CLA  162   6.961   3.155   2.588
   60CLA    CLA  163   2.017   1.225   5.838
   61CLA    CLA  164   3.101   0.353   5.692
   62CLA    CLA  165   5.578   2.675   3.445
   63CLA    CLA  166   6.857   3.613   4.984
   64CLA    CLA  167   4.473   5.928   0.900
   65CLA    CLA  168   4.226   0.214   2.495
   66CLA    CLA  169   0.415   4.906   2.472
   67CLA    CLA  170   0.922   1.936   3.107
   68CLA    CLA  171   4.663   0.952   0.540
   69CLA    CLA  172   5.646   1.601   3.862
   70TIP3   OH2  173   2.917   5.239   5.015
   70TIP3    H1  174   2.927   5.163   4.959
   70TIP3    H2  175   2.958   5.311   4.966
   71TIP3   OH2  176   0.680   5.535   0.184
   71TIP3    H1  177   0.702   5.445   0.161
   71TIP3    H2  178   0.764   5.579   0.196
   72TIP3   OH2  179   3.288   3.669   5.332
   72TIP3    H1  180   3.352   3.728   5.294
   72TIP3    H2  181   3.282   3.596   5.270
   73TIP3   OH2  182   3.221   3.264   0.674
   73TIP3    H1  183   3.139   3.236   0.632
   73TIP3    H2  184   3.289   3.241   0.611
   74TIP3   OH2  185   3.090   4.981   4.087
   74TIP3    H1  186   2.997   5.001   4.086
   74TIP3    H2  187   3.115   4.985   4.179
   75TIP3   OH2  188   0.749   6.428   2.429
   75TIP3    H1  189   0.784   6.507   2.470
   75TIP3    H2  190   0.719   6.374   2.502
   76TIP3   OH2  191   4.629   5.885   0.160
   76TIP3    H1  192   4.661   5.909   0.247
   76TIP3    H2  193   4.625   5.790   0.161
   77TIP3   OH2  194   6.451   6.626   0.879
   77TIP3    H1  195   6.457   6.719   0.898
   77TIP3    H2  196   6.528   6.607   0.826
   78TIP3   OH2  197   2.978   2.594   0.404
   78TIP3    H1  198   2.982   2.634   0.490
   78TIP3    H2  199   3.070   2.582   0.379
   79TIP3   OH2  200   0.199   6.348   0.404
   79TIP3    H1  201   0.256   6.273   0.420
   79TIP3    H2  202   0.217   6.373   0.314
   80TIP3   OH2  203   2.201   2.824   3.181
   80TIP3    H1  204   2.211   2.917   3.162
   80TIP3    H2  205   2.256   2.809   3.258
   81TIP3   OH2  206   0.237   0.781   1.370
   81TIP3    H1  207   0.225   0.756   1.278
   81TIP3    H2  208   0.303   0.851   1.367
   82TIP3   OH2  209   1.640   4.272   3.610
   82TIP3    H1  210   1.549   4.289   3.632
   82TIP3    H2  211   1.690   4.331   3.667
   83TIP3   OH2  212   1.638   4.137   5.895
   83TIP3    H1  213   1.654   4.049   5.862
   83TIP3    H2  214   1.643   4.194   5.818
   84TIP3   OH2  215   2.017   5.218   4.612
   84TIP3    H1  216   1.934   5.173   4.597
   84TIP3    H2  217   2.081   5.147   4.620
   85TIP3   OH2  218   3.866   4.450   2.435
   85TIP3    H1  219   3.826   4.534   2.458
   85TIP3    H2  220   3.835   4.432   2.347
   86TIP3   OH2  221   1.799   5.292   0.176
   86TIP3    H1  222   1.818   5.374   0.132
   86TIP3    H2  223   1.861   5.290   0.249
   87TIP3   OH2  224   3.829   1.798   2.943
   87TIP3    H1  225   3.740   1.763   2.943
   87TIP3    H2  226   3.855   1.798   3.035
   88TIP3   OH2  227   6.925   1.010   3.051
   88TIP3    H1  228   6.967   0.925   3.064
   88TIP3    H2  229   6.936   1.028   2.958
   89TIP3   OH2  230   3.740   4.404   4.972
   89TIP3    H1  231   3.713   4.485   5.017
   89TIP3    H2  232   3.661   4.375   4.926
   90TIP3   OH2  233   0.920   3.279   2.916
   90TIP3    H1  234   0.906   3.264   2.823
   90TIP3    H2  235   1.004   3.323   2.921
   91TIP3   OH2  236   5.382   6.589   0.425
   91TIP3    H1  237   5.356   6.522   0.363
   91TIP3    H2  238   5.305   6.603   0.480
   92TIP3   OH2  239   4.810   4.763   3.909
   92TIP3    H1  240   4.772   4.688   3.864
   92TIP3    H2  241   4.737   4.801   3.958
   93TIP3   OH2  242   6.970   0.923   0.505
   93TIP3    H1  243   6.913   0.847   0.509
   93TIP3    H2  244   7.029   0.913   0.579
   94TIP3   OH2  245   4.653   0.735   3.893
   94TIP3    H1  246   4.582   0.713   3.834
   94TIP3    H2  247   4.717   0.781   3.839
   95TIP3   OH2  248   1.270   4.521   4.388
   95TIP3    H1  249   1.184   4.529   4.429
   95TIP3    H2  250   1.266   4.440   4.338
   96TIP3   OH2  251   1.699   5.457   0.542
   96TIP3    H1  252   1.787   5.425   0.523
   96TIP3    H2  253   1.705   5.488   0.633
   97TIP3   OH2  254   7.076   1.723   0.579
   97TIP3    H1  255   7.142   1.759   0.520
   97TIP3    H2  256   7.018   1.674   0.522
   98TIP3   OH2  257   4.835   3.580   2.424
   98TIP3    H1  258   4.909   3.588   2.363
   98TIP3    H2  259   4.873   3.537   2.500
   99TIP3   OH2  260   4.812   1.034   2.628
   99TIP3    H1  261   4.902   1.013   2.651
   99TIP3    H2  262   4.817   1.065   2.537
  100TIP3   OH2  263   0.325   0.470   0.594
  100TIP3    H1  264   0.361   0.519   0.668
  100TIP3    H2  265   0.256   0.415   0.632
  101TIP3   OH2  266   0.931   2.881   0.316
  101TIP3    H1  267   1.015   2.913   0.347
  101TIP3    H2  268   0.952   2.828   0.239
  102TIP3   OH2  269   0.765   6.397   0.669
  102TIP3    H1  270   0.828   6.344   0.718
  102TIP3    H2  271   0.696   6.336   0.644
  103TIP3   OH2  272   5.094   3.170   5.802
  103TIP3    H1  273   5.091   3.224   5.723
  103TIP3    H2  274   5.054   3.224   5.870
  104TIP3   OH2  275   3.084   4.450   0.882
  104TIP3    H1  276   3.132   4.367   0.890
  104TIP3    H2  277   3.049   4.467   0.969
  105TIP3   OH2  278   5.026   0.314   1.868
  105TIP3    H1  279   5.041   0.227   1.904
  105TIP3    H2  280   5.113   0.353   1.863
  106TIP3   OH2  281   1.642   1.618   5.566
  106TIP3    H1  282   1.609   1.704   5.591
  106TIP3    H2  283   1.644   1.620   5.471
  107TIP3   OH2  284   1.916   6.128   3.916
  107TIP3    H1  285   1.840   6.138   3.974
  107TIP3    H2  286   1.936   6.217   3.888
  108TIP3   OH2  287   2.325   0.555   2.073
  108TIP3    H1  288   2.353   0.578   1.985
  108TIP3    H2  289   2.252   0.614   2.091
  109TIP3   OH2  290   0.026   3.461   0.720
  109TIP3    H1  291   0.036   3.473   0.626
  109TIP3    H2  292   0.041   3.368   0.735
  110TIP3   OH2  293   2.419   1.891   0.911
  110TIP3    H1  294   2.351   1.832   0.879
  110TIP3    H2  295   2.437   1.949   0.837
  111TIP3   OH2  296   2.400   1.725   1.993
  111TIP3    H1  297   2.322   1.694   2.040
  111TIP3    H2  298   2.468   1.661   2.015
  112TIP3   OH2  299   7.202   1.640   1.687
  112TIP3    H1  300   7.161   1.725   1.699
  112TIP3    H2  301   7.246   1.645   1.602
  113TIP3   OH2  302   2.627   0.770   5.857
  113TIP3    H1  303   2.594   0.819   5.933
  113TIP3    H2  304   2.567   0.794   5.786
  114TIP3   OH2  305   5.458   5.407   0.760
  114TIP3    H1  306   5.446   5.381   0.668
  114TIP3    H2  307   5.387   5.469   0.776
  115TIP3   OH2  308   5.496   3.200   3.525
  115TIP3    H1  309   5.404   3.189   3.548
  115TIP3    H2  310   5.528   3.267   3.585
  116TIP3   OH2  311   3.501   2.401   2.743
  116TIP3    H1  312   3.571   2.380   2.805
  116TIP3    H2  313   3.527   2.484   2.704
  117TIP3   OH2  314   1.030   4.467   5.237
  117TIP3    H1  315   1.062   4.540   5.288
  117TIP3    H2  316   1.108   4.421   5.208
  118TIP3   OH2  317   0.860   6.334   3.564
  118TIP3    H1  318   0.905   6.253   3.587
  118TIP3    H2  319   0.811   6.357   3.643
  119TIP3   OH2  320   2.969   0.098   0.646
  119TIP3    H1  321   2.960   0.046   0.726
  119TIP3    H2  322   2.934   0.043   0.576
  120TIP3   OH2  323   3.370   1.635   4.336
  120TIP3    H1  324   3.299   1.686   4.297
  120TIP3    H2  325   3.383   1.674   4.423
  121TIP3   OH2  326   5.700   4.682   0.246
  121TIP3    H1  327   5.617   4.638   0.227
  121TIP3    H2  328   5.759   4.651   0.177
  122TIP3   OH2  329   7.158   6.639   4.742
  122TIP3    H1  330   7.114   6.721   4.764
  122TIP3    H2  331   7.122   6.575   4.803
  123TIP3   OH2  332   6.236   5.651   0.489
  123TIP3    H1  333   6.264   5.735   0.453
  123TIP3    H2  334   6.297   5.635   0.561
  124TIP3   OH2  335   6.351   2.244   1.263
  124TIP3    H1  336   6.421   2.282   1.316
  124TIP3    H2  337   6.395   2.207   1.187
  125TIP3   OH2  338   5.163   2.733   3.154
  125TIP3    H1  339   5.224   2.742   3.081
  125TIP3    H2  340   5.217   2.747   3.232
  126TIP3   OH2  341   3.527   6.073   1.327
  126TIP3    H1  342   3.492   6.057   1.414
  126TIP3    H2  343   3.527   5.988   1.284
  127TIP3   OH2  344   2.760   3.453   2.061
  127TIP3    H1  345   2.743   3.368   2.102
  127TIP3    H2  346   2.819   3.434   1.988
  128TIP3   OH2  347   0.835   6.067   4.444
  128TIP3    H1  348   0.753   6.020   4.460
  128TIP3    H2  349   0.814   6.159   4.459
  129TIP3   OH2  350   3.742   1.196   1.251
  129TIP3    H1  351   3.837   1.201   1.244
  129TIP3    H2  352   3.719   1.113   1.211
  130TIP3   OH2  353   6.417   2.797   2.821
  130TIP3    H1  354   6.471   2.826   2.747
  130TIP3    H2  355   6.457   2.839   2.897
  131TIP3   OH2  356   5.897   4.762   0.693
  131TIP3    H1  357   5.852   4.761   0.609
  131TIP3    H2  358   5.926   4.672   0.706
  132TIP3   OH2  359   3.869   2.409   0.216
  132TIP3    H1  360   3.959   2.377   0.210
  132TIP3    H2  361   3.856   2.459   0.136
  133TIP3   OH2  362   3.350   0.834   3.636
  133TIP3    H1  363   3.404   0.792   3.704
  133TIP3    H2  364   3.409   0.896   3.593
  134TIP3   OH2  365   5.312   6.743   3.371
  134TIP3    H1  366   5.240   6.754   3.433
  134TIP3    H2  367   5.387   6.717   3.425
  135TIP3   OH2  368   0.687   1.144   0.183
  135TIP3    H1  369   0.667   1.138   0.276
  135TIP3    H2  370   0.774   1.183   0.179
  136TIP3   OH2  371   1.176   5.543   2.984
  136TIP3    H1  372   1.186   5.570   3.075
  136TIP3    H2  373   1.082   5.547   2.968
  137TIP3   OH2  374   7.055   2.153   4.553
  137TIP3    H1  375   7.030   2.223   4.492
  137TIP3    H2  376   7.148   2.137   4.533
  138TIP3   OH2  377   3.054   0.553   0.116
  138TIP3    H1  378   3.052   0.505   0.199
  138TIP3    H2  379   2.991   0.625   0.129
  139TIP3   OH2  380   0.726   6.699   3.628
  139TIP3    H1  381   0.729   6.624   3.689
  139TIP3    H2  382   0.686   6.769   3.679
  140TIP3   OH2  383   3.640   1.052   2.296
  140TIP3    H1  384   3.598   1.023   2.378
  140TIP3    H2  385   3.665   1.143   2.313
  141TIP3   OH2  386   2.313   4.597   3.502
  141TIP3    H1  387   2.238   4.541   3.520
  141TIP3    H2  388   2.313   4.609   3.407
  142TIP3   OH2  389   5.564   1.971   5.715
  142TIP3    H1  390   5.471   1.955   5.728
  142TIP3    H2  391   5.607   1.932   5.790
  143TIP3   OH2  392   2.051   4.058   3.015
  143TIP3    H1  393   2.004   4.126   2.967
  143TIP3    H2  394   2.130   4.101   3.047
  144TIP3   OH2  395   1.227   5.534   1.084
  144TIP3    H1  396   1.168   5.463   1.106
  144TIP3    H2  397   1.187   5.576   1.008
  145TIP3   OH2  398   0.156   6.722   5.655
  145TIP3    H1  399   0.129   6.634   5.683
  145TIP3    H2  400   0.191   6.762   5.735
  146TIP3   OH2  401   2.055   3.674   4.322
  146TIP3    H1  402   2.080   3.607   4.385
  146TIP3    H2  403   1.965   3.651   4.298
  147TIP3   OH2  404   3.941   3.436   2.884
  147TIP3    H1  405   4.006   3.441   2.814
  147TIP3    H2  406   3.939   3.525   2.920
  148TIP3   OH2  407   1.570   4.389   2.053
  148TIP3    H1  408   1.569   4.303   2.011
  148TIP3    H2  409   1.525   4.446   1.992
  149TIP3   OH2  410   6.023   1.349   1.861
  149TIP3    H1  411   6.038   1.280   1.926
  149TIP3    H2  412   5.934   1.378   1.877
  150TIP3   OH2  413   4.848   0.591   0.119
  150TIP3    H1  414   4.753   0.582   0.115
  150TIP3    H2  415   4.862   0.664   0.179
  151TIP3   OH2  416   2.667   1.687   0.317
  151TIP3    H1  417   2.602   1.673   0.386
  151TIP3    H2  418   2.625   1.747   0.256
  152TIP3   OH2  419   5.893   0.590   3.563
  152TIP3    H1  420   5.981   0.565   3.592
  152TIP3    H2  421   5.886   0.553   3.475
  153TIP3   OH2  422   5.837   3.890   3.084
  153TIP3    H1  423   5.788   3.818   3.124
  153TIP3    H2  424   5.926   3.881   3.119
  154TIP3   OH2  425   5.307   5.317   4.771
  154TIP3    H1  426   5.322   5.286   4.681
  154TIP3    H2  427   5.285   5.409   4.761
  155TIP3   OH2  428   0.865   1.636   1.378
  155TIP3    H1  429   0.828   1.723   1.391
  155TIP3    H2  430   0.791   1.580   1.356
  156TIP3   OH2  431   2.192   4.738   1.810
  156TIP3    H1  432   2.109   4.705   1.844
  156TIP3    H2  433   2.204   4.822   1.854
  157TIP3   OH2  434   5.103   2.543   3.562
  157TIP3    H1  435   5.133   2.520   3.650
  157TIP3    H2  436   5.020   2.587   3.575
  158TIP3   OH2  437   3.592   6.393   1.063
  158TIP3    H1  438   3.627   6.471   1.107
  158TIP3    H2  439   3.629   6.396   0.975
  159TIP3   OH2  440   3.623   0.707   4.584
  159TIP3    H1  441   3.645   0.630   4.636
  159TIP3    H2  442   3.634   0.781   4.645
  160TIP3   OH2  443   6.803   4.313   1.974
  160TIP3    H1  444   6.850   4.388   2.010
  160TIP3    H2  445   6.748   4.283   2.046
  161TIP3   OH2  446   3.657   1.715   3.920
  161TIP3    H1  447   3.611   1.672   3.993
  161TIP3    H2  448   3.588   1.762   3.873
  162TIP3   OH2  449   0.625   1.289   5.656
  162TIP3    H1  450   0.649   1.240   5.734
  162TIP3    H2  451   0.592   1.372   5.689
  163TIP3   OH2  452   2.249   4.109   0.457
  163TIP3    H1  453   2.327   4.165   0.452
  163TIP3    H2  454   2.190   4.155   0.517
  164TIP3   OH2  455   2.350   5.878   2.159
  164TIP3    H1  456   2.364   5.784   2.154
  164TIP3    H2  457   2.405   5.906   2.232
  165TIP3   OH2  458   3.092   5.953   0.492
  165TIP3    H1  459   3.048   5.972   0.575
  165TIP3    H2  460   3.113   5.860   0.497
  166TIP3   OH2  461   6.249   4.726   3.215
  166TIP3    H1  462   6.317   4.720   3.282
  166TIP3    H2  463   6.283   4.675   3.142
  167TIP3   OH2  464   1.523   1.653   3.097
  167TIP3    H1  465   1.516   1.749   3.101
  167TIP3    H2  466   1.603   1.633   3.146
  168TIP3   OH2  467   5.435   3.557   0.604
  168TIP3    H1  468   5.415   3.521   0.691
  168TIP3    H2  469   5.530   3.567   0.604
  169TIP3   OH2  470   6.477   4.158   1.985
  169TIP3    H1  471   6.444   4.068   1.987
  169TIP3    H2  472   6.411   4.209   2.031
  170TIP3   OH2  473   4.441   0.562   5.245
  170TIP3    H1  474   4.517   0.607   5.208
  170TIP3    H2  475   4.366   0.616   5.219
  171TIP3   OH2  476   1.873   1.440   2.806
  171TIP3    H1  477   1.858   1.442   2.711
  171TIP3    H2  478   1.962   1.407   2.815
  172TIP3   OH2  479   1.472   4.381   5.403
  172TIP3    H1  480   1.401   4.437   5.371
  172TIP3    H2  481   1.542   4.441   5.426
  173TIP3   OH2  482   3.332   2.382   5.221
  173TIP3    H1  483   3.250   2.332   5.222
  173TIP3    H2  484   3.350   2.401   5.313
  174TIP3   OH2  485   4.506   1.300   0.194
  174TIP3    H1  486   4.546   1.382   0.165
  174TIP3    H2  487   4.445   1.278   0.124
  175TIP3   OH2  488   4.599   1.234   2.172
  175TIP3    H1  489   4.659   1.306   2.152
  175TIP3    H2  490   4.514   1.277   2.186
  176TIP3   OH2  491   1.955   0.495   0.517
  176TIP3    H1  492   1.973   0.580   0.558
  176TIP3    H2  493   2.023   0.437   0.551
  177TIP3   OH2  494   5.399   1.613   2.963
  177TIP3    H1  495   5.480   1.589   2.920
  177TIP3    H2  496   5.395   1.557   3.040
  178TIP3   OH2  497   5.944   4.670   5.508
  178TIP3    H1  498   6.019   4.614   5.486
  178TIP3    H2  499   5.909   4.633   5.589
  179TIP3   OH2  500   6.274   1.644   2.273
  179TIP3    H1  501   6.282   1.549   2.263
  179TIP3    H2  502   6.349   1.668   2.327
  180TIP3   OH2  503   6.299   2.851   0.073
  180TIP3    H1  504   6.340   2.914   0.131
  180TIP3    H2  505   6.206   2.855   0.095
  181TIP3   OH2  506   1.810   6.311   5.556
  181TIP3    H1  507   1.759   6.268   5.625
  181TIP3    H2  508   1.748   6.318   5.482
  182TIP3   OH2  509   6.554   0.062   0.783
  182TIP3    H1  510   6.475   0.090   0.736
  182TIP3    H2  511   6.626   0.086   0.725
  183TIP3   OH2  512   5.009   0.038   1.954
  183TIP3    H1  513   5.066   0.023   1.879
  183TIP3    H2  514   5.005  -0.047   1.998
  184TIP3   OH2  515   2.006   5.058   3.400
  184TIP3    H1  516   2.005   5.093   3.489
  184TIP3    H2  517   1.914   5.060   3.372
  185TIP3   OH2  518   1.118   4.582   2.566
  185TIP3    H1  519   1.210   4.564   2.585
  185TIP3    H2  520   1.070   4.551   2.643
  186TIP3   OH2  521   0.807   4.506   1.098
  186TIP3    H1  522   0.899   4.489   1.077
  186TIP3    H2  523   0.796   4.600   1.082
  187TIP3   OH2  524   5.081   2.682   1.984
  187TIP3    H1  525   5.016   2.732   1.935
  187TIP3    H2  526   5.102   2.737   2.060
  188TIP3   OH2  527   1.894   5.416   5.410
  188TIP3    H1  528   1.819   5.475   5.415
  188TIP3    H2  529   1.887   5.375   5.323
  189TIP3   OH2  530   5.802   2.869   3.104
  189TIP3    H1  531   5.857   2.938   3.066
  189TIP3    H2  532   5.760   2.911   3.179
  190TIP3   OH2  533   5.390   6.046   2.896
  190TIP3    H1  534   5.450   6.119   2.910
  190TIP3    H2  535   5.345   6.067   2.814
  191TIP3   OH2  536   1.475   6.413   0.382
  191TIP3    H1  537   1.485   6.402   0.476
  191TIP3    H2  538   1.392   6.460   0.372
  192TIP3   OH2  539   6.005   3.577   1.522
  192TIP3    H1  540   6.067   3.646   1.546
  192TIP3    H2  541   6.055   3.495   1.531
  193TIP3   OH2  542   1.535   2.726   3.586
  193TIP3    H1  543   1.517   2.681   3.503
  193TIP3    H2  544   1.583   2.663   3.639
  194TIP3   OH2  545   3.712   5.034   3.391
  194TIP3    H1  546   3.697   4.944   3.421
  194TIP3    H2  547   3.791   5.027   3.337
  195TIP3   OH2  548   5.504   3.079   5.359
  195TIP3    H1  549   5.440   3.053   5.425
  195TIP3    H2  550   5.584   3.094   5.408
  196TIP3   OH2  551   4.558   4.800   1.282
  196TIP3    H1  552   4.593   4.743   1.351
  196TIP3    H2  553   4.632   4.813   1.222
  197TIP3   OH2  554   4.879   3.371   5.702
  197TIP3    H1  555   4.851   3.338   5.616
  197TIP3    H2  556   4.930   3.449   5.681
  198TIP3   OH2  557   6.623   5.773   2.167
  198TIP3    H1  558   6.702   5.823   2.184
  198TIP3    H2  559   6.553   5.826   2.206
  199TIP3   OH2  560   2.800   1.305   2.891
  199TIP3    H1  561   2.792   1.327   2.984
  199TIP3    H2  562   2.756   1.221   2.882
  200TIP3   OH2  563   6.537   5.499   3.944
  200TIP3    H1  564   6.503   5.422   3.991
  200TIP3    H2  565   6.620   5.519   3.986
  201TIP3   OH2  566   5.999   4.308   3.123
  201TIP3    H1  567   6.028   4.224   3.158
  201TIP3    H2  568   6.048   4.318   3.041
  202TIP3   OH2  569   3.571   0.095   3.211
  202TIP3    H1  570   3.598   0.077   3.122
  202TIP3    H2  571   3.483   0.133   3.203
  203TIP3   OH2  572   2.092   5.560   3.371
  203TIP3    H1  573   2.183   5.530   3.373
  203TIP3    H2  574   2.091   5.635   3.430
  204TIP3   OH2  575   1.438   2.261   3.396
  204TIP3    H1  576   1.363   2.321   3.400
  204TIP3    H2  577   1.419   2.204   3.322
  205TIP3   OH2  578   4.748   6.185   0.796
  205TIP3    H1  579   4.668   6.154   0.752
  205TIP3    H2  580   4.727   6.179   0.890
  206TIP3   OH2  581   3.227   0.233   1.150
  206TIP3    H1  582   3.166   0.189   1.091
  206TIP3    H2  583   3.235   0.174   1.224
  207TIP3   OH2  584   7.190   5.658   4.077
  207TIP3    H1  585   7.176   5.615   4.162
  207TIP3    H2  586   7.223   5.589   4.020
  208TIP3   OH2  587   1.992   0.271   3.328
  208TIP3    H1  588   2.044   0.324   3.267
  208TIP3    H2  589   2.048   0.197   3.351
  209TIP3   OH2  590   2.472   3.010   2.944
  209TIP3    H1  591   2.513   2.927   2.919
  209TIP3    H2  592   2.485   3.015   3.038
  210TIP3   OH2  593   1.348   0.219   5.758
  210TIP3    H1  594   1.285   0.253   5.695
  210TIP3    H2  595   1.310   0.136   5.788
  211TIP3   OH2  596   7.099   5.001   0.315
  211TIP3    H1  597   7.095   4.925   0.373
  211TIP3    H2  598   7.028   5.057   0.345
  212TIP3   OH2  599   3.424   4.471   3.952
  212TIP3    H1  600   3.415   4.486   3.857
  212TIP3    H2  601   3.466   4.551   3.985
  213TIP3   OH2  602   5.798   0.178   1.484
  213TIP3    H1  603   5.815   0.119   1.410
  213TIP3    H2  604   5.810   0.266   1.448
  214TIP3   OH2  605   2.857   0.746   2.056
  214TIP3    H1  606   2.841   0.652   2.050
  214TIP3    H2  607   2.939   0.753   2.104
  215TIP3   OH2  608   0.159   1.950   1.356
  215TIP3    H1  609   0.167   1.921   1.446
  215TIP3    H2  610   0.249   1.952   1.323
  216TIP3   OH2  611   5.847   1.568   5.747
  216TIP3    H1  612   5.757   1.534   5.745
  216TIP3    H2  613   5.895   1.515   5.684
  217TIP3   OH2  614   6.906   6.468   0.591
  217TIP3    H1  615   6.997   6.439   0.595
  217TIP3    H2  616   6.911   6.558   0.559
  218TIP3   OH2  617   2.920   5.967   0.151
  218TIP3    H1  618   2.925   5.878   0.185
  218TIP3    H2  619   2.841   5.968   0.097
  219TIP3   OH2  620   5.577   5.325   3.163
  219TIP3    H1  621   5.603   5.247   3.211
  219TIP3    H2  622   5.580   5.395   3.227
  220TIP3   OH2  623   0.352   5.681   1.925
  220TIP3    H1  624   0.291   5.752   1.943
  220TIP3    H2  625   0.402   5.671   2.005
  221TIP3   OH2  626   6.204   5.645   5.786
  221TIP3    H1  627   6.297   5.662   5.801
  221TIP3    H2  628   6.195   5.550   5.800
  222TIP3   OH2  629   5.637   1.573   2.833
  222TIP3    H1  630   5.711   1.614   2.788
  222TIP3    H2  631   5.592   1.524   2.764
  223TIP3   OH2  632   0.102   1.426   0.843
  223TIP3    H1  633   0.163   1.397   0.775
  223TIP3    H2  634   0.156   1.479   0.902
  224TIP3   OH2  635   7.266   2.924   1.809
  224TIP3    H1  636   7.250   2.883   1.724
  224TIP3    H2  637   7.180   2.952   1.838
  225TIP3   OH2  638   0.079   4.436   1.607
  225TIP3    H1  639   0.076   4.340   1.609
  225TIP3    H2  640   0.157   4.456   1.556
  226TIP3   OH2  641   4.199   2.593   4.054
  226TIP3    H1  642   4.288   2.557   4.044
  226TIP3    H2  643   4.212   2.670   4.109
  227TIP3   OH2  644   4.278   3.620   5.052
  227TIP3    H1  645   4.209   3.596   5.115
  227TIP3    H2  646   4.235   3.678   4.990
  228TIP3   OH2  647   4.152   4.375   3.272
  228TIP3    H1  648   4.177   4.400   3.361
  228TIP3    H2  649   4.168   4.281   3.268
  229TIP3   OH2  650   6.206   1.752   5.161
  229TIP3    H1  651   6.241   1.664   5.149
  229TIP3    H2  652   6.133   1.741   5.222
  230TIP3   OH2  653   1.454   2.490   0.767
  230TIP3    H1  654   1.377   2.443   0.798
  230TIP3    H2  655   1.494   2.527   0.846
  231TIP3   OH2  656   5.432   2.292   3.922
  231TIP3    H1  657   5.474   2.238   3.989
  231TIP3    H2  658   5.494   2.363   3.906
  232TIP3   OH2  659   1.346   2.846   3.922
  232TIP3    H1  660   1.411   2.776   3.918
  232TIP3    H2  661   1.262   2.801   3.922
  233TIP3   OH2  662   7.067   6.132   4.932
  233TIP3    H1  663   7.155   6.113   4.901
  233TIP3    H2  664   7.010   6.097   4.863
  234TIP3   OH2  665   5.911   4.007   1.323
  234TIP3    H1  666   5.937   4.080   1.379
  234TIP3    H2  667   5.992   3.976   1.284
  235TIP3   OH2  668   4.991   3.023   0.537
  235TIP3    H1  669   4.973   3.092   0.602
  235TIP3    H2  670   4.904   2.999   0.504
  236TIP3   OH2  671   5.192   2.774   4.158
  236TIP3    H1  672   5.265   2.745   4.102
  236TIP3    H2  673   5.170   2.697   4.210
  237TIP3   OH2  674   0.409   3.958   4.422
  237TIP3    H1  675   0.319   3.963   4.455
  237TIP3    H2  676   0.462   4.001   4.489
  238TIP3   OH2  677   1.416   0.515   3.127
  238TIP3    H1  678   1.477   0.585   3.152
  238TIP3    H2  679   1.332   0.560   3.113
  239TIP3   OH2  680   4.340   2.472   0.685
  239TIP3    H1  681   4.321   2.511   0.771
  239TIP3    H2  682   4.310   2.536   0.622
  240TIP3   OH2  683   5.294   6.735   0.776
  240TIP3    H1  684   5.245   6.771   0.702
  240TIP3    H2  685   5.380   6.713   0.739
  241TIP3   OH2  686   5.338   1.658   4.401
  241TIP3    H1  687   5.320   1.706   4.482
  241TIP3    H2  688   5.251   1.635   4.367
  242TIP3   OH2  689   0.471   0.292   1.952
  242TIP3    H1  690   0.376   0.282   1.940
  242TIP3    H2  691   0.498   0.348   1.879
  243TIP3   OH2  692   2.433   6.789   1.221
  243TIP3    H1  693   2.342   6.783   1.249
  243TIP3    H2  694   2.479   6.824   1.297
  244TIP3   OH2  695   1.148   0.496   5.844
  244TIP3    H1  696   1.205   0.453   5.909
  244TIP3    H2  697   1.120   0.424   5.787
  245TIP3   OH2  698   5.996   0.849   3.672
  245TIP3    H1  699   5.995   0.857   3.767
  245TIP3    H2  700   5.921   0.793   3.652
  246TIP3   OH2  701   1.457   0.507   5.673
  246TIP3    H1  702   1.496   0.578   5.724
  246TIP3    H2  703   1.446   0.435   5.735
  247TIP3   OH2  704   1.612   6.201   3.520
  247TIP3    H1  705   1.552   6.166   3.454
  247TIP3    H2  706   1.584   6.292   3.532
  248TIP3   OH2  707   3.297   1.621   0.490
  248TIP3    H1  708   3.359   1.693   0.477
  248TIP3    H2  709   3.347   1.542   0.468
  249TIP3   OH2  710   0.215   3.327   4.089
  249TIP3    H1  711   0.164   3.388   4.036
  249TIP3    H2  712   0.266   3.382   4.148
  250TIP3   OH2  713   5.812   0.943   4.676
  250TIP3    H1  714   5.872   1.018   4.679
  250TIP3    H2  715   5.866   0.869   4.702
  251TIP3   OH2  716   6.857   5.144   4.158
  251TIP3    H1  717   6.927   5.208   4.153
  251TIP3    H2  718   6.839   5.135   4.252
  252TIP3   OH2  719   6.646   4.337   2.462
  252TIP3    H1  720   6.683   4.280   2.395
  252TIP3    H2  721   6.584   4.392   2.415
  253TIP3   OH2  722   1.269   1.752   1.091
  253TIP3    H1  723   1.331   1.700   1.040
  253TIP3    H2  724   1.321   1.784   1.165
  254TIP3   OH2  725   1.673   6.672   2.644
  254TIP3    H1  726   1.710   6.584   2.639
  254TIP3    H2  727   1.645   6.691   2.555
  255TIP3   OH2  728   1.540   4.708   5.233
  255TIP3    H1  729   1.612   4.739   5.289
  255TIP3    H2  730   1.475   4.777   5.237
  256TIP3   OH2  731   3.526   2.189   4.448
  256TIP3    H1  732   3.517   2.169   4.541
  256TIP3    H2  733   3.582   2.266   4.445
  257TIP3   OH2  734   4.836   5.962   2.683
  257TIP3    H1  735   4.888   6.042   2.683
  257TIP3    H2  736   4.813   5.948   2.592
  258TIP3   OH2  737   0.120   2.708   3.573
  258TIP3    H1  738   0.079   2.660   3.644
  258TIP3    H2  739   0.192   2.755   3.614
  259TIP3   OH2  740   3.260   1.440   4.794
  259TIP3    H1  741   3.335   1.479   4.839
  259TIP3    H2  742   3.290   1.354   4.766
  260TIP3   OH2  743   2.441   5.702   1.418
  260TIP3    H1  744   2.511   5.645   1.449
  260TIP3    H2  745   2.481   5.789   1.414
  261TIP3   OH2  746   4.247   2.435   1.541
  261TIP3    H1  747   4.291   2.519   1.556
  261TIP3    H2  748   4.318   2.376   1.513
  262TIP3   OH2  749   1.115   5.124   0.682
  262TIP3    H1  750   1.151   5.059   0.742
  262TIP3    H2  751   1.172   5.120   0.605
  263TIP3   OH2  752   6.340   6.556   2.917
  263TIP3    H1  753   6.293   6.475   2.899
  263TIP3    H2  754   6.398   6.567   2.842
  264TIP3   OH2  755   3.491   0.801   0.670
  264TIP3    H1  756   3.460   0.710   0.671
  264TIP3    H2  757   3.415   0.852   0.642
  265TIP3   OH2  758   1.617   0.782   3.124
  265TIP3    H1  759   1.644   0.691   3.123
  265TIP3    H2  760   1.604   0.803   3.217
  266TIP3   OH2  761   5.701   2.962   3.370
  266TIP3    H1  762   5.668   2.880   3.408
  266TIP3    H2  763   5.715   3.019   3.445
  267TIP3   OH2  764   6.950   0.952   5.616
  267TIP3    H1  765   6.954   1.041   5.650
  267TIP3    H2  766   7.004   0.954   5.537
  268TIP3   OH2  767   1.548   1.353   5.061
  268TIP3    H1  768   1.608   1.361   5.135
  268TIP3    H2  769   1.595   1.299   4.998
  269TIP3   OH2  770   7.195   1.061   4.062
  269TIP3    H1  771   7.228   0.980   4.102
  269TIP3    H2  772   7.101   1.045   4.051
  270TIP3   OH2  773   3.373   2.870   3.076
  270TIP3    H1  774   3.441   2.896   3.013
  270TIP3    H2  775   3.420   2.823   3.144
  271TIP3   OH2  776   2.138   2.632   5.116
  271TIP3    H1  777   2.204   2.583   5.066
  271TIP3    H2  778   2.135   2.717   5.073
  272TIP3   OH2  779   1.227   4.967   0.900
  272TIP3    H1  780   1.311   5.012   0.910
  272TIP3    H2  781   1.219   4.912   0.978
  273TIP3   OH2  782   7.086   6.441   0.196
  273TIP3    H1  783   7.083   6.407   0.106
  273TIP3    H2  784   7.000   6.480   0.209
  274TIP3   OH2  785   3.029   5.214   3.406
  274TIP3    H1  786   3.043   5.137   3.351
  274TIP3    H2  787   2.948   5.254   3.372
  275TIP3   OH2  788   5.307   5.384   3.138
  275TIP3    H1  789   5.338   5.341   3.058
  275TIP3    H2  790   5.379   5.374   3.200
  276TIP3   OH2  791   1.299   4.358   1.342
  276TIP3    H1  792   1.313   4.302   1.265
  276TIP3    H2  793   1.241   4.307   1.398
  277TIP3   OH2  794   1.991   0.834   3.362
  277TIP3    H1  795   2.035   0.754   3.391
  277TIP3    H2  796   1.898   0.815   3.369
  278TIP3   OH2  797   4.848   4.147   4.735
  278TIP3    H1  798   4.755   4.135   4.715
  278TIP3    H2  799   4.852   4.157   4.830
  279TIP3   OH2  800   5.928   2.322   2.767
  279TIP3    H1  801   5.870   2.259   2.725
  279TIP3    H2  802   5.947   2.386   2.699
  280TIP3   OH2  803   1.285   3.714   1.451
  280TIP3    H1  804   1.261   3.793   1.402
  280TIP3    H2  805   1.270   3.738   1.543
  281TIP3   OH2  806   3.406   4.361   0.184
  281TIP3    H1  807   3.404   4.273   0.223
  281TIP3    H2  808   3.481   4.359   0.124
  282TIP3   OH2  809   5.102   5.379   3.622
  282TIP3    H1  810   5.028   5.432   3.650
  282TIP3    H2  811   5.129   5.332   3.701
  283TIP3   OH2  812   2.316   6.758   5.117
  283TIP3    H1  813   2.397   6.805   5.139
  283TIP3    H2  814   2.306   6.694   5.187
  284TIP3   OH2  815   4.798   1.127   2.374
  284TIP3    H1  816   4.722   1.070   2.361
  284TIP3    H2  817   4.768   1.214   2.347
  285TIP3   OH2  818   7.164   0.170   3.284
  285TIP3    H1  819   7.102   0.233   3.321
  285TIP3    H2  820   7.237   0.170   3.346
  286TIP3   OH2  821   6.615   3.353   3.842
  286TIP3    H1  822   6.630   3.429   3.786
  286TIP3    H2  823   6.683   3.290   3.817
  287TIP3   OH2  824   2.265   4.778   1.468
  287TIP3    H1  825   2.228   4.808   1.552
  287TIP3    H2  826   2.338   4.722   1.493
  288TIP3   OH2  827   5.219   0.462   1.272
  288TIP3    H1  828   5.204   0.500   1.186
  288TIP3    H2  829   5.276   0.525   1.317
  289TIP3   OH2  830   6.829   5.220   2.873
  289TIP3    H1  831   6.812   5.312   2.855
  289TIP3    H2  832   6.925   5.213   2.875
  290TIP3   OH2  833   5.527   5.642   5.704
  290TIP3    H1  834   5.592   5.580   5.737
  290TIP3    H2  835   5.542   5.722   5.755
  291TIP3   OH2  836   4.727   2.061   4.285
  291TIP3    H1  837   4.807   2.063   4.337
  291TIP3    H2  838   4.716   1.969   4.261
  292TIP3   OH2  839   7.045   6.475   1.904
  292TIP3    H1  840   6.963   6.445   1.865
  292TIP3    H2  841   7.064   6.558   1.860
  293TIP3   OH2  842   0.090   3.134   5.040
  293TIP3    H1  843   0.058   3.144   4.951
  293TIP3    H2  844   0.011   3.115   5.092
  294TIP3   OH2  845   5.318   1.515   5.574
  294TIP3    H1  846   5.362   1.595   5.547
  294TIP3    H2  847   5.304   1.525   5.668
  295TIP3   OH2  848   4.942   5.357   2.355
  295TIP3    H1  849   4.915   5.442   2.319
  295TIP3    H2  850   5.032   5.371   2.384
  296TIP3   OH2  851   6.448   5.138   0.658
  296TIP3    H1  852   6.450   5.078   0.583
  296TIP3    H2  853   6.367   5.188   0.647
  297TIP3   OH2  854   1.784   4.827   0.459
  297TIP3    H1  855   1.827   4.903   0.419
  297TIP3    H2  856   1.848   4.756   0.449
  298TIP3   OH2  857   3.766   3.501   3.337
  298TIP3    H1  858   3.819   3.521   3.414
  298TIP3    H2  859   3.714   3.425   3.363
  299TIP3   OH2  860   2.313   6.650   5.690
  299TIP3    H1  861   2.371   6.684   5.622
  299TIP3    H2  862   2.226   6.678   5.664
  300TIP3   OH2  863   1.098   4.603   5.505
  300TIP3    H1  864   1.049   4.566   5.579
  300TIP3    H2  865   1.085   4.698   5.514
  301TIP3   OH2  866   2.314   3.545   1.586
  301TIP3    H1  867   2.398   3.586   1.562
  301TIP3    H2  868   2.320   3.457   1.549
  302TIP3   OH2  869   3.478   4.089   4.417
  302TIP3    H1  870   3.462   4.108   4.325
  302TIP3    H2  871   3.455   3.996   4.426
  303TIP3   OH2  872   3.654   6.453   3.187
  303TIP3    H1  873   3.663   6.548   3.184
  303TIP3    H2  874   3.619   6.435   3.275
  304TIP3   OH2  875   3.716   2.693   3.348
  304TIP3    H1  876   3.702   2.737   3.265
  304TIP3    H2  877   3.716   2.763   3.413
  305TIP3   OH2  878   1.107   6.361   0.787
  305TIP3    H1  879   1.108   6.307   0.866
  305TIP3    H2  880   1.194   6.349   0.749
  306TIP3   OH2  881   4.210   0.935   2.491
  306TIP3    H1  882   4.160   0.878   2.550
  306TIP3    H2  883   4.260   0.874   2.437
  307TIP3   OH2  884   2.544   3.649   5.803
  307TIP3    H1  885   2.483   3.696   5.861
  307TIP3    H2  886   2.524   3.682   5.716
  308TIP3   OH2  887   6.929   3.485   2.973
  308TIP3    H1  888   6.933   3.548   3.045
  308TIP3    H2  889   6.869   3.417   3.005
  309TIP3   OH2  890   0.211   1.720   5.421
  309TIP3    H1  891   0.136   1.730   5.362
  309TIP3    H2  892   0.238   1.810   5.441
  310TIP3   OH2  893   2.742   4.690   0.443
  310TIP3    H1  894   2.781   4.606   0.417
  310TIP3    H2  895   2.692   4.718   0.366
  311TIP3   OH2  896   4.523   3.275   1.389
  311TIP3    H1  897   4.588   3.226   1.438
  311TIP3    H2  898   4.483   3.211   1.330
  312TIP3   OH2  899   5.382   1.035   2.333
  312TIP3    H1  900   5.321   1.104   2.358
  312TIP3    H2  901   5.368   1.023   2.240
  313TIP3   OH2  902   1.844   1.799   3.988
  313TIP3    H1  903   1.909   1.866   4.011
  313TIP3    H2  904   1.863   1.778   3.896
  314TIP3   OH2  905   1.693   2.917   0.802
  314TIP3    H1  906   1.692   3.013   0.808
  314TIP3    H2  907   1.634   2.888   0.871
  315TIP3   OH2  908   6.192   3.058   1.016
  315TIP3    H1  909   6.219   2.967   1.013
  315TIP3    H2  910   6.169   3.074   1.108
  316TIP3   OH2  911   3.097   5.910   4.536
  316TIP3    H1  912   3.160   5.930   4.605
  316TIP3    H2  913   3.058   5.826   4.564
  317TIP3   OH2  914   1.823   0.918   1.646
  317TIP3    H1  915   1.871   0.974   1.585
  317TIP3    H2  916   1.879   0.840   1.655
  318TIP3   OH2  917   7.085   2.305   4.779
  318TIP3    H1  918   7.058   2.233   4.724
  318TIP3    H2  919   7.067   2.384   4.728
  319TIP3   OH2  920   2.183   3.742   2.764
  319TIP3    H1  921   2.099   3.785   2.746
  319TIP3    H2  922   2.214   3.713   2.678
  320TIP3   OH2  923   2.035   6.269   3.116
  320TIP3    H1  924   2.121   6.302   3.141
  320TIP3    H2  925   1.994   6.241   3.197
  321TIP3   OH2  926   1.867   0.899   4.225
  321TIP3    H1  927   1.825   0.833   4.169
  321TIP3    H2  928   1.905   0.962   4.163
  322TIP3   OH2  929   4.165   3.641   4.314
  322TIP3    H1  930   4.117   3.684   4.243
  322TIP3    H2  931   4.159   3.702   4.387
  323TIP3   OH2  932   1.873   5.991   3.206
  323TIP3    H1  933   1.951   5.946   3.173
  323TIP3    H2  934   1.903   6.040   3.282
  324TIP3   OH2  935   5.329   2.856   4.477
  324TIP3    H1  936   5.330   2.902   4.561
  324TIP3    H2  937   5.342   2.924   4.412
  325TIP3   OH2  938   3.262   2.332   1.870
  325TIP3    H1  939   3.298   2.419   1.854
  325TIP3    H2  940   3.256   2.326   1.966
  326TIP3   OH2  941   6.155   6.673   2.633
  326TIP3    H1  942   6.244   6.639   2.645
  326TIP3    H2  943   6.118   6.619   2.563
  327TIP3   OH2  944   6.684   0.761   0.869
  327TIP3    H1  945   6.622   0.754   0.942
  327TIP3    H2  946   6.644   0.709   0.799
  328TIP3   OH2  947   5.452   0.277   4.845
  328TIP3    H1  948   5.420   0.268   4.935
  328TIP3    H2  949   5.547   0.288   4.855
  329TIP3   OH2  950   2.778   2.355   2.217
  329TIP3    H1  951   2.772   2.367   2.123
  329TIP3    H2  952   2.702   2.402   2.252
  330TIP3   OH2  953   6.200   6.097   0.109
  330TIP3    H1  954   6.256   6.158   0.157
  330TIP3    H2  955   6.185   6.138   0.024
  331TIP3   OH2  956   6.661   1.869   1.728
  331TIP3    H1  957   6.583   1.873   1.783
  331TIP3    H2  958   6.649   1.788   1.677
  332TIP3   OH2  959   3.085   2.709   2.369
  332TIP3    H1  960   3.079   2.755   2.285
  332TIP3    H2  961   3.065   2.618   2.347
  333TIP3   OH2  962   3.897   6.279   4.408
  333TIP3    H1  963   3.992   6.278   4.419
  333TIP3    H2  964   3.883   6.296   4.315
  334TIP3   OH2  965   4.444   1.881   3.162
  334TIP3    H1  966   4.460   1.807   3.103
  334TIP3    H2  967   4.497   1.862   3.240
  335TIP3   OH2  968   7.146   5.794   3.754
  335TIP3    H1  969   7.056   5.779   3.727
  335TIP3    H2  970   7.161   5.887   3.742
  336TIP3   OH2  971   7.184   2.217   3.570
  336TIP3    H1  972   7.151   2.298   3.533
  336TIP3    H2  973   7.138   2.148   3.521
  337TIP3   OH2  974   1.330   0.063   1.999
  337TIP3    H1  975   1.420   0.033   1.986
  337TIP3    H2  976   1.279  -0.018   2.002
  338TIP3   OH2  977   1.229   6.665   1.016
  338TIP3    H1  978   1.150   6.638   0.970
  338TIP3    H2  979   1.207   6.751   1.053
  339TIP3   OH2  980   5.335   6.611   4.821
  339TIP3    H1  981   5.403   6.678   4.828
  339TIP3    H2  982   5.371   6.546   4.761
  340TIP3   OH2  983   2.555   3.219   5.056
  340TIP3    H1  984   2.601   3.250   4.978
  340TIP3    H2  985   2.551   3.296   5.114
  341TIP3   OH2  986   2.322   5.482   3.041
  341TIP3    H1  987   2.341   5.389   3.047
  341TIP3    H2  988   2.235   5.491   3.081
  342TIP3   OH2  989   0.857   4.153   0.457
  342TIP3    H1  990   0.811   4.205   0.523
  342TIP3    H2  991   0.884   4.216   0.391
  343TIP3   OH2  992   1.085   3.659   4.958
  343TIP3    H1  993   1.106   3.702   4.876
  343TIP3    H2  994   1.139   3.579   4.958
  344TIP3   OH2  995   0.659   5.832   3.716
  344TIP3    H1  996   0.689   5.819   3.626
  344TIP3    H2  997   0.590   5.766   3.728
  345TIP3   OH2  998   6.818   1.893   0.985
  345TIP3    H1  999   6.829   1.971   0.931
  345TIP3    H2 1000   6.816   1.925   1.075
  346TIP3   OH2 1001   4.124   4.973   2.215
  346TIP3    H1 1002   4.199   4.941   2.165
  346TIP3    H2 1003   4.151   5.058   2.248
  347TIP3   OH2 1004   5.171   5.387   2.551
  347TIP3    H1 1005   5.193   5.444   2.625
  347TIP3    H2 1006   5.239   5.405   2.486
  348TIP3   OH2 1007  -0.006   1.721   0.842
  348TIP3    H1 1008  -0.054   1.688   0.766
  348TIP3    H2 1009   0.086   1.709   0.819
  349TIP3   OH2 1010   6.848   1.348   4.298
  349TIP3    H1 1011   6.778   1.359   4.233
  349TIP3    H2 1012   6.822   1.405   4.370
  350TIP3   OH2 1013   6.139   3.107   1.772
  350TIP3    H1 1014   6.153   3.032   1.714
  350TIP3    H2 1015   6.179   3.081   1.855
  351TIP3   OH2 1016   4.066   3.462   2.361
  351TIP3    H1 1017   4.001   3.526   2.332
  351TIP3    H2 1018   4.032   3.430   2.445
  352TIP3   OH2 1019   3.902   2.001   1.160
  352TIP3    H1 1020   3.903   1.946   1.239
  352TIP3    H2 1021   3.882   2.089   1.192
  353TIP3   OH2 1022   0.227   0.051   5.179
  353TIP3    H1 1023   0.156   0.043   5.243
  353TIP3    H2 1024   0.243  -0.039   5.150
  354TIP3   OH2 1025   2.266   5.046   5.802
  354TIP3    H1 1026   2.251   4.983   5.873
  354TIP3    H2 1027   2.350   5.022   5.765
  355TIP3   OH2 1028   3.707   2.434   2.998
  355TIP3    H1 1029   3.650   2.425   3.074
  355TIP3    H2 1030   3.722   2.345   2.968
  356TIP3   OH2 1031   4.281   1.159   3.156
  356TIP3    H1 1032   4.316   1.248   3.147
  356TIP3    H2 1033   4.299   1.135   3.247
  357TIP3   OH2 1034   6.806   3.143   0.102
  357TIP3    H1 1035   6.841   3.054   0.105
  357TIP3    H2 1036   6.882   3.200   0.103
  358TIP3   OH2 1037   2.716   3.664   2.213
  358TIP3    H1 1038   2.766   3.655   2.293
  358TIP3    H2 1039   2.746   3.593   2.157
  359TIP3   OH2 1040   4.811   0.427   2.286
  359TIP3    H1 1041   4.732   0.377   2.266
  359TIP3    H2 1042   4.877   0.361   2.306
  360TIP3   OH2 1043   0.935   5.402   2.819
  360TIP3    H1 1044   0.875   5.330   2.842
  360TIP3    H2 1045   1.020   5.359   2.810
  361TIP3   OH2 1046   2.885   4.765   2.337
  361TIP3    H1 1047   2.898   4.772   2.243
  361TIP3    H2 1048   2.966   4.801   2.375
  362TIP3   OH2 1049   0.198   3.034   2.703
  362TIP3    H1 1050   0.119   3.086   2.718
  362TIP3    H2 1051   0.180   2.985   2.623
  363TIP3   OH2 1052   5.751   6.309   4.858
  363TIP3    H1 1053   5.773   6.349   4.774
  363TIP3    H2 1054   5.835   6.298   4.902
  364TIP3   OH2 1055   4.134   0.993   4.874
  364TIP3    H1 1056   4.156   1.039   4.792
  364TIP3    H2 1057   4.078   1.053   4.921
  365TIP3   OH2 1058   3.122   5.871   4.057
  365TIP3    H1 1059   3.063   5.866   4.132
  365TIP3    H2 1060   3.182   5.942   4.078
  366TIP3   OH2 1061   5.941   2.424   3.451
  366TIP3    H1 1062   5.941   2.445   3.358
  366TIP3    H2 1063   5.988   2.497   3.492
  367TIP3   OH2 1064   4.040   5.484   0.304
  367TIP3    H1 1065   4.009   5.574   0.302
  367TIP3    H2 1066   4.051   5.461   0.211
  368TIP3   OH2 1067   1.757   4.032   0.172
  368TIP3    H1 1068   1.765   3.966   0.103
  368TIP3    H2 1069   1.794   4.111   0.135
  369TIP3   OH2 1070   1.318   6.237   2.891
  369TIP3    H1 1071   1.375   6.308   2.862
  369TIP3    H2 1072   1.286   6.198   2.810
  370TIP3   OH2 1073   6.313   3.500   3.189
  370TIP3    H1 1074   6.290   3.457   3.106
  370TIP3    H2 1075   6.404   3.527   3.177
  371TIP3   OH2 1076   6.998   3.347   1.098
  371TIP3    H1 1077   7.049   3.417   1.057
  371TIP3    H2 1078   6.971   3.291   1.025
  372TIP3   OH2 1079   5.156   5.246   1.180
  372TIP3    H1 1080   5.107   5.286   1.252
  372TIP3    H2 1081   5.108   5.270   1.102
  373TIP3   OH2 1082   3.069   6.167   5.160
  373TIP3    H1 1083   3.018   6.213   5.093
  373TIP3    H2 1084   3.098   6.087   5.116
  374TIP3   OH2 1085   6.402   5.970   0.456
  374TIP3    H1 1086   6.433   5.924   0.378
  374TIP3    H2 1087   6.425   6.062   0.440
  375TIP3   OH2 1088   1.193   5.805   4.716
  375TIP3    H1 1089   1.114   5.774   4.761
  375TIP3    H2 1090   1.198   5.752   4.637
  376TIP3   OH2 1091   1.756   2.005   0.389
  376TIP3    H1 1092   1.727   1.997   0.298
  376TIP3    H2 1093   1.826   2.070   0.387
  377TIP3   OH2 1094   1.062   6.005   4.309
  377TIP3    H1 1095   0.988   6.025   4.366
  377TIP3    H2 1096   1.065   5.909   4.307
  378TIP3   OH2 1097   2.641   0.297   4.023
  378TIP3    H1 1098   2.686   0.216   4.048
  378TIP3    H2 1099   2.573   0.309   4.089
  379TIP3   OH2 1100   5.458   2.831   0.924
  379TIP3    H1 1101   5.521   2.832   0.852
  379TIP3    H2 1102   5.381   2.875   0.888
  380TIP3   OH2 1103   6.670   3.688   4.200
  380TIP3    H1 1104   6.760   3.673   4.171
  380TIP3    H2 1105   6.625   3.723   4.123
  381TIP3   OH2 1106   3.156   6.566   5.213
  381TIP3    H1 1107   3.251   6.571   5.202
  381TIP3    H2 1108   3.143   6.568   5.308
  382TIP3   OH2 1109   5.099   4.294   4.199
  382TIP3    H1 1110   5.102   4.289   4.295
  382TIP3    H2 1111   5.191   4.290   4.172
  383TIP3   OH2 1112   6.908   4.005   3.607
  383TIP3    H1 1113   6.917   4.086   3.657
  383TIP3    H2 1114   6.815   4.001   3.584
  384TIP3   OH2 1115   0.551   5.515   3.316
  384TIP3    H1 1116   0.530   5.490   3.406
  384TIP3    H2 1117   0.533   5.609   3.312
  385TIP3   OH2 1118   5.161   3.076   0.091
  385TIP3    H1 1119   5.145   3.116   0.176
  385TIP3    H2 1120   5.220   3.136   0.046
  386TIP3   OH2 1121   2.270   5.598   3.720
  386TIP3    H1 1122   2.181   5.612   3.686
  386TIP3    H2 1123   2.323   5.666   3.678
  387TIP3   OH2 1124   5.099   3.063   3.976
  387TIP3    H1 1125   5.174   3.019   3.937
  387TIP3    H2 1126   5.022   3.014   3.945
  388TIP3   OH2 1127   2.713   2.473   2.618
  388TIP3    H1 1128   2.764   2.546   2.585
  388TIP3    H2 1129   2.750   2.396   2.574
  389TIP3   OH2 1130   7.182   3.505   3.635
  389TIP3    H1 1131   7.203   3.542   3.720
  389TIP3    H2 1132   7.208   3.573   3.572
  390TIP3   OH2 1133   2.377   5.412   4.137
  390TIP3    H1 1134   2.351   5.331   4.092
  390TIP3    H2 1135   2.352   5.398   4.228
  391TIP3   OH2 1136   1.979   3.343   2.250
  391TIP3    H1 1137   1.910   3.361   2.314
  391TIP3    H2 1138   1.975   3.416   2.189
  392TIP3   OH2 1139   4.541   1.598   0.396
  392TIP3    H1 1140   4.453   1.564   0.378
  392TIP3    H2 1141   4.590   1.584   0.315
  393TIP3   OH2 1142   0.856   4.515   2.710
  393TIP3    H1 1143   0.811   4.586   2.754
  393TIP3    H2 1144   0.794   4.441   2.714
  394TIP3   OH2 1145   1.379   5.173   4.036
  394TIP3    H1 1146   1.322   5.096   4.026
  394TIP3    H2 1147   1.457   5.140   4.080
  395TIP3   OH2 1148   5.889   3.568   4.883
  395TIP3    H1 1149   5.801   3.533   4.896
  395TIP3    H2 1150   5.888   3.603   4.794
  396TIP3   OH2 1151   3.204   0.051   4.248
  396TIP3    H1 1152   3.111   0.026   4.247
  396TIP3    H2 1153   3.217   0.095   4.164
  397TIP3   OH2 1154   6.323   1.051   3.134
  397TIP3    H1 1155   6.235   1.059   3.100
  397TIP3    H2 1156   6.312   1.044   3.229
  398TIP3   OH2 1157   4.163   4.793   5.509
  398TIP3    H1 1158   4.220   4.725   5.474
  398TIP3    H2 1159   4.156   4.773   5.602
  399TIP3   OH2 1160   5.369   1.462   3.182
  399TIP3    H1 1161   5.286   1.433   3.219
  399TIP3    H2 1162   5.436   1.421   3.236
  400TIP3   OH2 1163   2.344   2.419   5.779
  400TIP3    H1 1164   2.344   2.476   5.856
  400TIP3    H2 1165   2.287   2.346   5.802
  401TIP3   OH2 1166   4.493   5.244   5.199
  401TIP3    H1 1167   4.566   5.268   5.142
  401TIP3    H2 1168   4.525   5.167   5.248
  402TIP3   OH2 1169   1.245   6.720   3.727
  402TIP3    H1 1170   1.217   6.724   3.819
  402TIP3    H2 1171   1.174   6.675   3.682
  403TIP3   OH2 1172   5.918   5.255   5.482
  403TIP3    H1 1173   5.868   5.336   5.492
  403TIP3    H2 1174   5.958   5.263   5.395
  404TIP3   OH2 1175   6.122   5.747   2.662
  404TIP3    H1 1176   6.061   5.709   2.725
  404TIP3    H2 1177   6.111   5.694   2.583
  405TIP3   OH2 1178   4.187   3.969   5.426
  405TIP3    H1 1179   4.139   3.971   5.509
  405TIP3    H2 1180   4.216   3.878   5.417
  406TIP3   OH2 1181   0.660   3.510   2.941
  406TIP3    H1 1182   0.571   3.476   2.942
  406TIP3    H2 1183   0.715   3.432   2.952
  407TIP3   OH2 1184   6.920   2.477   3.308
  407TIP3    H1 1185   6.828   2.478   3.335
  407TIP3    H2 1186   6.963   2.540   3.366
  408TIP3   OH2 1187   7.165   3.992   5.499
  408TIP3    H1 1188   7.235   3.986   5.433
  408TIP3    H2 1189   7.211   3.986   5.583
  409TIP3   OH2 1190   4.758   2.424   4.286
  409TIP3    H1 1191   4.797   2.427   4.373
  409TIP3    H2 1192   4.691   2.492   4.288
  410TIP3   OH2 1193   2.817   4.776   1.078
  410TIP3    H1 1194   2.833   4.686   1.049
  410TIP3    H2 1195   2.837   4.775   1.171
  411TIP3   OH2 1196   5.812   2.154   4.981
  411TIP3    H1 1197   5.722   2.129   4.960
  411TIP3    H2 1198   5.858   2.150   4.898
  412TIP3   OH2 1199   3.770   0.101   2.672
  412TIP3    H1 1200   3.774   0.031   2.737
  412TIP3    H2 1201   3.784   0.057   2.588
  413TIP3   OH2 1202   3.531   0.233   2.120
  413TIP3    H1 1203   3.594   0.188   2.064
  413TIP3    H2 1204   3.501   0.307   2.067
  414TIP3   OH2 1205   1.006   3.809   3.032
  414TIP3    H1 1206   0.982   3.894   3.070
  414TIP3    H2 1207   0.980   3.745   3.098
  415TIP3   OH2 1208   1.544   4.056   2.461
  415TIP3    H1 1209   1.558   4.150   2.457
  415TIP3    H2 1210   1.626   4.018   2.432
  416TIP3   OH2 1211   1.777   1.506   4.833
  416TIP3    H1 1212   1.796   1.527   4.741
  416TIP3    H2 1213   1.862   1.488   4.872
  417TIP3   OH2 1214   3.875   3.603   3.552
  417TIP3    H1 1215   3.943   3.571   3.611
  417TIP3    H2 1216   3.834   3.675   3.600
  418TIP3   OH2 1217   5.079   0.798   5.350
  418TIP3    H1 1218   5.049   0.885   5.324
  418TIP3    H2 1219   5.139   0.771   5.280
  419TIP3   OH2 1220   5.233   6.095   3.830
  419TIP3    H1 1221   5.154   6.098   3.882
  419TIP3    H2 1222   5.291   6.034   3.877
  420TIP3   OH2 1223   4.852   0.780   4.253
  420TIP3    H1 1224   4.786   0.832   4.208
  420TIP3    H2 1225   4.866   0.826   4.336
  421TIP3   OH2 1226   0.243   5.021   4.425
  421TIP3    H1 1227   0.204   4.943   4.463
  421TIP3    H2 1228   0.191   5.094   4.461
  422TIP3   OH2 1229   0.189   0.669   1.107
  422TIP3    H1 1230   0.176   0.574   1.106
  422TIP3    H2 1231   0.100   0.704   1.116
  423TIP3   OH2 1232   4.377   2.531   1.268
  423TIP3    H1 1233   4.383   2.626   1.278
  423TIP3    H2 1234   4.376   2.497   1.357
  424TIP3   OH2 1235   1.112   5.087   4.268
  424TIP3    H1 1236   1.190   5.123   4.311
  424TIP3    H2 1237   1.145   5.012   4.218
  425TIP3   OH2 1238   6.869   4.767   4.225
  425TIP3    H1 1239   6.908   4.801   4.306
  425TIP3    H2 1240   6.780   4.743   4.249
  426TIP3   OH2 1241   2.040   4.221   5.064
  426TIP3    H1 1242   1.991   4.147   5.099
  426TIP3    H2 1243   1.984   4.257   4.995
  427TIP3   OH2 1244   5.552   5.504   1.849
  427TIP3    H1 1245   5.488   5.572   1.827
  427TIP3    H2 1246   5.505   5.444   1.907
  428TIP3   OH2 1247   1.317   2.093   0.619
  428TIP3    H1 1248   1.228   2.125   0.609
  428TIP3    H2 1249   1.368   2.171   0.643
  429TIP3   OH2 1250   2.809   5.866   0.632
  429TIP3    H1 1251   2.718   5.859   0.602
  429TIP3    H2 1252   2.842   5.777   0.628
  430TIP3   OH2 1253   1.706   2.932   3.585
  430TIP3    H1 1254   1.796   2.900   3.593
  430TIP3    H2 1255   1.654   2.852   3.570
  431TIP3   OH2 1256   3.327   0.476   3.857
  431TIP3    H1 1257   3.237   0.501   3.835
  431TIP3    H2 1258   3.366   0.556   3.893
  432TIP3   OH2 1259   2.294   4.042   0.779
  432TIP3    H1 1260   2.307   3.987   0.702
  432TIP3    H2 1261   2.251   3.985   0.842
  433TIP3   OH2 1262   3.953   3.176   3.697
  433TIP3    H1 1263   4.007   3.127   3.635
  433TIP3    H2 1264   3.922   3.252   3.647
  434TIP3   OH2 1265   6.975   6.704   3.759
  434TIP3    H1 1266   6.995   6.793   3.788
  434TIP3    H2 1267   6.948   6.714   3.668
  435TIP3   OH2 1268   4.360   0.284   1.680
  435TIP3    H1 1269   4.431   0.252   1.623
  435TIP3    H2 1270   4.291   0.219   1.670
  436TIP3   OH2 1271   2.109   6.097   4.904
  436TIP3    H1 1272   2.131   6.183   4.938
  436TIP3    H2 1273   2.089   6.113   4.811
  437TIP3   OH2 1274   3.949   1.539   5.674
  437TIP3    H1 1275   4.002   1.461   5.656
  437TIP3    H2 1276   3.953   1.590   5.593
  438TIP3   OH2 1277   2.441   2.559   0.482
  438TIP3    H1 1278   2.413   2.624   0.547
  438TIP3    H2 1279   2.535   2.577   0.470
  439TIP3   OH2 1280   0.165   5.878   4.726
  439TIP3    H1 1281   0.170   5.906   4.817
  439TIP3    H2 1282   0.094   5.814   4.724
  440TIP3   OH2 1283   2.015   0.312   1.406
  440TIP3    H1 1284   1.940   0.365   1.379
  440TIP3    H2 1285   2.040   0.349   1.491
  441TIP3   OH2 1286   4.265   0.131   5.429
  441TIP3    H1 1287   4.190   0.129   5.370
  441TIP3    H2 1288   4.261   0.048   5.477
  442TIP3   OH2 1289   4.020   6.218   1.348
  442TIP3    H1 1290   3.972   6.151   1.299
  442TIP3    H2 1291   3.996   6.201   1.440
  443TIP3   OH2 1292   3.727   0.816   4.341
  443TIP3    H1 1293   3.667   0.793   4.413
  443TIP3    H2 1294   3.809   0.839   4.385
  444TIP3   OH2 1295   0.174   2.424   5.333
  444TIP3    H1 1296   0.249   2.440   5.275
  444TIP3    H2 1297   0.100   2.413   5.274
  445TIP3   OH2 1298   4.059   3.125   2.821
  445TIP3    H1 1299   3.978   3.146   2.866
  445TIP3    H2 1300   4.120   3.194   2.848
  446TIP3   OH2 1301   5.088   4.344   3.655
  446TIP3    H1 1302   5.141   4.304   3.724
  446TIP3    H2 1303   5.146   4.347   3.579
  447TIP3   OH2 1304   0.856   5.834   2.933
  447TIP3    H1 1305   0.943   5.860   2.904
  447TIP3    H2 1306   0.822   5.778   2.862
  448TIP3   OH2 1307   2.421   1.064   3.786
  448TIP3    H1 1308   2.476   1.111   3.723
  448TIP3    H2 1309   2.478   0.995   3.821
  449TIP3   OH2 1310   1.860   5.010   2.650
  449TIP3    H1 1311   1.925   4.981   2.713
  449TIP3    H2 1312   1.831   5.096   2.682
  450TIP3   OH2 1313   6.356   0.559   2.032
  450TIP3    H1 1314   6.277   0.505   2.028
  450TIP3    H2 1315   6.339   0.619   2.104
  451TIP3   OH2 1316   5.647   5.761   5.111
  451TIP3    H1 1317   5.640   5.726   5.199
  451TIP3    H2 1318   5.718   5.826   5.117
  452TIP3   OH2 1319   3.822   6.534   2.926
  452TIP3    H1 1320   3.798   6.556   2.836
  452TIP3    H2 1321   3.738   6.530   2.972
  453TIP3   OH2 1322   2.223   1.408   0.775
  453TIP3    H1 1323   2.310   1.374   0.757
  453TIP3    H2 1324   2.192   1.357   0.850
  454TIP3   OH2 1325   1.393   0.010   4.646
  454TIP3    H1 1326   1.343  -0.067   4.671
  454TIP3    H2 1327   1.462   0.017   4.712
  455TIP3   OH2 1328   6.696   5.458   3.314
  455TIP3    H1 1329   6.676   5.407   3.236
  455TIP3    H2 1330   6.617   5.453   3.367
  456TIP3   OH2 1331   1.902   2.208   5.416
  456TIP3    H1 1332   1.996   2.191   5.416
  456TIP3    H2 1333   1.864   2.131   5.373
  457TIP3   OH2 1334   5.015   3.743   3.818
  457TIP3    H1 1335   4.982   3.657   3.790
  457TIP3    H2 1336   5.059   3.726   3.901
  458TIP3   OH2 1337   0.780   1.210   1.085
  458TIP3    H1 1338   0.762   1.147   1.015
  458TIP3    H2 1339   0.853   1.262   1.052
  459TIP3   OH2 1340   3.869   5.200   5.435
  459TIP3    H1 1341   3.906   5.122   5.477
  459TIP3    H2 1342   3.811   5.166   5.367
  460TIP3   OH2 1343   0.355   3.980   2.993
  460TIP3    H1 1344   0.408   4.001   2.916
  460TIP3    H2 1345   0.390   3.896   3.024
  461TIP3   OH2 1346   1.568   0.376   2.899
  461TIP3    H1 1347   1.599   0.457   2.858
  461TIP3    H2 1348   1.531   0.403   2.983
  462TIP3   OH2 1349   1.564   2.337   1.181
  462TIP3    H1 1350   1.604   2.349   1.267
  462TIP3    H2 1351   1.471   2.325   1.199
  463TIP3   OH2 1352   2.745   3.104   3.141
  463TIP3    H1 1353   2.697   3.151   3.209
  463TIP3    H2 1354   2.771   3.022   3.183
  464TIP3   OH2 1355   3.070   3.698   2.708
  464TIP3    H1 1356   3.066   3.629   2.642
  464TIP3    H2 1357   3.011   3.766   2.675
  465TIP3   OH2 1358   1.841   2.837   4.028
  465TIP3    H1 1359   1.913   2.889   4.063
  465TIP3    H2 1360   1.776   2.902   4.001
  466TIP3   OH2 1361   1.921   0.547   5.581
  466TIP3    H1 1362   1.839   0.586   5.551
  466TIP3    H2 1363   1.970   0.620   5.618
  467TIP3   OH2 1364   2.424   5.004   3.864
  467TIP3    H1 1365   2.518   5.020   3.872
  467TIP3    H2 1366   2.415   4.946   3.788
  468TIP3   OH2 1367   6.602   2.765   5.543
  468TIP3    H1 1368   6.532   2.827   5.562
  468TIP3    H2 1369   6.558   2.682   5.530
  469TIP3   OH2 1370   0.667   2.985   3.517
  469TIP3    H1 1371   0.618   2.974   3.435
  469TIP3    H2 1372   0.624   2.925   3.578
  470TIP3   OH2 1373   2.470   0.516   4.400
  470TIP3    H1 1374   2.442   0.586   4.459
  470TIP3    H2 1375   2.452   0.435   4.448
  471TIP3   OH2 1376   1.250   3.087   0.104
  471TIP3    H1 1377   1.295   3.006   0.128
  471TIP3    H2 1378   1.301   3.156   0.146
  472TIP3   OH2 1379   4.981   4.074   3.511
  472TIP3    H1 1380   5.039   4.082   3.436
  472TIP3    H2 1381   4.940   4.160   3.518
  473TIP3   OH2 1382   2.718   2.015   5.533
  473TIP3    H1 1383   2.713   2.107   5.559
  473TIP3    H2 1384   2.812   1.998   5.525
  474TIP3   OH2 1385   1.090   1.198   2.719
  474TIP3    H1 1386   1.112   1.265   2.655
  474TIP3    H2 1387   1.005   1.225   2.754
  475TIP3   OH2 1388   5.591   1.825   3.663
  475TIP3    H1 1389   5.600   1.745   3.716
  475TIP3    H2 1390   5.577   1.895   3.727
  476TIP3   OH2 1391   3.705   5.291   3.252
  476TIP3    H1 1392   3.698   5.232   3.177
  476TIP3    H2 1393   3.669   5.374   3.221
  477TIP3   OH2 1394   6.295   5.680   4.547
  477TIP3    H1 1395   6.235   5.634   4.488
  477TIP3    H2 1396   6.375   5.691   4.496
  478TIP3   OH2 1397   0.430   1.919   1.315
  478TIP3    H1 1398   0.417   1.830   1.281
  478TIP3    H2 1399   0.462   1.907   1.404
  479TIP3   OH2 1400   6.775   2.466   1.231
  479TIP3    H1 1401   6.773   2.561   1.244
  479TIP3    H2 1402   6.818   2.455   1.146
  480TIP3   OH2 1403   0.752   3.246   4.837
  480TIP3    H1 1404   0.845   3.263   4.853
  480TIP3    H2 1405   0.707   3.321   4.876
  481TIP3   OH2 1406   5.030   0.135   4.419
  481TIP3    H1 1407   5.008   0.196   4.490
  481TIP3    H2 1408   4.956   0.142   4.358
  482TIP3   OH2 1409   2.776   1.271   4.223
  482TIP3    H1 1410   2.696   1.281   4.275
  482TIP3    H2 1411   2.841   1.238   4.284
  483TIP3   OH2 1412   2.042   4.401   5.631
  483TIP3    H1 1413   2.023   4.397   5.537
  483TIP3    H2 1414   2.072   4.491   5.646
  484TIP3   OH2 1415   6.745   2.605   5.870
  484TIP3    H1 1416   6.808   2.642   5.808
  484TIP3    H2 1417   6.770   2.641   5.954
  485TIP3   OH2 1418   3.299   5.613   2.896
  485TIP3    H1 1419   3.326   5.648   2.981
  485TIP3    H2 1420   3.223   5.557   2.916
  486TIP3   OH2 1421   6.634   1.840   2.833
  486TIP3    H1 1422   6.730   1.842   2.839
  486TIP3    H2 1423   6.610   1.751   2.858
  487TIP3   OH2 1424   4.527   6.539   3.930
  487TIP3    H1 1425   4.593   6.601   3.961
  487TIP3    H2 1426   4.576   6.458   3.912
  488TIP3   OH2 1427   7.129   4.817   2.359
  488TIP3    H1 1428   7.125   4.750   2.429
  488TIP3    H2 1429   7.222   4.824   2.338
  489TIP3   OH2 1430   7.114   0.206   1.046
  489TIP3    H1 1431   7.081   0.147   0.978
  489TIP3    H2 1432   7.049   0.200   1.116
  490TIP3   OH2 1433   5.537   6.356   0.163
  490TIP3    H1 1434   5.581   6.283   0.120
  490TIP3    H2 1435   5.588   6.433   0.139
  491TIP3   OH2 1436   3.020   6.229   1.984
  491TIP3    H1 1437   3.110   6.228   2.017
  491TIP3    H2 1438   2.994   6.137   1.984
  492TIP3   OH2 1439   3.556   6.047   4.858
  492TIP3    H1 1440   3.553   5.983   4.930
  492TIP3    H2 1441   3.611   6.006   4.792
  493TIP3   OH2 1442   2.534   3.551   4.767
  493TIP3    H1 1443   2.449   3.537   4.807
  493TIP3    H2 1444   2.531   3.499   4.686
  494TIP3   OH2 1445   2.876   2.309   4.923
  494TIP3    H1 1446   2.893   2.342   4.835
  494TIP3    H2 1447   2.954   2.257   4.945
  495TIP3   OH2 1448   6.026   4.723   1.094
  495TIP3    H1 1449   5.988   4.790   1.038
  495TIP3    H2 1450   6.052   4.770   1.173
  496TIP3   OH2 1451   2.374   4.664   5.316
  496TIP3    H1 1452   2.326   4.644   5.235
  496TIP3    H2 1453   2.466   4.651   5.293
  497TIP3   OH2 1454   1.610   1.510   2.853
  497TIP3    H1 1455   1.621   1.582   2.914
  497TIP3    H2 1456   1.698   1.476   2.839
  498TIP3   OH2 1457   1.569   5.397   3.109
  498TIP3    H1 1458   1.626   5.321   3.123
  498TIP3    H2 1459   1.493   5.361   3.062
  499TIP3   OH2 1460   0.548   3.305   4.189
  499TIP3    H1 1461   0.638   3.282   4.165
  499TIP3    H2 1462   0.540   3.397   4.166
  500TIP3   OH2 1463   2.626   2.482   4.945
  500TIP3    H1 1464   2.652   2.574   4.941
  500TIP3    H2 1465   2.693   2.436   4.895
  501TIP3   OH2 1466   0.970   4.873   0.567
  501TIP3    H1 1467   0.956   4.959   0.607
  501TIP3    H2 1468   0.909   4.815   0.611
  502TIP3   OH2 1469   3.977   4.013   0.953
  502TIP3    H1 1470   3.926   4.089   0.927
  502TIP3    H2 1471   3.981   4.017   1.048
  503TIP3   OH2 1472   5.816   0.238   0.432
  503TIP3    H1 1473   5.827   0.160   0.486
  503TIP3    H2 1474   5.893   0.238   0.374
  504TIP3   OH2 1475   3.476   2.961   0.734
  504TIP3    H1 1476   3.531   2.921   0.801
  504TIP3    H2 1477   3.524   3.039   0.706
  505TIP3   OH2 1478   2.606   4.908   5.126
  505TIP3    H1 1479   2.633   4.871   5.042
  505TIP3    H2 1480   2.597   4.832   5.184
  506TIP3   OH2 1481   0.307   0.863   2.063
  506TIP3    H1 1482   0.380   0.811   2.096
  506TIP3    H2 1483   0.229   0.811   2.085
  507TIP3   OH2 1484   2.849   2.763   1.842
  507TIP3    H1 1485   2.785   2.834   1.854
  507TIP3    H2 1486   2.843   2.711   1.921
  508TIP3   OH2 1487   4.122   2.665   0.092
  508TIP3    H1 1488   4.111   2.661   0.187
  508TIP3    H2 1489   4.104   2.575   0.062
  509TIP3   OH2 1490   4.717   3.467   2.188
  509TIP3    H1 1491   4.767   3.507   2.259
  509TIP3    H2 1492   4.654   3.535   2.162
  510TIP3   OH2 1493   4.874   0.467   1.679
  510TIP3    H1 1494   4.873   0.394   1.616
  510TIP3    H2 1495   4.925   0.435   1.753
  511TIP3   OH2 1496   2.636   6.560   1.993
  511TIP3    H1 1497   2.730   6.547   2.006
  511TIP3    H2 1498   2.595   6.492   2.047
  512TIP3   OH2 1499   5.857   3.241   1.673
  512TIP3    H1 1500   5.900   3.210   1.594
  512TIP3    H2 1501   5.886   3.332   1.683
  513TIP3   OH2 1502   4.495   1.905   0.853
  513TIP3    H1 1503   4.436   1.830   0.848
  513TIP3    H2 1504   4.441   1.976   0.888
  514TIP3   OH2 1505   3.800   0.848   5.111
  514TIP3    H1 1506   3.776   0.931   5.070
  514TIP3    H2 1507   3.722   0.822   5.161
  515TIP3   OH2 1508   3.798   2.664   3.995
  515TIP3    H1 1509   3.800   2.759   3.982
  515TIP3    H2 1510   3.706   2.644   4.008
  516TIP3   OH2 1511   1.798   5.174   3.066
  516TIP3    H1 1512   1.882   5.191   3.025
  516TIP3    H2 1513   1.741   5.146   2.994
  517TIP3   OH2 1514   2.641   3.036   5.565
  517TIP3    H1 1515   2.606   2.965   5.620
  517TIP3    H2 1516   2.733   3.013   5.553
  518TIP3   OH2 1517   3.827   0.993   3.626
  518TIP3    H1 1518   3.892   0.965   3.562
  518TIP3    H2 1519   3.817   0.918   3.685
  519TIP3   OH2 1520   4.087   3.463   0.236
  519TIP3    H1 1521   4.055   3.550   0.259
  519TIP3    H2 1522   4.157   3.445   0.298
  520TIP3   OH2 1523   4.788   2.938   2.087
  520TIP3    H1 1524   4.695   2.941   2.064
  520TIP3    H2 1525   4.798   3.007   2.153
  521TIP3   OH2 1526   0.720   1.853   1.408
  521TIP3    H1 1527   0.656   1.842   1.478
  521TIP3    H2 1528   0.770   1.931   1.433
  522TIP3   OH2 1529   3.466   1.144   2.479
  522TIP3    H1 1530   3.438   1.207   2.545
  522TIP3    H2 1531   3.434   1.179   2.396
  523TIP3   OH2 1532   0.456   4.139   2.372
  523TIP3    H1 1533   0.372   4.179   2.350
  523TIP3    H2 1534   0.492   4.196   2.440
  524TIP3   OH2 1535   0.175   1.162   1.419
  524TIP3    H1 1536   0.252   1.106   1.414
  524TIP3    H2 1537   0.101   1.101   1.425
  525TIP3   OH2 1538   3.033   2.806   2.906
  525TIP3    H1 1539   2.969   2.735   2.895
  525TIP3    H2 1540   2.987   2.884   2.877
  526TIP3   OH2 1541   0.343   5.712   4.341
  526TIP3    H1 1542   0.335   5.771   4.266
  526TIP3    H2 1543   0.337   5.624   4.304
  527TIP3   OH2 1544   3.802   5.818   0.579
  527TIP3    H1 1545   3.850   5.849   0.656
  527TIP3    H2 1546   3.870   5.806   0.513
  528TIP3   OH2 1547   1.745   2.241   1.367
  528TIP3    H1 1548   1.806   2.208   1.301
  528TIP3    H2 1549   1.701   2.162   1.400
  529TIP3   OH2 1550   6.461   1.019   0.734
  529TIP3    H1 1551   6.450   0.937   0.685
  529TIP3    H2 1552   6.372   1.055   0.739
  530TIP3   OH2 1553   4.540   0.456   3.588
  530TIP3    H1 1554   4.485   0.524   3.629
  530TIP3    H2 1555   4.479   0.408   3.532
  531TIP3   OH2 1556   6.607   0.333   2.683
  531TIP3    H1 1557   6.600   0.387   2.604
  531TIP3    H2 1558   6.524   0.346   2.729
  532TIP3   OH2 1559   0.609   1.387   4.815
  532TIP3    H1 1560   0.700   1.381   4.786
  532TIP3    H2 1561   0.594   1.305   4.863
  533TIP3   OH2 1562   6.624   3.275   3.341
  533TIP3    H1 1563   6.585   3.207   3.396
  533TIP3    H2 1564   6.574   3.272   3.260
  534TIP3   OH2 1565   0.930   5.260   4.102
  534TIP3    H1 1566   0.911   5.233   4.012
  534TIP3    H2 1567   1.007   5.208   4.126
  535TIP3   OH2 1568   3.241   4.820   4.544
  535TIP3    H1 1569   3.220   4.763   4.618
  535TIP3    H2 1570   3.251   4.761   4.469
  536TIP3   OH2 1571   4.187   4.197   1.677
  536TIP3    H1 1572   4.172   4.143   1.755
  536TIP3    H2 1573   4.212   4.282   1.712
  537TIP3   OH2 1574   3.559   6.133   0.793
  537TIP3    H1 1575   3.485   6.078   0.768
  537TIP3    H2 1576   3.619   6.075   0.840
  538TIP3   OH2 1577   7.106   3.595   5.915
  538TIP3    H1 1578   7.135   3.515   5.872
  538TIP3    H2 1579   7.181   3.623   5.967
  539TIP3   OH2 1580   1.541   5.422   4.786
  539TIP3    H1 1581   1.605   5.475   4.739
  539TIP3    H2 1582   1.503   5.365   4.719
  540TIP3   OH2 1583   0.009   5.745   2.040
  540TIP3    H1 1584   0.079   5.694   2.081
  540TIP3    H2 1585  -0.027   5.797   2.112
  541TIP3   OH2 1586   5.908   3.094   5.889
  541TIP3    H1 1587   5.966   3.124   5.819
  541TIP3    H2 1588   5.821   3.096   5.850
  542TIP3   OH2 1589   0.437   4.207   5.633
  542TIP3    H1 1590   0.476   4.234   5.550
  542TIP3    H2 1591   0.441   4.112   5.632
  543TIP3   OH2 1592   6.338   4.227   0.154
  543TIP3    H1 1593   6.431   4.239   0.132
  543TIP3    H2 1594   6.340   4.194   0.244
  544TIP3   OH2 1595   0.936   6.745   1.626
  544TIP3    H1 1596   0.982   6.665   1.651
  544TIP3    H2 1597   0.844   6.720   1.620
  545TIP3   OH2 1598   6.941   4.241   3.813
  545TIP3    H1 1599   6.883   4.257   3.887
  545TIP3    H2 1600   6.951   4.327   3.771
  546TIP3   OH2 1601   4.089   1.356   0.788
  546TIP3    H1 1602   4.010   1.372   0.738
  546TIP3    H2 1603   4.128   1.278   0.748
  547TIP3   OH2 1604   4.827   6.507   4.827
  547TIP3    H1 1605   4.917   6.525   4.801
  547TIP3    H2 1606   4.805   6.578   4.888
  548TIP3   OH2 1607   1.986   6.080   5.889
  548TIP3    H1 1608   1.937   6.162   5.893
  548TIP3    H2 1609   1.920   6.013   5.874
  549TIP3   OH2 1610   0.259   6.132   4.396
  549TIP3    H1 1611   0.223   6.104   4.312
  549TIP3    H2 1612   0.342   6.173   4.374
  550TIP3   OH2 1613   4.877   6.174   4.704
  550TIP3    H1 1614   4.909   6.159   4.793
  550TIP3    H2 1615   4.855   6.086   4.671
  551TIP3   OH2 1616   4.231   1.984   1.400
  551TIP3    H1 1617   4.274   1.997   1.485
  551TIP3    H2 1618   4.201   1.894   1.402
  552TIP3   OH2 1619   1.388   4.687   3.432
  552TIP3    H1 1620   1.428   4.604   3.408
  552TIP3    H2 1621   1.419   4.705   3.521
  553TIP3   OH2 1622   0.187   2.849   3.330
  553TIP3    H1 1623   0.155   2.795   3.258
  553TIP3    H2 1624   0.145   2.812   3.408
  554TIP3   OH2 1625   4.036   1.527   1.494
  554TIP3    H1 1626   4.046   1.433   1.479
  554TIP3    H2 1627   4.049   1.539   1.588
  555TIP3   OH2 1628   2.121   1.828   5.230
  555TIP3    H1 1629   2.087   1.870   5.309
  555TIP3    H2 1630   2.114   1.896   5.163
  556TIP3   OH2 1631   6.253   2.121   2.958
  556TIP3    H1 1632   6.343   2.139   2.929
  556TIP3    H2 1633   6.265   2.080   3.044
  557TIP3   OH2 1634   0.498   4.818   2.862
  557TIP3    H1 1635   0.403   4.806   2.866
  557TIP3    H2 1636   0.521   4.854   2.948
  558TIP3   OH2 1637   5.035   2.114   4.970
  558TIP3    H1 1638   5.007   2.057   5.042
  558TIP3    H2 1639   4.981   2.087   4.896
  559TIP3   OH2 1640   4.833   5.123   0.012
  559TIP3    H1 1641   4.860   5.196   0.069
  559TIP3    H2 1642   4.775   5.071   0.067
  560TIP3   OH2 1643   7.121   4.873   0.961
  560TIP3    H1 1644   7.053   4.940   0.955
  560TIP3    H2 1645   7.085   4.808   1.021
  561TIP3   OH2 1646   1.764   4.531   4.725
  561TIP3    H1 1647   1.746   4.457   4.667
  561TIP3    H2 1648   1.680   4.551   4.766
  562TIP3   OH2 1649   6.605   3.526   1.743
  562TIP3    H1 1650   6.554   3.572   1.677
  562TIP3    H2 1651   6.546   3.458   1.776
  563TIP3   OH2 1652   0.690   4.180   1.976
  563TIP3    H1 1653   0.776   4.195   1.936
  563TIP3    H2 1654   0.700   4.212   2.066
  564TIP3   OH2 1655   7.090   1.007   4.797
  564TIP3    H1 1656   7.014   0.956   4.769
  564TIP3    H2 1657   7.101   1.075   4.730
  565TIP3   OH2 1658   2.906   6.227   4.955
  565TIP3    H1 1659   2.876   6.278   4.880
  565TIP3    H2 1660   2.870   6.140   4.940
  566TIP3   OH2 1661   1.263   3.886   1.720
  566TIP3    H1 1662   1.349   3.845   1.718
  566TIP3    H2 1663   1.210   3.827   1.774
  567TIP3   OH2 1664   6.777   5.969   5.067
  567TIP3    H1 1665   6.861   6.011   5.050
  567TIP3    H2 1666   6.763   5.981   5.161
  568TIP3   OH2 1667   5.240   1.683   1.545
  568TIP3    H1 1668   5.330   1.696   1.515
  568TIP3    H2 1669   5.244   1.604   1.599
  569TIP3   OH2 1670   3.872   2.395   5.633
  569TIP3    H1 1671   3.860   2.418   5.725
  569TIP3    H2 1672   3.820   2.315   5.622
  570TIP3   OH2 1673   3.375   4.631   3.307
  570TIP3    H1 1674   3.352   4.724   3.302
  570TIP3    H2 1675   3.342   4.593   3.225
  571TIP3   OH2 1676   1.231   0.996   5.871
  571TIP3    H1 1677   1.288   1.072   5.870
  571TIP3    H2 1678   1.164   1.014   5.804
  572TIP3   OH2 1679   3.562   0.129   1.539
  572TIP3    H1 1680   3.480   0.112   1.585
  572TIP3    H2 1681   3.610   0.046   1.545
  573TIP3   OH2 1682   4.773   4.490   2.179
  573TIP3    H1 1683   4.849   4.535   2.216
  573TIP3    H2 1684   4.728   4.452   2.254
  574TIP3   OH2 1685   3.200   0.457   2.556
  574TIP3    H1 1686   3.134   0.418   2.500
  574TIP3    H2 1687   3.199   0.551   2.535
  575TIP3   OH2 1688   2.244   1.816   3.449
  575TIP3    H1 1689   2.207   1.748   3.393
  575TIP3    H2 1690   2.187   1.818   3.526
  576TIP3   OH2 1691   6.238   2.754   2.108
  576TIP3    H1 1692   6.241   2.816   2.036
  576TIP3    H2 1693   6.297   2.683   2.081
  577TIP3   OH2 1694   1.041   3.958   3.332
  577TIP3    H1 1695   1.034   3.970   3.427
  577TIP3    H2 1696   0.988   4.029   3.295
  578TIP3   OH2 1697   5.623   3.506   1.182
  578TIP3    H1 1698   5.585   3.585   1.221
  578TIP3    H2 1699   5.567   3.488   1.107
  579TIP3   OH2 1700   2.513   0.641   4.159
  579TIP3    H1 1701   2.498   0.586   4.236
  579TIP3    H2 1702   2.474   0.725   4.182
  580TIP3   OH2 1703   1.016   6.227   1.766
  580TIP3    H1 1704   1.043   6.217   1.857
  580TIP3    H2 1705   0.920   6.233   1.770
  581TIP3   OH2 1706   2.958   1.754   2.167
  581TIP3    H1 1707   3.004   1.767   2.084
  581TIP3    H2 1708   2.876   1.803   2.157
  582TIP3   OH2 1709   5.268   3.805   5.373
  582TIP3    H1 1710   5.318   3.796   5.454
  582TIP3    H2 1711   5.319   3.757   5.308
  583TIP3   OH2 1712   1.272   6.064   1.223
  583TIP3    H1 1713   1.193   6.106   1.258
  583TIP3    H2 1714   1.241   5.982   1.186
  584TIP3   OH2 1715   0.218   2.328   3.288
  584TIP3    H1 1716   0.249   2.237   3.293
  584TIP3    H2 1717   0.208   2.345   3.194
  585TIP3   OH2 1718   0.191   1.106   1.806
  585TIP3    H1 1719   0.183   1.010   1.806
  585TIP3    H2 1720   0.278   1.123   1.769
  586TIP3   OH2 1721   1.535   1.875   1.284
  586TIP3    H1 1722   1.534   1.941   1.353
  586TIP3    H2 1723   1.539   1.791   1.331
  587TIP3   OH2 1724   1.921   6.620   1.158
  587TIP3    H1 1725   1.923   6.712   1.183
  587TIP3    H2 1726   1.853   6.582   1.213
  588TIP3   OH2 1727   0.627   2.685   2.156
  588TIP3    H1 1728   0.577   2.655   2.232
  588TIP3    H2 1729   0.688   2.749   2.190
  589TIP3   OH2 1730   1.697   3.358   2.391
  589TIP3    H1 1731   1.681   3.398   2.305
  589TIP3    H2 1732   1.621   3.384   2.443
  590TIP3   OH2 1733   3.058   0.432   3.278
  590TIP3    H1 1734   3.076   0.470   3.364
  590TIP3    H2 1735   3.057   0.506   3.218
  591TIP3   OH2 1736   4.388   3.886   3.327
  591TIP3    H1 1737   4.456   3.820   3.310
  591TIP3    H2 1738   4.330   3.845   3.391
  592TIP3   OH2 1739   7.014   0.456   4.444
  592TIP3    H1 1740   7.079   0.388   4.455
  592TIP3    H2 1741   6.945   0.416   4.390
  593TIP3   OH2 1742   4.323   6.187   2.368
  593TIP3    H1 1743   4.229   6.173   2.378
  593TIP3    H2 1744   4.355   6.105   2.331
  594TIP3   OH2 1745   3.842   6.181   0.258
  594TIP3    H1 1746   3.806   6.093   0.242
  594TIP3    H2 1747   3.884   6.173   0.344
  595TIP3   OH2 1748   4.267   5.158   0.132
  595TIP3    H1 1749   4.176   5.154   0.101
  595TIP3    H2 1750   4.313   5.093   0.078
  596TIP3   OH2 1751   4.051   5.912   5.224
  596TIP3    H1 1752   4.063   5.949   5.137
  596TIP3    H2 1753   3.998   5.977   5.270
  597TIP3   OH2 1754   5.483   0.069   3.157
  597TIP3    H1 1755   5.522   0.046   3.073
  597TIP3    H2 1756   5.413   0.005   3.170
  598TIP3   OH2 1757   0.716   4.479   3.097
  598TIP3    H1 1758   0.682   4.555   3.144
  598TIP3    H2 1759   0.667   4.477   3.015
  599TIP3   OH2 1760   1.496   2.011   1.036
  599TIP3    H1 1761   1.537   1.952   0.974
  599TIP3    H2 1762   1.485   1.959   1.116
  600TIP3   OH2 1763   7.056   1.389   4.112
  600TIP3    H1 1764   7.020   1.474   4.137
  600TIP3    H2 1765   6.987   1.327   4.135
  601TIP3   OH2 1766   6.760   5.609   1.386
  601TIP3    H1 1767   6.775   5.517   1.365
  601TIP3    H2 1768   6.792   5.620   1.475
  602TIP3   OH2 1769   2.966   6.430   0.247
  602TIP3    H1 1770   2.946   6.477   0.328
  602TIP3    H2 1771   2.910   6.471   0.181
  603TIP3   OH2 1772   2.367   3.363   3.569
  603TIP3    H1 1773   2.306   3.370   3.642
  603TIP3    H2 1774   2.445   3.411   3.598
  604TIP3   OH2 1775   6.523   2.878   3.051
  604TIP3    H1 1776   6.614   2.893   3.076
  604TIP3    H2 1777   6.496   2.801   3.101
  605TIP3   OH2 1778   6.598   3.058   1.006
  605TIP3    H1 1779   6.560   3.141   0.977
  605TIP3    H2 1780   6.540   2.991   0.971
  606TIP3   OH2 1781   5.188   1.032   3.042
  606TIP3    H1 1782   5.145   1.013   3.125
  606TIP3    H2 1783   5.281   1.038   3.063
  607TIP3   OH2 1784   2.902   6.488   0.520
  607TIP3    H1 1785   2.879   6.567   0.569
  607TIP3    H2 1786   2.829   6.475   0.459
  608TIP3   OH2 1787   0.671   2.340   2.760
  608TIP3    H1 1788   0.746   2.317   2.705
  608TIP3    H2 1789   0.685   2.290   2.841
  609TIP3   OH2 1790   1.009   3.313   4.190
  609TIP3    H1 1791   0.934   3.284   4.138
  609TIP3    H2 1792   0.994   3.274   4.277
  610TIP3   OH2 1793   6.373   4.233   1.575
  610TIP3    H1 1794   6.437   4.247   1.645
  610TIP3    H2 1795   6.304   4.296   1.592
  611TIP3   OH2 1796   5.696   2.945   5.073
  611TIP3    H1 1797   5.787   2.920   5.086
  611TIP3    H2 1798   5.646   2.875   5.115
  612TIP3   OH2 1799   2.222   2.067   1.137
  612TIP3    H1 1800   2.264   2.152   1.150
  612TIP3    H2 1801   2.282   2.019   1.080
  613TIP3   OH2 1802   4.037   0.155   1.849
  613TIP3    H1 1803   4.068   0.066   1.865
  613TIP3    H2 1804   4.016   0.157   1.755
  614TIP3   OH2 1805   1.409   6.760   0.637
  614TIP3    H1 1806   1.366   6.834   0.679
  614TIP3    H2 1807   1.430   6.701   0.709
  615TIP3   OH2 1808   2.814   5.077   4.047
  615TIP3    H1 1809   2.817   5.170   4.027
  615TIP3    H2 1810   2.721   5.059   4.065
  616TIP3   OH2 1811   5.721   6.030   2.353
  616TIP3    H1 1812   5.664   6.050   2.427
  616TIP3    H2 1813   5.787   5.971   2.389
  617TIP3   OH2 1814   2.152   0.784   2.102
  617TIP3    H1 1815   2.192   0.861   2.062
  617TIP3    H2 1816   2.149   0.804   2.195
  618TIP3   OH2 1817   2.667   4.220   2.623
  618TIP3    H1 1818   2.680   4.289   2.688
  618TIP3    H2 1819   2.659   4.139   2.675
  619TIP3   OH2 1820   4.179   4.342   0.925
  619TIP3    H1 1821   4.162   4.267   0.868
  619TIP3    H2 1822   4.205   4.412   0.865
  620TIP3   OH2 1823   1.882   0.547   4.025
  620TIP3    H1 1824   1.824   0.612   4.065
  620TIP3    H2 1825   1.824   0.484   3.985
  621TIP3   OH2 1826   5.541   4.541   3.406
  621TIP3    H1 1827   5.494   4.596   3.344
  621TIP3    H2 1828   5.593   4.602   3.458
  622TIP3   OH2 1829   1.316   2.403   3.854
  622TIP3    H1 1830   1.255   2.415   3.927
  622TIP3    H2 1831   1.271   2.443   3.779
  623TIP3   OH2 1832   3.523   5.218   1.274
  623TIP3    H1 1833   3.479   5.299   1.248
  623TIP3    H2 1834   3.526   5.166   1.194
  624TIP3   OH2 1835   1.234   4.247   3.056
  624TIP3    H1 1836   1.187   4.248   2.973
  624TIP3    H2 1837   1.226   4.157   3.088
  625TIP3   OH2 1838   1.571   4.591   0.397
  625TIP3    H1 1839   1.555   4.645   0.320
  625TIP3    H2 1840   1.630   4.643   0.452
  626TIP3   OH2 1841   1.604   1.335   3.841
  626TIP3    H1 1842   1.631   1.303   3.927
  626TIP3    H2 1843   1.669   1.403   3.820
  627TIP3   OH2 1844   7.124   2.791   1.600
  627TIP3    H1 1845   7.082   2.719   1.553
  627TIP3    H2 1846   7.165   2.844   1.531
  628TIP3   OH2 1847   4.414   3.310   2.086
  628TIP3    H1 1848   4.478   3.349   2.027
  628TIP3    H2 1849   4.466   3.274   2.158
  629TIP3   OH2 1850   0.068   1.131   2.421
  629TIP3    H1 1851   0.064   1.053   2.477
  629TIP3    H2 1852   0.063   1.204   2.482
  630TIP3   OH2 1853   4.773   2.748   1.321
  630TIP3    H1 1854   4.848   2.784   1.369
  630TIP3    H2 1855   4.809   2.723   1.236
  631TIP3   OH2 1856   2.261   2.114   4.082
  631TIP3    H1 1857   2.334   2.100   4.020
  631TIP3    H2 1858   2.236   2.205   4.068
  632TIP3   OH2 1859   4.555   2.094   2.113
  632TIP3    H1 1860   4.614   2.163   2.144
  632TIP3    H2 1861   4.505   2.136   2.043
  633TIP3   OH2 1862   4.587   3.740   3.178
  633TIP3    H1 1863   4.623   3.750   3.089
  633TIP3    H2 1864   4.653   3.781   3.235
  634TIP3   OH2 1865   6.071   2.995   2.490
  634TIP3    H1 1866   6.015   2.987   2.567
  634TIP3    H2 1867   6.149   3.041   2.521
  635TIP3   OH2 1868   1.705   1.614   0.967
  635TIP3    H1 1869   1.756   1.610   0.887
  635TIP3    H2 1870   1.752   1.677   1.022
  636TIP3   OH2 1871   6.224   1.512   5.650
  636TIP3    H1 1872   6.167   1.445   5.613
  636TIP3    H2 1873   6.209   1.507   5.745
  637TIP3   OH2 1874   4.309   4.254   2.077
  637TIP3    H1 1875   4.399   4.259   2.046
  637TIP3    H2 1876   4.317   4.231   2.169
  638TIP3   OH2 1877   0.068   6.615   0.608
  638TIP3    H1 1878   0.067   6.529   0.650
  638TIP3    H2 1879   0.121   6.669   0.666
  639TIP3   OH2 1880   0.388   5.751   4.603
  639TIP3    H1 1881   0.378   5.743   4.508
  639TIP3    H2 1882   0.305   5.786   4.633
  640TIP3   OH2 1883   0.212   0.856   5.808
  640TIP3    H1 1884   0.173   0.865   5.895
  640TIP3    H2 1885   0.303   0.884   5.820
  641TIP3   OH2 1886   5.721   3.375   5.255
  641TIP3    H1 1887   5.652   3.422   5.209
  641TIP3    H2 1888   5.723   3.413   5.342
  642TIP3   OH2 1889   3.370   4.578   1.404
  642TIP3    H1 1890   3.313   4.520   1.453
  642TIP3    H2 1891   3.418   4.627   1.470
  643TIP3   OH2 1892   2.067   3.043   3.767
  643TIP3    H1 1893   2.053   3.079   3.855
  643TIP3    H2 1894   2.162   3.040   3.757
  644TIP3   OH2 1895   2.996   0.771   5.411
  644TIP3    H1 1896   3.059   0.748   5.479
  644TIP3    H2 1897   2.913   0.783   5.458
  645TIP3   OH2 1898   1.585   3.496   3.133
  645TIP3    H1 1899   1.582   3.451   3.218
  645TIP3    H2 1900   1.518   3.564   3.139
  646TIP3   OH2 1901   1.094   3.502   0.506
  646TIP3    H1 1902   1.138   3.489   0.590
  646TIP3    H2 1903   1.053   3.589   0.515
  647TIP3   OH2 1904   0.309   5.026   0.109
  647TIP3    H1 1905   0.214   5.019   0.110
  647TIP3    H2 1906   0.330   5.061   0.023
  648TIP3   OH2 1907   0.865   0.348   0.882
  648TIP3    H1 1908   0.822   0.431   0.900
  648TIP3    H2 1909   0.793   0.288   0.862
  649TIP3   OH2 1910   6.681   5.920   1.068
  649TIP3    H1 1911   6.719   5.876   0.992
  649TIP3    H2 1912   6.646   5.849   1.122
  650TIP3   OH2 1913   6.705   2.856   0.517
  650TIP3    H1 1914   6.797   2.831   0.526
  650TIP3    H2 1915   6.675   2.810   0.439
  651TIP3   OH2 1916   1.346   2.909   5.478
  651TIP3    H1 1917   1.254   2.882   5.483
  651TIP3    H2 1918   1.373   2.920   5.569
  652TIP3   OH2 1919   0.119   2.581   0.569
  652TIP3    H1 1920   0.067   2.508   0.604
  652TIP3    H2 1921   0.140   2.633   0.646
  653TIP3   OH2 1922   2.261   2.795   0.343
  653TIP3    H1 1923   2.166   2.790   0.338
  653TIP3    H2 1924   2.279   2.826   0.432
  654TIP3   OH2 1925   4.070   2.696   2.873
  654TIP3    H1 1926   4.146   2.689   2.932
  654TIP3    H2 1927   4.032   2.781   2.893
  655TIP3   OH2 1928   5.698   2.029   3.910
  655TIP3    H1 1929   5.791   2.053   3.909
  655TIP3    H2 1930   5.657   2.091   3.849
  656TIP3   OH2 1931   3.397   4.546   2.780
  656TIP3    H1 1932   3.316   4.509   2.815
  656TIP3    H2 1933   3.451   4.563   2.857
  657TIP3   OH2 1934   2.693   1.364   1.620
  657TIP3    H1 1935   2.648   1.364   1.536
  657TIP3    H2 1936   2.770   1.420   1.606
  658TIP3   OH2 1937   7.008   0.917   4.366
  658TIP3    H1 1938   7.067   0.865   4.419
  658TIP3    H2 1939   6.920   0.893   4.397
  659TIP3   OH2 1940   0.642   3.609   4.426
  659TIP3    H1 1941   0.680   3.585   4.342
  659TIP3    H2 1942   0.679   3.694   4.447
  660TIP3   OH2 1943   3.085   0.320   0.284
  660TIP3    H1 1944   3.176   0.337   0.309
  660TIP3    H2 1945   3.088   0.238   0.235
  661TIP3   OH2 1946   2.546   5.269   4.472
  661TIP3    H1 1947   2.465   5.289   4.425
  661TIP3    H2 1948   2.530   5.299   4.562
  662TIP3   OH2 1949   1.464   4.746   2.166
  662TIP3    H1 1950   1.374   4.738   2.195
  662TIP3    H2 1951   1.516   4.744   2.246
  663TIP3   OH2 1952   7.168   2.816   2.788
  663TIP3    H1 1953   7.136   2.771   2.709
  663TIP3    H2 1954   7.218   2.890   2.755
  664TIP3   OH2 1955   0.164   2.280   5.743
  664TIP3    H1 1956   0.196   2.217   5.807
  664TIP3    H2 1957   0.210   2.258   5.662
  665TIP3   OH2 1958   4.927   5.438   3.992
  665TIP3    H1 1959   4.908   5.345   3.978
  665TIP3    H2 1960   4.912   5.478   3.906
  666TIP3   OH2 1961   6.526   0.487   4.331
  666TIP3    H1 1962   6.576   0.480   4.249
  666TIP3    H2 1963   6.587   0.459   4.399
  667TIP3   OH2 1964   1.518   3.176   5.186
  667TIP3    H1 1965   1.524   3.084   5.209
  667TIP3    H2 1966   1.467   3.216   5.257
  668TIP3   OH2 1967   3.102   2.190   0.470
  668TIP3    H1 1968   3.038   2.260   0.480
  668TIP3    H2 1969   3.182   2.224   0.510
  669TIP3   OH2 1970   6.119   2.464   2.302
  669TIP3    H1 1971   6.171   2.454   2.223
  669TIP3    H2 1972   6.112   2.559   2.314
  670TIP3   OH2 1973   2.314   3.328   2.582
  670TIP3    H1 1974   2.409   3.322   2.569
  670TIP3    H2 1975   2.277   3.332   2.494
  671TIP3   OH2 1976   6.313   6.666   0.477
  671TIP3    H1 1977   6.282   6.738   0.532
  671TIP3    H2 1978   6.248   6.597   0.489
  672TIP3   OH2 1979   2.639   2.643   3.896
  672TIP3    H1 1980   2.703   2.592   3.845
  672TIP3    H2 1981   2.627   2.592   3.976
  673TIP3   OH2 1982   3.943   1.693   1.913
  673TIP3    H1 1983   3.964   1.702   2.006
  673TIP3    H2 1984   3.864   1.640   1.911
  674TIP3   OH2 1985   5.015   6.510   5.358
  674TIP3    H1 1986   5.023   6.430   5.411
  674TIP3    H2 1987   4.963   6.484   5.282
  675TIP3   OH2 1988   2.823   5.960   5.382
  675TIP3    H1 1989   2.830   6.015   5.460
  675TIP3    H2 1990   2.797   6.020   5.312
  676TIP3   OH2 1991   1.965   4.184   0.055
  676TIP3    H1 1992   2.033   4.142   0.108
  676TIP3    H2 1993   2.012   4.226  -0.017
  677TIP3   OH2 1994   4.285   1.239   0.595
  677TIP3    H1 1995   4.266   1.215   0.504
  677TIP3    H2 1996   4.320   1.327   0.590
  678TIP3   OH2 1997   3.437   5.085   2.769
  678TIP3    H1 1998   3.368   5.111   2.709
  678TIP3    H2 1999   3.397   5.020   2.826
  679TIP3   OH2 2000   7.148   0.419   1.359
  679TIP3    H1 2001   7.078   0.358   1.335
  679TIP3    H2 2002   7.198   0.372   1.426
  680TIP3   OH2 2003   1.022   5.055   2.697
  680TIP3    H1 2004   1.073   5.135   2.708
  680TIP3    H2 2005   0.955   5.060   2.764
  681TIP3   OH2 2006   2.848   1.948   5.016
  681TIP3    H1 2007   2.846   1.954   5.111
  681TIP3    H2 2008   2.927   1.995   4.990
  682TIP3   OH2 2009   0.125   5.429   3.934
  682TIP3    H1 2010   0.083   5.358   3.983
  682TIP3    H2 2011   0.149   5.390   3.850
  683TIP3   OH2 2012   2.418   2.245   2.333
  683TIP3    H1 2013   2.444   2.330   2.296
  683TIP3    H2 2014   2.342   2.219   2.280
  684TIP3   OH2 2015   1.168   1.538   4.499
  684TIP3    H1 2016   1.121   1.592   4.562
  684TIP3    H2 2017   1.245   1.589   4.475
  685TIP3   OH2 2018   6.734   0.162   1.807
  685TIP3    H1 2019   6.821   0.178   1.843
  685TIP3    H2 2020   6.690   0.247   1.811
  686TIP3   OH2 2021   3.613   3.164   1.520
  686TIP3    H1 2022   3.655   3.246   1.495
  686TIP3    H2 2023   3.644   3.147   1.609
  687TIP3   OH2 2024   2.563   6.234   3.929
  687TIP3    H1 2025   2.581   6.170   3.860
  687TIP3    H2 2026   2.484   6.200   3.972
  688TIP3   OH2 2027   6.052   4.041   1.633
  688TIP3    H1 2028   6.074   4.112   1.573
  688TIP3    H2 2029   5.956   4.043   1.639
  689TIP3   OH2 2030   7.137   0.175   3.825
  689TIP3    H1 2031   7.149   0.240   3.895
  689TIP3    H2 2032   7.181   0.097   3.858
  690TIP3   OH2 2033   0.431   0.235   2.298
  690TIP3    H1 2034   0.525   0.238   2.316
  690TIP3    H2 2035   0.389   0.239   2.384
  691TIP3   OH2 2036   6.953   6.198   2.490
  691TIP3    H1 2037   6.947   6.159   2.403
  691TIP3    H2 2038   6.958   6.124   2.550
  692TIP3   OH2 2039   1.996   2.699   2.265
  692TIP3    H1 2040   1.950   2.746   2.335
  692TIP3    H2 2041   1.959   2.733   2.184
  693TIP3   OH2 2042   1.377   5.025   2.331
  693TIP3    H1 2043   1.327   4.980   2.399
  693TIP3    H2 2044   1.427   5.092   2.379
  694TIP3   OH2 2045   6.883   4.877   2.425
  694TIP3    H1 2046   6.977   4.870   2.413
  694TIP3    H2 2047   6.870   4.964   2.463
  695TIP3   OH2 2048   3.559   2.339   0.689
  695TIP3    H1 2049   3.510   2.369   0.613
  695TIP3    H2 2050   3.530   2.249   0.703
  696TIP3   OH2 2051   1.027   0.259   0.672
  696TIP3    H1 2052   1.112   0.303   0.684
  696TIP3    H2 2053   0.974   0.291   0.745
  697TIP3   OH2 2054   2.607   1.479   2.705
  697TIP3    H1 2055   2.667   1.462   2.778
  697TIP3    H2 2056   2.544   1.542   2.739
  698TIP3   OH2 2057   4.393   5.395   0.988
  698TIP3    H1 2058   4.449   5.468   1.013
  698TIP3    H2 2059   4.304   5.431   0.991
  699TIP3   OH2 2060   3.906   3.395   1.934
  699TIP3    H1 2061   3.868   3.416   2.019
  699TIP3    H2 2062   3.915   3.479   1.890
  700TIP3   OH2 2063   1.002   2.521   4.614
  700TIP3    H1 2064   0.984   2.554   4.526
  700TIP3    H2 2065   0.929   2.462   4.632
  701TIP3   OH2 2066   4.773   0.247   4.753
  701TIP3    H1 2067   4.687   0.283   4.777
  701TIP3    H2 2068   4.768   0.155   4.779
  702TIP3   OH2 2069   3.699   2.692   2.876
  702TIP3    H1 2070   3.702   2.658   2.965
  702TIP3    H2 2071   3.626   2.754   2.876
  703TIP3   OH2 2072   3.732   5.944   0.174
  703TIP3    H1 2073   3.672   5.921   0.245
  703TIP3    H2 2074   3.698   5.898   0.097
  704TIP3   OH2 2075   5.566   1.833   0.103
  704TIP3    H1 2076   5.585   1.920   0.137
  704TIP3    H2 2077   5.649   1.803   0.066
  705TIP3   OH2 2078   5.505   0.409   3.631
  705TIP3    H1 2079   5.554   0.482   3.668
  705TIP3    H2 2080   5.451   0.376   3.703
  706TIP3   OH2 2081   4.221   1.569   3.770
  706TIP3    H1 2082   4.253   1.586   3.681
  706TIP3    H2 2083   4.210   1.656   3.808
  707TIP3   OH2 2084   3.216   5.170   2.996
  707TIP3    H1 2085   3.132   5.216   2.993
  707TIP3    H2 2086   3.267   5.218   3.061
  708TIP3   OH2 2087   6.888   1.625   5.558
  708TIP3    H1 2088   6.908   1.704   5.508
  708TIP3    H2 2089   6.859   1.658   5.644
  709TIP3   OH2 2090   5.712   1.631   3.399
  709TIP3    H1 2091   5.735   1.692   3.330
  709TIP3    H2 2092   5.623   1.655   3.425
  710TIP3   OH2 2093   2.050   5.481   3.108
  710TIP3    H1 2094   1.976   5.537   3.082
  710TIP3    H2 2095   2.059   5.497   3.202
  711TIP3   OH2 2096   6.833   3.069   1.159
  711TIP3    H1 2097   6.911   3.081   1.104
  711TIP3    H2 2098   6.766   3.036   1.099
  712TIP3   OH2 2099   2.849   1.693   2.761
  712TIP3    H1 2100   2.832   1.775   2.715
  712TIP3    H2 2101   2.787   1.692   2.834
  713TIP3   OH2 2102   4.025   2.555   4.889
  713TIP3    H1 2103   3.959   2.598   4.944
  713TIP3    H2 2104   4.069   2.494   4.948
  714TIP3   OH2 2105   4.796   5.364   1.066
  714TIP3    H1 2106   4.771   5.424   1.136
  714TIP3    H2 2107   4.805   5.279   1.109
  715TIP3   OH2 2108   4.220   1.781   5.522
  715TIP3    H1 2109   4.251   1.713   5.581
  715TIP3    H2 2110   4.125   1.780   5.531
  716TIP3   OH2 2111   2.639   6.507   1.437
  716TIP3    H1 2112   2.694   6.562   1.382
  716TIP3    H2 2113   2.551   6.514   1.399
  717TIP3   OH2 2114   2.366   6.388   3.602
  717TIP3    H1 2115   2.280   6.406   3.564
  717TIP3    H2 2116   2.373   6.293   3.604
  718TIP3   OH2 2117   7.097   0.809   0.742
  718TIP3    H1 2118   7.169   0.835   0.685
  718TIP3    H2 2119   7.053   0.738   0.695
  719TIP3   OH2 2120   2.341   4.379   5.379
  719TIP3    H1 2121   2.420   4.373   5.325
  719TIP3    H2 2122   2.329   4.473   5.395
  720TIP3   OH2 2123   6.774   4.023   3.943
  720TIP3    H1 2124   6.699   4.045   3.887
  720TIP3    H2 2125   6.825   4.104   3.947
  721TIP3   OH2 2126   6.956   4.252   5.230
  721TIP3    H1 2127   6.985   4.164   5.254
  721TIP3    H2 2128   7.022   4.310   5.269
  722TIP3   OH2 2129   0.542   1.490   0.596
  722TIP3    H1 2130   0.492   1.570   0.582
  722TIP3    H2 2131   0.480   1.429   0.635
  723TIP3   OH2 2132   1.948   5.334   0.415
  723TIP3    H1 2133   1.964   5.407   0.355
  723TIP3    H2 2134   2.029   5.324   0.463
  724TIP3   OH2 2135   2.629   6.383   4.479
  724TIP3    H1 2136   2.573   6.449   4.520
  724TIP3    H2 2137   2.582   6.357   4.400
  725TIP3   OH2 2138   6.930   2.472   4.037
  725TIP3    H1 2139   6.856   2.444   4.092
  725TIP3    H2 2140   6.978   2.534   4.092
  726TIP3   OH2 2141   6.476   3.849   1.727
  726TIP3    H1 2142   6.488   3.924   1.668
  726TIP3    H2 2143   6.483   3.772   1.670
  727TIP3   OH2 2144   0.093   0.145   3.524
  727TIP3    H1 2145   0.126   0.061   3.556
  727TIP3    H2 2146   0.035   0.176   3.593
  728TIP3   OH2 2147   4.815   5.974   2.418
  728TIP3    H1 2148   4.779   6.009   2.337
  728TIP3    H2 2149   4.883   5.912   2.389
  729TIP3   OH2 2150   1.022   0.628   0.181
  729TIP3    H1 2151   1.064   0.637   0.267
  729TIP3    H2 2152   1.095   0.612   0.121
  730TIP3   OH2 2153   0.452   1.190   0.066
  730TIP3    H1 2154   0.528   1.247   0.050
  730TIP3    H2 2155   0.479   1.132   0.137
  731TIP3   OH2 2156   4.678   3.554   4.099
  731TIP3    H1 2157   4.709   3.551   4.009
  731TIP3    H2 2158   4.656   3.646   4.114
  732TIP3   OH2 2159   3.485   1.569   4.996
  732TIP3    H1 2160   3.460   1.652   5.035
  732TIP3    H2 2161   3.447   1.503   5.054
  733TIP3   OH2 2162   2.829   2.645   2.094
  733TIP3    H1 2163   2.737   2.617   2.098
  733TIP3    H2 2164   2.832   2.724   2.147
  734TIP3   OH2 2165   1.146   3.447   1.478
  734TIP3    H1 2166   1.160   3.514   1.545
  734TIP3    H2 2167   1.213   3.382   1.496
  735TIP3   OH2 2168   4.886   6.759   3.900
  735TIP3    H1 2169   4.981   6.748   3.895
  735TIP3    H2 2170   4.862   6.724   3.985
  736TIP3   OH2 2171   6.907   3.733   2.772
  736TIP3    H1 2172   6.858   3.730   2.854
  736TIP3    H2 2173   6.940   3.644   2.760
  737TIP3   OH2 2174   0.700   1.808   0.424
  737TIP3    H1 2175   0.648   1.868   0.371
  737TIP3    H2 2176   0.730   1.741   0.363
  738TIP3   OH2 2177   2.979   3.781   3.261
  738TIP3    H1 2178   2.894   3.797   3.302
  738TIP3    H2 2179   2.963   3.790   3.167
  739TIP3   OH2 2180   1.992   5.311   2.528
  739TIP3    H1 2181   1.931   5.346   2.463
  739TIP3    H2 2182   1.936   5.279   2.599
  740TIP3   OH2 2183   6.756   2.272   3.094
  740TIP3    H1 2184   6.777   2.244   3.183
  740TIP3    H2 2185   6.815   2.346   3.078
  741TIP3   OH2 2186   2.334   1.189   3.338
  741TIP3    H1 2187   2.355   1.262   3.396
  741TIP3    H2 2188   2.414   1.173   3.288
  742TIP3   OH2 2189   1.444   5.157   1.964
  742TIP3    H1 2190   1.511   5.108   2.012
  742TIP3    H2 2191   1.433   5.109   1.882
  743TIP3   OH2 2192   6.651   1.967   3.160
  743TIP3    H1 2193   6.633   1.978   3.254
  743TIP3    H2 2194   6.741   1.935   3.157
  744TIP3   OH2 2195   6.864   4.931   0.636
  744TIP3    H1 2196   6.874   4.844   0.675
  744TIP3    H2 2197   6.951   4.952   0.602
  745TIP3   OH2 2198  -0.009   0.276   4.377
  745TIP3    H1 2199   0.083   0.250   4.374
  745TIP3    H2 2200  -0.054   0.200   4.415
  746TIP3   OH2 2201   6.608   3.827   0.762
  746TIP3    H1 2202   6.633   3.747   0.809
  746TIP3    H2 2203   6.680   3.842   0.701
  747TIP3   OH2 2204   4.330   1.068   1.626
  747TIP3    H1 2205   4.330   1.077   1.531
  747TIP3    H2 2206   4.262   1.003   1.645
  748TIP3   OH2 2207   7.148   5.756   4.745
  748TIP3    H1 2208   7.070   5.781   4.695
  748TIP3    H2 2209   7.113   5.713   4.823
  749TIP3   OH2 2210   6.251   2.617   4.359
  749TIP3    H1 2211   6.277   2.700   4.399
  749TIP3    H2 2212   6.156   2.614   4.369
  750TIP3   OH2 2213   1.655   0.604   2.790
  750TIP3    H1 2214   1.717   0.559   2.732
  750TIP3    H2 2215   1.691   0.692   2.798
  751TIP3   OH2 2216   6.244   1.098   0.107
  751TIP3    H1 2217   6.322   1.150   0.127
  751TIP3    H2 2218   6.209   1.072   0.192
  752TIP3   OH2 2219   3.098   3.238   1.879
  752TIP3    H1 2220   3.188   3.206   1.883
  752TIP3    H2 2221   3.074   3.253   1.970
  753TIP3   OH2 2222   1.043   5.400   5.790
  753TIP3    H1 2223   1.004   5.313   5.793
  753TIP3    H2 2224   1.130   5.387   5.754
  754TIP3   OH2 2225   1.469   3.069   1.037
  754TIP3    H1 2226   1.461   3.117   0.954
  754TIP3    H2 2227   1.408   3.114   1.097
  755TIP3   OH2 2228   0.643   1.778   3.605
  755TIP3    H1 2229   0.677   1.718   3.671
  755TIP3    H2 2230   0.598   1.721   3.542
  756TIP3   OH2 2231   2.540   6.012   4.646
  756TIP3    H1 2232   2.576   6.063   4.573
  756TIP3    H2 2233   2.448   6.001   4.625
  757TIP3   OH2 2234   3.779   4.350   1.660
  757TIP3    H1 2235   3.711   4.283   1.670
  757TIP3    H2 2236   3.802   4.374   1.750
  758TIP3   OH2 2237   4.835   1.550   3.366
  758TIP3    H1 2238   4.899   1.621   3.377
  758TIP3    H2 2239   4.889   1.472   3.352
  759TIP3   OH2 2240   6.513   1.055   3.361
  759TIP3    H1 2241   6.565   0.976   3.350
  759TIP3    H2 2242   6.577   1.126   3.368
  760TIP3   OH2 2243   6.225   6.401   3.579
  760TIP3    H1 2244   6.245   6.378   3.670
  760TIP3    H2 2245   6.154   6.465   3.586
  761TIP3   OH2 2246   5.718   6.260   5.374
  761TIP3    H1 2247   5.679   6.173   5.368
  761TIP3    H2 2248   5.644   6.320   5.376
  762TIP3   OH2 2249   2.231   6.085   0.666
  762TIP3    H1 2250   2.292   6.158   0.665
  762TIP3    H2 2251   2.149   6.122   0.698
  763TIP3   OH2 2252   6.420   3.309   1.543
  763TIP3    H1 2253   6.510   3.339   1.554
  763TIP3    H2 2254   6.381   3.370   1.481
  764TIP3   OH2 2255   5.526   2.499   0.250
  764TIP3    H1 2256   5.437   2.525   0.226
  764TIP3    H2 2257   5.526   2.499   0.345
  765TIP3   OH2 2258   6.158   6.744   5.047
  765TIP3    H1 2259   6.219   6.815   5.066
  765TIP3    H2 2260   6.208   6.685   4.990
  766TIP3   OH2 2261   3.279   2.233   3.795
  766TIP3    H1 2262   3.237   2.247   3.710
  766TIP3    H2 2263   3.373   2.236   3.775
  767TIP3   OH2 2264   3.043   3.505   5.025
  767TIP3    H1 2265   3.008   3.526   5.112
  767TIP3    H2 2266   2.966   3.480   4.974
  768TIP3   OH2 2267   5.961   5.531   4.880
  768TIP3    H1 2268   6.023   5.497   4.816
  768TIP3    H2 2269   5.875   5.503   4.847
  769TIP3   OH2 2270   2.067   6.695   5.610
  769TIP3    H1 2271   1.990   6.733   5.652
  769TIP3    H2 2272   2.053   6.600   5.617
  770TIP3   OH2 2273   1.500   4.235   4.378
  770TIP3    H1 2274   1.549   4.212   4.299
  770TIP3    H2 2275   1.408   4.220   4.354
  771TIP3   OH2 2276   2.191   0.754   3.154
  771TIP3    H1 2277   2.213   0.841   3.189
  771TIP3    H2 2278   2.096   0.750   3.158
  772TIP3   OH2 2279   6.599   3.073   2.357
  772TIP3    H1 2280   6.652   3.144   2.322
  772TIP3    H2 2281   6.621   3.071   2.450
  773TIP3   OH2 2282   5.168   2.385   4.730
  773TIP3    H1 2283   5.219   2.459   4.761
  773TIP3    H2 2284   5.080   2.399   4.766
  774TIP3   OH2 2285   6.898   2.432   0.960
  774TIP3    H1 2286   6.942   2.376   0.896
  774TIP3    H2 2287   6.806   2.406   0.955
  775TIP3   OH2 2288   6.662   4.792   4.725
  775TIP3    H1 2289   6.595   4.762   4.663
  775TIP3    H2 2290   6.648   4.737   4.803
  776TIP3   OH2 2291   2.865   2.692   2.570
  776TIP3    H1 2292   2.819   2.776   2.578
  776TIP3    H2 2293   2.939   2.711   2.512
  777TIP3   OH2 2294   4.515   3.200   2.335
  777TIP3    H1 2295   4.604   3.187   2.369
  777TIP3    H2 2296   4.464   3.224   2.412
  778TIP3   OH2 2297   1.482   2.504   1.907
  778TIP3    H1 2298   1.465   2.437   1.841
  778TIP3    H2 2299   1.498   2.584   1.856
  779TIP3   OH2 2300   0.724   2.602   5.434
  779TIP3    H1 2301   0.655   2.659   5.470
  779TIP3    H2 2302   0.771   2.658   5.373
  780TIP3   OH2 2303   1.800   1.543   3.791
  780TIP3    H1 2304   1.842   1.629   3.786
  780TIP3    H2 2305   1.732   1.545   3.724
  781TIP3   OH2 2306   1.116   1.319   4.359
  781TIP3    H1 2307   1.201   1.276   4.370
  781TIP3    H2 2308   1.125   1.402   4.407
  782TIP3   OH2 2309   3.739   2.208   2.860
  782TIP3    H1 2310   3.756   2.189   2.768
  782TIP3    H2 2311   3.771   2.131   2.908
  783TIP3   OH2 2312   2.606   0.785   0.021
  783TIP3    H1 2313   2.574   0.780  -0.069
  783TIP3    H2 2314   2.533   0.755   0.075
  784TIP3   OH2 2315   5.810   0.482   1.955
  784TIP3    H1 2316   5.716   0.495   1.948
  784TIP3    H2 2317   5.849   0.551   1.902
  785TIP3   OH2 2318   2.712   1.815   2.992
  785TIP3    H1 2319   2.626   1.830   3.030
  785TIP3    H2 2320   2.729   1.893   2.939
  786TIP3   OH2 2321   2.757   5.287   3.391
  786TIP3    H1 2322   2.707   5.340   3.329
  786TIP3    H2 2323   2.722   5.199   3.382
  787TIP3   OH2 2324   6.607   6.443   2.767
  787TIP3    H1 2325   6.609   6.358   2.722
  787TIP3    H2 2326   6.619   6.421   2.859
  788TIP3   OH2 2327   3.268   0.165   3.722
  788TIP3    H1 2328   3.274   0.260   3.711
  788TIP3    H2 2329   3.181   0.143   3.690
  789TIP3   OH2 2330   5.383   1.520   4.028
  789TIP3    H1 2331   5.456   1.568   3.988
  789TIP3    H2 2332   5.315   1.586   4.041
  790TIP3   OH2 2333   5.457   4.527   0.224
  790TIP3    H1 2334   5.474   4.495   0.312
  790TIP3    H2 2335   5.381   4.477   0.194
  791TIP3   OH2 2336   6.990   4.726   5.251
  791TIP3    H1 2337   6.986   4.664   5.324
  791TIP3    H2 2338   7.084   4.740   5.238
  792TIP3   OH2 2339   1.951   2.858   3.633
  792TIP3    H1 2340   2.025   2.802   3.611
  792TIP3    H2 2341   1.991   2.937   3.671
  793TIP3   OH2 2342   4.077   0.962   3.824
  793TIP3    H1 2343   3.988   0.939   3.796
  793TIP3    H2 2344   4.114   0.879   3.855
  794TIP3   OH2 2345   4.575   4.093   4.727
  794TIP3    H1 2346   4.532   4.032   4.667
  794TIP3    H2 2347   4.560   4.057   4.814
  795TIP3   OH2 2348   6.760   5.460   4.514
  795TIP3    H1 2349   6.783   5.476   4.605
  795TIP3    H2 2350   6.706   5.535   4.490
  796TIP3   OH2 2351   0.768   1.616   3.773
  796TIP3    H1 2352   0.785   1.522   3.782
  796TIP3    H2 2353   0.766   1.649   3.863
  797TIP3   OH2 2354   1.705   0.495   3.188
  797TIP3    H1 2355   1.687   0.401   3.185
  797TIP3    H2 2356   1.691   0.518   3.280
  798TIP3   OH2 2357   1.916   1.545   0.820
  798TIP3    H1 2358   1.991   1.491   0.845
  798TIP3    H2 2359   1.893   1.515   0.731
  799TIP3   OH2 2360   2.628   2.800   2.837
  799TIP3    H1 2361   2.566   2.753   2.781
  799TIP3    H2 2362   2.684   2.732   2.874
  800TIP3   OH2 2363   5.291   0.762   1.637
  800TIP3    H1 2364   5.330   0.847   1.616
  800TIP3    H2 2365   5.292   0.757   1.732
  801TIP3   OH2 2366   5.630   3.930   4.931
  801TIP3    H1 2367   5.699   3.996   4.922
  801TIP3    H2 2368   5.610   3.929   5.024
  802TIP3   OH2 2369   4.887   5.051   3.653
  802TIP3    H1 2370   4.955   5.117   3.639
  802TIP3    H2 2371   4.844   5.042   3.568
  803TIP3   OH2 2372   1.523   4.841   4.368
  803TIP3    H1 2373   1.550   4.750   4.385
  803TIP3    H2 2374   1.428   4.839   4.374
  804TIP3   OH2 2375   6.023   5.350   1.567
  804TIP3    H1 2376   5.932   5.339   1.594
  804TIP3    H2 2377   6.020   5.412   1.495
  805TIP3   OH2 2378   6.670   4.205   2.195
  805TIP3    H1 2379   6.666   4.110   2.196
  805TIP3    H2 2380   6.583   4.232   2.166
  806TIP3   OH2 2381   3.767   0.146   3.801
  806TIP3    H1 2382   3.859   0.121   3.786
  806TIP3    H2 2383   3.716   0.081   3.753
  807TIP3   OH2 2384   0.135   0.648   2.136
  807TIP3    H1 2385   0.143   0.553   2.125
  807TIP3    H2 2386   0.185   0.667   2.215
  808TIP3   OH2 2387   0.192   4.670   3.809
  808TIP3    H1 2388   0.248   4.710   3.875
  808TIP3    H2 2389   0.191   4.732   3.737
  809TIP3   OH2 2390   3.412   2.628   3.714
  809TIP3    H1 2391   3.357   2.608   3.790
  809TIP3    H2 2392   3.409   2.724   3.708
  810TIP3   OH2 2393   5.597   5.030   1.952
  810TIP3    H1 2394   5.664   5.019   1.884
  810TIP3    H2 2395   5.647   5.045   2.033
  811TIP3   OH2 2396   1.781   4.691   0.833
  811TIP3    H1 2397   1.707   4.669   0.776
  811TIP3    H2 2398   1.840   4.617   0.824
  812TIP3   OH2 2399   1.607   2.616   0.988
  812TIP3    H1 2400   1.552   2.578   1.057
  812TIP3    H2 2401   1.643   2.696   1.027
  813TIP3   OH2 2402   5.320   6.125   1.991
  813TIP3    H1 2403   5.301   6.171   2.073
  813TIP3    H2 2404   5.412   6.146   1.973
  814TIP3   OH2 2405   0.670   3.621   0.658
  814TIP3    H1 2406   0.594   3.628   0.600
  814TIP3    H2 2407   0.633   3.633   0.746
  815TIP3   OH2 2408   3.471   2.133   1.336
  815TIP3    H1 2409   3.459   2.199   1.267
  815TIP3    H2 2410   3.431   2.172   1.414
  816TIP3   OH2 2411   2.880   4.696   0.087
  816TIP3    H1 2412   2.957   4.749   0.108
  816TIP3    H2 2413   2.806   4.748   0.116
  817TIP3   OH2 2414   6.035   4.363   1.212
  817TIP3    H1 2415   5.961   4.422   1.226
  817TIP3    H2 2416   6.103   4.418   1.174
  818TIP3   OH2 2417   6.301   5.291   3.686
  818TIP3    H1 2418   6.211   5.290   3.653
  818TIP3    H2 2419   6.293   5.281   3.781
  819TIP3   OH2 2420   5.636   4.259   5.096
  819TIP3    H1 2421   5.544   4.237   5.081
  819TIP3    H2 2422   5.685   4.201   5.038
  820TIP3   OH2 2423   3.702   5.271   1.754
  820TIP3    H1 2424   3.619   5.316   1.766
  820TIP3    H2 2425   3.707   5.256   1.659
  821TIP3   OH2 2426   6.877   2.398   2.708
  821TIP3    H1 2427   6.887   2.458   2.781
  821TIP3    H2 2428   6.962   2.402   2.662
  822TIP3   OH2 2429   3.965   0.730   2.404
  822TIP3    H1 2430   4.028   0.663   2.379
  822TIP3    H2 2431   3.920   0.753   2.323
  823TIP3   OH2 2432   0.654   4.682   5.339
  823TIP3    H1 2433   0.686   4.633   5.264
  823TIP3    H2 2434   0.620   4.764   5.303
  824TIP3   OH2 2435   2.348   0.852   0.503
  824TIP3    H1 2436   2.368   0.937   0.464
  824TIP3    H2 2437   2.428   0.801   0.492
  825TIP3   OH2 2438   6.933   3.565   4.131
  825TIP3    H1 2439   6.933   3.629   4.060
  825TIP3    H2 2440   6.958   3.483   4.089
  826TIP3   OH2 2441   0.314   1.454   1.114
  826TIP3    H1 2442   0.238   1.409   1.151
  826TIP3    H2 2443   0.366   1.385   1.073
  827TIP3   OH2 2444   0.409   6.091   4.028
  827TIP3    H1 2445   0.438   6.118   3.941
  827TIP3    H2 2446   0.317   6.117   4.032
  828TIP3   OH2 2447   4.242   5.686   3.316
  828TIP3    H1 2448   4.283   5.772   3.316
  828TIP3    H2 2449   4.149   5.703   3.336
  829TIP3   OH2 2450   4.446   1.719   5.011
  829TIP3    H1 2451   4.427   1.652   4.946
  829TIP3    H2 2452   4.503   1.676   5.075
  830TIP3   OH2 2453   6.977   0.388   3.367
  830TIP3    H1 2454   6.931   0.471   3.377
  830TIP3    H2 2455   7.060   0.400   3.413
  831TIP3   OH2 2456   1.121   0.655   1.077
  831TIP3    H1 2457   1.126   0.572   1.124
  831TIP3    H2 2458   1.067   0.711   1.133
  832TIP3   OH2 2459   6.336   4.482   5.712
  832TIP3    H1 2460   6.359   4.487   5.805
  832TIP3    H2 2461   6.413   4.444   5.671
  833TIP3   OH2 2462   5.192   0.074   5.922
  833TIP3    H1 2463   5.134   0.151   5.921
  833TIP3    H2 2464   5.169   0.025   5.843
  834TIP3   OH2 2465   3.934   1.718   5.473
  834TIP3    H1 2466   3.969   1.776   5.405
  834TIP3    H2 2467   3.842   1.745   5.483
  835TIP3   OH2 2468   1.838   0.965   4.668
  835TIP3    H1 2469   1.883   0.898   4.616
  835TIP3    H2 2470   1.747   0.961   4.639
  836TIP3   OH2 2471   7.199   0.768   3.610
  836TIP3    H1 2472   7.282   0.812   3.626
  836TIP3    H2 2473   7.151   0.777   3.693
  837TIP3   OH2 2474   2.183   2.313  -0.011
  837TIP3    H1 2475   2.142   2.226  -0.007
  837TIP3    H2 2476   2.276   2.297   0.005
  838TIP3   OH2 2477   0.848   2.528   0.983
  838TIP3    H1 2478   0.846   2.503   1.075
  838TIP3    H2 2479   0.939   2.557   0.969
  839TIP3   OH2 2480   7.080   1.261   2.218
  839TIP3    H1 2481   7.122   1.230   2.138
  839TIP3    H2 2482   7.103   1.195   2.284
  840TIP3   OH2 2483   1.664   3.074   5.550
  840TIP3    H1 2484   1.600   3.016   5.591
  840TIP3    H2 2485   1.684   3.032   5.466
  841TIP3   OH2 2486   6.687   1.429   1.193
  841TIP3    H1 2487   6.745   1.369   1.147
  841TIP3    H2 2488   6.651   1.484   1.123
  842TIP3   OH2 2489   5.887   1.896   5.139
  842TIP3    H1 2490   5.931   1.829   5.191
  842TIP3    H2 2491   5.940   1.975   5.152
  843TIP3   OH2 2492   3.564   0.495   2.765
  843TIP3    H1 2493   3.476   0.534   2.762
  843TIP3    H2 2494   3.552   0.406   2.732
  844TIP3   OH2 2495   5.158   2.238   1.685
  844TIP3    H1 2496   5.128   2.327   1.707
  844TIP3    H2 2497   5.225   2.252   1.618
  845TIP3   OH2 2498   6.369   1.115   1.529
  845TIP3    H1 2499   6.428   1.043   1.552
  845TIP3    H2 2500   6.283   1.087   1.562
  846TIP3   OH2 2501   1.325   5.949   3.581
  846TIP3    H1 2502   1.363   5.988   3.502
  846TIP3    H2 2503   1.273   6.019   3.619
  847TIP3   OH2 2504   0.723   5.205   4.974
  847TIP3    H1 2505   0.812   5.199   4.939
  847TIP3    H2 2506   0.692   5.291   4.948
  848TIP3   OH2 2507   0.136   1.570   3.879
  848TIP3    H1 2508   0.114   1.571   3.972
  848TIP3    H2 2509   0.052   1.583   3.835
  849TIP3   OH2 2510   3.523   1.332   3.427
  849TIP3    H1 2511   3.537   1.426   3.417
  849TIP3    H2 2512   3.506   1.301   3.338
  850TIP3   OH2 2513   7.171   1.526   2.774
  850TIP3    H1 2514   7.099   1.486   2.822
  850TIP3    H2 2515   7.160   1.620   2.787
  851TIP3   OH2 2516   0.657   4.312   1.173
  851TIP3    H1 2517   0.713   4.383   1.143
  851TIP3    H2 2518   0.686   4.236   1.123
  852TIP3   OH2 2519   6.848   6.605   4.763
  852TIP3    H1 2520   6.814   6.557   4.687
  852TIP3    H2 2521   6.941   6.582   4.766
  853TIP3   OH2 2522   2.175   2.679   5.660
  853TIP3    H1 2523   2.138   2.671   5.748
  853TIP3    H2 2524   2.174   2.590   5.625
  854TIP3   OH2 2525   1.054   5.874   1.856
  854TIP3    H1 2526   1.096   5.802   1.904
  854TIP3    H2 2527   1.084   5.863   1.766
  855TIP3   OH2 2528   1.375   2.092   3.186
  855TIP3    H1 2529   1.288   2.112   3.151
  855TIP3    H2 2530   1.363   2.009   3.233
  856TIP3   OH2 2531   4.344   5.766   0.637
  856TIP3    H1 2532   4.430   5.753   0.597
  856TIP3    H2 2533   4.359   5.835   0.703
  857TIP3   OH2 2534   0.821   3.792   5.078
  857TIP3    H1 2535   0.814   3.754   4.991
  857TIP3    H2 2536   0.914   3.816   5.087
  858TIP3   OH2 2537   4.468   0.926   3.173
  858TIP3    H1 2538   4.448   0.840   3.209
  858TIP3    H2 2539   4.497   0.978   3.248
  859TIP3   OH2 2540   2.655   3.705   2.888
  859TIP3    H1 2541   2.647   3.610   2.899
  859TIP3    H2 2542   2.567   3.739   2.902
  860TIP3   OH2 2543   4.709   1.560   4.477
  860TIP3    H1 2544   4.639   1.623   4.464
  860TIP3    H2 2545   4.665   1.476   4.485
  861TIP3   OH2 2546   2.925   2.907   4.168
  861TIP3    H1 2547   2.883   2.917   4.082
  861TIP3    H2 2548   2.856   2.875   4.225
  862TIP3   OH2 2549   4.536   2.251   3.669
  862TIP3    H1 2550   4.489   2.335   3.669
  862TIP3    H2 2551   4.516   2.213   3.584
  863TIP3   OH2 2552   5.682   0.604   5.296
  863TIP3    H1 2553   5.594   0.639   5.282
  863TIP3    H2 2554   5.667   0.524   5.347
  864TIP3   OH2 2555   5.260   0.445   1.895
  864TIP3    H1 2556   5.346   0.481   1.873
  864TIP3    H2 2557   5.278   0.353   1.915
  865TIP3   OH2 2558   3.215   3.583   0.431
  865TIP3    H1 2559   3.253   3.508   0.478
  865TIP3    H2 2560   3.133   3.550   0.396
  866TIP3   OH2 2561   4.700   2.173   5.700
  866TIP3    H1 2562   4.643   2.243   5.732
  866TIP3    H2 2563   4.761   2.217   5.641
  867TIP3   OH2 2564   3.872   2.120   2.638
  867TIP3    H1 2565   3.921   2.202   2.652
  867TIP3    H2 2566   3.939   2.055   2.620
  868TIP3   OH2 2567   0.862   2.578   3.542
  868TIP3    H1 2568   0.821   2.656   3.506
  868TIP3    H2 2569   0.884   2.525   3.466
  869TIP3   OH2 2570   3.869   1.620   2.597
  869TIP3    H1 2571   3.783   1.599   2.632
  869TIP3    H2 2572   3.892   1.704   2.637
  870TIP3   OH2 2573   5.023   1.537   2.529
  870TIP3    H1 2574   4.963   1.610   2.516
  870TIP3    H2 2575   5.078   1.564   2.603
  871TIP3   OH2 2576   5.179   1.826   0.818
  871TIP3    H1 2577   5.260   1.802   0.773
  871TIP3    H2 2578   5.136   1.743   0.837
  872TIP3   OH2 2579   0.538   4.924   5.865
  872TIP3    H1 2580   0.505   4.934   5.776
  872TIP3    H2 2581   0.630   4.899   5.854
  873TIP3   OH2 2582   4.409   5.970   5.524
  873TIP3    H1 2583   4.320   5.981   5.557
  873TIP3    H2 2584   4.400   5.961   5.429
  874TIP3   OH2 2585   4.312   1.680   0.818
  874TIP3    H1 2586   4.227   1.644   0.845
  874TIP3    H2 2587   4.333   1.632   0.738
  875TIP3   OH2 2588   2.328   6.338   3.116
  875TIP3    H1 2589   2.397   6.309   3.176
  875TIP3    H2 2590   2.356   6.307   3.030
  876TIP3   OH2 2591   5.895   0.504   3.283
  876TIP3    H1 2592   5.901   0.424   3.230
  876TIP3    H2 2593   5.820   0.551   3.248
  877TIP3   OH2 2594   4.466   0.276   5.528
  877TIP3    H1 2595   4.486   0.250   5.618
  877TIP3    H2 2596   4.392   0.220   5.502
  878TIP3   OH2 2597   5.731   3.880   2.637
  878TIP3    H1 2598   5.682   3.938   2.695
  878TIP3    H2 2599   5.822   3.910   2.644
  879TIP3   OH2 2600   6.792   0.186   3.446
  879TIP3    H1 2601   6.844   0.109   3.466
  879TIP3    H2 2602   6.856   0.252   3.418
  880TIP3   OH2 2603   3.779   1.069   1.497
  880TIP3    H1 2604   3.796   0.986   1.451
  880TIP3    H2 2605   3.759   1.131   1.427
  881TIP3   OH2 2606   0.420   1.648   2.361
  881TIP3    H1 2607   0.510   1.616   2.373
  881TIP3    H2 2608   0.417   1.731   2.408
  882TIP3   OH2 2609   4.538   0.691   0.625
  882TIP3    H1 2610   4.571   0.772   0.587
  882TIP3    H2 2611   4.487   0.719   0.701
  883TIP3   OH2 2612   2.114   5.466   4.661
  883TIP3    H1 2613   2.097   5.374   4.639
  883TIP3    H2 2614   2.147   5.464   4.751
  884TIP3   OH2 2615   4.161   1.326   2.308
  884TIP3    H1 2616   4.085   1.357   2.356
  884TIP3    H2 2617   4.187   1.400   2.252
  885TIP3   OH2 2618   0.416   5.352   5.487
  885TIP3    H1 2619   0.500   5.322   5.454
  885TIP3    H2 2620   0.436   5.394   5.571
  886TIP3   OH2 2621   1.341   3.233   4.208
  886TIP3    H1 2622   1.379   3.179   4.139
  886TIP3    H2 2623   1.299   3.171   4.267
  887TIP3   OH2 2624   4.371   4.041   2.254
  887TIP3    H1 2625   4.458   4.047   2.215
  887TIP3    H2 2626   4.386   4.001   2.340
  888TIP3   OH2 2627   6.394   1.024   4.357
  888TIP3    H1 2628   6.346   0.947   4.328
  888TIP3    H2 2629   6.326   1.089   4.376
  889TIP3   OH2 2630   2.760   3.659   1.135
  889TIP3    H1 2631   2.795   3.593   1.076
  889TIP3    H2 2632   2.671   3.675   1.105
  890TIP3   OH2 2633   1.251   6.666   4.460
  890TIP3    H1 2634   1.205   6.749   4.469
  890TIP3    H2 2635   1.312   6.680   4.387
  891TIP3   OH2 2636   6.849   1.901   4.164
  891TIP3    H1 2637   6.833   1.992   4.186
  891TIP3    H2 2638   6.924   1.903   4.104
  892TIP3   OH2 2639   6.482   2.992   1.630
  892TIP3    H1 2640   6.504   3.004   1.538
  892TIP3    H2 2641   6.404   2.937   1.630
  893TIP3   OH2 2642   1.370   2.050   4.604
  893TIP3    H1 2643   1.442   2.111   4.587
  893TIP3    H2 2644   1.405   1.990   4.670
  894TIP3   OH2 2645   0.635   2.027   2.734
  894TIP3    H1 2646   0.550   2.040   2.691
  894TIP3    H2 2647   0.697   2.023   2.661
  895TIP3   OH2 2648   0.237   1.728   0.045
  895TIP3    H1 2649   0.212   1.763  -0.041
  895TIP3    H2 2650   0.276   1.643   0.026
  896TIP3   OH2 2651   2.514   3.759   0.999
  896TIP3    H1 2652   2.488   3.846   1.031
  896TIP3    H2 2653   2.475   3.698   1.061
  897TIP3   OH2 2654   3.005   4.234   2.708
  897TIP3    H1 2655   3.029   4.201   2.794
  897TIP3    H2 2656   3.088   4.239   2.660
  898TIP3   OH2 2657   3.916   1.174   4.960
  898TIP3    H1 2658   3.847   1.134   5.013
  898TIP3    H2 2659   3.938   1.254   5.008
  899TIP3   OH2 2660   2.955   4.153   1.252
  899TIP3    H1 2661   2.917   4.209   1.184
  899TIP3    H2 2662   2.897   4.078   1.257
  900TIP3   OH2 2663   2.963   0.458   5.422
  900TIP3    H1 2664   3.027   0.525   5.397
  900TIP3    H2 2665   2.992   0.428   5.509
  901TIP3   OH2 2666   5.643   1.942   5.292
  901TIP3    H1 2667   5.689   1.949   5.376
  901TIP3    H2 2668   5.713   1.944   5.227
  902TIP3   OH2 2669   2.854   0.538   5.735
  902TIP3    H1 2670   2.930   0.482   5.722
  902TIP3    H2 2671   2.838   0.536   5.829
  903TIP3   OH2 2672   5.034   4.187   1.132
  903TIP3    H1 2673   5.053   4.093   1.128
  903TIP3    H2 2674   5.016   4.212   1.042
  904TIP3   OH2 2675   5.266   1.381   4.632
  904TIP3    H1 2676   5.278   1.447   4.701
  904TIP3    H2 2677   5.244   1.301   4.680
  905TIP3   OH2 2678   3.263   2.884   3.853
  905TIP3    H1 2679   3.219   2.950   3.907
  905TIP3    H2 2680   3.199   2.813   3.845
  906TIP3   OH2 2681   1.643   3.443   2.134
  906TIP3    H1 2682   1.571   3.492   2.095
  906TIP3    H2 2683   1.665   3.376   2.069
  907TIP3   OH2 2684   4.098   0.783   0.810
  907TIP3    H1 2685   4.157   0.764   0.737
  907TIP3    H2 2686   4.045   0.856   0.780
  908TIP3   OH2 2687   6.761   4.123   3.148
  908TIP3    H1 2688   6.771   4.044   3.200
  908TIP3    H2 2689   6.743   4.091   3.059
  909TIP3   OH2 2690   4.910   4.285   3.150
  909TIP3    H1 2691   4.986   4.301   3.094
  909TIP3    H2 2692   4.863   4.368   3.152
  910TIP3   OH2 2693   1.178   0.694   1.948
  910TIP3    H1 2694   1.156   0.618   1.894
  910TIP3    H2 2695   1.119   0.690   2.023
  911TIP3   OH2 2696   7.164   0.606   4.794
  911TIP3    H1 2697   7.257   0.598   4.772
  911TIP3    H2 2698   7.162   0.607   4.890
  912TIP3   OH2 2699   3.239   1.674   1.712
  912TIP3    H1 2700   3.241   1.580   1.730
  912TIP3    H2 2701   3.284   1.683   1.628
  913TIP3   OH2 2702   4.769   6.023   3.821
  913TIP3    H1 2703   4.754   5.980   3.737
  913TIP3    H2 2704   4.818   5.958   3.872
  914TIP3   OH2 2705   4.434   4.690   3.017
  914TIP3    H1 2706   4.349   4.645   3.016
  914TIP3    H2 2707   4.423   4.762   2.956
  915TIP3   OH2 2708   5.439   6.060   5.421
  915TIP3    H1 2709   5.407   6.096   5.338
  915TIP3    H2 2710   5.478   6.135   5.466
  916TIP3   OH2 2711   3.011   6.701   1.829
  916TIP3    H1 2712   2.990   6.653   1.909
  916TIP3    H2 2713   2.931   6.697   1.777
  917TIP3   OH2 2714   4.208   4.238   2.718
  917TIP3    H1 2715   4.258   4.268   2.793
  917TIP3    H2 2716   4.200   4.314   2.661
  918TIP3   OH2 2717   6.806   2.153   4.261
  918TIP3    H1 2718   6.721   2.153   4.307
  918TIP3    H2 2719   6.846   2.236   4.286
  919TIP3   OH2 2720   1.990   5.785   0.867
  919TIP3    H1 2721   1.970   5.768   0.959
  919TIP3    H2 2722   2.031   5.872   0.867
  920TIP3   OH2 2723   1.118   1.796   4.266
  920TIP3    H1 2724   1.194   1.833   4.221
  920TIP3    H2 2725   1.110   1.848   4.346
  921TIP3   OH2 2726   4.078   4.027   2.220
  921TIP3    H1 2727   4.035   3.968   2.282
  921TIP3    H2 2728   4.154   4.060   2.268
  922TIP3   OH2 2729   3.870   4.377   1.925
  922TIP3    H1 2730   3.959   4.384   1.889
  922TIP3    H2 2731   3.883   4.349   2.016
  923TIP3   OH2 2732   0.820   2.122   4.883
  923TIP3    H1 2733   0.816   2.145   4.976
  923TIP3    H2 2734   0.730   2.100   4.860
  924TIP3   OH2 2735   3.972   4.119   3.486
  924TIP3    H1 2736   3.957   4.026   3.468
  924TIP3    H2 2737   4.025   4.121   3.565
  925TIP3   OH2 2738   7.035   0.038   0.866
  925TIP3    H1 2739   7.114   0.069   0.822
  925TIP3    H2 2740   7.044  -0.057   0.869
  926TIP3   OH2 2741   6.489   6.792   1.705
  926TIP3    H1 2742   6.544   6.714   1.695
  926TIP3    H2 2743   6.443   6.800   1.622
  927TIP3   OH2 2744   3.332   4.739   4.969
  927TIP3    H1 2745   3.303   4.829   4.989
  927TIP3    H2 2746   3.311   4.689   5.048
  928TIP3   OH2 2747   5.993   2.361   0.068
  928TIP3    H1 2748   6.044   2.363   0.149
  928TIP3    H2 2749   6.059   2.352  -0.001
  929TIP3   OH2 2750   5.584   4.431   5.562
  929TIP3    H1 2751   5.499   4.419   5.603
  929TIP3    H2 2752   5.619   4.343   5.550
  930TIP3   OH2 2753   3.385   1.202   4.982
  930TIP3    H1 2754   3.396   1.127   5.040
  930TIP3    H2 2755   3.354   1.272   5.039
  931TIP3   OH2 2756   6.129   3.721   4.215
  931TIP3    H1 2757   6.191   3.772   4.267
  931TIP3    H2 2758   6.043   3.751   4.243
  932TIP3   OH2 2759   1.653   2.732   0.572
  932TIP3    H1 2760   1.674   2.811   0.621
  932TIP3    H2 2761   1.686   2.660   0.626
  933TIP3   OH2 2762   4.377   4.473   0.588
  933TIP3    H1 2763   4.414   4.392   0.623
  933TIP3    H2 2764   4.326   4.509   0.661
  934TIP3   OH2 2765   5.765   6.188   5.636
  934TIP3    H1 2766   5.803   6.162   5.552
  934TIP3    H2 2767   5.671   6.188   5.621
  935TIP3   OH2 2768   3.783   4.413   0.633
  935TIP3    H1 2769   3.689   4.397   0.635
  935TIP3    H2 2770   3.811   4.382   0.547
  936TIP3   OH2 2771   4.721   3.092   3.133
  936TIP3    H1 2772   4.678   3.114   3.217
  936TIP3    H2 2773   4.752   3.002   3.145
  937TIP3   OH2 2774   2.812   0.983   4.123
  937TIP3    H1 2775   2.752   0.911   4.101
  937TIP3    H2 2776   2.770   1.061   4.085
  938TIP3   OH2 2777   2.236   1.785   1.601
  938TIP3    H1 2778   2.185   1.839   1.540
  938TIP3    H2 2779   2.227   1.829   1.686
  939TIP3   OH2 2780   1.084   2.818   5.480
  939TIP3    H1 2781   1.005   2.770   5.456
  939TIP3    H2 2782   1.060   2.864   5.560
  940TIP3   OH2 2783   4.692   1.189   4.137
  940TIP3    H1 2784   4.647   1.118   4.183
  940TIP3    H2 2785   4.649   1.269   4.166
  941TIP3   OH2 2786   3.632   0.899   5.427
  941TIP3    H1 2787   3.575   0.929   5.498
  941TIP3    H2 2788   3.686   0.975   5.407
  942TIP3   OH2 2789   5.068   1.663   5.642
  942TIP3    H1 2790   4.995   1.722   5.661
  942TIP3    H2 2791   5.104   1.694   5.559
  943TIP3   OH2 2792   0.682   2.629   3.172
  943TIP3    H1 2793   0.614   2.696   3.165
  943TIP3    H2 2794   0.635   2.547   3.156
  944TIP3   OH2 2795   0.069   1.488   5.568
  944TIP3    H1 2796   0.141   1.425   5.576
  944TIP3    H2 2797   0.107   1.562   5.521
  945TIP3   OH2 2798   2.582   5.597   3.667
  945TIP3    H1 2799   2.521   5.621   3.597
  945TIP3    H2 2800   2.662   5.646   3.647
  946TIP3   OH2 2801   5.376   5.172   3.675
  946TIP3    H1 2802   5.320   5.198   3.748
  946TIP3    H2 2803   5.454   5.135   3.717
  947TIP3   OH2 2804   2.373   3.733   3.553
  947TIP3    H1 2805   2.440   3.706   3.491
  947TIP3    H2 2806   2.343   3.652   3.594
  948TIP3   OH2 2807   1.885   3.199   3.156
  948TIP3    H1 2808   1.916   3.269   3.213
  948TIP3    H2 2809   1.813   3.159   3.205
  949TIP3   OH2 2810   6.888   4.330   3.048
  949TIP3    H1 2811   6.832   4.261   3.084
  949TIP3    H2 2812   6.937   4.286   2.978
  950TIP3   OH2 2813   2.522   0.051   3.141
  950TIP3    H1 2814   2.554   0.142   3.142
  950TIP3    H2 2815   2.429   0.058   3.163
  951TIP3   OH2 2816   0.921   3.648   1.764
  951TIP3    H1 2817   0.836   3.646   1.809
  951TIP3    H2 2818   0.936   3.740   1.745
  952TIP3   OH2 2819   0.376   3.447   1.891
  952TIP3    H1 2820   0.333   3.527   1.923
  952TIP3    H2 2821   0.348   3.440   1.800
  953TIP3   OH2 2822   1.853   0.941   5.314
  953TIP3    H1 2823   1.892   0.860   5.284
  953TIP3    H2 2824   1.772   0.949   5.263
  954TIP3   OH2 2825   1.303   0.245   4.270
  954TIP3    H1 2826   1.218   0.269   4.234
  954TIP3    H2 2827   1.317   0.155   4.241
  955TIP3   OH2 2828   4.548   0.644   1.995
  955TIP3    H1 2829   4.561   0.592   1.915
  955TIP3    H2 2830   4.464   0.688   1.982
  956TIP3   OH2 2831   1.488   0.393   1.820
  956TIP3    H1 2832   1.416   0.338   1.788
  956TIP3    H2 2833   1.459   0.483   1.804
  957TIP3   OH2 2834   2.686   1.997   2.239
  957TIP3    H1 2835   2.701   1.912   2.281
  957TIP3    H2 2836   2.601   1.987   2.196
  958TIP3   OH2 2837   5.950   3.215   1.415
  958TIP3    H1 2838   6.035   3.191   1.377
  958TIP3    H2 2839   5.910   3.273   1.351
  959TIP3   OH2 2840   4.727   1.220   0.396
  959TIP3    H1 2841   4.704   1.138   0.440
  959TIP3    H2 2842   4.646   1.248   0.355
  960TIP3   OH2 2843   6.972   1.466   3.345
  960TIP3    H1 2844   6.994   1.384   3.301
  960TIP3    H2 2845   7.056   1.497   3.380
  961TIP3   OH2 2846   2.036   5.188   3.649
  961TIP3    H1 2847   2.124   5.224   3.639
  961TIP3    H2 2848   1.981   5.245   3.596
  962TIP3   OH2 2849   6.771   0.794   2.724
  962TIP3    H1 2850   6.779   0.784   2.629
  962TIP3    H2 2851   6.862   0.792   2.755
  963TIP3   OH2 2852   6.142   4.194   5.438
  963TIP3    H1 2853   6.191   4.123   5.480
  963TIP3    H2 2854   6.096   4.237   5.510
  964TIP3   OH2 2855   0.472   3.936   1.270
  964TIP3    H1 2856   0.464   4.008   1.208
  964TIP3    H2 2857   0.562   3.941   1.303
  965TIP3   OH2 2858   0.786   4.808   5.858
  965TIP3    H1 2859   0.869   4.834   5.897
  965TIP3    H2 2860   0.808   4.779   5.770
  966TIP3   OH2 2861   3.644   0.946   1.190
  966TIP3    H1 2862   3.556   0.932   1.156
  966TIP3    H2 2863   3.643   0.906   1.277
  967TIP3   OH2 2864   6.361   0.133   3.760
  967TIP3    H1 2865   6.426   0.191   3.720
  967TIP3    H2 2866   6.334   0.075   3.688
  968TIP3   OH2 2867   4.813   0.355   0.442
  968TIP3    H1 2868   4.881   0.386   0.382
  968TIP3    H2 2869   4.842   0.269   0.470
  969TIP3   OH2 2870   1.890   5.624   1.337
  969TIP3    H1 2871   1.973   5.580   1.353
  969TIP3    H2 2872   1.829   5.583   1.397
  970TIP3   OH2 2873   1.509   5.902   0.390
  970TIP3    H1 2874   1.492   5.978   0.334
  970TIP3    H2 2875   1.589   5.863   0.354
  971TIP3   OH2 2876   0.654   1.500   4.221
  971TIP3    H1 2877   0.717   1.570   4.201
  971TIP3    H2 2878   0.708   1.421   4.230
  972TIP3   OH2 2879   6.987   0.122   0.148
  972TIP3    H1 2880   7.067   0.159   0.111
  972TIP3    H2 2881   6.942   0.082   0.073
  973TIP3   OH2 2882   6.077   5.877   4.544
  973TIP3    H1 2883   6.166   5.850   4.564
  973TIP3    H2 2884   6.057   5.944   4.609
  974TIP3   OH2 2885   1.224   2.918   5.041
  974TIP3    H1 2886   1.145   2.947   5.086
  974TIP3    H2 2887   1.289   2.986   5.059
  975TIP3   OH2 2888   0.987   3.279   1.880
  975TIP3    H1 2889   0.973   3.185   1.871
  975TIP3    H2 2890   1.082   3.289   1.887
  976TIP3   OH2 2891   3.855   3.778   0.812
  976TIP3    H1 2892   3.859   3.838   0.886
  976TIP3    H2 2893   3.765   3.784   0.781
  977TIP3   OH2 2894   4.580   5.625   2.476
  977TIP3    H1 2895   4.508   5.564   2.493
  977TIP3    H2 2896   4.623   5.590   2.398
  978TIP3   OH2 2897   5.380   6.761   2.531
  978TIP3    H1 2898   5.423   6.803   2.606
  978TIP3    H2 2899   5.402   6.816   2.456
  979TIP3   OH2 2900   3.805   2.930   1.109
  979TIP3    H1 2901   3.844   2.843   1.103
  979TIP3    H2 2902   3.776   2.937   1.200
  980TIP3   OH2 2903   3.680   6.759   5.239
  980TIP3    H1 2904   3.652   6.772   5.149
  980TIP3    H2 2905   3.698   6.847   5.271
  981TIP3   OH2 2906   1.596   3.933   4.953
  981TIP3    H1 2907   1.651   3.908   5.028
  981TIP3    H2 2908   1.558   3.851   4.923
  982TIP3   OH2 2909   5.402   3.255   5.631
  982TIP3    H1 2910   5.344   3.291   5.563
  982TIP3    H2 2911   5.415   3.164   5.605
  983TIP3   OH2 2912   3.758   4.802   3.732
  983TIP3    H1 2913   3.727   4.774   3.646
  983TIP3    H2 2914   3.748   4.897   3.731
  984TIP3   OH2 2915   5.363   2.049   5.314
  984TIP3    H1 2916   5.442   2.018   5.269
  984TIP3    H2 2917   5.389   2.133   5.352
  985TIP3   OH2 2918   2.486   5.087   4.813
  985TIP3    H1 2919   2.546   5.026   4.770
  985TIP3    H2 2920   2.542   5.157   4.845
  986TIP3   OH2 2921   2.760   5.134   0.583
  986TIP3    H1 2922   2.721   5.189   0.651
  986TIP3    H2 2923   2.766   5.047   0.623
  987TIP3   OH2 2924   4.380   6.547   0.037
  987TIP3    H1 2925   4.394   6.570   0.128
  987TIP3    H2 2926   4.363   6.453   0.037
  988TIP3   OH2 2927   4.667   4.076   2.453
  988TIP3    H1 2928   4.729   4.062   2.524
  988TIP3    H2 2929   4.590   4.114   2.495
  989TIP3   OH2 2930   5.587   5.031   1.110
  989TIP3    H1 2931   5.573   5.056   1.202
  989TIP3    H2 2932   5.515   4.972   1.090
  990TIP3   OH2 2933   2.315   2.949   5.737
  990TIP3    H1 2934   2.323   3.036   5.777
  990TIP3    H2 2935   2.345   2.889   5.805
  991TIP3   OH2 2936   3.434   5.142   3.541
  991TIP3    H1 2937   3.371   5.213   3.549
  991TIP3    H2 2938   3.394   5.081   3.479
  992TIP3   OH2 2939   4.456   3.063   4.174
  992TIP3    H1 2940   4.380   3.103   4.217
  992TIP3    H2 2941   4.468   3.115   4.094
  993TIP3   OH2 2942   3.991   6.256   2.920
  993TIP3    H1 2943   3.990   6.163   2.896
  993TIP3    H2 2944   4.084   6.279   2.923
  994TIP3   OH2 2945   6.780   2.236   0.324
  994TIP3    H1 2946   6.729   2.162   0.355
  994TIP3    H2 2947   6.804   2.212   0.234
  995TIP3   OH2 2948   4.639   1.539   0.133
  995TIP3    H1 2949   4.596   1.585   0.060
  995TIP3    H2 2950   4.730   1.567   0.128
  996TIP3   OH2 2951   6.106   3.453   2.049
  996TIP3    H1 2952   6.046   3.504   2.104
  996TIP3    H2 2953   6.128   3.512   1.977
  997TIP3   OH2 2954   6.652   1.640   4.871
  997TIP3    H1 2955   6.669   1.572   4.806
  997TIP3    H2 2956   6.641   1.593   4.953
  998TIP3   OH2 2957   0.402   6.296   2.125
  998TIP3    H1 2958   0.323   6.335   2.089
  998TIP3    H2 2959   0.415   6.339   2.209
  999TIP3   OH2 2960   5.919   2.174   5.594
  999TIP3    H1 2961   5.926   2.214   5.681
  999TIP3    H2 2962   6.010   2.150   5.572
 1000TIP3   OH2 2963   6.006   6.661   0.432
 1000TIP3    H1 2964   5.979   6.751   0.451
 1000TIP3    H2 2965   5.924   6.613   0.420
 1001TIP3   OH2 2966   0.623   3.845   5.908
 1001TIP3    H1 2967   0.642   3.754   5.886
 1001TIP3    H2 2968   0.706   3.890   5.897
 1002TIP3   OH2 2969   0.967   2.504   5.726
 1002TIP3    H1 2970   0.947   2.423   5.774
 1002TIP3    H2 2971   0.882   2.546   5.714
 1003TIP3   OH2 2972   3.421   1.809   3.803
 1003TIP3    H1 2973   3.362   1.735   3.796
 1003TIP3    H2 2974   3.413   1.855   3.719
 1004TIP3   OH2 2975   5.292   3.009   1.736
 1004TIP3    H1 2976   5.340   3.089   1.718
 1004TIP3    H2 2977   5.326   2.979   1.821
 1005TIP3   OH2 2978   3.158   2.702   5.059
 1005TIP3    H1 2979   3.144   2.746   4.976
 1005TIP3    H2 2980   3.246   2.665   5.052
 1006TIP3   OH2 2981   2.153   5.336   0.048
 1006TIP3    H1 2982   2.195   5.383   0.120
 1006TIP3    H2 2983   2.122   5.405  -0.011
 1007TIP3   OH2 2984   1.040   0.292   5.692
 1007TIP3    H1 2985   1.027   0.347   5.615
 1007TIP3    H2 2986   0.991   0.212   5.673
 1008TIP3   OH2 2987   1.373   2.747   0.615
 1008TIP3    H1 2988   1.328   2.689   0.676
 1008TIP3    H2 2989   1.463   2.714   0.612
 1009TIP3   OH2 2990   2.639   4.798   0.183
 1009TIP3    H1 2991   2.568   4.735   0.190
 1009TIP3    H2 2992   2.596   4.882   0.169
 1010TIP3   OH2 2993   0.258   0.507   1.475
 1010TIP3    H1 2994   0.253   0.574   1.407
 1010TIP3    H2 2995   0.331   0.536   1.531
 1011TIP3   OH2 2996   6.339   6.261   2.294
 1011TIP3    H1 2997   6.404   6.299   2.353
 1011TIP3    H2 2998   6.318   6.332   2.233
 1012TIP3   OH2 2999   3.706   5.584   4.675
 1012TIP3    H1 3000   3.629   5.572   4.730
 1012TIP3    H2 3001   3.708   5.506   4.619
 1013TIP3   OH2 3002   5.701   0.834   1.505
 1013TIP3    H1 3003   5.647   0.762   1.471
 1013TIP3    H2 3004   5.674   0.843   1.597
 1014TIP3   OH2 3005   1.922   6.465   1.776
 1014TIP3    H1 3006   1.983   6.444   1.706
 1014TIP3    H2 3007   1.945   6.404   1.846
 1015TIP3   OH2 3008   2.232   5.403   5.165
 1015TIP3    H1 3009   2.221   5.438   5.253
 1015TIP3    H2 3010   2.247   5.480   5.110
 1016TIP3   OH2 3011   2.387   6.236   2.832
 1016TIP3    H1 3012   2.303   6.194   2.852
 1016TIP3    H2 3013   2.449   6.164   2.824
 1017TIP3   OH2 3014   2.891   6.720   5.311
 1017TIP3    H1 3015   2.885   6.696   5.403
 1017TIP3    H2 3016   2.936   6.646   5.269
 1018TIP3   OH2 3017   3.608   2.448   0.920
 1018TIP3    H1 3018   3.700   2.425   0.923
 1018TIP3    H2 3019   3.574   2.403   0.843
 1019TIP3   OH2 3020   1.583   6.500   1.583
 1019TIP3    H1 3021   1.523   6.574   1.583
 1019TIP3    H2 3022   1.553   6.445   1.510
 1020TIP3   OH2 3023   5.059   4.508   3.999
 1020TIP3    H1 3024   4.964   4.512   3.991
 1020TIP3    H2 3025   5.074   4.447   4.072
 1021TIP3   OH2 3026   2.337   3.748   1.807
 1021TIP3    H1 3027   2.397   3.691   1.758
 1021TIP3    H2 3028   2.363   3.836   1.783
 1022TIP3   OH2 3029   6.400   1.142   4.662
 1022TIP3    H1 3030   6.373   1.151   4.570
 1022TIP3    H2 3031   6.351   1.210   4.708
 1023TIP3   OH2 3032   2.323   3.701   2.532
 1023TIP3    H1 3033   2.381   3.632   2.499
 1023TIP3    H2 3034   2.310   3.760   2.458
 1024TIP3   OH2 3035   3.772   2.675   1.521
 1024TIP3    H1 3036   3.810   2.753   1.563
 1024TIP3    H2 3037   3.820   2.666   1.439
 1025TIP3   OH2 3038   2.777   3.299   1.682
 1025TIP3    H1 3039   2.696   3.329   1.641
 1025TIP3    H2 3040   2.840   3.295   1.611
 1026TIP3   OH2 3041   6.113   4.927   0.240
 1026TIP3    H1 3042   6.135   4.835   0.251
 1026TIP3    H2 3043   6.173   4.959   0.173
 1027TIP3   OH2 3044   5.381   2.187   3.672
 1027TIP3    H1 3045   5.376   2.209   3.765
 1027TIP3    H2 3046   5.335   2.259   3.628
 1028TIP3   OH2 3047   4.600   3.468   0.294
 1028TIP3    H1 3048   4.618   3.529   0.366
 1028TIP3    H2 3049   4.640   3.386   0.321
 1029TIP3   OH2 3050   4.160   2.390   5.071
 1029TIP3    H1 3051   4.235   2.333   5.055
 1029TIP3    H2 3052   4.129   2.365   5.158
 1030TIP3   OH2 3053   3.294   3.653   3.034
 1030TIP3    H1 3054   3.210   3.618   3.062
 1030TIP3    H2 3055   3.341   3.577   2.999
 1031TIP3   OH2 3056   6.300   6.122   1.969
 1031TIP3    H1 3057   6.246   6.079   2.036
 1031TIP3    H2 3058   6.356   6.052   1.935
 1032TIP3   OH2 3059   6.358   4.751   5.502
 1032TIP3    H1 3060   6.299   4.715   5.569
 1032TIP3    H2 3061   6.446   4.724   5.531
 1033TIP3   OH2 3062   0.486   6.575   5.555
 1033TIP3    H1 3063   0.537   6.567   5.636
 1033TIP3    H2 3064   0.452   6.664   5.556
 1034TIP3   OH2 3065   3.042   0.201   1.476
 1034TIP3    H1 3066   2.986   0.275   1.453
 1034TIP3    H2 3067   3.117   0.240   1.520
 1035TIP3   OH2 3068   4.173   3.809   3.177
 1035TIP3    H1 3069   4.241   3.794   3.242
 1035TIP3    H2 3070   4.109   3.739   3.192
 1036TIP3   OH2 3071   6.770   3.789   1.556
 1036TIP3    H1 3072   6.763   3.882   1.578
 1036TIP3    H2 3073   6.806   3.748   1.635
 1037TIP3   OH2 3074   2.320   0.567   5.679
 1037TIP3    H1 3075   2.412   0.586   5.701
 1037TIP3    H2 3076   2.326   0.512   5.600
 1038TIP3   OH2 3077   2.196   1.223   4.067
 1038TIP3    H1 3078   2.193   1.165   3.990
 1038TIP3    H2 3079   2.243   1.173   4.133
 1039TIP3   OH2 3080   1.518   2.994   0.339
 1039TIP3    H1 3081   1.553   3.061   0.281
 1039TIP3    H2 3082   1.537   3.026   0.427
 1040TIP3   OH2 3083   3.915   3.662   1.756
 1040TIP3    H1 3084   3.845   3.725   1.770
 1040TIP3    H2 3085   3.965   3.662   1.839
 1041TIP3   OH2 3086   5.296   4.345   1.719
 1041TIP3    H1 3087   5.363   4.403   1.682
 1041TIP3    H2 3088   5.341   4.261   1.728
 1042TIP3   OH2 3089   3.756   4.808   4.033
 1042TIP3    H1 3090   3.751   4.833   3.941
 1042TIP3    H2 3091   3.678   4.847   4.073
 1043TIP3   OH2 3092   1.262   1.847   5.682
 1043TIP3    H1 3093   1.209   1.782   5.636
 1043TIP3    H2 3094   1.208   1.926   5.680
 1044TIP3   OH2 3095   3.555   6.422   0.753
 1044TIP3    H1 3096   3.553   6.337   0.709
 1044TIP3    H2 3097   3.487   6.473   0.708
 1045TIP3   OH2 3098   3.584   1.178   0.484
 1045TIP3    H1 3099   3.652   1.186   0.551
 1045TIP3    H2 3100   3.596   1.090   0.448
 1046TIP3   OH2 3101   3.818   3.775   3.136
 1046TIP3    H1 3102   3.867   3.693   3.143
 1046TIP3    H2 3103   3.731   3.748   3.105
 1047TIP3   OH2 3104   5.000   0.491   3.948
 1047TIP3    H1 3105   4.923   0.483   3.892
 1047TIP3    H2 3106   5.070   0.519   3.889
 1048TIP3   OH2 3107   4.695   5.266   2.026
 1048TIP3    H1 3108   4.750   5.326   1.976
 1048TIP3    H2 3109   4.606   5.298   2.012
 1049TIP3   OH2 3110   4.835   3.119   4.604
 1049TIP3    H1 3111   4.771   3.191   4.610
 1049TIP3    H2 3112   4.920   3.163   4.602
 1050TIP3   OH2 3113   1.763   3.691   5.166
 1050TIP3    H1 3114   1.763   3.645   5.082
 1050TIP3    H2 3115   1.682   3.664   5.208
 1051TIP3   OH2 3116   5.190   0.399   2.823
 1051TIP3    H1 3117   5.214   0.492   2.830
 1051TIP3    H2 3118   5.264   0.352   2.861
 1052TIP3   OH2 3119   4.900   5.142   2.880
 1052TIP3    H1 3120   4.826   5.175   2.829
 1052TIP3    H2 3121   4.977   5.185   2.841
 1053TIP3   OH2 3122   4.488   1.627   5.860
 1053TIP3    H1 3123   4.546   1.611   5.785
 1053TIP3    H2 3124   4.474   1.541   5.898
 1054TIP3   OH2 3125   3.357   1.856   2.905
 1054TIP3    H1 3126   3.321   1.862   2.817
 1054TIP3    H2 3127   3.321   1.931   2.952
 1055TIP3   OH2 3128   6.713   1.294   0.401
 1055TIP3    H1 3129   6.721   1.215   0.455
 1055TIP3    H2 3130   6.741   1.365   0.459
 1056TIP3   OH2 3131   1.103   1.822   0.080
 1056TIP3    H1 3132   1.015   1.825   0.042
 1056TIP3    H2 3133   1.159   1.796   0.007
 1057TIP3   OH2 3134   3.152   6.264   5.412
 1057TIP3    H1 3135   3.182   6.177   5.437
 1057TIP3    H2 3136   3.129   6.256   5.320
 1058TIP3   OH2 3137   4.487   4.127   3.394
 1058TIP3    H1 3138   4.475   4.032   3.390
 1058TIP3    H2 3139   4.416   4.157   3.452
 1059TIP3   OH2 3140   5.935   2.990   0.661
 1059TIP3    H1 3141   5.898   2.916   0.708
 1059TIP3    H2 3142   5.936   2.963   0.569
 1060TIP3   OH2 3143   4.840   5.605   4.408
 1060TIP3    H1 3144   4.887   5.625   4.327
 1060TIP3    H2 3145   4.906   5.567   4.466
 1061TIP3   OH2 3146   0.146   5.170   0.742
 1061TIP3    H1 3147   0.223   5.127   0.778
 1061TIP3    H2 3148   0.181   5.232   0.677
 1062TIP3   OH2 3149   5.523   6.341   0.802
 1062TIP3    H1 3150   5.598   6.387   0.763
 1062TIP3    H2 3151   5.493   6.400   0.871
 1063TIP3   OH2 3152   3.572   1.009   3.774
 1063TIP3    H1 3153   3.614   1.049   3.849
 1063TIP3    H2 3154   3.556   1.081   3.713
 1064TIP3   OH2 3155   0.354   2.139   0.584
 1064TIP3    H1 3156   0.328   2.049   0.567
 1064TIP3    H2 3157   0.365   2.178   0.497
 1065TIP3   OH2 3158   2.636   4.471   1.378
 1065TIP3    H1 3159   2.581   4.525   1.434
 1065TIP3    H2 3160   2.581   4.448   1.304
 1066TIP3   OH2 3161   7.122   3.299   2.216
 1066TIP3    H1 3162   7.207   3.336   2.240
 1066TIP3    H2 3163   7.141   3.207   2.198
 1067TIP3   OH2 3164   7.179   5.292   2.252
 1067TIP3    H1 3165   7.253   5.283   2.193
 1067TIP3    H2 3166   7.180   5.384   2.279
 1068TIP3   OH2 3167   0.560   1.592   4.517
 1068TIP3    H1 3168   0.609   1.661   4.472
 1068TIP3    H2 3169   0.529   1.535   4.447
 1069TIP3   OH2 3170   2.187   5.578   0.743
 1069TIP3    H1 3171   2.272   5.546   0.773
 1069TIP3    H2 3172   2.169   5.654   0.799
 1070TIP3   OH2 3173   1.133   3.051   0.423
 1070TIP3    H1 3174   1.066   3.098   0.473
 1070TIP3    H2 3175   1.213   3.061   0.474
 1071TIP3   OH2 3176   3.269   0.211   3.164
 1071TIP3    H1 3177   3.204   0.268   3.205
 1071TIP3    H2 3178   3.327   0.271   3.117
 1072TIP3   OH2 3179   4.719   4.618   2.781
 1072TIP3    H1 3180   4.652   4.554   2.758
 1072TIP3    H2 3181   4.669   4.697   2.805
 1073TIP3   OH2 3182   4.801   6.647   4.129
 1073TIP3    H1 3183   4.833   6.563   4.163
 1073TIP3    H2 3184   4.740   6.679   4.195
 1074TIP3   OH2 3185   5.803   0.027   5.008
 1074TIP3    H1 3186   5.729  -0.006   5.059
 1074TIP3    H2 3187   5.829   0.107   5.053
 1075TIP3   OH2 3188   3.899   3.173   0.771
 1075TIP3    H1 3189   3.988   3.150   0.747
 1075TIP3    H2 3190   3.903   3.266   0.794
 1076TIP3   OH2 3191   5.223   0.130   0.243
 1076TIP3    H1 3192   5.188   0.219   0.243
 1076TIP3    H2 3193   5.148   0.074   0.263
 1077TIP3   OH2 3194   3.144   0.795   3.454
 1077TIP3    H1 3195   3.212   0.816   3.517
 1077TIP3    H2 3196   3.069   0.848   3.481
 1078TIP3   OH2 3197   4.718   0.453   1.392
 1078TIP3    H1 3198   4.743   0.544   1.401
 1078TIP3    H2 3199   4.800   0.406   1.381
 1079TIP3   OH2 3200   1.777   5.819   2.888
 1079TIP3    H1 3201   1.692   5.855   2.916
 1079TIP3    H2 3202   1.785   5.736   2.934
 1080TIP3   OH2 3203   0.858   1.640   1.875
 1080TIP3    H1 3204   0.865   1.565   1.815
 1080TIP3    H2 3205   0.878   1.716   1.820
 1081TIP3   OH2 3206   1.146   3.652   3.605
 1081TIP3    H1 3207   1.062   3.694   3.587
 1081TIP3    H2 3208   1.123   3.572   3.652
 1082TIP3   OH2 3209   2.509   2.864   1.015
 1082TIP3    H1 3210   2.576   2.911   1.065
 1082TIP3    H2 3211   2.471   2.930   0.958
 1083TIP3   OH2 3212   5.541   3.157   2.771
 1083TIP3    H1 3213   5.598   3.085   2.798
 1083TIP3    H2 3214   5.568   3.178   2.682
 1084TIP3   OH2 3215   7.121   4.325   4.456
 1084TIP3    H1 3216   7.201   4.320   4.404
 1084TIP3    H2 3217   7.071   4.396   4.416
 1085TIP3   OH2 3218   0.412   4.787   4.550
 1085TIP3    H1 3219   0.447   4.697   4.555
 1085TIP3    H2 3220   0.489   4.841   4.533
 1086TIP3   OH2 3221   6.582   6.501   1.282
 1086TIP3    H1 3222   6.611   6.470   1.196
 1086TIP3    H2 3223   6.630   6.582   1.296
 1087TIP3   OH2 3224   6.574   6.343   2.374
 1087TIP3    H1 3225   6.642   6.352   2.307
 1087TIP3    H2 3226   6.621   6.341   2.457
 1088TIP3   OH2 3227   4.832   5.914   4.610
 1088TIP3    H1 3228   4.740   5.903   4.634
 1088TIP3    H2 3229   4.872   5.830   4.630
 1089TIP3   OH2 3230   3.730   4.129   0.089
 1089TIP3    H1 3231   3.761   4.219   0.075
 1089TIP3    H2 3232   3.810   4.077   0.094
 1090TIP3   OH2 3233   6.189   0.611   3.206
 1090TIP3    H1 3234   6.097   0.588   3.218
 1090TIP3    H2 3235   6.215   0.567   3.125
 1091TIP3   OH2 3236   6.671   6.603   5.369
 1091TIP3    H1 3237   6.689   6.696   5.381
 1091TIP3    H2 3238   6.757   6.562   5.362
 1092TIP3   OH2 3239   4.464   4.497   2.071
 1092TIP3    H1 3240   4.446   4.502   2.164
 1092TIP3    H2 3241   4.547   4.449   2.065
 1093TIP3   OH2 3242   6.946   4.479   5.485
 1093TIP3    H1 3243   6.875   4.424   5.519
 1093TIP3    H2 3244   7.025   4.427   5.498
 1094TIP3   OH2 3245   5.479   5.459   5.352
 1094TIP3    H1 3246   5.404   5.420   5.307
 1094TIP3    H2 3247   5.542   5.388   5.360
 1095TIP3   OH2 3248   6.346   4.767   1.740
 1095TIP3    H1 3249   6.385   4.691   1.696
 1095TIP3    H2 3250   6.420   4.817   1.773
 1096TIP3   OH2 3251   1.810   4.077   2.856
 1096TIP3    H1 3252   1.880   4.114   2.802
 1096TIP3    H2 3253   1.734   4.131   2.836
 1097TIP3   OH2 3254   4.266   3.450   0.740
 1097TIP3    H1 3255   4.218   3.391   0.798
 1097TIP3    H2 3256   4.199   3.509   0.704
 1098TIP3   OH2 3257   7.130   5.924   0.064
 1098TIP3    H1 3258   7.145   5.994   0.127
 1098TIP3    H2 3259   7.080   5.858   0.113
 1099TIP3   OH2 3260   3.954   2.095   4.874
 1099TIP3    H1 3261   3.982   2.075   4.963
 1099TIP3    H2 3262   3.986   2.184   4.858
 1100TIP3   OH2 3263   4.964   6.136   1.419
 1100TIP3    H1 3264   5.011   6.219   1.408
 1100TIP3    H2 3265   4.989   6.106   1.506
 1101TIP3   OH2 3266   6.370   2.855   4.489
 1101TIP3    H1 3267   6.395   2.916   4.558
 1101TIP3    H2 3268   6.411   2.889   4.410
 1102TIP3   OH2 3269   2.617   1.173   2.305
 1102TIP3    H1 3270   2.542   1.121   2.274
 1102TIP3    H2 3271   2.689   1.147   2.248
 1103TIP3   OH2 3272   2.461   4.590   0.260
 1103TIP3    H1 3273   2.454   4.506   0.305
 1103TIP3    H2 3274   2.382   4.638   0.284
 1104TIP3   OH2 3275   6.260   3.467   2.888
 1104TIP3    H1 3276   6.307   3.451   2.806
 1104TIP3    H2 3277   6.207   3.545   2.870
 1105TIP3   OH2 3278   2.211   6.765   3.824
 1105TIP3    H1 3279   2.197   6.858   3.837
 1105TIP3    H2 3280   2.177   6.724   3.904
 1106TIP3   OH2 3281   5.113   3.825   3.237
 1106TIP3    H1 3282   5.182   3.800   3.299
 1106TIP3    H2 3283   5.060   3.746   3.228
 1107TIP3   OH2 3284   3.730   1.949   4.480
 1107TIP3    H1 3285   3.662   2.006   4.445
 1107TIP3    H2 3286   3.689   1.907   4.556
 1108TIP3   OH2 3287   0.181   0.816   0.601
 1108TIP3    H1 3288   0.164   0.752   0.531
 1108TIP3    H2 3289   0.270   0.795   0.631
 1109TIP3   OH2 3290   2.887   4.532   1.933
 1109TIP3    H1 3291   2.799   4.517   1.969
 1109TIP3    H2 3292   2.889   4.625   1.913
 1110TIP3   OH2 3293   5.647   4.312   3.473
 1110TIP3    H1 3294   5.720   4.332   3.531
 1110TIP3    H2 3295   5.620   4.396   3.437
 1111TIP3   OH2 3296   1.902   1.936   5.734
 1111TIP3    H1 3297   1.893   2.019   5.687
 1111TIP3    H2 3298   1.858   1.872   5.679
 1112TIP3   OH2 3299   0.182   5.488   1.037
 1112TIP3    H1 3300   0.146   5.514   1.122
 1112TIP3    H2 3301   0.235   5.410   1.057
 1113TIP3   OH2 3302   4.864   3.629   1.804
 1113TIP3    H1 3303   4.858   3.585   1.719
 1113TIP3    H2 3304   4.781   3.676   1.812
 1114TIP3   OH2 3305   5.684   1.530   2.457
 1114TIP3    H1 3306   5.733   1.592   2.403
 1114TIP3    H2 3307   5.603   1.576   2.480
 1115TIP3   OH2 3308   7.059   4.957   4.008
 1115TIP3    H1 3309   7.141   4.945   3.961
 1115TIP3    H2 3310   7.053   5.052   4.021
 1116TIP3   OH2 3311   2.721   2.174   1.078
 1116TIP3    H1 3312   2.742   2.089   1.040
 1116TIP3    H2 3313   2.705   2.231   1.004
 1117TIP3   OH2 3314   2.196   2.645   4.004
 1117TIP3    H1 3315   2.278   2.624   4.049
 1117TIP3    H2 3316   2.199   2.739   3.991
 1118TIP3   OH2 3317   1.098   3.208   3.217
 1118TIP3    H1 3318   1.023   3.266   3.201
 1118TIP3    H2 3319   1.167   3.242   3.160
 1119TIP3   OH2 3320   1.432   2.910   2.500
 1119TIP3    H1 3321   1.352   2.862   2.522
 1119TIP3    H2 3322   1.459   2.951   2.583
 1120TIP3   OH2 3323   7.161   3.544   5.363
 1120TIP3    H1 3324   7.068   3.560   5.354
 1120TIP3    H2 3325   7.171   3.507   5.451
 1121TIP3   OH2 3326   2.218   0.856   2.414
 1121TIP3    H1 3327   2.198   0.950   2.417
 1121TIP3    H2 3328   2.145   0.815   2.460
 1122TIP3   OH2 3329   1.169   0.936   3.007
 1122TIP3    H1 3330   1.125   0.939   3.092
 1122TIP3    H2 3331   1.186   1.027   2.986
 1123TIP3   OH2 3332   4.415   1.099   1.338
 1123TIP3    H1 3333   4.359   1.175   1.350
 1123TIP3    H2 3334   4.485   1.129   1.279
 1124TIP3   OH2 3335   3.437   1.277   3.678
 1124TIP3    H1 3336   3.499   1.301   3.609
 1124TIP3    H2 3337   3.446   1.346   3.743
 1125TIP3   OH2 3338   5.459   6.758   3.612
 1125TIP3    H1 3339   5.527   6.788   3.672
 1125TIP3    H2 3340   5.377   6.779   3.655
 1126TIP3   OH2 3341   0.512   1.590   5.235
 1126TIP3    H1 3342   0.589   1.631   5.197
 1126TIP3    H2 3343   0.525   1.597   5.330
 1127TIP3   OH2 3344   1.804   3.742   5.829
 1127TIP3    H1 3345   1.856   3.756   5.750
 1127TIP3    H2 3346   1.724   3.793   5.814
 1128TIP3   OH2 3347   2.443   3.124   5.400
 1128TIP3    H1 3348   2.521   3.081   5.433
 1128TIP3    H2 3349   2.432   3.201   5.456
 1129TIP3   OH2 3350   3.547   1.790   2.529
 1129TIP3    H1 3351   3.566   1.855   2.597
 1129TIP3    H2 3352   3.522   1.712   2.576
 1130TIP3   OH2 3353   0.379   0.504   5.418
 1130TIP3    H1 3354   0.456   0.534   5.370
 1130TIP3    H2 3355   0.304   0.539   5.369
 1131TIP3   OH2 3356   4.479   2.857   0.299
 1131TIP3    H1 3357   4.405   2.851   0.239
 1131TIP3    H2 3358   4.441   2.846   0.386
 1132TIP3   OH2 3359   4.395   4.102   4.309
 1132TIP3    H1 3360   4.437   4.162   4.247
 1132TIP3    H2 3361   4.375   4.024   4.257
 1133TIP3   OH2 3362   1.024   6.543   3.639
 1133TIP3    H1 3363   1.006   6.546   3.733
 1133TIP3    H2 3364   0.950   6.493   3.602
 1134TIP3   OH2 3365   7.200   3.899   5.756
 1134TIP3    H1 3366   7.202   3.807   5.779
 1134TIP3    H2 3367   7.225   3.945   5.836
 1135TIP3   OH2 3368   2.647   4.625   2.546
 1135TIP3    H1 3369   2.570   4.569   2.557
 1135TIP3    H2 3370   2.721   4.565   2.542
 1136TIP3   OH2 3371   3.093   0.765   4.489
 1136TIP3    H1 3372   3.026   0.738   4.552
 1136TIP3    H2 3373   3.117   0.683   4.444
 1137TIP3   OH2 3374   4.914   0.881   1.933
 1137TIP3    H1 3375   4.932   0.790   1.955
 1137TIP3    H2 3376   4.906   0.925   2.017
 1138TIP3   OH2 3377   2.400   6.517   4.611
 1138TIP3    H1 3378   2.398   6.611   4.599
 1138TIP3    H2 3379   2.428   6.505   4.702
 1139TIP3   OH2 3380   1.810   2.312   4.807
 1139TIP3    H1 3381   1.813   2.285   4.899
 1139TIP3    H2 3382   1.821   2.407   4.810
 1140TIP3   OH2 3383   5.942   0.774   0.102
 1140TIP3    H1 3384   5.929   0.868   0.118
 1140TIP3    H2 3385   6.022   0.753   0.149
 1141TIP3   OH2 3386   2.169   4.373   3.488
 1141TIP3    H1 3387   2.108   4.302   3.469
 1141TIP3    H2 3388   2.248   4.351   3.438
 1142TIP3   OH2 3389   2.899   2.065   0.676
 1142TIP3    H1 3390   2.928   2.150   0.644
 1142TIP3    H2 3391   2.822   2.044   0.622
 1143TIP3   OH2 3392   4.222   4.033   0.230
 1143TIP3    H1 3393   4.202   3.983   0.151
 1143TIP3    H2 3394   4.317   4.044   0.227
 1144TIP3   OH2 3395   5.094   2.443   0.969
 1144TIP3    H1 3396   5.177   2.489   0.980
 1144TIP3    H2 3397   5.096   2.413   0.878
 1145TIP3   OH2 3398   6.371   4.001   5.031
 1145TIP3    H1 3399   6.361   4.027   4.940
 1145TIP3    H2 3400   6.449   3.946   5.032
 1146TIP3   OH2 3401   5.495   0.352   1.356
 1146TIP3    H1 3402   5.536   0.270   1.329
 1146TIP3    H2 3403   5.416   0.358   1.302
 1147TIP3   OH2 3404   1.997   6.352   4.437
 1147TIP3    H1 3405   1.989   6.367   4.343
 1147TIP3    H2 3406   1.931   6.409   4.476
 1148TIP3   OH2 3407   3.506   2.176   3.385
 1148TIP3    H1 3408   3.431   2.121   3.361
 1148TIP3    H2 3409   3.579   2.115   3.394
 1149TIP3   OH2 3410   2.896   3.321   4.313
 1149TIP3    H1 3411   2.836   3.346   4.243
 1149TIP3    H2 3412   2.859   3.360   4.392
 1150TIP3   OH2 3413   3.264   5.353   3.465
 1150TIP3    H1 3414   3.231   5.421   3.524
 1150TIP3    H2 3415   3.185   5.309   3.433
 1151TIP3   OH2 3416   2.504   2.474   2.185
 1151TIP3    H1 3417   2.542   2.477   2.097
 1151TIP3    H2 3418   2.444   2.549   2.188
 1152TIP3   OH2 3419   1.361   4.570   4.049
 1152TIP3    H1 3420   1.325   4.656   4.072
 1152TIP3    H2 3421   1.456   4.585   4.042
 1153TIP3   OH2 3422   7.158   1.568   2.274
 1153TIP3    H1 3423   7.111   1.486   2.259
 1153TIP3    H2 3424   7.242   1.541   2.310
 1154TIP3   OH2 3425   6.792   1.054   0.878
 1154TIP3    H1 3426   6.786   1.079   0.786
 1154TIP3    H2 3427   6.743   0.972   0.883
 1155TIP3   OH2 3428   4.031   3.705   0.054
 1155TIP3    H1 3429   4.040   3.632  -0.006
 1155TIP3    H2 3430   4.111   3.704   0.107
 1156TIP3   OH2 3431   6.944   2.229   0.103
 1156TIP3    H1 3432   6.939   2.210   0.010
 1156TIP3    H2 3433   6.957   2.324   0.108
 1157TIP3   OH2 3434   1.370   0.974   2.644
 1157TIP3    H1 3435   1.375   1.036   2.572
 1157TIP3    H2 3436   1.278   0.975   2.671
 1158TIP3   OH2 3437   4.732   4.837   2.205
 1158TIP3    H1 3438   4.773   4.778   2.141
 1158TIP3    H2 3439   4.748   4.795   2.290
 1159TIP3   OH2 3440   0.542   5.356   1.602
 1159TIP3    H1 3441   0.506   5.310   1.678
 1159TIP3    H2 3442   0.587   5.288   1.553
 1160TIP3   OH2 3443   2.866   0.931   3.802
 1160TIP3    H1 3444   2.952   0.890   3.794
 1160TIP3    H2 3445   2.859   0.954   3.894
 1161TIP3   OH2 3446   5.382   2.708   2.174
 1161TIP3    H1 3447   5.331   2.628   2.182
 1161TIP3    H2 3448   5.373   2.750   2.260
 1162TIP3   OH2 3449   0.817   2.900   5.637
 1162TIP3    H1 3450   0.847   2.882   5.726
 1162TIP3    H2 3451   0.732   2.857   5.631
 1163TIP3   OH2 3452   2.567   6.272   1.101
 1163TIP3    H1 3453   2.475   6.282   1.076
 1163TIP3    H2 3454   2.609   6.351   1.067
 1164TIP3   OH2 3455   5.337   5.886   5.630
 1164TIP3    H1 3456   5.388   5.959   5.597
 1164TIP3    H2 3457   5.361   5.812   5.575
 1165TIP3   OH2 3458   2.800   4.337   0.494
 1165TIP3    H1 3459   2.847   4.383   0.424
 1165TIP3    H2 3460   2.711   4.327   0.460
 1166TIP3   OH2 3461   2.653   4.979   1.326
 1166TIP3    H1 3462   2.606   4.920   1.265
 1166TIP3    H2 3463   2.607   4.968   1.409
 1167TIP3   OH2 3464   3.058   1.022   1.536
 1167TIP3    H1 3465   3.112   1.088   1.491
 1167TIP3    H2 3466   3.011   0.978   1.465
 1168TIP3   OH2 3467   0.158   3.993   4.494
 1168TIP3    H1 3468   0.085   4.042   4.457
 1168TIP3    H2 3469   0.154   4.010   4.588
 1169TIP3   OH2 3470   6.691   4.965   0.357
 1169TIP3    H1 3471   6.761   5.029   0.369
 1169TIP3    H2 3472   6.666   4.939   0.446
 1170TIP3   OH2 3473   2.118   0.117   1.004
 1170TIP3    H1 3474   2.144   0.071   0.924
 1170TIP3    H2 3475   2.175   0.194   1.007
 1171TIP3   OH2 3476   6.592   1.590   1.575
 1171TIP3    H1 3477   6.500   1.611   1.588
 1171TIP3    H2 3478   6.601   1.500   1.607
 1172TIP3   OH2 3479   5.460   2.101   3.285
 1172TIP3    H1 3480   5.468   2.194   3.308
 1172TIP3    H2 3481   5.367   2.089   3.269
 1173TIP3   OH2 3482   1.373   6.146   2.241
 1173TIP3    H1 3483   1.361   6.058   2.275
 1173TIP3    H2 3484   1.456   6.175   2.279
 1174TIP3   OH2 3485   0.375   5.064   0.876
 1174TIP3    H1 3486   0.316   5.012   0.931
 1174TIP3    H2 3487   0.448   5.086   0.934
 1175TIP3   OH2 3488   6.399   4.817   4.164
 1175TIP3    H1 3489   6.317   4.796   4.119
 1175TIP3    H2 3490   6.416   4.909   4.142
 1176TIP3   OH2 3491   6.821   6.181   0.415
 1176TIP3    H1 3492   6.819   6.086   0.403
 1176TIP3    H2 3493   6.906   6.198   0.456
 1177TIP3   OH2 3494   0.891   1.010   5.315
 1177TIP3    H1 3495   0.848   1.056   5.386
 1177TIP3    H2 3496   0.823   0.999   5.248
 1178TIP3   OH2 3497   4.214   2.584   3.083
 1178TIP3    H1 3498   4.263   2.514   3.127
 1178TIP3    H2 3499   4.246   2.664   3.125
 1179TIP3   OH2 3500   4.233   3.340   2.897
 1179TIP3    H1 3501   4.320   3.324   2.934
 1179TIP3    H2 3502   4.238   3.429   2.862
 1180TIP3   OH2 3503   1.129   5.875   5.558
 1180TIP3    H1 3504   1.149   5.969   5.548
 1180TIP3    H2 3505   1.049   5.873   5.610
 1181TIP3   OH2 3506   1.181   5.132   5.352
 1181TIP3    H1 3507   1.102   5.088   5.322
 1181TIP3    H2 3508   1.177   5.127   5.448
 1182TIP3   OH2 3509   6.943   1.866   5.425
 1182TIP3    H1 3510   6.975   1.894   5.339
 1182TIP3    H2 3511   6.925   1.947   5.472
 1183TIP3   OH2 3512   3.175   4.085   0.208
 1183TIP3    H1 3513   3.197   4.053   0.296
 1183TIP3    H2 3514   3.082   4.107   0.213
 1184TIP3   OH2 3515   0.030   0.183   2.204
 1184TIP3    H1 3516  -0.019   0.185   2.286
 1184TIP3    H2 3517   0.108   0.130   2.223
 1185TIP3   OH2 3518   5.328   3.322   1.460
 1185TIP3    H1 3519   5.284   3.237   1.453
 1185TIP3    H2 3520   5.258   3.386   1.458
 1186TIP3   OH2 3521   3.357   1.431   5.192
 1186TIP3    H1 3522   3.262   1.417   5.183
 1186TIP3    H2 3523   3.374   1.422   5.285
 1187TIP3   OH2 3524   5.358   4.845   0.882
 1187TIP3    H1 3525   5.331   4.828   0.972
 1187TIP3    H2 3526   5.453   4.837   0.884
 1188TIP3   OH2 3527   6.055   3.329   2.625
 1188TIP3    H1 3528   6.072   3.235   2.632
 1188TIP3    H2 3529   5.999   3.348   2.700
 1189TIP3   OH2 3530   3.320   2.596   1.172
 1189TIP3    H1 3531   3.365   2.663   1.224
 1189TIP3    H2 3532   3.277   2.646   1.102
 1190TIP3   OH2 3533   1.001   1.347   1.007
 1190TIP3    H1 3534   1.047   1.343   1.091
 1190TIP3    H2 3535   1.022   1.434   0.973
 1191TIP3   OH2 3536   3.215   1.219   3.796
 1191TIP3    H1 3537   3.295   1.248   3.752
 1191TIP3    H2 3538   3.192   1.292   3.853
 1192TIP3   OH2 3539   2.898   1.651   5.583
 1192TIP3    H1 3540   2.806   1.636   5.563
 1192TIP3    H2 3541   2.897   1.702   5.664
 1193TIP3   OH2 3542   0.050   4.710   4.303
 1193TIP3    H1 3543  -0.038   4.687   4.333
 1193TIP3    H2 3544   0.036   4.784   4.244
 1194TIP3   OH2 3545   3.249   2.814   1.434
 1194TIP3    H1 3546   3.193   2.868   1.490
 1194TIP3    H2 3547   3.293   2.877   1.377
 1195TIP3   OH2 3548   3.545   6.443   4.160
 1195TIP3    H1 3549   3.597   6.459   4.081
 1195TIP3    H2 3550   3.560   6.520   4.215
 1196TIP3   OH2 3551   4.043   3.873   4.192
 1196TIP3    H1 3552   4.050   3.927   4.271
 1196TIP3    H2 3553   3.949   3.867   4.175
 1197TIP3   OH2 3554   2.182   0.150   3.871
 1197TIP3    H1 3555   2.151   0.170   3.959
 1197TIP3    H2 3556   2.262   0.202   3.861
 1198TIP3   OH2 3557   5.360   5.466   2.267
 1198TIP3    H1 3558   5.304   5.512   2.204
 1198TIP3    H2 3559   5.338   5.374   2.257
 1199TIP3   OH2 3560   5.804   3.873   1.561
 1199TIP3    H1 3561   5.713   3.849   1.542
 1199TIP3    H2 3562   5.847   3.874   1.476
 1200TIP3   OH2 3563   1.444   0.902   3.778
 1200TIP3    H1 3564   1.386   0.949   3.717
 1200TIP3    H2 3565   1.395   0.823   3.800
 1201TIP3   OH2 3566   3.191   6.113   2.743
 1201TIP3    H1 3567   3.107   6.073   2.721
 1201TIP3    H2 3568   3.254   6.041   2.738
 1202TIP3   OH2 3569   6.203   2.133   0.115
 1202TIP3    H1 3570   6.251   2.081   0.179
 1202TIP3    H2 3571   6.112   2.131   0.146
 1203TIP3   OH2 3572   6.223   3.438   1.026
 1203TIP3    H1 3573   6.153   3.482   0.978
 1203TIP3    H2 3574   6.289   3.506   1.039
 1204TIP3   OH2 3575   4.395   4.659   1.884
 1204TIP3    H1 3576   4.415   4.584   1.830
 1204TIP3    H2 3577   4.414   4.631   1.974
 1205TIP3   OH2 3578   7.141   3.884   5.178
 1205TIP3    H1 3579   7.135   3.789   5.192
 1205TIP3    H2 3580   7.219   3.910   5.227
 1206TIP3   OH2 3581   5.266   1.970   4.188
 1206TIP3    H1 3582   5.319   1.937   4.116
 1206TIP3    H2 3583   5.247   1.892   4.241
 1207TIP3   OH2 3584   4.896   2.671   4.925
 1207TIP3    H1 3585   4.870   2.707   4.840
 1207TIP3    H2 3586   4.902   2.577   4.911
 1208TIP3   OH2 3587   4.474   1.335   2.431
 1208TIP3    H1 3588   4.451   1.427   2.444
 1208TIP3    H2 3589   4.396   1.287   2.459
 1209TIP3   OH2 3590   5.347   5.494   1.118
 1209TIP3    H1 3591   5.308   5.407   1.116
 1209TIP3    H2 3592   5.311   5.538   1.041
 1210TIP3   OH2 3593   2.730   2.270   5.684
 1210TIP3    H1 3594   2.683   2.346   5.650
 1210TIP3    H2 3595   2.673   2.235   5.752
 1211TIP3   OH2 3596   2.235   2.036   3.131
 1211TIP3    H1 3597   2.285   2.100   3.080
 1211TIP3    H2 3598   2.254   2.058   3.222
 1212TIP3   OH2 3599   6.133   3.534   5.769
 1212TIP3    H1 3600   6.218   3.575   5.786
 1212TIP3    H2 3601   6.128   3.462   5.831
 1213TIP3   OH2 3602   7.133   5.240   5.850
 1213TIP3    H1 3603   7.195   5.173   5.880
 1213TIP3    H2 3604   7.174   5.277   5.772
 1214TIP3   OH2 3605   5.184   0.848   2.183
 1214TIP3    H1 3606   5.163   0.795   2.106
 1214TIP3    H2 3607   5.238   0.790   2.237
 1215TIP3   OH2 3608   6.113   4.129   1.897
 1215TIP3    H1 3609   6.140   4.087   1.816
 1215TIP3    H2 3610   6.034   4.178   1.874
 1216TIP3   OH2 3611   2.996   1.959   0.324
 1216TIP3    H1 3612   2.967   1.888   0.382
 1216TIP3    H2 3613   2.995   2.037   0.379
 1217TIP3   OH2 3614   7.059   1.286   0.494
 1217TIP3    H1 3615   7.004   1.217   0.459
 1217TIP3    H2 3616   7.109   1.244   0.565
 1218TIP3   OH2 3617   5.153   5.122   3.051
 1218TIP3    H1 3618   5.239   5.140   3.012
 1218TIP3    H2 3619   5.166   5.041   3.101
 1219TIP3   OH2 3620   4.256   1.437   5.178
 1219TIP3    H1 3621   4.345   1.450   5.147
 1219TIP3    H2 3622   4.259   1.458   5.271
 1220TIP3   OH2 3623   4.628   0.891   2.929
 1220TIP3    H1 3624   4.585   0.868   3.012
 1220TIP3    H2 3625   4.713   0.926   2.956
 1221TIP3   OH2 3626   5.267   1.254   3.853
 1221TIP3    H1 3627   5.351   1.297   3.872
 1221TIP3    H2 3628   5.222   1.315   3.794
 1222TIP3   OH2 3629   5.097   5.347   2.853
 1222TIP3    H1 3630   5.150   5.268   2.869
 1222TIP3    H2 3631   5.160   5.412   2.823
 1223TIP3   OH2 3632   7.165   1.485   4.465
 1223TIP3    H1 3633   7.097   1.424   4.434
 1223TIP3    H2 3634   7.247   1.445   4.437
 1224TIP3   OH2 3635   5.811   1.115   4.386
 1224TIP3    H1 3636   5.838   1.191   4.335
 1224TIP3    H2 3637   5.866   1.043   4.354
 1225TIP3   OH2 3638   4.728   6.729   3.132
 1225TIP3    H1 3639   4.755   6.786   3.204
 1225TIP3    H2 3640   4.633   6.727   3.137
 1226TIP3   OH2 3641   5.271   6.185   4.714
 1226TIP3    H1 3642   5.199   6.197   4.776
 1226TIP3    H2 3643   5.287   6.090   4.714
 1227TIP3   OH2 3644   3.062   1.510   5.208
 1227TIP3    H1 3645   3.018   1.484   5.126
 1227TIP3    H2 3646   3.038   1.440   5.270
 1228TIP3   OH2 3647   2.149   0.325   4.583
 1228TIP3    H1 3648   2.232   0.279   4.596
 1228TIP3    H2 3649   2.098   0.267   4.527
 1229TIP3   OH2 3650   1.268   3.061   4.421
 1229TIP3    H1 3651   1.222   2.997   4.367
 1229TIP3    H2 3652   1.250   3.034   4.511
 1230TIP3   OH2 3653   4.590   2.203   4.506
 1230TIP3    H1 3654   4.641   2.158   4.438
 1230TIP3    H2 3655   4.656   2.249   4.558
 1231TIP3   OH2 3656   3.312   3.167   2.424
 1231TIP3    H1 3657   3.372   3.230   2.464
 1231TIP3    H2 3658   3.233   3.172   2.479
 1232TIP3   OH2 3659   6.554   1.910   4.464
 1232TIP3    H1 3660   6.557   1.984   4.525
 1232TIP3    H2 3661   6.501   1.844   4.508
 1233TIP3   OH2 3662   6.253   5.427   1.078
 1233TIP3    H1 3663   6.196   5.444   1.003
 1233TIP3    H2 3664   6.332   5.478   1.060
 1234TIP3   OH2 3665   4.328   5.880   5.248
 1234TIP3    H1 3666   4.323   5.785   5.248
 1234TIP3    H2 3667   4.238   5.909   5.231
 1235TIP3   OH2 3668   7.141   1.541   3.132
 1235TIP3    H1 3669   7.047   1.561   3.133
 1235TIP3    H2 3670   7.145   1.449   3.106
 1236TIP3   OH2 3671   2.731   2.178   0.263
 1236TIP3    H1 3672   2.765   2.264   0.238
 1236TIP3    H2 3673   2.714   2.134   0.180
 1237TIP3   OH2 3674   0.958   5.712   4.818
 1237TIP3    H1 3675   0.876   5.760   4.820
 1237TIP3    H2 3676   0.941   5.632   4.868
 1238TIP3   OH2 3677   2.951   5.987   5.774
 1238TIP3    H1 3678   3.004   5.920   5.731
 1238TIP3    H2 3679   2.915   6.039   5.702
 1239TIP3   OH2 3680   4.985   2.827   1.465
 1239TIP3    H1 3681   4.989   2.901   1.525
 1239TIP3    H2 3682   5.063   2.775   1.487
 1240TIP3   OH2 3683   2.232   3.640   4.602
 1240TIP3    H1 3684   2.220   3.734   4.616
 1240TIP3    H2 3685   2.321   3.632   4.567
 1241TIP3   OH2 3686   1.682   0.496   3.483
 1241TIP3    H1 3687   1.753   0.461   3.537
 1241TIP3    H2 3688   1.620   0.424   3.475
 1242TIP3   OH2 3689   5.854   4.615   2.160
 1242TIP3    H1 3690   5.896   4.529   2.167
 1242TIP3    H2 3691   5.924   4.678   2.179
 1243TIP3   OH2 3692   5.078   2.166   1.067
 1243TIP3    H1 3693   5.003   2.145   1.124
 1243TIP3    H2 3694   5.071   2.261   1.054
 1244TIP3   OH2 3695   4.805   6.297   2.962
 1244TIP3    H1 3696   4.859   6.264   2.891
 1244TIP3    H2 3697   4.718   6.306   2.925
 1245TIP3   OH2 3698   6.068   2.586   3.610
 1245TIP3    H1 3699   6.050   2.666   3.560
 1245TIP3    H2 3700   6.075   2.615   3.701
 1246TIP3   OH2 3701   2.662   2.679   3.257
 1246TIP3    H1 3702   2.733   2.686   3.193
 1246TIP3    H2 3703   2.704   2.647   3.337
 1247TIP3   OH2 3704   1.303   4.129   5.005
 1247TIP3    H1 3705   1.259   4.046   5.024
 1247TIP3    H2 3706   1.385   4.102   4.961
 1248TIP3   OH2 3707   1.158   2.400   4.079
 1248TIP3    H1 3708   1.066   2.425   4.090
 1248TIP3    H2 3709   1.159   2.306   4.096
 1249TIP3   OH2 3710   0.634   3.598   5.180
 1249TIP3    H1 3711   0.719   3.591   5.135
 1249TIP3    H2 3712   0.595   3.678   5.144
 1250TIP3   OH2 3713   6.444   6.565   5.165
 1250TIP3    H1 3714   6.372   6.504   5.183
 1250TIP3    H2 3715   6.482   6.584   5.251
 1251TIP3   OH2 3716   4.642   2.832   0.953
 1251TIP3    H1 3717   4.592   2.858   1.031
 1251TIP3    H2 3718   4.726   2.801   0.987
 1252TIP3   OH2 3719   4.864   6.151   3.432
 1252TIP3    H1 3720   4.791   6.103   3.470
 1252TIP3    H2 3721   4.917   6.178   3.506
 1253TIP3   OH2 3722   4.255   1.198   2.526
 1253TIP3    H1 3723   4.236   1.105   2.516
 1253TIP3    H2 3724   4.208   1.240   2.454
 1254TIP3   OH2 3725   3.071   5.520   3.605
 1254TIP3    H1 3726   2.998   5.457   3.601
 1254TIP3    H2 3727   3.072   5.549   3.697
 1255TIP3   OH2 3728   6.379   5.843   2.835
 1255TIP3    H1 3729   6.384   5.898   2.913
 1255TIP3    H2 3730   6.302   5.787   2.849
 1256TIP3   OH2 3731   0.092   5.037   1.654
 1256TIP3    H1 3732   0.095   5.131   1.672
 1256TIP3    H2 3733   0.169   5.020   1.600
 1257TIP3   OH2 3734   1.170   3.170   3.575
 1257TIP3    H1 3735   1.234   3.099   3.569
 1257TIP3    H2 3736   1.105   3.149   3.508
 1258TIP3   OH2 3737   5.991   6.301   5.316
 1258TIP3    H1 3738   5.897   6.299   5.335
 1258TIP3    H2 3739   6.032   6.334   5.396
 1259TIP3   OH2 3740   4.368   2.234   4.347
 1259TIP3    H1 3741   4.442   2.219   4.407
 1259TIP3    H2 3742   4.322   2.150   4.344
 1260TIP3   OH2 3743   4.415   3.587   4.236
 1260TIP3    H1 3744   4.468   3.638   4.297
 1260TIP3    H2 3745   4.325   3.604   4.262
 1261TIP3   OH2 3746   2.782   4.255   1.807
 1261TIP3    H1 3747   2.845   4.326   1.803
 1261TIP3    H2 3748   2.698   4.298   1.823
 1262TIP3   OH2 3749   1.844   1.275   3.418
 1262TIP3    H1 3750   1.931   1.237   3.408
 1262TIP3    H2 3751   1.792   1.235   3.348
 1263TIP3   OH2 3752   3.929   3.946   0.160
 1263TIP3    H1 3753   3.961   3.869   0.114
 1263TIP3    H2 3754   4.003   4.008   0.155
 1264TIP3   OH2 3755   5.968   6.478   5.095
 1264TIP3    H1 3756   5.908   6.553   5.094
 1264TIP3    H2 3757   5.937   6.423   5.167
 1265TIP3   OH2 3758   6.922   0.660   0.600
 1265TIP3    H1 3759   6.898   0.578   0.558
 1265TIP3    H2 3760   6.839   0.696   0.631
 1266TIP3   OH2 3761   4.847   3.548   2.833
 1266TIP3    H1 3762   4.796   3.530   2.754
 1266TIP3    H2 3763   4.855   3.463   2.876
 1267TIP3   OH2 3764   3.604   0.561   1.799
 1267TIP3    H1 3765   3.681   0.505   1.811
 1267TIP3    H2 3766   3.639   0.642   1.762
 1268TIP3   OH2 3767   3.043   2.655  -0.012
 1268TIP3    H1 3768   2.987   2.609   0.052
 1268TIP3    H2 3769   3.067   2.736   0.032
 1269TIP3   OH2 3770   4.954   0.087   5.211
 1269TIP3    H1 3771   5.019   0.079   5.281
 1269TIP3    H2 3772   4.933   0.180   5.207
 1270TIP3   OH2 3773   2.043   2.660   2.790
 1270TIP3    H1 3774   2.025   2.619   2.705
 1270TIP3    H2 3775   1.957   2.673   2.829
 1271TIP3   OH2 3776   5.704   6.530   0.399
 1271TIP3    H1 3777   5.614   6.563   0.395
 1271TIP3    H2 3778   5.733   6.530   0.308
 1272TIP3   OH2 3779   4.009   2.068   0.558
 1272TIP3    H1 3780   4.067   1.994   0.576
 1272TIP3    H2 3781   4.068   2.143   0.548
 1273TIP3   OH2 3782   1.676   4.012   1.510
 1273TIP3    H1 3783   1.614   4.059   1.566
 1273TIP3    H2 3784   1.635   4.011   1.424
 1274TIP3   OH2 3785   2.602   6.366   2.205
 1274TIP3    H1 3786   2.674   6.324   2.251
 1274TIP3    H2 3787   2.559   6.294   2.157
 1275TIP3   OH2 3788   4.633   4.539   4.881
 1275TIP3    H1 3789   4.675   4.617   4.844
 1275TIP3    H2 3790   4.703   4.495   4.930
 1276TIP3   OH2 3791   3.352   4.514   3.690
 1276TIP3    H1 3792   3.272   4.467   3.667
 1276TIP3    H2 3793   3.354   4.590   3.631
 1277TIP3   OH2 3794   3.821   6.337   5.155
 1277TIP3    H1 3795   3.831   6.313   5.063
 1277TIP3    H2 3796   3.752   6.280   5.188
 1278TIP3   OH2 3797   3.897   5.458   2.821
 1278TIP3    H1 3798   3.886   5.441   2.915
 1278TIP3    H2 3799   3.821   5.511   2.798
 1279TIP3   OH2 3800   4.599   2.744   3.683
 1279TIP3    H1 3801   4.615   2.696   3.602
 1279TIP3    H2 3802   4.647   2.695   3.750
 1280TIP3   OH2 3803   0.517   0.695   4.096
 1280TIP3    H1 3804   0.543   0.633   4.164
 1280TIP3    H2 3805   0.429   0.666   4.070
 1281TIP3   OH2 3806   3.082   5.522   5.084
 1281TIP3    H1 3807   3.099   5.457   5.153
 1281TIP3    H2 3808   3.148   5.590   5.098
 1282TIP3   OH2 3809   6.488   4.381   4.822
 1282TIP3    H1 3810   6.541   4.443   4.872
 1282TIP3    H2 3811   6.406   4.376   4.871
 1283TIP3   OH2 3812   3.713   1.776   3.550
 1283TIP3    H1 3813   3.704   1.682   3.566
 1283TIP3    H2 3814   3.762   1.808   3.625
 1284TIP3   OH2 3815   2.830   2.551   3.695
 1284TIP3    H1 3816   2.877   2.581   3.618
 1284TIP3    H2 3817   2.757   2.499   3.661
 1285TIP3   OH2 3818   0.920   1.210   3.698
 1285TIP3    H1 3819   0.949   1.225   3.608
 1285TIP3    H2 3820   0.963   1.279   3.749
 1286TIP3   OH2 3821   6.148   4.003   0.561
 1286TIP3    H1 3822   6.168   3.909   0.559
 1286TIP3    H2 3823   6.055   4.008   0.537
 1287TIP3   OH2 3824   5.010   5.225   0.937
 1287TIP3    H1 3825   4.940   5.283   0.966
 1287TIP3    H2 3826   5.012   5.235   0.842
 1288TIP3   OH2 3827   6.378   0.204   2.462
 1288TIP3    H1 3828   6.335   0.187   2.378
 1288TIP3    H2 3829   6.372   0.298   2.474
 1289TIP3   OH2 3830   4.333   6.159   1.238
 1289TIP3    H1 3831   4.242   6.137   1.220
 1289TIP3    H2 3832   4.338   6.254   1.224
 1290TIP3   OH2 3833   5.643   1.808   0.944
 1290TIP3    H1 3834   5.594   1.796   1.026
 1290TIP3    H2 3835   5.735   1.812   0.972
 1291TIP3   OH2 3836   2.426   4.895   3.053
 1291TIP3    H1 3837   2.517   4.921   3.046
 1291TIP3    H2 3838   2.406   4.853   2.969
 1292TIP3   OH2 3839   1.115   2.596   1.797
 1292TIP3    H1 3840   1.041   2.590   1.857
 1292TIP3    H2 3841   1.161   2.676   1.823
 1293TIP3   OH2 3842   5.254   4.160   3.954
 1293TIP3    H1 3843   5.305   4.241   3.945
 1293TIP3    H2 3844   5.312   4.091   3.923
 1294TIP3   OH2 3845   4.861   3.972   5.413
 1294TIP3    H1 3846   4.830   3.961   5.503
 1294TIP3    H2 3847   4.794   3.929   5.360
 1295TIP3   OH2 3848   4.371   5.894   3.008
 1295TIP3    H1 3849   4.406   5.829   2.947
 1295TIP3    H2 3850   4.437   5.964   3.007
 1296TIP3   OH2 3851   6.053   3.641   2.915
 1296TIP3    H1 3852   5.961   3.632   2.892
 1296TIP3    H2 3853   6.053   3.666   3.007
 1297TIP3   OH2 3854   3.522   2.594   4.093
 1297TIP3    H1 3855   3.445   2.561   4.047
 1297TIP3    H2 3856   3.513   2.561   4.182
 1298TIP3   OH2 3857   4.869   0.470   3.706
 1298TIP3    H1 3858   4.837   0.545   3.656
 1298TIP3    H2 3859   4.790   0.429   3.740
 1299TIP3   OH2 3860   4.920   6.348   5.155
 1299TIP3    H1 3861   4.829   6.334   5.128
 1299TIP3    H2 3862   4.951   6.262   5.182
 1300TIP3   OH2 3863   1.270   3.570   5.285
 1300TIP3    H1 3864   1.275   3.564   5.381
 1300TIP3    H2 3865   1.302   3.657   5.265
 1301TIP3   OH2 3866   5.564   1.134   5.050
 1301TIP3    H1 3867   5.554   1.097   4.962
 1301TIP3    H2 3868   5.580   1.058   5.106
 1302TIP3   OH2 3869   2.359   1.548   1.648
 1302TIP3    H1 3870   2.330   1.639   1.652
 1302TIP3    H2 3871   2.383   1.527   1.738
 1303TIP3   OH2 3872   5.586   2.084   4.876
 1303TIP3    H1 3873   5.589   1.989   4.887
 1303TIP3    H2 3874   5.494   2.107   4.893
 1304TIP3   OH2 3875   4.108   6.224   4.742
 1304TIP3    H1 3876   4.102   6.142   4.790
 1304TIP3    H2 3877   4.164   6.204   4.667
 1305TIP3   OH2 3878   1.011   3.861   0.807
 1305TIP3    H1 3879   0.957   3.922   0.858
 1305TIP3    H2 3880   1.100   3.875   0.839
 1306TIP3   OH2 3881   4.984   4.660   2.704
 1306TIP3    H1 3882   4.964   4.653   2.610
 1306TIP3    H2 3883   4.905   4.627   2.747
 1307TIP3   OH2 3884   4.482   2.731   5.285
 1307TIP3    H1 3885   4.404   2.689   5.249
 1307TIP3    H2 3886   4.510   2.672   5.355
 1308TIP3   OH2 3887   6.363   1.321   1.755
 1308TIP3    H1 3888   6.457   1.332   1.744
 1308TIP3    H2 3889   6.353   1.254   1.822
 1309TIP3   OH2 3890   4.689   0.532   4.395
 1309TIP3    H1 3891   4.678   0.592   4.322
 1309TIP3    H2 3892   4.783   0.516   4.400
 1310TIP3   OH2 3893   4.751   4.964   3.416
 1310TIP3    H1 3894   4.839   4.974   3.381
 1310TIP3    H2 3895   4.728   4.873   3.397
 1311TIP3   OH2 3896   1.011   0.164   2.908
 1311TIP3    H1 3897   0.925   0.172   2.867
 1311TIP3    H2 3898   1.073   0.171   2.835
 1312TIP3   OH2 3899   0.276   3.515   3.078
 1312TIP3    H1 3900   0.288   3.428   3.040
 1312TIP3    H2 3901   0.296   3.504   3.171
 1313TIP3   OH2 3902   0.916   6.068   5.106
 1313TIP3    H1 3903   0.883   6.071   5.016
 1313TIP3    H2 3904   0.837   6.063   5.160
 1314TIP3   OH2 3905   5.879   0.271   4.380
 1314TIP3    H1 3906   5.924   0.214   4.443
 1314TIP3    H2 3907   5.922   0.356   4.390
 1315TIP3   OH2 3908   2.163   1.053   3.775
 1315TIP3    H1 3909   2.143   0.976   3.828
 1315TIP3    H2 3910   2.258   1.063   3.781
 1316TIP3   OH2 3911   7.217   4.842   3.032
 1316TIP3    H1 3912   7.172   4.857   2.950
 1316TIP3    H2 3913   7.164   4.775   3.076
 1317TIP3   OH2 3914   6.218   2.789   1.060
 1317TIP3    H1 3915   6.226   2.783   1.155
 1317TIP3    H2 3916   6.170   2.710   1.035
 1318TIP3   OH2 3917   6.230   1.214   2.452
 1318TIP3    H1 3918   6.229   1.243   2.543
 1318TIP3    H2 3919   6.285   1.277   2.407
 1319TIP3   OH2 3920   5.648   6.503   1.622
 1319TIP3    H1 3921   5.572   6.548   1.660
 1319TIP3    H2 3922   5.722   6.533   1.676
 1320TIP3   OH2 3923   6.263   1.142   5.791
 1320TIP3    H1 3924   6.251   1.082   5.864
 1320TIP3    H2 3925   6.344   1.189   5.811
 1321TIP3   OH2 3926   4.683   3.929   1.227
 1321TIP3    H1 3927   4.653   3.895   1.311
 1321TIP3    H2 3928   4.725   3.854   1.184
 1322TIP3   OH2 3929   6.566   6.399   1.021
 1322TIP3    H1 3930   6.596   6.488   1.007
 1322TIP3    H2 3931   6.471   6.404   1.015
 1323TIP3   OH2 3932   6.984   5.424   0.993
 1323TIP3    H1 3933   7.019   5.344   0.953
 1323TIP3    H2 3934   6.920   5.456   0.930
 1324TIP3   OH2 3935   2.308   6.663   0.089
 1324TIP3    H1 3936   2.291   6.597   0.157
 1324TIP3    H2 3937   2.280   6.620   0.008
 1325TIP3   OH2 3938   1.524   2.596   3.897
 1325TIP3    H1 3939   1.608   2.578   3.855
 1325TIP3    H2 3940   1.473   2.516   3.885
 1326TIP3   OH2 3941   0.604   4.997   3.496
 1326TIP3    H1 3942   0.645   4.930   3.441
 1326TIP3    H2 3943   0.559   5.054   3.434
 1327TIP3   OH2 3944   7.053   0.198   1.988
 1327TIP3    H1 3945   7.062   0.201   2.083
 1327TIP3    H2 3946   7.062   0.105   1.965
 1328TIP3   OH2 3947   1.273   3.489   2.002
 1328TIP3    H1 3948   1.365   3.517   1.996
 1328TIP3    H2 3949   1.272   3.404   1.957
 1329TIP3   OH2 3950   6.461   0.575   2.866
 1329TIP3    H1 3951   6.463   0.657   2.915
 1329TIP3    H2 3952   6.377   0.535   2.888
 1330TIP3   OH2 3953   2.085   5.695   4.528
 1330TIP3    H1 3954   2.093   5.620   4.586
 1330TIP3    H2 3955   2.141   5.674   4.453
 1331TIP3   OH2 3956   0.514   1.496   3.955
 1331TIP3    H1 3957   0.435   1.449   3.981
 1331TIP3    H2 3958   0.573   1.427   3.923
 1332TIP3   OH2 3959   3.381   6.048   5.247
 1332TIP3    H1 3960   3.326   6.047   5.326
 1332TIP3    H2 3961   3.319   6.043   5.175
 1333TIP3   OH2 3962   2.706   4.164   4.883
 1333TIP3    H1 3963   2.669   4.233   4.827
 1333TIP3    H2 3964   2.640   4.150   4.951
 1334TIP3   OH2 3965   1.618   1.959   4.311
 1334TIP3    H1 3966   1.695   2.015   4.319
 1334TIP3    H2 3967   1.639   1.881   4.364
 1335TIP3   OH2 3968   4.246   5.827   1.199
 1335TIP3    H1 3969   4.324   5.785   1.235
 1335TIP3    H2 3970   4.240   5.793   1.110
 1336TIP3   OH2 3971   6.538   4.978   5.296
 1336TIP3    H1 3972   6.575   4.952   5.381
 1336TIP3    H2 3973   6.469   5.040   5.318
 1337TIP3   OH2 3974   2.832   3.091   1.932
 1337TIP3    H1 3975   2.882   3.060   2.006
 1337TIP3    H2 3976   2.885   3.162   1.894
 1338TIP3   OH2 3977   6.929   0.139   4.456
 1338TIP3    H1 3978   6.902   0.137   4.364
 1338TIP3    H2 3979   6.864   0.195   4.498
 1339TIP3   OH2 3980   5.066   1.091   2.410
 1339TIP3    H1 3981   5.100   1.162   2.465
 1339TIP3    H2 3982   4.974   1.114   2.396
 1340TIP3   OH2 3983   2.260   5.164   3.337
 1340TIP3    H1 3984   2.273   5.175   3.243
 1340TIP3    H2 3985   2.173   5.124   3.345
 1341TIP3   OH2 3986   1.405   1.211   1.659
 1341TIP3    H1 3987   1.429   1.219   1.567
 1341TIP3    H2 3988   1.446   1.130   1.688
 1342TIP3   OH2 3989   3.431   3.869   0.965
 1342TIP3    H1 3990   3.352   3.899   1.010
 1342TIP3    H2 3991   3.441   3.778   0.993
 1343TIP3   OH2 3992   6.917   4.983   3.041
 1343TIP3    H1 3993   6.978   5.056   3.045
 1343TIP3    H2 3994   6.848   5.005   3.103
 1344TIP3   OH2 3995  -0.004   0.353   0.552
 1344TIP3    H1 3996   0.062   0.285   0.545
 1344TIP3    H2 3997  -0.004   0.378   0.644
 1345TIP3   OH2 3998   1.264   5.070   5.601
 1345TIP3    H1 3999   1.340   5.127   5.595
 1345TIP3    H2 4000   1.256   5.049   5.694
 1346TIP3   OH2 4001   0.778   1.476   0.487
 1346TIP3    H1 4002   0.696   1.502   0.528
 1346TIP3    H2 4003   0.838   1.462   0.560
 1347TIP3   OH2 4004   2.021   3.321   0.785
 1347TIP3    H1 4005   1.968   3.313   0.705
 1347TIP3    H2 4006   2.111   3.324   0.754
 1348TIP3   OH2 4007   1.118   1.188   1.672
 1348TIP3    H1 4008   1.101   1.114   1.730
 1348TIP3    H2 4009   1.213   1.198   1.675
 1349TIP3   OH2 4010   4.463   2.303   5.812
 1349TIP3    H1 4011   4.404   2.270   5.880
 1349TIP3    H2 4012   4.404   2.339   5.745
 1350TIP3   OH2 4013   5.459   4.563   2.361
 1350TIP3    H1 4014   5.481   4.634   2.300
 1350TIP3    H2 4015   5.370   4.537   2.337
 1351TIP3   OH2 4016   4.974   0.166   0.559
 1351TIP3    H1 4017   5.067   0.187   0.551
 1351TIP3    H2 4018   4.968   0.113   0.639
 1352TIP3   OH2 4019   3.273   0.887   4.681
 1352TIP3    H1 4020   3.228   0.870   4.598
 1352TIP3    H2 4021   3.279   0.801   4.723
 1353TIP3   OH2 4022   4.171   5.696   2.990
 1353TIP3    H1 4023   4.216   5.737   3.064
 1353TIP3    H2 4024   4.205   5.741   2.913
 1354TIP3   OH2 4025   0.980   1.759   2.604
 1354TIP3    H1 4026   0.946   1.844   2.575
 1354TIP3    H2 4027   0.970   1.702   2.528
 1355TIP3   OH2 4028   2.604   1.252   0.578
 1355TIP3    H1 4029   2.528   1.227   0.526
 1355TIP3    H2 4030   2.645   1.322   0.528
 1356TIP3   OH2 4031   2.141   1.385   3.073
 1356TIP3    H1 4032   2.186   1.350   2.996
 1356TIP3    H2 4033   2.061   1.333   3.080
 1357TIP3   OH2 4034   4.056   0.987   3.148
 1357TIP3    H1 4035   4.026   0.989   3.057
 1357TIP3    H2 4036   4.119   1.059   3.154
 1358TIP3   OH2 4037   4.890   1.614   1.162
 1358TIP3    H1 4038   4.874   1.700   1.123
 1358TIP3    H2 4039   4.962   1.629   1.224
 1359TIP3   OH2 4040   3.948   6.577   3.262
 1359TIP3    H1 4041   3.939   6.482   3.254
 1359TIP3    H2 4042   3.926   6.611   3.175
 1360TIP3   OH2 4043   1.895   2.917   1.279
 1360TIP3    H1 4044   1.979   2.919   1.325
 1360TIP3    H2 4045   1.910   2.969   1.200
 1361TIP3   OH2 4046   1.852   2.421   1.069
 1361TIP3    H1 4047   1.791   2.362   1.025
 1361TIP3    H2 4048   1.808   2.506   1.068
 1362TIP3   OH2 4049   5.932   0.665   1.257
 1362TIP3    H1 4050   5.839   0.645   1.257
 1362TIP3    H2 4051   5.943   0.728   1.186
 1363TIP3   OH2 4052   1.768   5.137   3.844
 1363TIP3    H1 4053   1.681   5.098   3.853
 1363TIP3    H2 4054   1.771   5.168   3.753
 1364TIP3   OH2 4055   6.269   0.111   0.665
 1364TIP3    H1 4056   6.199   0.176   0.666
 1364TIP3    H2 4057   6.244   0.049   0.597
 1365TIP3   OH2 4058   4.072   4.115   5.003
 1365TIP3    H1 4059   4.043   4.194   4.958
 1365TIP3    H2 4060   4.167   4.121   5.003
 1366TIP3   OH2 4061   2.314   0.873   1.510
 1366TIP3    H1 4062   2.332   0.960   1.544
 1366TIP3    H2 4063   2.388   0.854   1.453
 1367TIP3   OH2 4064   2.993   5.202   1.598
 1367TIP3    H1 4065   2.972   5.241   1.513
 1367TIP3    H2 4066   2.984   5.274   1.661
 1368TIP3   OH2 4067   0.909   1.880   2.173
 1368TIP3    H1 4068   0.938   1.959   2.128
 1368TIP3    H2 4069   0.883   1.911   2.260
 1369TIP3   OH2 4070   4.301   2.385   2.136
 1369TIP3    H1 4071   4.384   2.431   2.151
 1369TIP3    H2 4072   4.313   2.342   2.051
 1370TIP3   OH2 4073   0.401   1.719   0.530
 1370TIP3    H1 4074   0.417   1.735   0.438
 1370TIP3    H2 4075   0.329   1.778   0.552
 1371TIP3   OH2 4076   2.961   6.375   4.358
 1371TIP3    H1 4077   2.907   6.380   4.437
 1371TIP3    H2 4078   3.051   6.381   4.390
 1372TIP3   OH2 4079   7.043   0.434   3.069
 1372TIP3    H1 4080   6.997   0.352   3.083
 1372TIP3    H2 4081   7.044   0.477   3.154
 1373TIP3   OH2 4082   3.256   2.261   0.717
 1373TIP3    H1 4083   3.336   2.217   0.748
 1373TIP3    H2 4084   3.185   2.213   0.758
 1374TIP3   OH2 4085   4.542   4.707   3.625
 1374TIP3    H1 4086   4.590   4.669   3.551
 1374TIP3    H2 4087   4.521   4.796   3.597
 1375TIP3   OH2 4088   5.029   6.295   4.507
 1375TIP3    H1 4089   4.979   6.258   4.579
 1375TIP3    H2 4090   5.100   6.233   4.491
 1376TIP3   OH2 4091   6.716   2.734   3.469
 1376TIP3    H1 4092   6.731   2.688   3.551
 1376TIP3    H2 4093   6.738   2.671   3.400
 1377TIP3   OH2 4094   3.800   1.262   3.649
 1377TIP3    H1 4095   3.893   1.280   3.666
 1377TIP3    H2 4096   3.796   1.168   3.634
 1378TIP3   OH2 4097   5.775   6.192   1.005
 1378TIP3    H1 4098   5.780   6.096   1.005
 1378TIP3    H2 4099   5.690   6.212   1.044
 1379TIP3   OH2 4100   3.873   0.044   5.048
 1379TIP3    H1 4101   3.922   0.109   4.998
 1379TIP3    H2 4102   3.783   0.052   5.017
 1380TIP3   OH2 4103   3.102   1.583   2.844
 1380TIP3    H1 4104   3.036   1.644   2.812
 1380TIP3    H2 4105   3.129   1.618   2.929
 1381TIP3   OH2 4106   2.929   0.311   0.858
 1381TIP3    H1 4107   2.840   0.311   0.822
 1381TIP3    H2 4108   2.958   0.220   0.850
 1382TIP3   OH2 4109   5.594   2.574   2.060
 1382TIP3    H1 4110   5.543   2.634   2.114
 1382TIP3    H2 4111   5.537   2.498   2.049
 1383TIP3   OH2 4112   0.139   3.443   0.456
 1383TIP3    H1 4113   0.167   3.517   0.402
 1383TIP3    H2 4114   0.099   3.382   0.394
 1384TIP3   OH2 4115   5.176   6.090   3.068
 1384TIP3    H1 4116   5.257   6.088   3.016
 1384TIP3    H2 4117   5.157   6.183   3.081
 1385TIP3   OH2 4118   5.647   0.863   4.487
 1385TIP3    H1 4119   5.648   0.945   4.437
 1385TIP3    H2 4120   5.708   0.878   4.559
 1386TIP3   OH2 4121   2.491   2.443   3.345
 1386TIP3    H1 4122   2.403   2.413   3.321
 1386TIP3    H2 4123   2.546   2.420   3.271
 1387TIP3   OH2 4124   6.640   4.461   0.993
 1387TIP3    H1 4125   6.596   4.376   0.983
 1387TIP3    H2 4126   6.576   4.516   1.039
 1388TIP3   OH2 4127   4.498   3.280   0.091
 1388TIP3    H1 4128   4.478   3.331   0.012
 1388TIP3    H2 4129   4.492   3.344   0.162
 1389TIP3   OH2 4130   0.372   0.798   3.138
 1389TIP3    H1 4131   0.325   0.729   3.185
 1389TIP3    H2 4132   0.428   0.752   3.076
 1390TIP3   OH2 4133   2.691   2.024   0.482
 1390TIP3    H1 4134   2.614   1.970   0.462
 1390TIP3    H2 4135   2.700   2.082   0.407
 1391TIP3   OH2 4136   7.092   3.942   2.762
 1391TIP3    H1 4137   7.016   3.889   2.785
 1391TIP3    H2 4138   7.140   3.888   2.698
 1392TIP3   OH2 4139   3.379   3.356   0.458
 1392TIP3    H1 4140   3.433   3.429   0.427
 1392TIP3    H2 4141   3.357   3.309   0.378
 1393TIP3   OH2 4142   0.264   3.150   1.504
 1393TIP3    H1 4143   0.345   3.103   1.523
 1393TIP3    H2 4144   0.261   3.154   1.408
 1394TIP3   OH2 4145   3.427   1.101   4.570
 1394TIP3    H1 4146   3.364   1.149   4.516
 1394TIP3    H2 4147   3.376   1.030   4.609
 1395TIP3   OH2 4148   3.111   6.139   0.952
 1395TIP3    H1 4149   3.162   6.218   0.939
 1395TIP3    H2 4150   3.110   6.126   1.047
 1396TIP3   OH2 4151   0.908   2.291   2.626
 1396TIP3    H1 4152   0.898   2.223   2.560
 1396TIP3    H2 4153   0.999   2.321   2.616
 1397TIP3   OH2 4154   6.497   4.655   1.459
 1397TIP3    H1 4155   6.404   4.665   1.439
 1397TIP3    H2 4156   6.530   4.744   1.467
 1398TIP3   OH2 4157   5.303   0.928   1.181
 1398TIP3    H1 4158   5.375   0.988   1.160
 1398TIP3    H2 4159   5.225   0.983   1.179
 1399TIP3   OH2 4160   5.868   4.181   0.604
 1399TIP3    H1 4161   5.942   4.241   0.615
 1399TIP3    H2 4162   5.804   4.210   0.670
 1400TIP3   OH2 4163   5.785   5.906   2.793
 1400TIP3    H1 4164   5.742   5.824   2.768
 1400TIP3    H2 4165   5.797   5.899   2.887
 1401TIP3   OH2 4166   2.763   3.342   5.472
 1401TIP3    H1 4167   2.727   3.387   5.396
 1401TIP3    H2 4168   2.728   3.254   5.467
 1402TIP3   OH2 4169   4.912   4.447   4.400
 1402TIP3    H1 4170   4.861   4.523   4.427
 1402TIP3    H2 4171   4.849   4.375   4.402
 1403TIP3   OH2 4172   6.697   3.588   4.455
 1403TIP3    H1 4173   6.785   3.620   4.475
 1403TIP3    H2 4174   6.686   3.606   4.362
 1404TIP3   OH2 4175   0.211   2.665   4.010
 1404TIP3    H1 4176   0.268   2.738   3.986
 1404TIP3    H2 4177   0.145   2.704   4.067
 1405TIP3   OH2 4178   0.531   5.231   5.800
 1405TIP3    H1 4179   0.577   5.229   5.884
 1405TIP3    H2 4180   0.588   5.183   5.740
 1406TIP3   OH2 4181   4.018   4.890   4.042
 1406TIP3    H1 4182   3.935   4.843   4.031
 1406TIP3    H2 4183   4.051   4.862   4.127
 1407TIP3   OH2 4184   0.740   0.718   4.510
 1407TIP3    H1 4185   0.792   0.641   4.533
 1407TIP3    H2 4186   0.667   0.718   4.572
 1408TIP3   OH2 4187   4.072   4.239   4.607
 1408TIP3    H1 4188   3.993   4.203   4.648
 1408TIP3    H2 4189   4.090   4.319   4.656
 1409TIP3   OH2 4190   5.417   5.702   1.709
 1409TIP3    H1 4191   5.435   5.795   1.725
 1409TIP3    H2 4192   5.342   5.702   1.650
 1410TIP3   OH2 4193   7.171   3.688   4.258
 1410TIP3    H1 4194   7.078   3.681   4.280
 1410TIP3    H2 4195   7.199   3.597   4.244
 1411TIP3   OH2 4196   6.064   0.607   1.814
 1411TIP3    H1 4197   6.010   0.685   1.803
 1411TIP3    H2 4198   6.147   0.628   1.770
 1412TIP3   OH2 4199   2.254   3.371   5.266
 1412TIP3    H1 4200   2.209   3.340   5.346
 1412TIP3    H2 4201   2.326   3.424   5.299
 1413TIP3   OH2 4202   0.643   0.494   0.559
 1413TIP3    H1 4203   0.570   0.513   0.501
 1413TIP3    H2 4204   0.666   0.403   0.540
 1414TIP3   OH2 4205   0.510   1.050   2.011
 1414TIP3    H1 4206   0.557   1.074   2.091
 1414TIP3    H2 4207   0.432   1.004   2.042
 1415TIP3   OH2 4208   3.828   3.019   5.058
 1415TIP3    H1 4209   3.900   3.078   5.083
 1415TIP3    H2 4210   3.789   3.061   4.982
 1416TIP3   OH2 4211   2.542   6.154   0.823
 1416TIP3    H1 4212   2.602   6.219   0.788
 1416TIP3    H2 4213   2.480   6.204   0.877
 1417TIP3   OH2 4214   3.210   5.320   0.747
 1417TIP3    H1 4215   3.160   5.238   0.743
 1417TIP3    H2 4216   3.206   5.346   0.839
 1418TIP3   OH2 4217   0.658   2.363   1.182
 1418TIP3    H1 4218   0.747   2.366   1.217
 1418TIP3    H2 4219   0.615   2.295   1.233
 1419TIP3   OH2 4220   0.626   1.593   2.740
 1419TIP3    H1 4221   0.669   1.636   2.814
 1419TIP3    H2 4222   0.698   1.563   2.684
 1420TIP3   OH2 4223   0.779   5.840   1.808
 1420TIP3    H1 4224   0.859   5.890   1.819
 1420TIP3    H2 4225   0.783   5.806   1.719
 1421TIP3   OH2 4226   1.497   5.234   1.168
 1421TIP3    H1 4227   1.503   5.329   1.181
 1421TIP3    H2 4228   1.417   5.209   1.213
 1422TIP3   OH2 4229   3.341   5.649   3.178
 1422TIP3    H1 4230   3.380   5.736   3.186
 1422TIP3    H2 4231   3.284   5.641   3.255
 1423TIP3   OH2 4232   3.776   1.542   0.358
 1423TIP3    H1 4233   3.745   1.551   0.448
 1423TIP3    H2 4234   3.871   1.546   0.364
 1424TIP3   OH2 4235   5.988   1.684   0.243
 1424TIP3    H1 4236   5.912   1.627   0.254
 1424TIP3    H2 4237   6.017   1.703   0.333
 1425TIP3   OH2 4238   7.148   6.789   5.124
 1425TIP3    H1 4239   7.100   6.707   5.139
 1425TIP3    H2 4240   7.219   6.764   5.065
 1426TIP3   OH2 4241   0.247   0.219   4.292
 1426TIP3    H1 4242   0.246   0.290   4.227
 1426TIP3    H2 4243   0.265   0.140   4.241
 1427TIP3   OH2 4244   0.855   4.396   4.688
 1427TIP3    H1 4245   0.906   4.340   4.747
 1427TIP3    H2 4246   0.816   4.335   4.625
 1428TIP3   OH2 4247   0.761   5.009   1.297
 1428TIP3    H1 4248   0.792   4.980   1.382
 1428TIP3    H2 4249   0.725   5.097   1.314
 1429TIP3   OH2 4250  -0.004   3.033   0.187
 1429TIP3    H1 4251   0.068   2.986   0.146
 1429TIP3    H2 4252  -0.081   3.008   0.135
 1430TIP3   OH2 4253   6.569   1.433   3.554
 1430TIP3    H1 4254   6.597   1.383   3.631
 1430TIP3    H2 4255   6.478   1.407   3.540
 1431TIP3   OH2 4256   5.033   0.984   4.407
 1431TIP3    H1 4257   4.951   0.970   4.453
 1431TIP3    H2 4258   5.013   1.050   4.341
 1432TIP3   OH2 4259   2.507   4.032   4.434
 1432TIP3    H1 4260   2.480   3.986   4.514
 1432TIP3    H2 4261   2.601   4.013   4.428
 1433TIP3   OH2 4262   0.918   1.977   0.547
 1433TIP3    H1 4263   0.971   1.899   0.564
 1433TIP3    H2 4264   0.840   1.943   0.503
 1434TIP3   OH2 4265   2.456   2.197   1.492
 1434TIP3    H1 4266   2.467   2.236   1.578
 1434TIP3    H2 4267   2.361   2.188   1.481
 1435TIP3   OH2 4268   6.801   5.475   5.402
 1435TIP3    H1 4269   6.762   5.514   5.324
 1435TIP3    H2 4270   6.782   5.536   5.472
 1436TIP3   OH2 4271   0.739   6.210   1.743
 1436TIP3    H1 4272   0.707   6.252   1.823
 1436TIP3    H2 4273   0.679   6.136   1.730
 1437TIP3   OH2 4274   0.856   0.953   1.410
 1437TIP3    H1 4275   0.903   0.893   1.468
 1437TIP3    H2 4276   0.764   0.934   1.426
 1438TIP3   OH2 4277   6.775   2.692   5.306
 1438TIP3    H1 4278   6.847   2.755   5.312
 1438TIP3    H2 4279   6.746   2.681   5.396
 1439TIP3   OH2 4280   2.454   2.465   5.357
 1439TIP3    H1 4281   2.483   2.396   5.297
 1439TIP3    H2 4282   2.431   2.538   5.300
 1440TIP3   OH2 4283   4.760   6.708   2.771
 1440TIP3    H1 4284   4.733   6.643   2.707
 1440TIP3    H2 4285   4.682   6.763   2.783
 1441TIP3   OH2 4286   3.774   5.164   4.787
 1441TIP3    H1 4287   3.807   5.237   4.841
 1441TIP3    H2 4288   3.827   5.168   4.707
 1442TIP3   OH2 4289   1.990   1.208   0.228
 1442TIP3    H1 4290   1.961   1.117   0.236
 1442TIP3    H2 4291   1.983   1.242   0.317
 1443TIP3   OH2 4292   5.430   3.729   4.512
 1443TIP3    H1 4293   5.506   3.779   4.539
 1443TIP3    H2 4294   5.356   3.774   4.553
 1444TIP3   OH2 4295   3.927   0.297   5.463
 1444TIP3    H1 4296   3.915   0.354   5.540
 1444TIP3    H2 4297   3.974   0.352   5.400
 1445TIP3   OH2 4298   5.491   0.531   2.711
 1445TIP3    H1 4299   5.427   0.587   2.666
 1445TIP3    H2 4300   5.551   0.592   2.753
 1446TIP3   OH2 4301   5.819   4.147   4.935
 1446TIP3    H1 4302   5.846   4.230   4.895
 1446TIP3    H2 4303   5.901   4.099   4.947
 1447TIP3   OH2 4304   4.065   5.269   5.065
 1447TIP3    H1 4305   3.983   5.297   5.022
 1447TIP3    H2 4306   4.057   5.303   5.154
 1448TIP3   OH2 4307   3.806   0.060   5.446
 1448TIP3    H1 4308   3.850   0.144   5.448
 1448TIP3    H2 4309   3.875  -0.003   5.425
 1449TIP3   OH2 4310   2.116   3.286   5.461
 1449TIP3    H1 4311   2.117   3.249   5.549
 1449TIP3    H2 4312   2.033   3.334   5.456
 1450TIP3   OH2 4313   5.780   2.381   0.980
 1450TIP3    H1 4314   5.767   2.467   1.020
 1450TIP3    H2 4315   5.754   2.393   0.888
 1451TIP3   OH2 4316   4.493   3.725   4.505
 1451TIP3    H1 4317   4.518   3.796   4.564
 1451TIP3    H2 4318   4.401   3.707   4.527
 1452TIP3   OH2 4319   3.955   1.740   0.216
 1452TIP3    H1 4320   3.897   1.807   0.252
 1452TIP3    H2 4321   3.959   1.759   0.122
 1453TIP3   OH2 4322   1.718   5.710   3.647
 1453TIP3    H1 4323   1.730   5.799   3.680
 1453TIP3    H2 4324   1.623   5.697   3.648
 1454TIP3   OH2 4325   6.440   4.453   2.127
 1454TIP3    H1 4326   6.429   4.465   2.222
 1454TIP3    H2 4327   6.368   4.395   2.102
 1455TIP3   OH2 4328   1.700   2.011   0.136
 1455TIP3    H1 4329   1.617   2.058   0.122
 1455TIP3    H2 4330   1.689   1.929   0.088
 1456TIP3   OH2 4331   3.165   0.650   5.643
 1456TIP3    H1 4332   3.256   0.638   5.615
 1456TIP3    H2 4333   3.138   0.563   5.673
 1457TIP3   OH2 4334   7.025   5.326   5.374
 1457TIP3    H1 4335   6.949   5.358   5.423
 1457TIP3    H2 4336   7.029   5.233   5.394
 1458TIP3   OH2 4337   4.687   6.568   2.529
 1458TIP3    H1 4338   4.643   6.516   2.462
 1458TIP3    H2 4339   4.746   6.626   2.479
 1459TIP3   OH2 4340   3.023   2.816   3.573
 1459TIP3    H1 4341   3.036   2.910   3.562
 1459TIP3    H2 4342   3.095   2.776   3.524
 1460TIP3   OH2 4343   5.372   0.193   4.526
 1460TIP3    H1 4344   5.369   0.287   4.512
 1460TIP3    H2 4345   5.325   0.179   4.608
 1461TIP3   OH2 4346   4.251   6.501   3.116
 1461TIP3    H1 4347   4.225   6.496   3.208
 1461TIP3    H2 4348   4.313   6.429   3.105
 1462TIP3   OH2 4349   2.028   4.904   5.002
 1462TIP3    H1 4350   2.121   4.891   5.020
 1462TIP3    H2 4351   2.017   4.999   4.998
 1463TIP3   OH2 4352   1.589   3.557   5.461
 1463TIP3    H1 4353   1.594   3.473   5.507
 1463TIP3    H2 4354   1.568   3.533   5.370
 1464TIP3   OH2 4355   7.174   3.059   3.574
 1464TIP3    H1 4356   7.165   3.028   3.484
 1464TIP3    H2 4357   7.138   2.989   3.628
 1465TIP3   OH2 4358   4.804   4.725   5.630
 1465TIP3    H1 4359   4.850   4.803   5.600
 1465TIP3    H2 4360   4.871   4.657   5.634
 1466TIP3   OH2 4361   1.686   6.737   2.383
 1466TIP3    H1 4362   1.756   6.799   2.405
 1466TIP3    H2 4363   1.714   6.698   2.300
 1467TIP3   OH2 4364   1.497   1.755   2.302
 1467TIP3    H1 4365   1.581   1.779   2.264
 1467TIP3    H2 4366   1.518   1.730   2.392
 1468TIP3   OH2 4367   5.948   0.903   5.787
 1468TIP3    H1 4368   5.886   0.973   5.765
 1468TIP3    H2 4369   5.894   0.835   5.826
 1469TIP3   OH2 4370   0.471   2.709   0.215
 1469TIP3    H1 4371   0.469   2.684   0.308
 1469TIP3    H2 4372   0.399   2.661   0.176
 1470TIP3   OH2 4373   2.695   4.642   3.403
 1470TIP3    H1 4374   2.633   4.715   3.395
 1470TIP3    H2 4375   2.768   4.678   3.454
 1471TIP3   OH2 4376   5.027   4.525   1.784
 1471TIP3    H1 4377   5.034   4.508   1.690
 1471TIP3    H2 4378   5.100   4.478   1.822
 1472TIP3   OH2 4379   0.677   6.581   0.867
 1472TIP3    H1 4380   0.706   6.513   0.927
 1472TIP3    H2 4381   0.672   6.537   0.782
 1473TIP3   OH2 4382   3.028   0.708   2.275
 1473TIP3    H1 4383   3.107   0.725   2.326
 1473TIP3    H2 4384   3.024   0.613   2.268
 1474TIP3   OH2 4385   5.908   0.841   1.769
 1474TIP3    H1 4386   5.902   0.934   1.794
 1474TIP3    H2 4387   5.824   0.821   1.729
 1475TIP3   OH2 4388   2.596   0.693   1.435
 1475TIP3    H1 4389   2.514   0.683   1.388
 1475TIP3    H2 4390   2.662   0.653   1.378
 1476TIP3   OH2 4391   0.867   0.559   3.418
 1476TIP3    H1 4392   0.876   0.546   3.324
 1476TIP3    H2 4393   0.915   0.486   3.457
 1477TIP3   OH2 4394   5.093   1.850   1.729
 1477TIP3    H1 4395   5.091   1.910   1.654
 1477TIP3    H2 4396   5.143   1.774   1.698
 1478TIP3   OH2 4397   6.684   1.994   1.302
 1478TIP3    H1 4398   6.660   2.070   1.249
 1478TIP3    H2 4399   6.668   2.022   1.393
 1479TIP3   OH2 4400   0.984   2.408   3.107
 1479TIP3    H1 4401   0.974   2.474   3.039
 1479TIP3    H2 4402   0.913   2.425   3.169
 1480TIP3   OH2 4403   1.377   2.182   5.165
 1480TIP3    H1 4404   1.326   2.109   5.129
 1480TIP3    H2 4405   1.314   2.254   5.172
 1481TIP3   OH2 4406   2.616   5.731   4.717
 1481TIP3    H1 4407   2.585   5.704   4.804
 1481TIP3    H2 4408   2.589   5.823   4.711
 1482TIP3   OH2 4409   2.839   2.035   1.364
 1482TIP3    H1 4410   2.781   2.069   1.295
 1482TIP3    H2 4411   2.795   2.058   1.446
 1483TIP3   OH2 4412   1.323   4.189   5.529
 1483TIP3    H1 4413   1.276   4.235   5.599
 1483TIP3    H2 4414   1.386   4.253   5.495
 1484TIP3   OH2 4415   5.158   2.248   2.074
 1484TIP3    H1 4416   5.203   2.164   2.062
 1484TIP3    H2 4417   5.065   2.225   2.077
 1485TIP3   OH2 4418   2.846   2.332   1.790
 1485TIP3    H1 4419   2.902   2.363   1.719
 1485TIP3    H2 4420   2.900   2.268   1.837
 1486TIP3   OH2 4421   0.410   2.116   1.897
 1486TIP3    H1 4422   0.374   2.129   1.809
 1486TIP3    H2 4423   0.406   2.021   1.911
 1487TIP3   OH2 4424   6.049   1.644   1.580
 1487TIP3    H1 4425   6.060   1.616   1.671
 1487TIP3    H2 4426   5.983   1.585   1.544
 1488TIP3   OH2 4427   3.819   1.762   1.648
 1488TIP3    H1 4428   3.887   1.769   1.714
 1488TIP3    H2 4429   3.756   1.831   1.670
 1489TIP3   OH2 4430   1.192   2.388   1.641
 1489TIP3    H1 4431   1.177   2.460   1.702
 1489TIP3    H2 4432   1.108   2.342   1.636
 1490TIP3   OH2 4433   6.882   0.307   2.618
 1490TIP3    H1 4434   6.807   0.350   2.659
 1490TIP3    H2 4435   6.918   0.373   2.558
 1491TIP3   OH2 4436   0.380   3.376   2.307
 1491TIP3    H1 4437   0.351   3.406   2.221
 1491TIP3    H2 4438   0.386   3.456   2.359
 1492TIP3   OH2 4439   2.787   6.728   4.504
 1492TIP3    H1 4440   2.842   6.683   4.568
 1492TIP3    H2 4441   2.759   6.659   4.444
 1493TIP3   OH2 4442   1.851   3.243   0.565
 1493TIP3    H1 4443   1.880   3.188   0.492
 1493TIP3    H2 4444   1.849   3.331   0.530
 1494TIP3   OH2 4445   1.861   2.029   2.335
 1494TIP3    H1 4446   1.838   1.952   2.283
 1494TIP3    H2 4447   1.783   2.049   2.386
 1495TIP3   OH2 4448   3.316   6.069   4.131
 1495TIP3    H1 4449   3.325   6.163   4.145
 1495TIP3    H2 4450   3.396   6.043   4.085
 1496TIP3   OH2 4451   3.780   3.990   2.953
 1496TIP3    H1 4452   3.819   3.918   3.002
 1496TIP3    H2 4453   3.855   4.034   2.911
 1497TIP3   OH2 4454   7.106   3.768   0.467
 1497TIP3    H1 4455   7.064   3.785   0.383
 1497TIP3    H2 4456   7.198   3.789   0.453
 1498TIP3   OH2 4457   6.394   2.592   4.101
 1498TIP3    H1 4458   6.317   2.607   4.046
 1498TIP3    H2 4459   6.359   2.584   4.190
 1499TIP3   OH2 4460   4.931   2.387   3.043
 1499TIP3    H1 4461   4.925   2.463   3.101
 1499TIP3    H2 4462   5.009   2.403   2.990
 1500TIP3   OH2 4463   4.863   6.000   5.603
 1500TIP3    H1 4464   4.935   5.944   5.574
 1500TIP3    H2 4465   4.869   6.079   5.549
 1501TIP3   OH2 4466   6.650   3.153   2.659
 1501TIP3    H1 4467   6.649   3.205   2.740
 1501TIP3    H2 4468   6.742   3.153   2.632
 1502TIP3   OH2 4469   6.136   3.503   0.315
 1502TIP3    H1 4470   6.128   3.466   0.227
 1502TIP3    H2 4471   6.191   3.441   0.362
 1503TIP3   OH2 4472   0.633   0.564   3.866
 1503TIP3    H1 4473   0.584   0.599   3.941
 1503TIP3    H2 4474   0.703   0.628   3.852
 1504TIP3   OH2 4475   3.735   3.126   2.036
 1504TIP3    H1 4476   3.818   3.157   2.073
 1504TIP3    H2 4477   3.670   3.147   2.103
 1505TIP3   OH2 4478   3.803   6.002   1.670
 1505TIP3    H1 4479   3.885   5.980   1.715
 1505TIP3    H2 4480   3.816   5.969   1.581
 1506TIP3   OH2 4481   4.706   1.250   3.153
 1506TIP3    H1 4482   4.640   1.302   3.108
 1506TIP3    H2 4483   4.662   1.215   3.230
 1507TIP3   OH2 4484   2.301   6.303   4.448
 1507TIP3    H1 4485   2.336   6.375   4.501
 1507TIP3    H2 4486   2.227   6.341   4.401
 1508TIP3   OH2 4487   3.117   4.178   3.441
 1508TIP3    H1 4488   3.032   4.133   3.445
 1508TIP3    H2 4489   3.129   4.215   3.528
 1509TIP3   OH2 4490   3.603   3.542   5.458
 1509TIP3    H1 4491   3.673   3.506   5.513
 1509TIP3    H2 4492   3.606   3.636   5.474
 1510TIP3   OH2 4493   6.981   6.006   0.928
 1510TIP3    H1 4494   7.023   5.951   0.994
 1510TIP3    H2 4495   6.905   6.043   0.974
 1511TIP3   OH2 4496   1.655   5.596   0.319
 1511TIP3    H1 4497   1.749   5.601   0.301
 1511TIP3    H2 4498   1.647   5.536   0.394
 1512TIP3   OH2 4499   3.195   0.299   2.789
 1512TIP3    H1 4500   3.289   0.279   2.795
 1512TIP3    H2 4501   3.189   0.360   2.714
 1513TIP3   OH2 4502   5.234   3.864   0.142
 1513TIP3    H1 4503   5.323   3.832   0.133
 1513TIP3    H2 4504   5.192   3.802   0.202
 1514TIP3   OH2 4505   4.858   2.928   4.405
 1514TIP3    H1 4506   4.931   2.988   4.391
 1514TIP3    H2 4507   4.793   2.980   4.452
 1515TIP3   OH2 4508   5.765   1.022   5.285
 1515TIP3    H1 4509   5.812   1.026   5.202
 1515TIP3    H2 4510   5.832   1.003   5.350
 1516TIP3   OH2 4511   0.778   0.628   0.762
 1516TIP3    H1 4512   0.759   0.603   0.672
 1516TIP3    H2 4513   0.692   0.650   0.799
 1517TIP3   OH2 4514   0.949   5.205   4.815
 1517TIP3    H1 4515   0.981   5.153   4.742
 1517TIP3    H2 4516   1.028   5.235   4.861
 1518TIP3   OH2 4517   2.492   4.777   4.366
 1518TIP3    H1 4518   2.466   4.812   4.281
 1518TIP3    H2 4519   2.547   4.846   4.404
 1519TIP3   OH2 4520   4.119   5.505   1.091
 1519TIP3    H1 4521   4.136   5.450   1.167
 1519TIP3    H2 4522   4.034   5.545   1.109
 1520TIP3   OH2 4523   0.045   0.478   3.897
 1520TIP3    H1 4524   0.010   0.432   3.973
 1520TIP3    H2 4525  -0.027   0.479   3.834
 1521TIP3   OH2 4526   6.537   1.965   2.035
 1521TIP3    H1 4527   6.548   2.057   2.008
 1521TIP3    H2 4528   6.518   1.970   2.128
 1522TIP3   OH2 4529   6.391   5.568   1.800
 1522TIP3    H1 4530   6.440   5.642   1.765
 1522TIP3    H2 4531   6.429   5.491   1.756
 1523TIP3   OH2 4532   5.671   0.329   4.576
 1523TIP3    H1 4533   5.746   0.271   4.562
 1523TIP3    H2 4534   5.693   0.379   4.654
 1524TIP3   OH2 4535   6.065   4.393   4.593
 1524TIP3    H1 4536   6.085   4.397   4.499
 1524TIP3    H2 4537   5.996   4.457   4.606
 1525TIP3   OH2 4538   5.105   0.681   1.972
 1525TIP3    H1 4539   5.036   0.635   2.021
 1525TIP3    H2 4540   5.130   0.619   1.904
 1526TIP3   OH2 4541   3.210   6.343   4.516
 1526TIP3    H1 4542   3.264   6.401   4.462
 1526TIP3    H2 4543   3.274   6.290   4.565
 1527TIP3   OH2 4544   5.075   2.204   2.466
 1527TIP3    H1 4545   5.066   2.110   2.450
 1527TIP3    H2 4546   5.166   2.224   2.444
 1528TIP3   OH2 4547   7.025   4.096   2.135
 1528TIP3    H1 4548   6.956   4.030   2.141
 1528TIP3    H2 4549   6.992   4.171   2.185
 1529TIP3   OH2 4550   3.569   4.077   5.334
 1529TIP3    H1 4551   3.593   4.159   5.291
 1529TIP3    H2 4552   3.614   4.080   5.419
 1530TIP3   OH2 4553   0.481   3.940   5.623
 1530TIP3    H1 4554   0.481   3.933   5.527
 1530TIP3    H2 4555   0.565   3.902   5.649
 1531TIP3   OH2 4556   4.560   2.593   4.274
 1531TIP3    H1 4557   4.485   2.608   4.330
 1531TIP3    H2 4558   4.524   2.553   4.195
 1532TIP3   OH2 4559   6.973   4.581   2.426
 1532TIP3    H1 4560   6.896   4.634   2.442
 1532TIP3    H2 4561   7.030   4.598   2.501
 1533TIP3   OH2 4562   2.884   0.383   3.637
 1533TIP3    H1 4563   2.959   0.426   3.594
 1533TIP3    H2 4564   2.814   0.388   3.572
 1534TIP3   OH2 4565   3.194   4.645   5.187
 1534TIP3    H1 4566   3.114   4.593   5.193
 1534TIP3    H2 4567   3.264   4.585   5.212
 1535TIP3   OH2 4568   1.789   4.442   3.793
 1535TIP3    H1 4569   1.848   4.486   3.855
 1535TIP3    H2 4570   1.809   4.482   3.708
 1536TIP3   OH2 4571   7.107   3.256   1.726
 1536TIP3    H1 4572   7.030   3.206   1.697
 1536TIP3    H2 4573   7.133   3.307   1.648
 1537TIP3   OH2 4574   4.325   5.765   3.822
 1537TIP3    H1 4575   4.406   5.749   3.870
 1537TIP3    H2 4576   4.354   5.799   3.738
 1538TIP3   OH2 4577   0.115   0.708   2.930
 1538TIP3    H1 4578   0.146   0.790   2.968
 1538TIP3    H2 4579   0.026   0.698   2.964
 1539TIP3   OH2 4580   4.365   0.109   3.491
 1539TIP3    H1 4581   4.445   0.156   3.468
 1539TIP3    H2 4582   4.296   0.151   3.439
 1540TIP3   OH2 4583   4.944   1.150   4.211
 1540TIP3    H1 4584   4.861   1.163   4.165
 1540TIP3    H2 4585   5.003   1.215   4.172
 1541TIP3   OH2 4586   0.188   3.184   1.891
 1541TIP3    H1 4587   0.139   3.103   1.906
 1541TIP3    H2 4588   0.251   3.162   1.823
 1542TIP3   OH2 4589   6.422   5.491   5.512
 1542TIP3    H1 4590   6.364   5.457   5.444
 1542TIP3    H2 4591   6.396   5.582   5.522
 1543TIP3   OH2 4592   2.176   2.218   1.522
 1543TIP3    H1 4593   2.138   2.294   1.478
 1543TIP3    H2 4594   2.162   2.234   1.615
 1544TIP3   OH2 4595   4.825   0.402   3.005
 1544TIP3    H1 4596   4.843   0.397   2.911
 1544TIP3    H2 4597   4.871   0.326   3.042
 1545TIP3   OH2 4598   1.580   5.459   5.064
 1545TIP3    H1 4599   1.605   5.551   5.059
 1545TIP3    H2 4600   1.530   5.444   4.984
 1546TIP3   OH2 4601   3.382   0.513   2.319
 1546TIP3    H1 4602   3.476   0.530   2.318
 1546TIP3    H2 4603   3.369   0.457   2.395
 1547TIP3   OH2 4604   6.243   3.127   3.256
 1547TIP3    H1 4605   6.260   3.209   3.302
 1547TIP3    H2 4606   6.163   3.094   3.297
 1548TIP3   OH2 4607   4.310   1.882   4.615
 1548TIP3    H1 4608   4.217   1.904   4.610
 1548TIP3    H2 4609   4.315   1.814   4.683
 1549TIP3   OH2 4610   1.284   4.709   3.777
 1549TIP3    H1 4611   1.367   4.751   3.755
 1549TIP3    H2 4612   1.248   4.763   3.847
 1550TIP3   OH2 4613   3.242   5.229   4.014
 1550TIP3    H1 4614   3.224   5.136   4.026
 1550TIP3    H2 4615   3.170   5.260   3.960
 1551TIP3   OH2 4616   1.310   3.495   0.971
 1551TIP3    H1 4617   1.238   3.526   0.915
 1551TIP3    H2 4618   1.267   3.445   1.040
 1552TIP3   OH2 4619   0.457   0.423   3.369
 1552TIP3    H1 4620   0.522   0.363   3.334
 1552TIP3    H2 4621   0.501   0.468   3.441
 1553TIP3   OH2 4622   1.280   0.108   3.954
 1553TIP3    H1 4623   1.275   0.067   3.868
 1553TIP3    H2 4624   1.189   0.125   3.978
 1554TIP3   OH2 4625   3.139   1.828   4.761
 1554TIP3    H1 4626   3.144   1.913   4.718
 1554TIP3    H2 4627   3.047   1.802   4.752
 1555TIP3   OH2 4628   6.017   1.032   1.087
 1555TIP3    H1 4629   6.038   1.123   1.066
 1555TIP3    H2 4630   5.929   1.035   1.124
 1556TIP3   OH2 4631   6.358   3.620   2.096
 1556TIP3    H1 4632   6.361   3.625   2.191
 1556TIP3    H2 4633   6.421   3.552   2.074
 1557TIP3   OH2 4634   2.098   0.782   0.543
 1557TIP3    H1 4635   2.185   0.811   0.516
 1557TIP3    H2 4636   2.114   0.726   0.619
 1558TIP3   OH2 4637   1.452   1.466   0.541
 1558TIP3    H1 4638   1.417   1.492   0.456
 1558TIP3    H2 4639   1.476   1.548   0.584
 1559TIP3   OH2 4640   6.053   1.655   1.208
 1559TIP3    H1 4641   6.048   1.593   1.280
 1559TIP3    H2 4642   6.143   1.688   1.211
 1560TIP3   OH2 4643   2.831   0.263   4.961
 1560TIP3    H1 4644   2.877   0.344   4.942
 1560TIP3    H2 4645   2.873   0.197   4.906
 1561TIP3   OH2 4646   0.905   3.338   1.406
 1561TIP3    H1 4647   0.993   3.365   1.430
 1561TIP3    H2 4648   0.848   3.383   1.469
 1562TIP3   OH2 4649   6.440   2.284   0.217
 1562TIP3    H1 4650   6.501   2.290   0.143
 1562TIP3    H2 4651   6.354   2.295   0.176
 1563TIP3   OH2 4652   5.137   3.622   4.035
 1563TIP3    H1 4653   5.218   3.586   4.069
 1563TIP3    H2 4654   5.084   3.641   4.112
 1564TIP3   OH2 4655   5.382   5.562   2.522
 1564TIP3    H1 4656   5.403   5.566   2.429
 1564TIP3    H2 4657   5.449   5.505   2.559
 1565TIP3   OH2 4658   0.501   2.855   3.689
 1565TIP3    H1 4659   0.417   2.874   3.729
 1565TIP3    H2 4660   0.535   2.781   3.741
 1566TIP3   OH2 4661   5.651   5.454   4.563
 1566TIP3    H1 4662   5.714   5.385   4.585
 1566TIP3    H2 4663   5.597   5.416   4.494
 1567TIP3   OH2 4664   6.292   6.680   2.335
 1567TIP3    H1 4665   6.238   6.753   2.364
 1567TIP3    H2 4666   6.382   6.714   2.338
 1568TIP3   OH2 4667   6.859   4.062   1.284
 1568TIP3    H1 4668   6.779   4.083   1.332
 1568TIP3    H2 4669   6.886   4.145   1.244
 1569TIP3   OH2 4670   0.100   6.565   2.508
 1569TIP3    H1 4671   0.173   6.525   2.554
 1569TIP3    H2 4672   0.023   6.518   2.540
 1570TIP3   OH2 4673   0.459   2.502   2.326
 1570TIP3    H1 4674   0.532   2.452   2.363
 1570TIP3    H2 4675   0.390   2.437   2.312
 1571TIP3   OH2 4676   6.850   2.834   4.934
 1571TIP3    H1 4677   6.925   2.817   4.991
 1571TIP3    H2 4678   6.826   2.925   4.951
 1572TIP3   OH2 4679   0.832   2.261   4.348
 1572TIP3    H1 4680   0.740   2.284   4.335
 1572TIP3    H2 4681   0.844   2.258   4.443
 1573TIP3   OH2 4682   3.969   2.095   5.163
 1573TIP3    H1 4683   3.979   2.002   5.185
 1573TIP3    H2 4684   3.968   2.140   5.247
 1574TIP3   OH2 4685   2.594   4.793   4.735
 1574TIP3    H1 4686   2.672   4.802   4.680
 1574TIP3    H2 4687   2.541   4.726   4.692
 1575TIP3   OH2 4688   6.376   0.375   5.315
 1575TIP3    H1 4689   6.413   0.452   5.271
 1575TIP3    H2 4690   6.424   0.369   5.398
 1576TIP3   OH2 4691   4.557   0.430   0.515
 1576TIP3    H1 4692   4.645   0.415   0.482
 1576TIP3    H2 4693   4.558   0.520   0.546
 1577TIP3   OH2 4694   7.107   0.720   4.537
 1577TIP3    H1 4695   7.142   0.689   4.621
 1577TIP3    H2 4696   7.057   0.646   4.503
 1578TIP3   OH2 4697   3.689   0.394   1.044
 1578TIP3    H1 4698   3.684   0.488   1.025
 1578TIP3    H2 4699   3.598   0.365   1.046
 1579TIP3   OH2 4700   4.299   3.590   2.735
 1579TIP3    H1 4701   4.364   3.623   2.672
 1579TIP3    H2 4702   4.311   3.644   2.813
 1580TIP3   OH2 4703   6.653   1.460   5.072
 1580TIP3    H1 4704   6.571   1.419   5.100
 1580TIP3    H2 4705   6.693   1.491   5.153
 1581TIP3   OH2 4706   1.174   0.189   4.947
 1581TIP3    H1 4707   1.183   0.096   4.969
 1581TIP3    H2 4708   1.264   0.221   4.938
 1582TIP3   OH2 4709   5.287   3.493   2.453
 1582TIP3    H1 4710   5.360   3.501   2.391
 1582TIP3    H2 4711   5.313   3.547   2.528
 1583TIP3   OH2 4712   1.023   0.040   4.070
 1583TIP3    H1 4713   0.933   0.010   4.053
 1583TIP3    H2 4714   1.057  -0.022   4.135
 1584TIP3   OH2 4715   1.204   5.618   4.522
 1584TIP3    H1 4716   1.184   5.630   4.429
 1584TIP3    H2 4717   1.171   5.530   4.542
 1585TIP3   OH2 4718   0.908   1.393   5.403
 1585TIP3    H1 4719   0.842   1.325   5.391
 1585TIP3    H2 4720   0.935   1.416   5.314
 1586TIP3   OH2 4721   5.574   2.801   5.280
 1586TIP3    H1 4722   5.598   2.795   5.373
 1586TIP3    H2 4723   5.550   2.893   5.268
 1587TIP3   OH2 4724   7.184   2.942   3.858
 1587TIP3    H1 4725   7.170   2.996   3.936
 1587TIP3    H2 4726   7.102   2.895   3.847
 1588TIP3   OH2 4727   6.046   0.279   0.807
 1588TIP3    H1 4728   5.968   0.234   0.839
 1588TIP3    H2 4729   6.091   0.308   0.886
 1589TIP3   OH2 4730   4.103   4.132   3.782
 1589TIP3    H1 4731   4.079   4.049   3.823
 1589TIP3    H2 4732   4.031   4.192   3.803
 1590TIP3   OH2 4733   1.788   6.035   1.730
 1590TIP3    H1 4734   1.786   6.004   1.820
 1590TIP3    H2 4735   1.746   6.121   1.733
 1591TIP3   OH2 4736   6.179   6.379   2.037
 1591TIP3    H1 4737   6.255   6.420   1.993
 1591TIP3    H2 4738   6.195   6.285   2.030
 1592TIP3   OH2 4739   6.466   1.725   1.925
 1592TIP3    H1 4740   6.485   1.804   1.976
 1592TIP3    H2 4741   6.527   1.660   1.960
 1593TIP3   OH2 4742   2.915   0.063   4.789
 1593TIP3    H1 4743   2.890  -0.004   4.727
 1593TIP3    H2 4744   3.005   0.041   4.814
 1594TIP3   OH2 4745   3.076   1.196   2.336
 1594TIP3    H1 4746   3.068   1.288   2.311
 1594TIP3    H2 4747   3.170   1.177   2.328
 1595TIP3   OH2 4748   1.781   2.447   5.228
 1595TIP3    H1 4749   1.839   2.421   5.156
 1595TIP3    H2 4750   1.786   2.375   5.291
 1596TIP3   OH2 4751   4.327   5.416   1.527
 1596TIP3    H1 4752   4.271   5.364   1.469
 1596TIP3    H2 4753   4.306   5.507   1.504
 1597TIP3   OH2 4754   2.361   6.635   0.992
 1597TIP3    H1 4755   2.402   6.671   1.071
 1597TIP3    H2 4756   2.275   6.676   0.988
 1598TIP3   OH2 4757   0.288   5.285   1.176
 1598TIP3    H1 4758   0.370   5.236   1.172
 1598TIP3    H2 4759   0.302   5.348   1.248
 1599TIP3   OH2 4760   6.345   3.486   4.957
 1599TIP3    H1 4761   6.377   3.565   5.001
 1599TIP3    H2 4762   6.384   3.489   4.870
 1600TIP3   OH2 4763   3.747   0.648   5.400
 1600TIP3    H1 4764   3.840   0.643   5.423
 1600TIP3    H2 4765   3.719   0.734   5.431
 1601TIP3   OH2 4766   3.626   3.966   4.818
 1601TIP3    H1 4767   3.590   3.906   4.883
 1601TIP3    H2 4768   3.609   3.923   4.734
 1602TIP3   OH2 4769   6.116   0.801   2.969
 1602TIP3    H1 4770   6.100   0.798   2.874
 1602TIP3    H2 4771   6.200   0.756   2.981
 1603TIP3   OH2 4772   1.366   6.667   3.316
 1603TIP3    H1 4773   1.302   6.597   3.332
 1603TIP3    H2 4774   1.312   6.745   3.301
 1604TIP3   OH2 4775   4.615   2.585   1.142
 1604TIP3    H1 4776   4.525   2.572   1.170
 1604TIP3    H2 4777   4.641   2.500   1.106
 1605TIP3   OH2 4778   4.377   6.667   4.160
 1605TIP3    H1 4779   4.423   6.680   4.243
 1605TIP3    H2 4780   4.447   6.645   4.098
 1606TIP3   OH2 4781   0.891   2.407   4.115
 1606TIP3    H1 4782   0.892   2.341   4.184
 1606TIP3    H2 4783   0.798   2.427   4.103
 1607TIP3   OH2 4784   3.638   6.662   4.903
 1607TIP3    H1 4785   3.625   6.586   4.846
 1607TIP3    H2 4786   3.576   6.648   4.975
 1608TIP3   OH2 4787   3.212   0.459   5.189
 1608TIP3    H1 4788   3.228   0.393   5.256
 1608TIP3    H2 4789   3.176   0.411   5.115
 1609TIP3   OH2 4790   6.241   3.866   5.496
 1609TIP3    H1 4791   6.157   3.827   5.517
 1609TIP3    H2 4792   6.243   3.869   5.400
 1610TIP3   OH2 4793   4.034   3.582   3.214
 1610TIP3    H1 4794   3.955   3.567   3.266
 1610TIP3    H2 4795   4.105   3.545   3.266
 1611TIP3   OH2 4796   3.305   3.235   0.966
 1611TIP3    H1 4797   3.230   3.279   1.006
 1611TIP3    H2 4798   3.297   3.255   0.873
 1612TIP3   OH2 4799   4.080   0.499   2.263
 1612TIP3    H1 4800   3.987   0.487   2.282
 1612TIP3    H2 4801   4.104   0.424   2.209
 1613TIP3   OH2 4802   1.262   3.260   2.514
 1613TIP3    H1 4803   1.342   3.209   2.523
 1613TIP3    H2 4804   1.198   3.199   2.477
 1614TIP3   OH2 4805   5.500   1.295   4.145
 1614TIP3    H1 4806   5.480   1.309   4.237
 1614TIP3    H2 4807   5.452   1.364   4.099
 1615TIP3   OH2 4808   4.825   4.781   1.648
 1615TIP3    H1 4809   4.744   4.777   1.598
 1615TIP3    H2 4810   4.892   4.748   1.588
 1616TIP3   OH2 4811   5.202   3.067   1.361
 1616TIP3    H1 4812   5.238   2.979   1.354
 1616TIP3    H2 4813   5.245   3.117   1.291
 1617TIP3   OH2 4814   0.935   0.211   1.116
 1617TIP3    H1 4815   0.954   0.123   1.083
 1617TIP3    H2 4816   0.945   0.268   1.040
 1618TIP3   OH2 4817   3.296   2.074   3.046
 1618TIP3    H1 4818   3.277   2.080   3.140
 1618TIP3    H2 4819   3.240   2.141   3.006
 1619TIP3   OH2 4820   6.716   2.432   4.495
 1619TIP3    H1 4821   6.712   2.396   4.584
 1619TIP3    H2 4822   6.660   2.510   4.498
 1620TIP3   OH2 4823   2.272   5.325   1.646
 1620TIP3    H1 4824   2.222   5.397   1.609
 1620TIP3    H2 4825   2.352   5.365   1.679
 1621TIP3   OH2 4826   1.222   2.507   5.792
 1621TIP3    H1 4827   1.274   2.483   5.716
 1621TIP3    H2 4828   1.132   2.500   5.763
 1622TIP3   OH2 4829   5.706   4.412   4.542
 1622TIP3    H1 4830   5.613   4.415   4.563
 1622TIP3    H2 4831   5.726   4.500   4.510
 1623TIP3   OH2 4832   4.322   2.836   3.618
 1623TIP3    H1 4833   4.384   2.773   3.583
 1623TIP3    H2 4834   4.255   2.783   3.661
 1624TIP3   OH2 4835   6.497   6.421   5.799
 1624TIP3    H1 4836   6.534   6.433   5.711
 1624TIP3    H2 4837   6.517   6.503   5.844
 1625TIP3   OH2 4838   6.763   0.792   1.736
 1625TIP3    H1 4839   6.700   0.794   1.807
 1625TIP3    H2 4840   6.817   0.715   1.753
 1626TIP3   OH2 4841   5.576   6.714   1.060
 1626TIP3    H1 4842   5.535   6.628   1.061
 1626TIP3    H2 4843   5.508   6.773   1.027
 1627TIP3   OH2 4844   2.531   1.470   2.039
 1627TIP3    H1 4845   2.464   1.401   2.042
 1627TIP3    H2 4846   2.578   1.462   2.121
 1628TIP3   OH2 4847   2.121   1.319   2.795
 1628TIP3    H1 4848   2.144   1.390   2.735
 1628TIP3    H2 4849   2.192   1.256   2.785
 1629TIP3   OH2 4850   0.247   1.153   3.779
 1629TIP3    H1 4851   0.299   1.142   3.698
 1629TIP3    H2 4852   0.179   1.086   3.773
 1630TIP3   OH2 4853   5.737   6.378   3.082
 1630TIP3    H1 4854   5.753   6.286   3.102
 1630TIP3    H2 4855   5.806   6.425   3.128
 1631TIP3   OH2 4856   1.319   1.170   5.626
 1631TIP3    H1 4857   1.282   1.251   5.592
 1631TIP3    H2 4858   1.370   1.197   5.702
 1632TIP3   OH2 4859   0.592   0.984   3.850
 1632TIP3    H1 4860   0.619   0.972   3.759
 1632TIP3    H2 4861   0.659   0.940   3.901
 1633TIP3   OH2 4862   1.836   0.829   5.816
 1633TIP3    H1 4863   1.904   0.773   5.778
 1633TIP3    H2 4864   1.880   0.875   5.887
 1634TIP3   OH2 4865   4.095   0.406   1.004
 1634TIP3    H1 4866   4.096   0.365   1.090
 1634TIP3    H2 4867   4.043   0.347   0.949
 1635TIP3   OH2 4868   2.023   3.047   4.125
 1635TIP3    H1 4869   2.010   3.103   4.048
 1635TIP3    H2 4870   2.082   3.097   4.181
 1636TIP3   OH2 4871   1.295   1.517   5.495
 1636TIP3    H1 4872   1.248   1.489   5.574
 1636TIP3    H2 4873   1.246   1.478   5.423
 1637TIP3   OH2 4874   2.643   6.283   0.541
 1637TIP3    H1 4875   2.687   6.315   0.619
 1637TIP3    H2 4876   2.713   6.246   0.487
 1638TIP3   OH2 4877   5.472   3.313   2.985
 1638TIP3    H1 4878   5.478   3.235   2.930
 1638TIP3    H2 4879   5.499   3.283   3.072
 1639TIP3   OH2 4880   4.902   2.728   0.707
 1639TIP3    H1 4881   4.966   2.676   0.658
 1639TIP3    H2 4882   4.952   2.770   0.777
 1640TIP3   OH2 4883   6.865   0.982   1.126
 1640TIP3    H1 4884   6.837   1.043   1.058
 1640TIP3    H2 4885   6.896   0.905   1.078
 1641TIP3   OH2 4886   3.642   4.411   3.749
 1641TIP3    H1 4887   3.652   4.410   3.653
 1641TIP3    H2 4888   3.548   4.419   3.763
 1642TIP3   OH2 4889   2.262   3.135   0.319
 1642TIP3    H1 4890   2.173   3.156   0.347
 1642TIP3    H2 4891   2.261   3.147   0.224
 1643TIP3   OH2 4892   1.277   3.463   4.918
 1643TIP3    H1 4893   1.367   3.494   4.932
 1643TIP3    H2 4894   1.273   3.382   4.969
 1644TIP3   OH2 4895   6.252   6.803   2.940
 1644TIP3    H1 4896   6.282   6.713   2.926
 1644TIP3    H2 4897   6.156   6.795   2.944
 1645TIP3   OH2 4898   4.244   2.214   0.725
 1645TIP3    H1 4899   4.270   2.300   0.691
 1645TIP3    H2 4900   4.285   2.151   0.665
 1646TIP3   OH2 4901   2.328   3.413   3.292
 1646TIP3    H1 4902   2.372   3.401   3.376
 1646TIP3    H2 4903   2.245   3.457   3.314
 1647TIP3   OH2 4904   3.226   0.331   1.651
 1647TIP3    H1 4905   3.246   0.297   1.738
 1647TIP3    H2 4906   3.298   0.391   1.631
 1648TIP3   OH2 4907   3.766   3.471   1.588
 1648TIP3    H1 4908   3.814   3.390   1.574
 1648TIP3    H2 4909   3.824   3.525   1.641
 1649TIP3   OH2 4910   2.562   0.189   4.889
 1649TIP3    H1 4911   2.515   0.272   4.879
 1649TIP3    H2 4912   2.648   0.215   4.923
 1650TIP3   OH2 4913   6.594   0.233   3.650
 1650TIP3    H1 4914   6.660   0.239   3.719
 1650TIP3    H2 4915   6.645   0.231   3.569
 1651TIP3   OH2 4916   5.328   1.130   4.755
 1651TIP3    H1 4917   5.405   1.138   4.699
 1651TIP3    H2 4918   5.291   1.044   4.733
 1652TIP3   OH2 4919   2.177   1.705   2.991
 1652TIP3    H1 4920   2.112   1.669   3.051
 1652TIP3    H2 4921   2.245   1.638   2.985
 1653TIP3   OH2 4922   0.487   1.882   4.393
 1653TIP3    H1 4923   0.506   1.939   4.318
 1653TIP3    H2 4924   0.402   1.844   4.373
 1654TIP3   OH2 4925   2.349   0.302   1.031
 1654TIP3    H1 4926   2.379   0.352   0.956
 1654TIP3    H2 4927   2.424   0.248   1.056
 1655TIP3   OH2 4928   0.340   2.612   5.765
 1655TIP3    H1 4929   0.255   2.600   5.724
 1655TIP3    H2 4930   0.385   2.529   5.753
 1656TIP3   OH2 4931   3.792   5.251   0.736
 1656TIP3    H1 4932   3.716   5.209   0.776
 1656TIP3    H2 4933   3.790   5.340   0.771
 1657TIP3   OH2 4934   6.154   4.917   2.593
 1657TIP3    H1 4935   6.107   4.992   2.556
 1657TIP3    H2 4936   6.135   4.921   2.687
 1658TIP3   OH2 4937   3.964   4.844   4.477
 1658TIP3    H1 4938   3.956   4.749   4.479
 1658TIP3    H2 4939   3.876   4.876   4.499
 1659TIP3   OH2 4940   6.424   1.311   5.143
 1659TIP3    H1 4941   6.384   1.230   5.109
 1659TIP3    H2 4942   6.417   1.303   5.238
 1660TIP3   OH2 4943   0.736   1.062   0.470
 1660TIP3    H1 4944   0.824   1.070   0.507
 1660TIP3    H2 4945   0.680   1.043   0.545
 1661TIP3   OH2 4946   4.272   5.315   2.934
 1661TIP3    H1 4947   4.336   5.245   2.943
 1661TIP3    H2 4948   4.300   5.363   2.856
 1662TIP3   OH2 4949   1.029   3.102   2.475
 1662TIP3    H1 4950   0.971   3.173   2.503
 1662TIP3    H2 4951   1.021   3.035   2.542
 1663TIP3   OH2 4952   6.692   0.113   0.056
 1663TIP3    H1 4953   6.649   0.197   0.038
 1663TIP3    H2 4954   6.630   0.047   0.024
 1664TIP3   OH2 4955   6.436   5.993   2.214
 1664TIP3    H1 4956   6.374   5.937   2.260
 1664TIP3    H2 4957   6.400   6.081   2.224
 1665TIP3   OH2 4958   5.098   0.024   3.667
 1665TIP3    H1 4959   5.015  -0.021   3.652
 1665TIP3    H2 4960   5.160  -0.019   3.608
 1666TIP3   OH2 4961   2.330   3.200   0.033
 1666TIP3    H1 4962   2.362   3.290   0.043
 1666TIP3    H2 4963   2.388   3.162  -0.033
 1667TIP3   OH2 4964   5.770   1.539   0.763
 1667TIP3    H1 4965   5.811   1.614   0.719
 1667TIP3    H2 4966   5.676   1.553   0.751
 1668TIP3   OH2 4967   2.890   6.489   2.050
 1668TIP3    H1 4968   2.944   6.410   2.046
 1668TIP3    H2 4969   2.852   6.487   2.138
 1669TIP3   OH2 4970   1.496   3.111   2.337
 1669TIP3    H1 4971   1.471   3.034   2.387
 1669TIP3    H2 4972   1.581   3.137   2.374
 1670TIP3   OH2 4973   4.530   5.225   2.986
 1670TIP3    H1 4974   4.573   5.253   2.904
 1670TIP3    H2 4975   4.554   5.292   3.050
 1671TIP3   OH2 4976   5.182   6.681   2.710
 1671TIP3    H1 4977   5.133   6.763   2.718
 1671TIP3    H2 4978   5.222   6.669   2.797
 1672TIP3   OH2 4979   2.028   0.226   0.297
 1672TIP3    H1 4980   2.046   0.160   0.230
 1672TIP3    H2 4981   1.986   0.177   0.368
 1673TIP3   OH2 4982   3.520   6.146   2.669
 1673TIP3    H1 4983   3.552   6.147   2.760
 1673TIP3    H2 4984   3.466   6.068   2.663
 1674TIP3   OH2 4985   6.163   0.769   1.040
 1674TIP3    H1 4986   6.114   0.738   1.116
 1674TIP3    H2 4987   6.169   0.864   1.053
 1675TIP3   OH2 4988   1.290   6.242   1.574
 1675TIP3    H1 4989   1.240   6.265   1.652
 1675TIP3    H2 4990   1.347   6.171   1.602
 1676TIP3   OH2 4991   4.870   1.379   0.191
 1676TIP3    H1 4992   4.804   1.333   0.243
 1676TIP3    H2 4993   4.951   1.330   0.206
 1677TIP3   OH2 4994   2.166   5.726   1.843
 1677TIP3    H1 4995   2.165   5.646   1.895
 1677TIP3    H2 4996   2.077   5.760   1.849
 1678TIP3   OH2 4997   5.364   2.488   4.262
 1678TIP3    H1 4998   5.346   2.397   4.237
 1678TIP3    H2 4999   5.300   2.507   4.331
 1679TIP3   OH2 5000   4.002   5.253   3.081
 1679TIP3    H1 5001   4.010   5.349   3.080
 1679TIP3    H2 5002   4.070   5.223   3.021
 1680TIP3   OH2 5003   4.977   3.408   0.212
 1680TIP3    H1 5004   4.915   3.355   0.163
 1680TIP3    H2 5005   5.022   3.346   0.269
 1681TIP3   OH2 5006   6.374   6.402   1.850
 1681TIP3    H1 5007   6.463   6.398   1.814
 1681TIP3    H2 5008   6.337   6.315   1.833
 1682TIP3   OH2 5009   1.359   3.639   3.777
 1682TIP3    H1 5010   1.359   3.545   3.795
 1682TIP3    H2 5011   1.301   3.649   3.701
 1683TIP3   OH2 5012   0.250   6.023   1.976
 1683TIP3    H1 5013   0.252   6.049   1.884
 1683TIP3    H2 5014   0.339   6.039   2.008
 1684TIP3   OH2 5015   3.024   4.890   2.106
 1684TIP3    H1 5016   3.104   4.838   2.109
 1684TIP3    H2 5017   3.051   4.976   2.076
 1685TIP3   OH2 5018   0.959   3.712   4.557
 1685TIP3    H1 5019   0.906   3.665   4.493
 1685TIP3    H2 5020   1.048   3.682   4.542
 1686TIP3   OH2 5021   2.419   1.459   3.364
 1686TIP3    H1 5022   2.464   1.532   3.321
 1686TIP3    H2 5023   2.330   1.491   3.377
 1687TIP3   OH2 5024   3.711   5.259   1.461
 1687TIP3    H1 5025   3.642   5.243   1.397
 1687TIP3    H2 5026   3.783   5.203   1.432
 1688TIP3   OH2 5027   0.828   1.027  -0.050
 1688TIP3    H1 5028   0.758   1.065   0.003
 1688TIP3    H2 5029   0.886   0.985   0.013
 1689TIP3   OH2 5030   5.025   5.961   5.890
 1689TIP3    H1 5031   5.002   5.889   5.831
 1689TIP3    H2 5032   4.962   5.953   5.962
 1690TIP3   OH2 5033   5.672   4.981   0.066
 1690TIP3    H1 5034   5.691   4.993   0.159
 1690TIP3    H2 5035   5.717   4.900   0.042
 1691TIP3   OH2 5036   2.307   4.548   0.943
 1691TIP3    H1 5037   2.257   4.468   0.925
 1691TIP3    H2 5038   2.295   4.602   0.865
 1692TIP3   OH2 5039   3.977   5.529   3.093
 1692TIP3    H1 5040   3.953   5.594   3.160
 1692TIP3    H2 5041   4.045   5.571   3.041
 1693TIP3   OH2 5042   7.074   1.210   5.150
 1693TIP3    H1 5043   7.108   1.300   5.149
 1693TIP3    H2 5044   6.986   1.219   5.113
 1694TIP3   OH2 5045   2.886   0.284   3.056
 1694TIP3    H1 5046   2.960   0.237   3.017
 1694TIP3    H2 5047   2.864   0.232   3.134
 1695TIP3   OH2 5048   2.811   2.439   0.242
 1695TIP3    H1 5049   2.873   2.493   0.292
 1695TIP3    H2 5050   2.834   2.453   0.151
 1696TIP3   OH2 5051   5.726   5.424   5.135
 1696TIP3    H1 5052   5.667   5.358   5.100
 1696TIP3    H2 5053   5.681   5.507   5.121
 1697TIP3   OH2 5054   4.789   1.184   1.953
 1697TIP3    H1 5055   4.870   1.136   1.934
 1697TIP3    H2 5056   4.791   1.196   2.048
 1698TIP3   OH2 5057   7.061   0.598   1.546
 1698TIP3    H1 5058   7.074   0.556   1.460
 1698TIP3    H2 5059   7.131   0.663   1.551
 1699TIP3   OH2 5060   5.179   2.910   5.696
 1699TIP3    H1 5061   5.114   2.893   5.628
 1699TIP3    H2 5062   5.151   2.992   5.738
 1700TIP3   OH2 5063   6.267   2.567   3.806
 1700TIP3    H1 5064   6.359   2.572   3.833
 1700TIP3    H2 5065   6.269   2.574   3.711
 1701TIP3   OH2 5066   1.234   5.681   1.874
 1701TIP3    H1 5067   1.326   5.689   1.850
 1701TIP3    H2 5068   1.224   5.590   1.902
 1702TIP3   OH2 5069   6.495   0.525   3.634
 1702TIP3    H1 5070   6.475   0.441   3.591
 1702TIP3    H2 5071   6.482   0.590   3.565
 1703TIP3   OH2 5072   0.553   5.446   3.610
 1703TIP3    H1 5073   0.484   5.505   3.639
 1703TIP3    H2 5074   0.599   5.421   3.690
 1704TIP3   OH2 5075   0.739   5.049   5.208
 1704TIP3    H1 5076   0.739   5.063   5.113
 1704TIP3    H2 5077   0.668   4.986   5.223
 1705TIP3   OH2 5078   5.317   1.799   2.741
 1705TIP3    H1 5079   5.355   1.770   2.824
 1705TIP3    H2 5080   5.222   1.788   2.753
 1706TIP3   OH2 5081   3.907   1.102   1.743
 1706TIP3    H1 5082   3.865   1.085   1.658
 1706TIP3    H2 5083   3.962   1.178   1.727
 1707TIP3   OH2 5084   2.985   6.128   0.692
 1707TIP3    H1 5085   2.966   6.218   0.721
 1707TIP3    H2 5086   2.910   6.104   0.638
 1708TIP3   OH2 5087   5.745   5.267   1.490
 1708TIP3    H1 5088   5.704   5.251   1.575
 1708TIP3    H2 5089   5.711   5.352   1.462
 1709TIP3   OH2 5090   7.147   4.103  -0.006
 1709TIP3    H1 5091   7.208   4.169   0.026
 1709TIP3    H2 5092   7.061   4.144   0.002
 1710TIP3   OH2 5093   1.247   1.187   0.193
 1710TIP3    H1 5094   1.269   1.253   0.128
 1710TIP3    H2 5095   1.206   1.116   0.142
 1711TIP3   OH2 5096   6.859   3.804   2.013
 1711TIP3    H1 5097   6.849   3.770   1.924
 1711TIP3    H2 5098   6.781   3.856   2.027
 1712TIP3   OH2 5099   1.967   3.419   1.847
 1712TIP3    H1 5100   2.002   3.501   1.880
 1712TIP3    H2 5101   1.964   3.430   1.752
 1713TIP3   OH2 5102   5.337   2.312   2.445
 1713TIP3    H1 5103   5.379   2.304   2.530
 1713TIP3    H2 5104   5.404   2.283   2.382
 1714TIP3   OH2 5105   2.747   4.362   5.397
 1714TIP3    H1 5106   2.763   4.434   5.457
 1714TIP3    H2 5107   2.770   4.397   5.311
 1715TIP3   OH2 5108   0.052   0.214   3.035
 1715TIP3    H1 5109   0.017   0.191   3.121
 1715TIP3    H2 5110  -0.012   0.276   2.999
 1716TIP3   OH2 5111   0.343   1.023   4.764
 1716TIP3    H1 5112   0.279   1.095   4.767
 1716TIP3    H2 5113   0.294   0.949   4.728
 1717TIP3   OH2 5114   4.552   0.585   4.860
 1717TIP3    H1 5115   4.457   0.582   4.859
 1717TIP3    H2 5116   4.579   0.493   4.861
 1718TIP3   OH2 5117   3.754   5.137   5.793
 1718TIP3    H1 5118   3.764   5.072   5.862
 1718TIP3    H2 5119   3.772   5.089   5.712
 1719TIP3   OH2 5120   2.758   0.749   1.675
 1719TIP3    H1 5121   2.728   0.696   1.749
 1719TIP3    H2 5122   2.694   0.732   1.606
 1720TIP3   OH2 5123   0.522   0.531   0.012
 1720TIP3    H1 5124   0.565   0.478   0.080
 1720TIP3    H2 5125   0.459   0.472  -0.029
 1721TIP3   OH2 5126   1.272   5.920   3.200
 1721TIP3    H1 5127   1.225   5.838   3.183
 1721TIP3    H2 5128   1.241   5.948   3.286
 1722TIP3   OH2 5129   4.325   4.342   4.836
 1722TIP3    H1 5130   4.351   4.414   4.894
 1722TIP3    H2 5131   4.358   4.368   4.750
 1723TIP3   OH2 5132   2.221   3.171   3.229
 1723TIP3    H1 5133   2.164   3.148   3.302
 1723TIP3    H2 5134   2.249   3.261   3.248
 1724TIP3   OH2 5135   5.130   4.037   5.377
 1724TIP3    H1 5136   5.038   4.026   5.399
 1724TIP3    H2 5137   5.164   3.947   5.369
 1725TIP3   OH2 5138   4.528   1.343   4.480
 1725TIP3    H1 5139   4.508   1.263   4.529
 1725TIP3    H2 5140   4.465   1.343   4.408
 1726TIP3   OH2 5141   0.311   2.578   0.045
 1726TIP3    H1 5142   0.243   2.564  -0.020
 1726TIP3    H2 5143   0.391   2.544   0.004
 1727TIP3   OH2 5144   5.211   4.336   3.401
 1727TIP3    H1 5145   5.269   4.378   3.337
 1727TIP3    H2 5146   5.200   4.247   3.367
 1728TIP3   OH2 5147   2.497   6.460   5.194
 1728TIP3    H1 5148   2.530   6.392   5.252
 1728TIP3    H2 5149   2.435   6.510   5.248
 1729TIP3   OH2 5150   2.884   1.176   0.642
 1729TIP3    H1 5151   2.849   1.132   0.719
 1729TIP3    H2 5152   2.808   1.195   0.588
 1730TIP3   OH2 5153   5.824   6.747   1.529
 1730TIP3    H1 5154   5.860   6.743   1.440
 1730TIP3    H2 5155   5.871   6.680   1.577
 1731TIP3   OH2 5156   2.350   2.248   2.951
 1731TIP3    H1 5157   2.387   2.287   2.872
 1731TIP3    H2 5158   2.424   2.243   3.011
 1732TIP3   OH2 5159   1.944   0.067   4.856
 1732TIP3    H1 5160   1.885   0.059   4.931
 1732TIP3    H2 5161   1.947  -0.021   4.819
 1733TIP3   OH2 5162   5.459   6.417   5.280
 1733TIP3    H1 5163   5.392   6.484   5.264
 1733TIP3    H2 5164   5.487   6.389   5.193
 1734TIP3   OH2 5165   4.138   5.957   4.831
 1734TIP3    H1 5166   4.216   5.902   4.833
 1734TIP3    H2 5167   4.084   5.919   4.761
 1735TIP3   OH2 5168   3.424   0.415   1.009
 1735TIP3    H1 5169   3.380   0.494   1.040
 1735TIP3    H2 5170   3.370   0.343   1.041
 1736TIP3   OH2 5171   4.909   3.366   5.411
 1736TIP3    H1 5172   4.953   3.449   5.429
 1736TIP3    H2 5173   4.831   3.390   5.362
 1737TIP3   OH2 5174   2.980   1.902   5.472
 1737TIP3    H1 5175   3.048   1.942   5.527
 1737TIP3    H2 5176   2.952   1.825   5.521
 1738TIP3   OH2 5177   6.271   3.875   3.428
 1738TIP3    H1 5178   6.303   3.806   3.486
 1738TIP3    H2 5179   6.350   3.923   3.403
 1739TIP3   OH2 5180   6.094   5.429   4.634
 1739TIP3    H1 5181   6.179   5.394   4.658
 1739TIP3    H2 5182   6.112   5.494   4.566
 1740TIP3   OH2 5183   3.231   3.169   4.578
 1740TIP3    H1 5184   3.141   3.200   4.588
 1740TIP3    H2 5185   3.265   3.164   4.668
 1741TIP3   OH2 5186   2.551   3.983   0.228
 1741TIP3    H1 5187   2.586   3.968   0.316
 1741TIP3    H2 5188   2.478   3.922   0.220
 1742TIP3   OH2 5189   5.402   2.879   2.388
 1742TIP3    H1 5190   5.323   2.913   2.430
 1742TIP3    H2 5191   5.436   2.953   2.338
 1743TIP3   OH2 5192   5.886   3.403   1.209
 1743TIP3    H1 5193   5.800   3.436   1.184
 1743TIP3    H2 5194   5.927   3.476   1.255
 1744TIP3   OH2 5195   4.801   3.191   2.192
 1744TIP3    H1 5196   4.763   3.277   2.175
 1744TIP3    H2 5197   4.891   3.198   2.161
 1745TIP3   OH2 5198   3.175   4.576   4.134
 1745TIP3    H1 5199   3.242   4.640   4.109
 1745TIP3    H2 5200   3.209   4.535   4.213
 1746TIP3   OH2 5201   2.599   3.626   2.617
 1746TIP3    H1 5202   2.577   3.560   2.683
 1746TIP3    H2 5203   2.635   3.699   2.668
 1747TIP3   OH2 5204   3.123   6.633   2.746
 1747TIP3    H1 5205   3.157   6.555   2.701
 1747TIP3    H2 5206   3.037   6.647   2.707
 1748TIP3   OH2 5207   7.026   3.292   0.074
 1748TIP3    H1 5208   7.079   3.346   0.133
 1748TIP3    H2 5209   7.072   3.296  -0.010
 1749TIP3   OH2 5210   0.355   0.037   4.557
 1749TIP3    H1 5211   0.280   0.093   4.577
 1749TIP3    H2 5212   0.340   0.008   4.467
 1750TIP3   OH2 5213   3.491   0.787   4.973
 1750TIP3    H1 5214   3.416   0.750   4.926
 1750TIP3    H2 5215   3.529   0.850   4.911
 1751TIP3   OH2 5216   1.779   4.830   2.060
 1751TIP3    H1 5217   1.837   4.795   2.128
 1751TIP3    H2 5218   1.814   4.917   2.042
 1752TIP3   OH2 5219   6.802   3.683   5.611
 1752TIP3    H1 5220   6.863   3.732   5.556
 1752TIP3    H2 5221   6.769   3.614   5.554
 1753TIP3   OH2 5222   3.183   4.490   3.181
 1753TIP3    H1 5223   3.213   4.399   3.171
 1753TIP3    H2 5224   3.154   4.496   3.271
 1754TIP3   OH2 5225   3.139   6.762   4.550
 1754TIP3    H1 5226   3.145   6.715   4.633
 1754TIP3    H2 5227   3.098   6.846   4.571
 1755TIP3   OH2 5228   1.470   4.713   0.184
 1755TIP3    H1 5229   1.524   4.746   0.112
 1755TIP3    H2 5230   1.388   4.761   0.176
 1756TIP3   OH2 5231   2.840   3.676   5.825
 1756TIP3    H1 5232   2.748   3.656   5.839
 1756TIP3    H2 5233   2.863   3.628   5.745
 1757TIP3   OH2 5234   3.378   2.590   2.371
 1757TIP3    H1 5235   3.299   2.639   2.393
 1757TIP3    H2 5236   3.450   2.642   2.406
 1758TIP3   OH2 5237   2.278   5.314   3.707
 1758TIP3    H1 5238   2.268   5.309   3.802
 1758TIP3    H2 5239   2.300   5.406   3.691
 1759TIP3   OH2 5240   3.803   2.046   3.943
 1759TIP3    H1 5241   3.891   2.074   3.970
 1759TIP3    H2 5242   3.745   2.079   4.012
 1760TIP3   OH2 5243   5.434   0.940   3.249
 1760TIP3    H1 5244   5.460   0.984   3.168
 1760TIP3    H2 5245   5.516   0.925   3.296
 1761TIP3   OH2 5246   3.656   5.671   4.412
 1761TIP3    H1 5247   3.697   5.612   4.475
 1761TIP3    H2 5248   3.578   5.624   4.381
 1762TIP3   OH2 5249   0.547   3.405   1.377
 1762TIP3    H1 5250   0.613   3.438   1.439
 1762TIP3    H2 5251   0.465   3.411   1.426
 1763TIP3   OH2 5252   5.647   6.492   4.089
 1763TIP3    H1 5253   5.611   6.560   4.032
 1763TIP3    H2 5254   5.741   6.509   4.091
 1764TIP3   OH2 5255   6.418   1.275   4.015
 1764TIP3    H1 5256   6.464   1.350   4.053
 1764TIP3    H2 5257   6.330   1.280   4.052
 1765TIP3   OH2 5258   2.774   0.181   2.381
 1765TIP3    H1 5259   2.701   0.236   2.412
 1765TIP3    H2 5260   2.745   0.151   2.295
 1766TIP3   OH2 5261   2.199   6.607   3.239
 1766TIP3    H1 5262   2.272   6.550   3.214
 1766TIP3    H2 5263   2.239   6.693   3.253
 1767TIP3   OH2 5264   4.394   1.036   2.101
 1767TIP3    H1 5265   4.308   1.051   2.139
 1767TIP3    H2 5266   4.452   1.097   2.147
 1768TIP3   OH2 5267   2.775   4.201   0.755
 1768TIP3    H1 5268   2.797   4.266   0.689
 1768TIP3    H2 5269   2.688   4.225   0.785
 1769TIP3   OH2 5270   0.984   1.946   5.919
 1769TIP3    H1 5271   0.904   1.991   5.945
 1769TIP3    H2 5272   1.016   1.995   5.843
 1770TIP3   OH2 5273   5.502   1.115   4.521
 1770TIP3    H1 5274   5.517   1.198   4.475
 1770TIP3    H2 5275   5.443   1.067   4.463
 1771TIP3   OH2 5276   5.387   3.931   2.053
 1771TIP3    H1 5277   5.350   3.889   2.130
 1771TIP3    H2 5278   5.373   4.025   2.068
 1772TIP3   OH2 5279   1.855   5.516   0.033
 1772TIP3    H1 5280   1.850   5.586  -0.033
 1772TIP3    H2 5281   1.876   5.561   0.114
 1773TIP3   OH2 5282   0.294   1.374   5.327
 1773TIP3    H1 5283   0.384   1.375   5.295
 1773TIP3    H2 5284   0.244   1.423   5.262
 1774TIP3   OH2 5285   1.204   1.178   4.854
 1774TIP3    H1 5286   1.141   1.131   4.800
 1774TIP3    H2 5287   1.248   1.237   4.793
 1775TIP3   OH2 5288   5.835   1.748   2.704
 1775TIP3    H1 5289   5.789   1.732   2.621
 1775TIP3    H2 5290   5.915   1.793   2.678
 1776TIP3   OH2 5291   1.075   1.751   4.705
 1776TIP3    H1 5292   1.075   1.678   4.768
 1776TIP3    H2 5293   1.083   1.829   4.759
 1777TIP3   OH2 5294   6.364   5.086   2.637
 1777TIP3    H1 5295   6.322   5.154   2.691
 1777TIP3    H2 5296   6.292   5.031   2.608
 1778TIP3   OH2 5297   5.747   0.581   5.045
 1778TIP3    H1 5298   5.744   0.569   5.140
 1778TIP3    H2 5299   5.656   0.571   5.017
 1779TIP3   OH2 5300   3.574   2.637   2.174
 1779TIP3    H1 5301   3.522   2.571   2.219
 1779TIP3    H2 5302   3.655   2.642   2.225
 1780TIP3   OH2 5303   3.093   5.338   4.571
 1780TIP3    H1 5304   3.182   5.356   4.541
 1780TIP3    H2 5305   3.102   5.312   4.662
 1781TIP3   OH2 5306   4.743   5.688   4.729
 1781TIP3    H1 5307   4.761   5.604   4.772
 1781TIP3    H2 5308   4.656   5.678   4.691
 1782TIP3   OH2 5309   6.796   6.053   1.466
 1782TIP3    H1 5310   6.820   5.991   1.534
 1782TIP3    H2 5311   6.702   6.038   1.452
 1783TIP3   OH2 5312   1.530   3.247   2.833
 1783TIP3    H1 5313   1.584   3.235   2.755
 1783TIP3    H2 5314   1.590   3.282   2.899
 1784TIP3   OH2 5315   2.503   4.848   3.452
 1784TIP3    H1 5316   2.487   4.937   3.483
 1784TIP3    H2 5317   2.417   4.816   3.423
 1785TIP3   OH2 5318   4.684   0.696   2.702
 1785TIP3    H1 5319   4.655   0.608   2.728
 1785TIP3    H2 5320   4.707   0.687   2.609
 1786TIP3   OH2 5321   2.916   5.286   2.734
 1786TIP3    H1 5322   2.831   5.330   2.729
 1786TIP3    H2 5323   2.940   5.270   2.643
 1787TIP3   OH2 5324   3.819   6.051   1.232
 1787TIP3    H1 5325   3.744   6.095   1.271
 1787TIP3    H2 5326   3.831   5.972   1.285
 1788TIP3   OH2 5327   0.481   4.697   3.631
 1788TIP3    H1 5328   0.428   4.752   3.573
 1788TIP3    H2 5329   0.430   4.617   3.643
 1789TIP3   OH2 5330   0.149   5.705   3.578
 1789TIP3    H1 5331   0.093   5.734   3.650
 1789TIP3    H2 5332   0.236   5.734   3.602
 1790TIP3   OH2 5333   2.218   5.779   2.534
 1790TIP3    H1 5334   2.182   5.715   2.596
 1790TIP3    H2 5335   2.294   5.816   2.578
 1791TIP3   OH2 5336   1.911   3.986   4.879
 1791TIP3    H1 5337   1.842   3.980   4.946
 1791TIP3    H2 5338   1.913   3.899   4.839
 1792TIP3   OH2 5339   0.193   0.464   4.664
 1792TIP3    H1 5340   0.177   0.373   4.637
 1792TIP3    H2 5341   0.245   0.456   4.744
 1793TIP3   OH2 5342   5.096   1.354   4.126
 1793TIP3    H1 5343   5.170   1.414   4.138
 1793TIP3    H2 5344   5.095   1.338   4.031
 1794TIP3   OH2 5345   5.421   6.409   4.665
 1794TIP3    H1 5346   5.372   6.327   4.677
 1794TIP3    H2 5347   5.512   6.385   4.681
 1795TIP3   OH2 5348   0.835   4.366   3.341
 1795TIP3    H1 5349   0.783   4.410   3.273
 1795TIP3    H2 5350   0.886   4.436   3.381
 1796TIP3   OH2 5351   5.751   4.089   2.016
 1796TIP3    H1 5352   5.733   4.008   1.968
 1796TIP3    H2 5353   5.720   4.158   1.958
 1797TIP3   OH2 5354   3.050   6.785   5.084
 1797TIP3    H1 5355   3.099   6.708   5.114
 1797TIP3    H2 5356   2.977   6.791   5.145
 1798TIP3   OH2 5357   3.133   5.502   0.065
 1798TIP3    H1 5358   3.070   5.446   0.108
 1798TIP3    H2 5359   3.139   5.468  -0.024
 1799TIP3   OH2 5360   1.119   5.813   1.598
 1799TIP3    H1 5361   1.029   5.782   1.609
 1799TIP3    H2 5362   1.156   5.754   1.531
 1800TIP3   OH2 5363   2.878   4.107   0.047
 1800TIP3    H1 5364   2.875   4.188  -0.004
 1800TIP3    H2 5365   2.861   4.135   0.137
 1801TIP3   OH2 5366   6.014   0.764   0.665
 1801TIP3    H1 5367   5.958   0.816   0.723
 1801TIP3    H2 5368   5.975   0.677   0.665
 1802TIP3   OH2 5369   0.458   3.876   2.486
 1802TIP3    H1 5370   0.421   3.893   2.573
 1802TIP3    H2 5371   0.465   3.962   2.445
 1803TIP3   OH2 5372   3.576   4.972   5.617
 1803TIP3    H1 5373   3.564   4.899   5.555
 1803TIP3    H2 5374   3.615   4.931   5.694
 1804TIP3   OH2 5375   5.993   3.972   4.065
 1804TIP3    H1 5376   6.019   3.907   3.999
 1804TIP3    H2 5377   5.927   3.927   4.119
 1805TIP3   OH2 5378   2.010   2.436   1.824
 1805TIP3    H1 5379   1.980   2.367   1.764
 1805TIP3    H2 5380   1.956   2.426   1.902
 1806TIP3   OH2 5381   3.996   2.588   5.462
 1806TIP3    H1 5382   4.080   2.543   5.460
 1806TIP3    H2 5383   3.939   2.530   5.513
 1807TIP3   OH2 5384   3.602   2.185   3.785
 1807TIP3    H1 5385   3.625   2.278   3.787
 1807TIP3    H2 5386   3.655   2.146   3.855
 1808TIP3   OH2 5387   2.183   5.934   4.361
 1808TIP3    H1 5388   2.098   5.970   4.334
 1808TIP3    H2 5389   2.183   5.844   4.327
 1809TIP3   OH2 5390   0.657   3.665   1.431
 1809TIP3    H1 5391   0.741   3.697   1.466
 1809TIP3    H2 5392   0.593   3.688   1.499
 1810TIP3   OH2 5393   5.280   4.771   0.442
 1810TIP3    H1 5394   5.222   4.847   0.440
 1810TIP3    H2 5395   5.348   4.791   0.377
 1811TIP3   OH2 5396   5.862   2.757   0.835
 1811TIP3    H1 5397   5.932   2.706   0.875
 1811TIP3    H2 5398   5.784   2.735   0.886
 1812TIP3   OH2 5399   1.235   4.322   4.039
 1812TIP3    H1 5400   1.300   4.252   4.046
 1812TIP3    H2 5401   1.286   4.403   4.045
 1813TIP3   OH2 5402   5.986   5.544   1.380
 1813TIP3    H1 5403   5.936   5.621   1.354
 1813TIP3    H2 5404   5.982   5.486   1.304
 1814TIP3   OH2 5405   5.359   2.569   5.375
 1814TIP3    H1 5406   5.291   2.598   5.313
 1814TIP3    H2 5407   5.338   2.614   5.456
 1815TIP3   OH2 5408   6.066   3.650   5.064
 1815TIP3    H1 5409   6.054   3.564   5.103
 1815TIP3    H2 5410   6.000   3.653   4.994
 1816TIP3   OH2 5411   5.671   1.977   4.305
 1816TIP3    H1 5412   5.608   1.952   4.373
 1816TIP3    H2 5413   5.655   1.915   4.234
 1817TIP3   OH2 5414   6.953   5.522   3.190
 1817TIP3    H1 5415   6.951   5.616   3.207
 1817TIP3    H2 5416   6.867   5.491   3.217
 1818TIP3   OH2 5417   3.521   0.904   1.430
 1818TIP3    H1 5418   3.477   0.972   1.482
 1818TIP3    H2 5419   3.476   0.823   1.454
 1819TIP3   OH2 5420   6.555   4.103   3.741
 1819TIP3    H1 5421   6.461   4.120   3.749
 1819TIP3    H2 5422   6.595   4.190   3.748
 1820TIP3   OH2 5423   2.269   5.667   1.040
 1820TIP3    H1 5424   2.197   5.714   1.082
 1820TIP3    H2 5425   2.319   5.735   0.995
 1821TIP3   OH2 5426   0.157   3.381   2.122
 1821TIP3    H1 5427   0.189   3.460   2.079
 1821TIP3    H2 5428   0.140   3.320   2.050
 1822TIP3   OH2 5429   4.452   5.391   2.000
 1822TIP3    H1 5430   4.417   5.355   1.919
 1822TIP3    H2 5431   4.473   5.482   1.980
 1823TIP3   OH2 5432   4.692   4.694   3.383
 1823TIP3    H1 5433   4.702   4.610   3.337
 1823TIP3    H2 5434   4.774   4.704   3.431
 1824TIP3   OH2 5435   5.858   5.129   0.596
 1824TIP3    H1 5436   5.922   5.067   0.560
 1824TIP3    H2 5437   5.805   5.076   0.656
 1825TIP3   OH2 5438   6.098   5.645   1.597
 1825TIP3    H1 5439   6.031   5.628   1.530
 1825TIP3    H2 5440   6.178   5.606   1.562
 1826TIP3   OH2 5441   2.330   2.858   3.900
 1826TIP3    H1 5442   2.347   2.852   3.994
 1826TIP3    H2 5443   2.338   2.952   3.880
 1827TIP3   OH2 5444   0.064   4.978   2.077
 1827TIP3    H1 5445   0.051   4.968   2.171
 1827TIP3    H2 5446   0.040   4.894   2.040
 1828TIP3   OH2 5447   6.202   6.344   2.880
 1828TIP3    H1 5448   6.116   6.352   2.839
 1828TIP3    H2 5449   6.207   6.252   2.908
 1829TIP3   OH2 5450   5.651   5.727   5.420
 1829TIP3    H1 5451   5.605   5.644   5.426
 1829TIP3    H2 5452   5.729   5.716   5.475
 1830TIP3   OH2 5453   0.250   2.227   5.505
 1830TIP3    H1 5454   0.234   2.294   5.438
 1830TIP3    H2 5455   0.275   2.149   5.455
 1831TIP3   OH2 5456   2.115   0.081   1.551
 1831TIP3    H1 5457   2.094   0.068   1.459
 1831TIP3    H2 5458   2.141   0.173   1.558
 1832TIP3   OH2 5459   3.945   4.199   3.216
 1832TIP3    H1 5460   3.976   4.197   3.307
 1832TIP3    H2 5461   4.011   4.150   3.167
 1833TIP3   OH2 5462   5.486   0.289   2.829
 1833TIP3    H1 5463   5.464   0.343   2.753
 1833TIP3    H2 5464   5.543   0.345   2.882
 1834TIP3   OH2 5465   1.121   5.311   3.495
 1834TIP3    H1 5466   1.200   5.361   3.475
 1834TIP3    H2 5467   1.143   5.221   3.472
 1835TIP3   OH2 5468   2.431   2.722   4.142
 1835TIP3    H1 5469   2.415   2.737   4.235
 1835TIP3    H2 5470   2.499   2.655   4.140
 1836TIP3   OH2 5471   4.072   2.285   1.675
 1836TIP3    H1 5472   4.025   2.238   1.607
 1836TIP3    H2 5473   4.130   2.345   1.627
 1837TIP3   OH2 5474   1.084   2.889   0.771
 1837TIP3    H1 5475   1.056   2.878   0.862
 1837TIP3    H2 5476   1.116   2.803   0.746
 1838TIP3   OH2 5477   1.734   1.557   3.262
 1838TIP3    H1 5478   1.818   1.530   3.299
 1838TIP3    H2 5479   1.671   1.492   3.294
 1839TIP3   OH2 5480   1.875   0.259   5.616
 1839TIP3    H1 5481   1.784   0.269   5.587
 1839TIP3    H2 5482   1.907   0.349   5.626
 1840TIP3   OH2 5483   4.003   5.190   4.613
 1840TIP3    H1 5484   4.046   5.197   4.528
 1840TIP3    H2 5485   4.070   5.156   4.671
 1841TIP3   OH2 5486   2.092   6.543   0.766
 1841TIP3    H1 5487   2.052   6.507   0.846
 1841TIP3    H2 5488   2.128   6.627   0.794
 1842TIP3   OH2 5489   1.328   3.923   5.554
 1842TIP3    H1 5490   1.244   3.894   5.588
 1842TIP3    H2 5491   1.320   4.018   5.546
 1843TIP3   OH2 5492   1.672   4.154   4.158
 1843TIP3    H1 5493   1.709   4.141   4.071
 1843TIP3    H2 5494   1.748   4.159   4.216
 1844TIP3   OH2 5495   6.223   0.572   0.847
 1844TIP3    H1 5496   6.172   0.636   0.896
 1844TIP3    H2 5497   6.158   0.508   0.816
 1845TIP3   OH2 5498   2.424   5.799   2.737
 1845TIP3    H1 5499   2.373   5.771   2.813
 1845TIP3    H2 5500   2.468   5.879   2.765
 1846TIP3   OH2 5501   3.516   6.708   0.367
 1846TIP3    H1 5502   3.508   6.631   0.423
 1846TIP3    H2 5503   3.486   6.680   0.281
 1847TIP3   OH2 5504   0.831   2.115   3.332
 1847TIP3    H1 5505   0.845   2.096   3.240
 1847TIP3    H2 5506   0.919   2.119   3.369
 1848TIP3   OH2 5507   4.333   6.740   5.616
 1848TIP3    H1 5508   4.328   6.779   5.703
 1848TIP3    H2 5509   4.326   6.646   5.631
 1849TIP3   OH2 5510   0.427   3.730   1.552
 1849TIP3    H1 5511   0.360   3.780   1.506
 1849TIP3    H2 5512   0.395   3.723   1.642
 1850TIP3   OH2 5513   1.945   1.662   0.307
 1850TIP3    H1 5514   1.997   1.589   0.273
 1850TIP3    H2 5515   1.943   1.726   0.236
 1851TIP3   OH2 5516   1.083   2.155   3.464
 1851TIP3    H1 5517   1.091   2.172   3.558
 1851TIP3    H2 5518   1.108   2.063   3.454
 1852TIP3   OH2 5519   1.602   0.703   4.847
 1852TIP3    H1 5520   1.647   0.718   4.764
 1852TIP3    H2 5521   1.510   0.720   4.828
 1853TIP3   OH2 5522   2.066   6.697   2.400
 1853TIP3    H1 5523   2.133   6.765   2.392
 1853TIP3    H2 5524   2.002   6.732   2.461
 1854TIP3   OH2 5525   3.408   1.263   1.930
 1854TIP3    H1 5526   3.454   1.193   1.977
 1854TIP3    H2 5527   3.345   1.216   1.875
 1855TIP3   OH2 5528   4.012  -0.031   5.849
 1855TIP3    H1 5529   4.042   0.051   5.811
 1855TIP3    H2 5530   4.070  -0.045   5.924
 1856TIP3   OH2 5531   1.521   0.449   0.092
 1856TIP3    H1 5532   1.501   0.384   0.159
 1856TIP3    H2 5533   1.439   0.463   0.046
 1857TIP3   OH2 5534   4.364   6.615   2.773
 1857TIP3    H1 5535   4.377   6.563   2.694
 1857TIP3    H2 5536   4.282   6.583   2.810
 1858TIP3   OH2 5537   2.727   3.988   1.270
 1858TIP3    H1 5538   2.673   4.025   1.340
 1858TIP3    H2 5539   2.712   3.894   1.277
 1859TIP3   OH2 5540   6.614   1.966   3.455
 1859TIP3    H1 5541   6.673   2.023   3.503
 1859TIP3    H2 5542   6.589   1.899   3.519
 1860TIP3   OH2 5543   3.184   3.899   1.764
 1860TIP3    H1 5544   3.204   3.832   1.829
 1860TIP3    H2 5545   3.103   3.870   1.723
 1861TIP3   OH2 5546   1.597   2.443   1.469
 1861TIP3    H1 5547   1.648   2.524   1.478
 1861TIP3    H2 5548   1.663   2.374   1.462
 1862TIP3   OH2 5549   7.157   6.287   3.591
 1862TIP3    H1 5550   7.173   6.358   3.528
 1862TIP3    H2 5551   7.124   6.332   3.669
 1863TIP3   OH2 5552   7.116   5.282   0.603
 1863TIP3    H1 5553   7.103   5.254   0.693
 1863TIP3    H2 5554   7.139   5.375   0.610
 1864TIP3   OH2 5555   0.865   5.773   5.449
 1864TIP3    H1 5556   0.942   5.723   5.477
 1864TIP3    H2 5557   0.901   5.851   5.407
 1865TIP3   OH2 5558   2.921   0.217   5.235
 1865TIP3    H1 5559   2.926   0.279   5.308
 1865TIP3    H2 5560   2.887   0.269   5.162
 1866TIP3   OH2 5561   6.779   3.272   3.045
 1866TIP3    H1 5562   6.743   3.227   3.121
 1866TIP3    H2 5563   6.718   3.252   2.974
 1867TIP3   OH2 5564   6.833   4.520   5.075
 1867TIP3    H1 5565   6.827   4.438   5.123
 1867TIP3    H2 5566   6.868   4.584   5.138
 1868TIP3   OH2 5567   1.358   6.653   2.806
 1868TIP3    H1 5568   1.318   6.607   2.880
 1868TIP3    H2 5569   1.314   6.616   2.729
 1869TIP3   OH2 5570   6.909   5.161   0.433
 1869TIP3    H1 5571   6.979   5.207   0.480
 1869TIP3    H2 5572   6.888   5.218   0.359
 1870TIP3   OH2 5573   7.079   2.833   5.114
 1870TIP3    H1 5574   7.054   2.925   5.102
 1870TIP3    H2 5575   7.073   2.820   5.209
 1871TIP3   OH2 5576   3.422   5.741   0.876
 1871TIP3    H1 5577   3.474   5.818   0.855
 1871TIP3    H2 5578   3.331   5.767   0.861
 1872TIP3   OH2 5579   3.153   5.653   2.249
 1872TIP3    H1 5580   3.117   5.741   2.260
 1872TIP3    H2 5581   3.173   5.624   2.338
 1873TIP3   OH2 5582   2.008   5.175   1.121
 1873TIP3    H1 5583   1.957   5.105   1.161
 1873TIP3    H2 5584   2.099   5.157   1.146
 1874TIP3   OH2 5585   1.878   3.072   1.872
 1874TIP3    H1 5586   1.824   3.150   1.878
 1874TIP3    H2 5587   1.924   3.081   1.789
 1875TIP3   OH2 5588   6.017   6.314   3.221
 1875TIP3    H1 5589   6.045   6.226   3.245
 1875TIP3    H2 5590   6.042   6.323   3.129
 1876TIP3   OH2 5591   3.838   0.893   1.022
 1876TIP3    H1 5592   3.759   0.911   1.073
 1876TIP3    H2 5593   3.893   0.841   1.082
 1877TIP3   OH2 5594   6.321   0.657   1.698
 1877TIP3    H1 5595   6.413   0.681   1.711
 1877TIP3    H2 5596   6.279   0.737   1.668
 1878TIP3   OH2 5597   4.080   0.433   3.124
 1878TIP3    H1 5598   4.056   0.496   3.056
 1878TIP3    H2 5599   4.057   0.348   3.087
 1879TIP3   OH2 5600   2.952   0.903   4.885
 1879TIP3    H1 5601   2.936   0.864   4.970
 1879TIP3    H2 5602   3.027   0.960   4.899
 1880TIP3   OH2 5603   1.696   2.965   2.058
 1880TIP3    H1 5604   1.736   3.011   1.984
 1880TIP3    H2 5605   1.771   2.936   2.110
 1881TIP3   OH2 5606   4.798  -0.032   3.630
 1881TIP3    H1 5607   4.724  -0.057   3.685
 1881TIP3    H2 5608   4.804   0.063   3.641
 1882TIP3   OH2 5609   0.729   6.766   4.959
 1882TIP3    H1 5610   0.820   6.736   4.961
 1882TIP3    H2 5611   0.678   6.690   4.988
 1883TIP3   OH2 5612   4.332   4.635   1.577
 1883TIP3    H1 5613   4.383   4.695   1.630
 1883TIP3    H2 5614   4.391   4.562   1.558
 1884TIP3   OH2 5615   0.986   6.230   5.729
 1884TIP3    H1 5616   1.047   6.223   5.655
 1884TIP3    H2 5617   0.903   6.198   5.695
 1885TIP3   OH2 5618   4.283   3.847   2.439
 1885TIP3    H1 5619   4.192   3.860   2.465
 1885TIP3    H2 5620   4.334   3.869   2.517
 1886TIP3   OH2 5621   1.103   6.462   4.905
 1886TIP3    H1 5622   1.152   6.416   4.973
 1886TIP3    H2 5623   1.170   6.506   4.852
 1887TIP3   OH2 5624   7.076   1.389   0.057
 1887TIP3    H1 5625   7.062   1.340   0.138
 1887TIP3    H2 5626   7.164   1.363   0.029
 1888TIP3   OH2 5627   7.141   1.139   5.485
 1888TIP3    H1 5628   7.135   1.149   5.390
 1888TIP3    H2 5629   7.089   1.211   5.520
 1889TIP3   OH2 5630   0.840   0.929   3.589
 1889TIP3    H1 5631   0.904   0.970   3.646
 1889TIP3    H2 5632   0.884   0.921   3.504
 1890TIP3   OH2 5633   2.552   3.257   0.226
 1890TIP3    H1 5634   2.523   3.339   0.186
 1890TIP3    H2 5635   2.598   3.212   0.156
 1891TIP3   OH2 5636   2.973   0.368   1.934
 1891TIP3    H1 5637   3.044   0.359   1.998
 1891TIP3    H2 5638   2.965   0.281   1.895
 1892TIP3   OH2 5639   2.425   1.575   1.086
 1892TIP3    H1 5640   2.464   1.662   1.093
 1892TIP3    H2 5641   2.499   1.517   1.069
 1893TIP3   OH2 5642   1.695   0.429   0.556
 1893TIP3    H1 5643   1.690   0.425   0.651
 1893TIP3    H2 5644   1.783   0.462   0.537
 1894TIP3   OH2 5645   0.877   6.379   2.183
 1894TIP3    H1 5646   0.967   6.345   2.182
 1894TIP3    H2 5647   0.852   6.376   2.275
 1895TIP3   OH2 5648   3.738   5.520   5.658
 1895TIP3    H1 5649   3.789   5.527   5.739
 1895TIP3    H2 5650   3.659   5.473   5.685
 1896TIP3   OH2 5651   6.629   6.206   0.246
 1896TIP3    H1 5652   6.698   6.207   0.313
 1896TIP3    H2 5653   6.552   6.243   0.291
 1897TIP3   OH2 5654   5.885   5.849   3.767
 1897TIP3    H1 5655   5.808   5.826   3.716
 1897TIP3    H2 5656   5.875   5.800   3.848
 1898TIP3   OH2 5657   4.859   2.188   1.957
 1898TIP3    H1 5658   4.792   2.248   1.990
 1898TIP3    H2 5659   4.813   2.106   1.941
 1899TIP3   OH2 5660   5.034   4.114   1.992
 1899TIP3    H1 5661   5.051   4.119   1.898
 1899TIP3    H2 5662   5.006   4.202   2.017
 1900TIP3   OH2 5663   1.426   1.282   4.424
 1900TIP3    H1 5664   1.467   1.363   4.395
 1900TIP3    H2 5665   1.415   1.293   4.519
 1901TIP3   OH2 5666   4.177   2.742   4.716
 1901TIP3    H1 5667   4.139   2.762   4.631
 1901TIP3    H2 5668   4.146   2.654   4.737
 1902TIP3   OH2 5669   3.166   3.305   1.345
 1902TIP3    H1 5670   3.110   3.306   1.423
 1902TIP3    H2 5671   3.120   3.359   1.281
 1903TIP3   OH2 5672   5.848   4.278   5.503
 1903TIP3    H1 5673   5.855   4.187   5.533
 1903TIP3    H2 5674   5.904   4.327   5.563
 1904TIP3   OH2 5675   1.078   2.217   0.651
 1904TIP3    H1 5676   1.040   2.132   0.674
 1904TIP3    H2 5677   1.030   2.279   0.705
 1905TIP3   OH2 5678   1.238   4.417   3.264
 1905TIP3    H1 5679   1.328   4.405   3.293
 1905TIP3    H2 5680   1.212   4.331   3.232
 1906TIP3   OH2 5681   6.473   2.640   0.436
 1906TIP3    H1 5682   6.510   2.685   0.512
 1906TIP3    H2 5683   6.518   2.679   0.361
 1907TIP3   OH2 5684   0.651   6.757   2.306
 1907TIP3    H1 5685   0.639   6.762   2.401
 1907TIP3    H2 5686   0.698   6.837   2.284
 1908TIP3   OH2 5687   4.386   2.706   1.582
 1908TIP3    H1 5688   4.412   2.730   1.494
 1908TIP3    H2 5689   4.431   2.768   1.639
 1909TIP3   OH2 5690   3.904   2.899   2.051
 1909TIP3    H1 5691   3.938   2.949   2.125
 1909TIP3    H2 5692   3.838   2.956   2.013
 1910TIP3   OH2 5693   3.744   3.603   1.135
 1910TIP3    H1 5694   3.790   3.532   1.089
 1910TIP3    H2 5695   3.813   3.646   1.186
 1911TIP3   OH2 5696   6.172   3.294   1.235
 1911TIP3    H1 5697   6.253   3.244   1.223
 1911TIP3    H2 5698   6.188   3.376   1.187
 1912TIP3   OH2 5699   1.680   4.559   5.499
 1912TIP3    H1 5700   1.644   4.647   5.508
 1912TIP3    H2 5701   1.709   4.537   5.588
 1913TIP3   OH2 5702   6.988   6.473   4.241
 1913TIP3    H1 5703   6.922   6.462   4.173
 1913TIP3    H2 5704   6.960   6.549   4.291
 1914TIP3   OH2 5705   0.700   5.762   4.439
 1914TIP3    H1 5706   0.631   5.769   4.373
 1914TIP3    H2 5707   0.676   5.828   4.505
 1915TIP3   OH2 5708   4.663   0.907   2.190
 1915TIP3    H1 5709   4.737   0.942   2.140
 1915TIP3    H2 5710   4.595   0.895   2.124
 1916TIP3   OH2 5711   1.897   0.688   1.448
 1916TIP3    H1 5712   1.865   0.605   1.412
 1916TIP3    H2 5713   1.836   0.753   1.415
 1917TIP3   OH2 5714   3.574   5.803   2.359
 1917TIP3    H1 5715   3.581   5.863   2.285
 1917TIP3    H2 5716   3.630   5.840   2.427
 1918TIP3   OH2 5717   1.944   3.086   0.357
 1918TIP3    H1 5718   1.943   2.993   0.377
 1918TIP3    H2 5719   1.930   3.090   0.262
 1919TIP3   OH2 5720   7.045   5.026   1.814
 1919TIP3    H1 5721   7.043   5.014   1.909
 1919TIP3    H2 5722   7.123   4.980   1.785
 1920TIP3   OH2 5723   3.269   5.723   5.026
 1920TIP3    H1 5724   3.229   5.678   4.951
 1920TIP3    H2 5725   3.362   5.728   5.003
 1921TIP3   OH2 5726   1.010   3.609   5.549
 1921TIP3    H1 5727   1.011   3.624   5.455
 1921TIP3    H2 5728   1.101   3.620   5.577
 1922TIP3   OH2 5729   2.452   2.019   2.058
 1922TIP3    H1 5730   2.408   1.938   2.034
 1922TIP3    H2 5731   2.412   2.044   2.141
 1923TIP3   OH2 5732   4.757   4.567   3.138
 1923TIP3    H1 5733   4.688   4.566   3.072
 1923TIP3    H2 5734   4.755   4.656   3.173
 1924TIP3   OH2 5735   7.119   4.771   5.587
 1924TIP3    H1 5736   7.133   4.705   5.520
 1924TIP3    H2 5737   7.144   4.854   5.546
 1925TIP3   OH2 5738   2.672   2.208   4.274
 1925TIP3    H1 5739   2.716   2.244   4.351
 1925TIP3    H2 5740   2.580   2.202   4.299
 1926TIP3   OH2 5741   4.999   3.751   2.730
 1926TIP3    H1 5742   4.954   3.674   2.765
 1926TIP3    H2 5743   5.092   3.731   2.740
 1927TIP3   OH2 5744   2.388   2.986   5.157
 1927TIP3    H1 5745   2.465   3.015   5.108
 1927TIP3    H2 5746   2.377   3.053   5.225
 1928TIP3   OH2 5747   2.153   2.329   5.249
 1928TIP3    H1 5748   2.229   2.337   5.192
 1928TIP3    H2 5749   2.078   2.349   5.193
 1929TIP3   OH2 5750   6.747   5.310   2.327
 1929TIP3    H1 5751   6.738   5.394   2.282
 1929TIP3    H2 5752   6.821   5.268   2.282
 1930TIP3   OH2 5753   2.818   4.029   1.615
 1930TIP3    H1 5754   2.796   3.957   1.675
 1930TIP3    H2 5755   2.823   4.106   1.671
 1931TIP3   OH2 5756   0.402   2.351   2.700
 1931TIP3    H1 5757   0.490   2.357   2.738
 1931TIP3    H2 5758   0.351   2.304   2.765
 1932TIP3   OH2 5759   0.899   6.141   0.688
 1932TIP3    H1 5760   0.929   6.071   0.630
 1932TIP3    H2 5761   0.979   6.179   0.723
 1933TIP3   OH2 5762   6.428   5.592   2.095
 1933TIP3    H1 5763   6.435   5.568   2.003
 1933TIP3    H2 5764   6.516   5.622   2.119
 1934TIP3   OH2 5765   5.381   0.626   4.113
 1934TIP3    H1 5766   5.439   0.636   4.188
 1934TIP3    H2 5767   5.304   0.678   4.135
 1935TIP3   OH2 5768   3.796   1.385   4.057
 1935TIP3    H1 5769   3.878   1.403   4.011
 1935TIP3    H2 5770   3.775   1.295   4.034
 1936TIP3   OH2 5771   5.170   4.970   4.286
 1936TIP3    H1 5772   5.127   4.892   4.250
 1936TIP3    H2 5773   5.256   4.971   4.246
 1937TIP3   OH2 5774   4.686   2.255   2.972
 1937TIP3    H1 5775   4.738   2.235   2.894
 1937TIP3    H2 5776   4.737   2.321   3.018
 1938TIP3   OH2 5777   2.937   3.507   1.818
 1938TIP3    H1 5778   2.856   3.497   1.769
 1938TIP3    H2 5779   2.977   3.420   1.818
 1939TIP3   OH2 5780   1.803   3.977   2.422
 1939TIP3    H1 5781   1.852   3.897   2.402
 1939TIP3    H2 5782   1.870   4.045   2.429
 1940TIP3   OH2 5783   4.863   4.784   5.035
 1940TIP3    H1 5784   4.806   4.729   5.089
 1940TIP3    H2 5785   4.892   4.854   5.094
 1941TIP3   OH2 5786   5.562   6.277   1.199
 1941TIP3    H1 5787   5.535   6.191   1.231
 1941TIP3    H2 5788   5.592   6.323   1.276
 1942TIP3   OH2 5789   7.099   3.303   5.584
 1942TIP3    H1 5790   7.049   3.376   5.620
 1942TIP3    H2 5791   7.033   3.240   5.557
 1943TIP3   OH2 5792   4.356   0.315   3.898
 1943TIP3    H1 5793   4.427   0.287   3.957
 1943TIP3    H2 5794   4.330   0.235   3.853
 1944TIP3   OH2 5795   6.017   4.677   2.556
 1944TIP3    H1 5796   6.071   4.648   2.629
 1944TIP3    H2 5797   6.064   4.752   2.519
 1945TIP3   OH2 5798   2.575   4.359   3.996
 1945TIP3    H1 5799   2.544   4.397   4.078
 1945TIP3    H2 5800   2.668   4.342   4.012
 1946TIP3   OH2 5801   3.075   3.509   3.309
 1946TIP3    H1 5802   3.044   3.599   3.309
 1946TIP3    H2 5803   3.030   3.468   3.235
 1947TIP3   OH2 5804   4.615   2.275   4.104
 1947TIP3    H1 5805   4.611   2.184   4.132
 1947TIP3    H2 5806   4.667   2.319   4.172
 1948TIP3   OH2 5807   4.301   6.340   4.225
 1948TIP3    H1 5808   4.397   6.340   4.233
 1948TIP3    H2 5809   4.284   6.287   4.148
 1949TIP3   OH2 5810   0.336   1.424   1.722
 1949TIP3    H1 5811   0.246   1.404   1.696
 1949TIP3    H2 5812   0.380   1.338   1.724
 1950TIP3   OH2 5813   0.221   0.301   3.344
 1950TIP3    H1 5814   0.301   0.343   3.376
 1950TIP3    H2 5815   0.187   0.253   3.419
 1951TIP3   OH2 5816   3.701   3.792   0.197
 1951TIP3    H1 5817   3.733   3.702   0.186
 1951TIP3    H2 5818   3.777   3.847   0.179
 1952TIP3   OH2 5819   4.695   3.346   4.669
 1952TIP3    H1 5820   4.753   3.386   4.734
 1952TIP3    H2 5821   4.611   3.336   4.716
 1953TIP3   OH2 5822   0.464   1.240   0.436
 1953TIP3    H1 5823   0.406   1.316   0.432
 1953TIP3    H2 5824   0.550   1.274   0.412
 1954TIP3   OH2 5825   6.892   3.437   3.677
 1954TIP3    H1 5826   6.961   3.483   3.725
 1954TIP3    H2 5827   6.925   3.432   3.587
 1955TIP3   OH2 5828   0.439   1.564   5.563
 1955TIP3    H1 5829   0.396   1.478   5.563
 1955TIP3    H2 5830   0.372   1.624   5.530
 1956TIP3   OH2 5831   6.878   3.298   0.610
 1956TIP3    H1 5832   6.914   3.370   0.558
 1956TIP3    H2 5833   6.900   3.219   0.560
 1957TIP3   OH2 5834   2.664   5.763   5.179
 1957TIP3    H1 5835   2.687   5.684   5.228
 1957TIP3    H2 5836   2.620   5.819   5.243
 1958TIP3   OH2 5837   6.184   4.995   3.195
 1958TIP3    H1 5838   6.209   4.903   3.204
 1958TIP3    H2 5839   6.247   5.042   3.250
 1959TIP3   OH2 5840   2.429   1.331   2.529
 1959TIP3    H1 5841   2.476   1.374   2.601
 1959TIP3    H2 5842   2.374   1.266   2.572
 1960TIP3   OH2 5843   6.946   4.499   2.130
 1960TIP3    H1 5844   6.918   4.528   2.217
 1960TIP3    H2 5845   7.041   4.497   2.134
 1961TIP3   OH2 5846   2.723   2.079   2.906
 1961TIP3    H1 5847   2.813   2.066   2.936
 1961TIP3    H2 5848   2.729   2.152   2.844
 1962TIP3   OH2 5849   0.149   1.897   4.089
 1962TIP3    H1 5850   0.192   1.868   4.170
 1962TIP3    H2 5851   0.202   1.858   4.019
 1963TIP3   OH2 5852   5.982   2.445   3.161
 1963TIP3    H1 5853   5.966   2.361   3.117
 1963TIP3    H2 5854   5.896   2.484   3.172
 1964TIP3   OH2 5855   1.532   1.798   3.543
 1964TIP3    H1 5856   1.567   1.708   3.546
 1964TIP3    H2 5857   1.609   1.854   3.556
 1965TIP3   OH2 5858   3.854   5.309   3.490
 1965TIP3    H1 5859   3.853   5.314   3.394
 1965TIP3    H2 5860   3.920   5.372   3.517
 1966TIP3   OH2 5861   5.523   0.200   1.719
 1966TIP3    H1 5862   5.599   0.142   1.729
 1966TIP3    H2 5863   5.506   0.202   1.625
 1967TIP3   OH2 5864   2.270   6.103   1.164
 1967TIP3    H1 5865   2.331   6.069   1.099
 1967TIP3    H2 5866   2.221   6.026   1.194
 1968TIP3   OH2 5867   2.285   6.265   1.563
 1968TIP3    H1 5868   2.254   6.229   1.479
 1968TIP3    H2 5869   2.234   6.217   1.629
 1969TIP3   OH2 5870   5.028   1.175   3.646
 1969TIP3    H1 5871   5.106   1.130   3.617
 1969TIP3    H2 5872   5.057   1.265   3.663
 1970TIP3   OH2 5873   4.650   3.004   5.262
 1970TIP3    H1 5874   4.710   2.940   5.224
 1970TIP3    H2 5875   4.585   2.951   5.308
 1971TIP3   OH2 5876   7.198   1.008   5.066
 1971TIP3    H1 5877   7.172   1.011   4.974
 1971TIP3    H2 5878   7.153   1.082   5.107
 1972TIP3   OH2 5879   3.665   3.085   1.767
 1972TIP3    H1 5880   3.621   3.000   1.768
 1972TIP3    H2 5881   3.676   3.107   1.860
 1973TIP3   OH2 5882   1.691   5.864   2.237
 1973TIP3    H1 5883   1.668   5.910   2.318
 1973TIP3    H2 5884   1.643   5.781   2.243
 1974TIP3   OH2 5885   4.176   6.194   5.469
 1974TIP3    H1 5886   4.181   6.163   5.560
 1974TIP3    H2 5887   4.098   6.152   5.434
 1975TIP3   OH2 5888   3.482   4.176   2.850
 1975TIP3    H1 5889   3.474   4.233   2.774
 1975TIP3    H2 5890   3.530   4.227   2.914
 1976TIP3   OH2 5891   3.012   0.693   4.159
 1976TIP3    H1 5892   2.947   0.727   4.097
 1976TIP3    H2 5893   2.961   0.663   4.234
 1977TIP3   OH2 5894   4.483   3.831   0.339
 1977TIP3    H1 5895   4.440   3.873   0.414
 1977TIP3    H2 5896   4.483   3.898   0.271
 1978TIP3   OH2 5897   5.089   1.126   5.261
 1978TIP3    H1 5898   5.127   1.155   5.178
 1978TIP3    H2 5899   5.006   1.086   5.237
 1979TIP3   OH2 5900   2.851   6.469   2.816
 1979TIP3    H1 5901   2.758   6.484   2.834
 1979TIP3    H2 5902   2.866   6.509   2.731
 1980TIP3   OH2 5903   6.314   1.489   0.891
 1980TIP3    H1 5904   6.406   1.491   0.866
 1980TIP3    H2 5905   6.314   1.505   0.985
 1981TIP3   OH2 5906   6.282   6.743   3.831
 1981TIP3    H1 5907   6.268   6.817   3.891
 1981TIP3    H2 5908   6.351   6.773   3.772
 1982TIP3   OH2 5909   3.754   2.054   0.932
 1982TIP3    H1 5910   3.826   2.113   0.910
 1982TIP3    H2 5911   3.761   2.040   1.026
 1983TIP3   OH2 5912   3.501   2.506   1.939
 1983TIP3    H1 5913   3.526   2.579   1.995
 1983TIP3    H2 5914   3.443   2.545   1.874
 1984TIP3   OH2 5915   3.438   3.752   1.537
 1984TIP3    H1 5916   3.380   3.773   1.463
 1984TIP3    H2 5917   3.516   3.715   1.496
 1985TIP3   OH2 5918   7.048   4.061   1.521
 1985TIP3    H1 5919   7.044   4.089   1.430
 1985TIP3    H2 5920   6.957   4.060   1.550
 1986TIP3   OH2 5921   4.118   1.843   0.641
 1986TIP3    H1 5922   4.063   1.850   0.719
 1986TIP3    H2 5923   4.207   1.830   0.675
 1987TIP3   OH2 5924   6.293   2.695   5.719
 1987TIP3    H1 5925   6.304   2.662   5.630
 1987TIP3    H2 5926   6.360   2.650   5.770
 1988TIP3   OH2 5927   0.712   6.512   3.813
 1988TIP3    H1 5928   0.713   6.416   3.815
 1988TIP3    H2 5929   0.790   6.538   3.862
 1989TIP3   OH2 5930   6.118   6.486   2.412
 1989TIP3    H1 5931   6.067   6.455   2.337
 1989TIP3    H2 5932   6.184   6.543   2.374
 1990TIP3   OH2 5933   1.992   5.471   4.152
 1990TIP3    H1 5934   2.030   5.405   4.095
 1990TIP3    H2 5935   2.026   5.452   4.239
 1991TIP3   OH2 5936   4.643   1.262   4.780
 1991TIP3    H1 5937   4.596   1.236   4.701
 1991TIP3    H2 5938   4.577   1.264   4.849
 1992TIP3   OH2 5939   5.953   5.760   2.182
 1992TIP3    H1 5940   5.920   5.735   2.096
 1992TIP3    H2 5941   5.875   5.764   2.237
 1993TIP3   OH2 5942   0.431   4.299   1.310
 1993TIP3    H1 5943   0.505   4.279   1.253
 1993TIP3    H2 5944   0.449   4.252   1.391
 1994TIP3   OH2 5945   0.880   0.502   1.749
 1994TIP3    H1 5946   0.896   0.527   1.658
 1994TIP3    H2 5947   0.965   0.505   1.791
 1995TIP3   OH2 5948   5.613   5.743   4.362
 1995TIP3    H1 5949   5.562   5.743   4.281
 1995TIP3    H2 5950   5.573   5.673   4.415
 1996TIP3   OH2 5951   5.828   0.400   0.165
 1996TIP3    H1 5952   5.784   0.436   0.243
 1996TIP3    H2 5953   5.921   0.411   0.183
 1997TIP3   OH2 5954   0.987   6.192   2.865
 1997TIP3    H1 5955   0.892   6.192   2.850
 1997TIP3    H2 5956   1.014   6.103   2.843
 1998TIP3   OH2 5957   0.770   4.437   5.177
 1998TIP3    H1 5958   0.855   4.442   5.221
 1998TIP3    H2 5959   0.764   4.517   5.126
 1999TIP3   OH2 5960   3.751   1.999   0.617
 1999TIP3    H1 5961   3.839   2.029   0.598
 1999TIP3    H2 5962   3.750   1.986   0.712
 2000TIP3   OH2 5963   6.016   5.724   0.159
 2000TIP3    H1 5964   5.968   5.795   0.201
 2000TIP3    H2 5965   5.948   5.663   0.131
 2001TIP3   OH2 5966   1.579   2.835   3.253
 2001TIP3    H1 5967   1.622   2.793   3.179
 2001TIP3    H2 5968   1.564   2.764   3.316
 2002TIP3   OH2 5969   4.726   0.056   1.858
 2002TIP3    H1 5970   4.730   0.136   1.910
 2002TIP3    H2 5971   4.816   0.023   1.857
 2003TIP3   OH2 5972   3.880   0.416   5.733
 2003TIP3    H1 5973   3.915   0.382   5.815
 2003TIP3    H2 5974   3.930   0.496   5.716
 2004TIP3   OH2 5975   4.362   3.628   3.934
 2004TIP3    H1 5976   4.408   3.612   4.017
 2004TIP3    H2 5977   4.270   3.611   3.953
 2005TIP3   OH2 5978   4.508   4.969   1.784
 2005TIP3    H1 5979   4.539   4.971   1.875
 2005TIP3    H2 5980   4.413   4.976   1.792
 2006TIP3   OH2 5981   0.438   4.758   0.511
 2006TIP3    H1 5982   0.380   4.815   0.562
 2006TIP3    H2 5983   0.471   4.814   0.441
 2007TIP3   OH2 5984   0.431   3.207   3.200
 2007TIP3    H1 5985   0.395   3.273   3.260
 2007TIP3    H2 5986   0.518   3.187   3.235
 2008TIP3   OH2 5987   2.102   4.999   3.864
 2008TIP3    H1 5988   2.167   4.944   3.822
 2008TIP3    H2 5989   2.052   5.038   3.792
 2009TIP3   OH2 5990   1.427   0.511   1.529
 2009TIP3    H1 5991   1.452   0.565   1.604
 2009TIP3    H2 5992   1.418   0.574   1.457
 2010TIP3   OH2 5993   2.215   6.110   2.341
 2010TIP3    H1 5994   2.276   6.182   2.323
 2010TIP3    H2 5995   2.270   6.041   2.379
 2011TIP3   OH2 5996   3.374   4.777   4.108
 2011TIP3    H1 5997   3.385   4.868   4.082
 2011TIP3    H2 5998   3.392   4.777   4.202
 2012TIP3   OH2 5999   1.199   0.868   4.626
 2012TIP3    H1 6000   1.127   0.829   4.576
 2012TIP3    H2 6001   1.251   0.915   4.561
 2013TIP3   OH2 6002   1.385   5.852   2.755
 2013TIP3    H1 6003   1.356   5.915   2.690
 2013TIP3    H2 6004   1.403   5.904   2.833
 2014TIP3   OH2 6005   2.942   1.229   3.185
 2014TIP3    H1 6006   2.979   1.279   3.257
 2014TIP3    H2 6007   2.857   1.270   3.168
 2015TIP3   OH2 6008   5.982   5.071   1.394
 2015TIP3    H1 6009   6.063   5.122   1.401
 2015TIP3    H2 6010   5.914   5.130   1.427
 2016TIP3   OH2 6011   3.209   2.214   0.206
 2016TIP3    H1 6012   3.147   2.224   0.279
 2016TIP3    H2 6013   3.264   2.140   0.232
 2017TIP3   OH2 6014   6.446   0.740   3.803
 2017TIP3    H1 6015   6.459   0.657   3.756
 2017TIP3    H2 6016   6.443   0.806   3.734
 2018TIP3   OH2 6017   1.260   4.104   3.570
 2018TIP3    H1 6018   1.290   4.172   3.510
 2018TIP3    H2 6019   1.331   4.040   3.573
 2019TIP3   OH2 6020   0.177   1.279   4.728
 2019TIP3    H1 6021   0.085   1.267   4.701
 2019TIP3    H2 6022   0.214   1.333   4.658
 2020TIP3   OH2 6023   3.165   1.090   3.568
 2020TIP3    H1 6024   3.234   1.042   3.523
 2020TIP3    H2 6025   3.194   1.097   3.659
 2021TIP3   OH2 6026   5.039   6.314   0.845
 2021TIP3    H1 6027   4.966   6.252   0.838
 2021TIP3    H2 6028   5.019   6.381   0.779
 2022TIP3   OH2 6029   4.630   3.251   0.467
 2022TIP3    H1 6030   4.721   3.232   0.490
 2022TIP3    H2 6031   4.588   3.165   0.461
 2023TIP3   OH2 6032   0.449   6.750   0.874
 2023TIP3    H1 6033   0.501   6.673   0.897
 2023TIP3    H2 6034   0.430   6.792   0.958
 2024TIP3   OH2 6035   3.926   6.313   3.310
 2024TIP3    H1 6036   3.868   6.329   3.385
 2024TIP3    H2 6037   3.867   6.294   3.237
 2025TIP3   OH2 6038   5.804   0.147   0.083
 2025TIP3    H1 6039   5.717   0.154   0.045
 2025TIP3    H2 6040   5.826   0.235   0.113
 2026TIP3   OH2 6041   5.581   6.165   1.900
 2026TIP3    H1 6042   5.615   6.099   1.960
 2026TIP3    H2 6043   5.655   6.223   1.883
 2027TIP3   OH2 6044   3.110   3.311   2.549
 2027TIP3    H1 6045   3.156   3.348   2.624
 2027TIP3    H2 6046   3.138   3.365   2.475
 2028TIP3   OH2 6047   3.933   3.932   4.505
 2028TIP3    H1 6048   3.870   3.969   4.442
 2028TIP3    H2 6049   3.930   3.992   4.579
 2029TIP3   OH2 6050   3.185   1.423   4.387
 2029TIP3    H1 6051   3.256   1.469   4.342
 2029TIP3    H2 6052   3.106   1.451   4.341
 2030TIP3   OH2 6053   4.727   1.749   1.611
 2030TIP3    H1 6054   4.646   1.699   1.625
 2030TIP3    H2 6055   4.702   1.816   1.547
 2031TIP3   OH2 6056   1.501   0.756   2.529
 2031TIP3    H1 6057   1.462   0.825   2.584
 2031TIP3    H2 6058   1.502   0.793   2.441
 2032TIP3   OH2 6059   4.690   5.922   3.298
 2032TIP3    H1 6060   4.752   5.942   3.228
 2032TIP3    H2 6061   4.679   5.827   3.295
 2033TIP3   OH2 6062   0.334   4.200   4.271
 2033TIP3    H1 6063   0.242   4.222   4.261
 2033TIP3    H2 6064   0.334   4.123   4.329
 2034TIP3   OH2 6065   0.752   6.136   5.638
 2034TIP3    H1 6066   0.708   6.097   5.563
 2034TIP3    H2 6067   0.689   6.128   5.710
 2035TIP3   OH2 6068   1.265   3.220   1.866
 2035TIP3    H1 6069   1.317   3.157   1.916
 2035TIP3    H2 6070   1.296   3.211   1.776
 2036TIP3   OH2 6071   0.743   1.336   3.272
 2036TIP3    H1 6072   0.786   1.251   3.259
 2036TIP3    H2 6073   0.779   1.392   3.203
 2037TIP3   OH2 6074   2.575   5.634   1.143
 2037TIP3    H1 6075   2.514   5.562   1.152
 2037TIP3    H2 6076   2.574   5.677   1.229
 2038TIP3   OH2 6077   6.424   1.042   4.961
 2038TIP3    H1 6078   6.443   1.084   4.877
 2038TIP3    H2 6079   6.509   1.033   5.003
 2039TIP3   OH2 6080   5.531   0.953   5.589
 2039TIP3    H1 6081   5.514   0.989   5.501
 2039TIP3    H2 6082   5.471   1.001   5.646
 2040TIP3   OH2 6083   0.869   2.631   3.817
 2040TIP3    H1 6084   0.925   2.557   3.842
 2040TIP3    H2 6085   0.842   2.611   3.728
 2041TIP3   OH2 6086   6.278   6.255   1.422
 2041TIP3    H1 6087   6.345   6.319   1.449
 2041TIP3    H2 6088   6.318   6.207   1.350
 2042TIP3   OH2 6089   3.435   6.374   2.572
 2042TIP3    H1 6090   3.486   6.295   2.587
 2042TIP3    H2 6091   3.493   6.446   2.597
 2043TIP3   OH2 6092   1.232   4.919   2.577
 2043TIP3    H1 6093   1.161   4.936   2.639
 2043TIP3    H2 6094   1.198   4.850   2.521
 2044TIP3   OH2 6095   0.955   2.674   1.556
 2044TIP3    H1 6096   0.972   2.617   1.631
 2044TIP3    H2 6097   1.029   2.734   1.555
 2045TIP3   OH2 6098   1.471   4.926   0.572
 2045TIP3    H1 6099   1.451   4.999   0.630
 2045TIP3    H2 6100   1.435   4.952   0.487
 2046TIP3   OH2 6101   6.015   0.098   1.848
 2046TIP3    H1 6102   5.991   0.180   1.805
 2046TIP3    H2 6103   6.106   0.111   1.876
 2047TIP3   OH2 6104   2.042   5.987   3.685
 2047TIP3    H1 6105   1.980   5.995   3.613
 2047TIP3    H2 6106   1.996   6.021   3.761
 2048TIP3   OH2 6107   1.772   5.999   2.014
 2048TIP3    H1 6108   1.848   6.032   2.063
 2048TIP3    H2 6109   1.722   5.948   2.078
 2049TIP3   OH2 6110   4.076   0.712   0.067
 2049TIP3    H1 6111   3.992   0.675   0.041
 2049TIP3    H2 6112   4.134   0.695  -0.007
 2050TIP3   OH2 6113   5.319   1.173   2.048
 2050TIP3    H1 6114   5.270   1.182   2.130
 2050TIP3    H2 6115   5.290   1.089   2.012
 2051TIP3   OH2 6116   0.566   0.880   1.808
 2051TIP3    H1 6117   0.580   0.922   1.893
 2051TIP3    H2 6118   0.471   0.873   1.800
 2052TIP3   OH2 6119   0.922   1.194   2.985
 2052TIP3    H1 6120   0.983   1.197   3.059
 2052TIP3    H2 6121   0.884   1.282   2.982
 2053TIP3   OH2 6122   1.952   0.243   2.750
 2053TIP3    H1 6123   1.911   0.325   2.721
 2053TIP3    H2 6124   1.901   0.217   2.827
 2054TIP3   OH2 6125   5.783   1.952   1.258
 2054TIP3    H1 6126   5.853   1.917   1.202
 2054TIP3    H2 6127   5.807   1.926   1.346
 2055TIP3   OH2 6128   5.777   0.640   0.355
 2055TIP3    H1 6129   5.714   0.695   0.308
 2055TIP3    H2 6130   5.859   0.687   0.348
 2056TIP3   OH2 6131   2.343   4.354   5.636
 2056TIP3    H1 6132   2.355   4.345   5.542
 2056TIP3    H2 6133   2.423   4.395   5.667
 2057TIP3   OH2 6134   3.161   6.730   0.966
 2057TIP3    H1 6135   3.098   6.658   0.970
 2057TIP3    H2 6136   3.164   6.755   0.874
 2058TIP3   OH2 6137   3.092   2.971   1.592
 2058TIP3    H1 6138   3.134   3.057   1.580
 2058TIP3    H2 6139   3.000   2.992   1.608
 2059TIP3   OH2 6140   2.253   3.372   2.326
 2059TIP3    H1 6141   2.290   3.297   2.279
 2059TIP3    H2 6142   2.161   3.373   2.300
 2060TIP3   OH2 6143   2.456   6.627   3.417
 2060TIP3    H1 6144   2.436   6.538   3.448
 2060TIP3    H2 6145   2.434   6.683   3.491
 2061TIP3   OH2 6146   6.134   5.388   5.865
 2061TIP3    H1 6147   6.082   5.313   5.836
 2061TIP3    H2 6148   6.077   5.434   5.927
 2062TIP3   OH2 6149   1.293   0.690   4.821
 2062TIP3    H1 6150   1.336   0.627   4.762
 2062TIP3    H2 6151   1.279   0.767   4.767
 2063TIP3   OH2 6152   1.009   3.995   3.616
 2063TIP3    H1 6153   0.948   4.065   3.595
 2063TIP3    H2 6154   1.094   4.037   3.625
 2064TIP3   OH2 6155   6.758   2.993   3.135
 2064TIP3    H1 6156   6.830   3.003   3.073
 2064TIP3    H2 6157   6.798   3.008   3.221
 2065TIP3   OH2 6158   5.540   0.106   5.775
 2065TIP3    H1 6159   5.501   0.033   5.727
 2065TIP3    H2 6160   5.615   0.067   5.820
 2066TIP3   OH2 6161   6.959   4.726   1.609
 2066TIP3    H1 6162   6.969   4.707   1.702
 2066TIP3    H2 6163   7.005   4.656   1.565
 2067TIP3   OH2 6164   3.806   6.491   3.977
 2067TIP3    H1 6165   3.756   6.456   3.903
 2067TIP3    H2 6166   3.752   6.562   4.011
 2068TIP3   OH2 6167   6.221   5.150   1.613
 2068TIP3    H1 6168   6.158   5.222   1.606
 2068TIP3    H2 6169   6.187   5.096   1.685
 2069TIP3   OH2 6170   6.180   0.626   3.646
 2069TIP3    H1 6171   6.135   0.709   3.660
 2069TIP3    H2 6172   6.259   0.649   3.597
 2070TIP3   OH2 6173   1.596   5.076   4.225
 2070TIP3    H1 6174   1.653   5.126   4.283
 2070TIP3    H2 6175   1.569   5.001   4.278
 2071TIP3   OH2 6176   4.746   0.774   1.188
 2071TIP3    H1 6177   4.744   0.717   1.111
 2071TIP3    H2 6178   4.837   0.772   1.217
 2072TIP3   OH2 6179   2.455   0.516   5.339
 2072TIP3    H1 6180   2.462   0.611   5.349
 2072TIP3    H2 6181   2.544   0.487   5.317
 2073TIP3   OH2 6182   5.704   1.647   1.913
 2073TIP3    H1 6183   5.666   1.605   1.836
 2073TIP3    H2 6184   5.750   1.577   1.959
 2074TIP3   OH2 6185   1.794  -0.007   2.302
 2074TIP3    H1 6186   1.802   0.057   2.232
 2074TIP3    H2 6187   1.767   0.044   2.379
 2075TIP3   OH2 6188   0.434   4.015   3.953
 2075TIP3    H1 6189   0.460   4.106   3.945
 2075TIP3    H2 6190   0.344   4.013   3.921
 2076TIP3   OH2 6191   1.491   2.200   4.247
 2076TIP3    H1 6192   1.528   2.114   4.266
 2076TIP3    H2 6193   1.464   2.193   4.155
 2077TIP3   OH2 6194   4.233   2.353   1.131
 2077TIP3    H1 6195   4.236   2.257   1.124
 2077TIP3    H2 6196   4.313   2.376   1.177
 2078TIP3   OH2 6197   3.395   5.170   5.676
 2078TIP3    H1 6198   3.458   5.100   5.662
 2078TIP3    H2 6199   3.445   5.251   5.665
 2079TIP3   OH2 6200   4.740   2.195   3.858
 2079TIP3    H1 6201   4.728   2.265   3.922
 2079TIP3    H2 6202   4.664   2.204   3.799
 2080TIP3   OH2 6203   3.121   2.900   0.466
 2080TIP3    H1 6204   3.214   2.910   0.443
 2080TIP3    H2 6205   3.122   2.847   0.546
 2081TIP3   OH2 6206   5.868   2.997   5.370
 2081TIP3    H1 6207   5.818   3.012   5.451
 2081TIP3    H2 6208   5.894   3.085   5.342
 2082TIP3   OH2 6209   5.770   1.442   0.342
 2082TIP3    H1 6210   5.704   1.503   0.311
 2082TIP3    H2 6211   5.723   1.387   0.405
 2083TIP3   OH2 6212   3.068   5.291   3.815
 2083TIP3    H1 6213   3.049   5.225   3.748
 2083TIP3    H2 6214   2.983   5.310   3.855
 2084TIP3   OH2 6215   4.449   2.947   3.056
 2084TIP3    H1 6216   4.532   2.942   3.104
 2084TIP3    H2 6217   4.420   3.038   3.069
 2085TIP3   OH2 6218   3.983   3.691   0.382
 2085TIP3    H1 6219   3.950   3.620   0.437
 2085TIP3    H2 6220   3.914   3.758   0.386
 2086TIP3   OH2 6221   0.625   3.284   0.054
 2086TIP3    H1 6222   0.663   3.253   0.136
 2086TIP3    H2 6223   0.581   3.366   0.077
 2087TIP3   OH2 6224   3.455   0.755   2.061
 2087TIP3    H1 6225   3.463   0.729   2.152
 2087TIP3    H2 6226   3.529   0.713   2.017
 2088TIP3   OH2 6227   1.761   2.931   5.268
 2088TIP3    H1 6228   1.800   2.847   5.292
 2088TIP3    H2 6229   1.671   2.909   5.243
 2089TIP3   OH2 6230   2.240   1.197   5.315
 2089TIP3    H1 6231   2.261   1.286   5.341
 2089TIP3    H2 6232   2.282   1.186   5.230
 2090TIP3   OH2 6233   2.431   6.214   5.599
 2090TIP3    H1 6234   2.389   6.266   5.668
 2090TIP3    H2 6235   2.463   6.136   5.645
 2091TIP3   OH2 6236   4.280   0.727   5.095
 2091TIP3    H1 6237   4.202   0.755   5.143
 2091TIP3    H2 6238   4.247   0.690   5.013
 2092TIP3   OH2 6239   4.030   0.551   1.838
 2092TIP3    H1 6240   4.106   0.580   1.787
 2092TIP3    H2 6241   3.955   0.589   1.791
 2093TIP3   OH2 6242   6.952   4.322   0.167
 2093TIP3    H1 6243   6.880   4.339   0.228
 2093TIP3    H2 6244   7.031   4.348   0.214
 2094TIP3   OH2 6245   4.547   6.464   0.687
 2094TIP3    H1 6246   4.452   6.456   0.676
 2094TIP3    H2 6247   4.583   6.386   0.646
 2095TIP3   OH2 6248   1.495   1.905   4.819
 2095TIP3    H1 6249   1.574   1.926   4.769
 2095TIP3    H2 6250   1.514   1.819   4.857
 2096TIP3   OH2 6251   3.396   3.809   0.243
 2096TIP3    H1 6252   3.332   3.745   0.212
 2096TIP3    H2 6253   3.479   3.781   0.204
 2097TIP3   OH2 6254   4.176   6.058   3.103
 2097TIP3    H1 6255   4.118   6.041   3.028
 2097TIP3    H2 6256   4.262   6.027   3.074
 2098TIP3   OH2 6257   4.696   2.814   1.626
 2098TIP3    H1 6258   4.693   2.775   1.539
 2098TIP3    H2 6259   4.775   2.776   1.666
 2099TIP3   OH2 6260   5.574   0.311   3.264
 2099TIP3    H1 6261   5.533   0.235   3.224
 2099TIP3    H2 6262   5.631   0.347   3.197
 2100TIP3   OH2 6263   0.654   1.782   0.696
 2100TIP3    H1 6264   0.743   1.754   0.718
 2100TIP3    H2 6265   0.641   1.750   0.607
 2101TIP3   OH2 6266   5.805   4.031   0.954
 2101TIP3    H1 6267   5.876   3.970   0.970
 2101TIP3    H2 6268   5.737   3.978   0.913
 2102TIP3   OH2 6269   5.157   3.291   4.330
 2102TIP3    H1 6270   5.135   3.198   4.319
 2102TIP3    H2 6271   5.075   3.331   4.359
 2103TIP3   OH2 6272   3.499   2.580   0.074
 2103TIP3    H1 6273   3.459   2.550  -0.008
 2103TIP3    H2 6274   3.545   2.661   0.050
 2104TIP3   OH2 6275   0.365   2.376   3.702
 2104TIP3    H1 6276   0.369   2.455   3.648
 2104TIP3    H2 6277   0.455   2.364   3.733
 2105TIP3   OH2 6278   4.903   2.488   4.555
 2105TIP3    H1 6279   4.980   2.446   4.517
 2105TIP3    H2 6280   4.938   2.568   4.595
 2106TIP3   OH2 6281   2.671   6.317   2.960
 2106TIP3    H1 6282   2.606   6.285   3.023
 2106TIP3    H2 6283   2.748   6.336   3.013
 2107TIP3   OH2 6284   4.285   1.436   2.888
 2107TIP3    H1 6285   4.236   1.519   2.886
 2107TIP3    H2 6286   4.246   1.384   2.818
 2108TIP3   OH2 6287   0.142   1.950   1.646
 2108TIP3    H1 6288   0.185   2.035   1.654
 2108TIP3    H2 6289   0.091   1.941   1.726
 2109TIP3   OH2 6290   5.198   4.191   2.221
 2109TIP3    H1 6291   5.158   4.129   2.160
 2109TIP3    H2 6292   5.212   4.139   2.301
 2110TIP3   OH2 6293   2.970   5.966   2.824
 2110TIP3    H1 6294   2.883   5.930   2.842
 2110TIP3    H2 6295   2.998   5.922   2.744
 2111TIP3   OH2 6296   6.218   4.502   5.365
 2111TIP3    H1 6297   6.243   4.549   5.445
 2111TIP3    H2 6298   6.301   4.468   5.331
 2112TIP3   OH2 6299   6.203   6.630   3.220
 2112TIP3    H1 6300   6.202   6.611   3.126
 2112TIP3    H2 6301   6.266   6.567   3.256
 2113TIP3   OH2 6302   1.827   2.776   1.740
 2113TIP3    H1 6303   1.902   2.725   1.709
 2113TIP3    H2 6304   1.804   2.832   1.666
 2114TIP3   OH2 6305   0.022   4.725   1.530
 2114TIP3    H1 6306   0.059   4.654   1.582
 2114TIP3    H2 6307   0.003   4.794   1.593
 2115TIP3   OH2 6308   5.567   5.493   3.378
 2115TIP3    H1 6309   5.620   5.506   3.457
 2115TIP3    H2 6310   5.488   5.449   3.410
 2116TIP3   OH2 6311   3.414   4.011   1.670
 2116TIP3    H1 6312   3.333   4.017   1.720
 2116TIP3    H2 6313   3.401   3.936   1.612
 2117TIP3   OH2 6314   2.483   6.349   0.330
 2117TIP3    H1 6315   2.546   6.348   0.402
 2117TIP3    H2 6316   2.528   6.307   0.257
 2118TIP3   OH2 6317   0.142   6.038   3.157
 2118TIP3    H1 6318   0.214   6.091   3.191
 2118TIP3    H2 6319   0.063   6.081   3.189
 2119TIP3   OH2 6320   6.370   5.033   2.143
 2119TIP3    H1 6321   6.405   4.995   2.063
 2119TIP3    H2 6322   6.447   5.060   2.193
 2120TIP3   OH2 6323   2.104   4.306   4.715
 2120TIP3    H1 6324   2.184   4.339   4.755
 2120TIP3    H2 6325   2.131   4.225   4.671
 2121TIP3   OH2 6326   0.473   3.029   1.098
 2121TIP3    H1 6327   0.562   3.043   1.132
 2121TIP3    H2 6328   0.454   2.937   1.117
 2122TIP3   OH2 6329   4.480   4.405   1.527
 2122TIP3    H1 6330   4.557   4.348   1.532
 2122TIP3    H2 6331   4.453   4.400   1.436
 2123TIP3   OH2 6332   2.077   6.600   5.159
 2123TIP3    H1 6333   2.070   6.685   5.116
 2123TIP3    H2 6334   2.033   6.611   5.243
 2124TIP3   OH2 6335   5.131   0.860   0.050
 2124TIP3    H1 6336   5.076   0.828  -0.022
 2124TIP3    H2 6337   5.162   0.781   0.094
 2125TIP3   OH2 6338   6.383   2.004   3.190
 2125TIP3    H1 6339   6.465   2.001   3.141
 2125TIP3    H2 6340   6.377   1.919   3.233
 2126TIP3   OH2 6341   6.065   5.143   2.476
 2126TIP3    H1 6342   6.117   5.188   2.542
 2126TIP3    H2 6343   6.060   5.205   2.403
 2127TIP3   OH2 6344   1.726   4.885   1.483
 2127TIP3    H1 6345   1.789   4.844   1.544
 2127TIP3    H2 6346   1.640   4.859   1.517
 2128TIP3   OH2 6347   4.741   1.387   2.537
 2128TIP3    H1 6348   4.716   1.343   2.619
 2128TIP3    H2 6349   4.671   1.365   2.476
 2129TIP3   OH2 6350   5.013   5.174   0.664
 2129TIP3    H1 6351   5.023   5.210   0.576
 2129TIP3    H2 6352   5.080   5.106   0.670
 2130TIP3   OH2 6353   0.317   3.595   3.598
 2130TIP3    H1 6354   0.346   3.528   3.659
 2130TIP3    H2 6355   0.261   3.652   3.650
 2131TIP3   OH2 6356   0.226   1.921   2.394
 2131TIP3    H1 6357   0.223   1.944   2.302
 2131TIP3    H2 6358   0.140   1.947   2.429
 2132TIP3   OH2 6359   3.722   4.457   5.643
 2132TIP3    H1 6360   3.628   4.452   5.658
 2132TIP3    H2 6361   3.756   4.372   5.671
 2133TIP3   OH2 6362   3.842   1.968   5.721
 2133TIP3    H1 6363   3.882   1.926   5.797
 2133TIP3    H2 6364   3.759   2.003   5.753
 2134TIP3   OH2 6365   2.194   4.276   0.927
 2134TIP3    H1 6366   2.232   4.228   0.854
 2134TIP3    H2 6367   2.100   4.257   0.922
 2135TIP3   OH2 6368   1.641   2.881   1.131
 2135TIP3    H1 6369   1.593   2.958   1.100
 2135TIP3    H2 6370   1.714   2.917   1.182
 2136TIP3   OH2 6371   0.772   6.718   2.564
 2136TIP3    H1 6372   0.735   6.646   2.615
 2136TIP3    H2 6373   0.720   6.795   2.591
 2137TIP3   OH2 6374   2.742   3.222   2.210
 2137TIP3    H1 6375   2.714   3.143   2.163
 2137TIP3    H2 6376   2.801   3.189   2.278
 2138TIP3   OH2 6377   4.276   0.968   2.894
 2138TIP3    H1 6378   4.318   1.034   2.949
 2138TIP3    H2 6379   4.342   0.949   2.826
 2139TIP3   OH2 6380   4.715   4.583   0.018
 2139TIP3    H1 6381   4.636   4.625  -0.016
 2139TIP3    H2 6382   4.776   4.583  -0.057
 2140TIP3   OH2 6383   5.026   4.664   1.426
 2140TIP3    H1 6384   5.051   4.577   1.459
 2140TIP3    H2 6385   5.097   4.688   1.366
 2141TIP3   OH2 6386   4.939   3.276   1.444
 2141TIP3    H1 6387   4.853   3.238   1.464
 2141TIP3    H2 6388   4.974   3.220   1.375
 2142TIP3   OH2 6389   2.501   4.846   2.029
 2142TIP3    H1 6390   2.543   4.792   2.095
 2142TIP3    H2 6391   2.411   4.858   2.060
 2143TIP3   OH2 6392   1.394   0.778   0.439
 2143TIP3    H1 6393   1.317   0.834   0.452
 2143TIP3    H2 6394   1.358   0.690   0.434
 2144TIP3   OH2 6395   6.866   3.147   3.391
 2144TIP3    H1 6396   6.791   3.201   3.367
 2144TIP3    H2 6397   6.932   3.209   3.422
 2145TIP3   OH2 6398   2.181   0.475   0.290
 2145TIP3    H1 6399   2.129   0.401   0.323
 2145TIP3    H2 6400   2.123   0.550   0.297
 2146TIP3   OH2 6401   3.439   2.334   1.162
 2146TIP3    H1 6402   3.461   2.295   1.078
 2146TIP3    H2 6403   3.387   2.411   1.140
 2147TIP3   OH2 6404   4.361   6.408   5.684
 2147TIP3    H1 6405   4.307   6.329   5.686
 2147TIP3    H2 6406   4.445   6.378   5.648
 2148TIP3   OH2 6407   1.944   0.430   3.559
 2148TIP3    H1 6408   1.955   0.362   3.626
 2148TIP3    H2 6409   1.949   0.383   3.476
 2149TIP3   OH2 6410   6.079   0.298   4.670
 2149TIP3    H1 6411   6.072   0.229   4.736
 2149TIP3    H2 6412   6.115   0.254   4.593
 2150TIP3   OH2 6413   0.870   3.985   4.843
 2150TIP3    H1 6414   0.903   3.896   4.833
 2150TIP3    H2 6415   0.889   4.026   4.759
 2151TIP3   OH2 6416   4.929   1.907   2.146
 2151TIP3    H1 6417   4.884   1.932   2.065
 2151TIP3    H2 6418   4.914   1.980   2.206
 2152TIP3   OH2 6419   4.256   0.690   1.705
 2152TIP3    H1 6420   4.333   0.697   1.650
 2152TIP3    H2 6421   4.276   0.742   1.783
 2153TIP3   OH2 6422   3.848   3.034   4.667
 2153TIP3    H1 6423   3.846   2.943   4.639
 2153TIP3    H2 6424   3.757   3.062   4.664
 2154TIP3   OH2 6425   5.767   3.650   3.202
 2154TIP3    H1 6426   5.818   3.570   3.217
 2154TIP3    H2 6427   5.676   3.621   3.207
 2155TIP3   OH2 6428   2.906   4.722   5.262
 2155TIP3    H1 6429   2.979   4.715   5.324
 2155TIP3    H2 6430   2.928   4.797   5.207
 2156TIP3   OH2 6431   6.297   1.835   1.134
 2156TIP3    H1 6432   6.271   1.926   1.120
 2156TIP3    H2 6433   6.333   1.834   1.223
 2157TIP3   OH2 6434   3.556   2.732   4.909
 2157TIP3    H1 6435   3.498   2.691   4.973
 2157TIP3    H2 6436   3.497   2.768   4.843
 2158TIP3   OH2 6437   2.535   2.088   3.976
 2158TIP3    H1 6438   2.612   2.057   3.928
 2158TIP3    H2 6439   2.570   2.122   4.058
 2159TIP3   OH2 6440   6.999   6.106   2.226
 2159TIP3    H1 6441   7.038   6.021   2.206
 2159TIP3    H2 6442   7.067   6.170   2.201
 2160TIP3   OH2 6443   6.664   2.714   4.095
 2160TIP3    H1 6444   6.698   2.644   4.152
 2160TIP3    H2 6445   6.576   2.686   4.072
 2161TIP3   OH2 6446   6.608   6.198   0.795
 2161TIP3    H1 6447   6.533   6.236   0.750
 2161TIP3    H2 6448   6.619   6.251   0.873
 2162TIP3   OH2 6449   2.576   1.837   4.921
 2162TIP3    H1 6450   2.659   1.851   4.967
 2162TIP3    H2 6451   2.535   1.764   4.968
 2163TIP3   OH2 6452   6.210   3.910   0.968
 2163TIP3    H1 6453   6.210   3.839   0.903
 2163TIP3    H2 6454   6.212   3.990   0.917
 2164TIP3   OH2 6455   0.827   5.237   2.317
 2164TIP3    H1 6456   0.784   5.229   2.232
 2164TIP3    H2 6457   0.878   5.156   2.324
 2165TIP3   OH2 6458   4.763   4.757   4.783
 2165TIP3    H1 6459   4.705   4.833   4.788
 2165TIP3    H2 6460   4.799   4.749   4.871
 2166TIP3   OH2 6461   2.873   3.592   3.624
 2166TIP3    H1 6462   2.872   3.517   3.564
 2166TIP3    H2 6463   2.905   3.556   3.706
 2167TIP3   OH2 6464   3.020   2.580   4.374
 2167TIP3    H1 6465   2.972   2.574   4.291
 2167TIP3    H2 6466   3.105   2.616   4.350
 2168TIP3   OH2 6467   5.598   1.191   1.438
 2168TIP3    H1 6468   5.626   1.213   1.349
 2168TIP3    H2 6469   5.663   1.232   1.495
 2169TIP3   OH2 6470   2.589   2.762   4.852
 2169TIP3    H1 6471   2.520   2.828   4.841
 2169TIP3    H2 6472   2.610   2.733   4.763
 2170TIP3   OH2 6473   3.630   4.021   2.616
 2170TIP3    H1 6474   3.715   4.060   2.594
 2170TIP3    H2 6475   3.585   4.013   2.532
 2171TIP3   OH2 6476   6.781   0.668   4.186
 2171TIP3    H1 6477   6.691   0.677   4.154
 2171TIP3    H2 6478   6.783   0.723   4.265
 2172TIP3   OH2 6479   1.755   1.831   2.183
 2172TIP3    H1 6480   1.704   1.900   2.141
 2172TIP3    H2 6481   1.788   1.777   2.111
 2173TIP3   OH2 6482   7.066   5.406   3.499
 2173TIP3    H1 6483   7.045   5.313   3.493
 2173TIP3    H2 6484   6.985   5.451   3.474
 2174TIP3   OH2 6485   3.444   4.659   0.083
 2174TIP3    H1 6486   3.507   4.611   0.136
 2174TIP3    H2 6487   3.435   4.744   0.126
 2175TIP3   OH2 6488   3.849   0.323   1.253
 2175TIP3    H1 6489   3.805   0.248   1.292
 2175TIP3    H2 6490   3.791   0.352   1.183
 2176TIP3   OH2 6491   0.965   0.597   1.478
 2176TIP3    H1 6492   1.022   0.662   1.518
 2176TIP3    H2 6493   1.014   0.565   1.402
 2177TIP3   OH2 6494   0.594   2.046   3.627
 2177TIP3    H1 6495   0.622   1.955   3.635
 2177TIP3    H2 6496   0.606   2.082   3.715
 2178TIP3   OH2 6497   4.370   0.148   2.948
 2178TIP3    H1 6498   4.288   0.179   2.910
 2178TIP3    H2 6499   4.426   0.130   2.873
 2179TIP3   OH2 6500   0.355   5.582   2.363
 2179TIP3    H1 6501   0.401   5.569   2.280
 2179TIP3    H2 6502   0.295   5.508   2.369
 2180TIP3   OH2 6503   3.531   1.013   4.211
 2180TIP3    H1 6504   3.584   0.934   4.221
 2180TIP3    H2 6505   3.445   0.990   4.246
 2181TIP3   OH2 6506   1.345   1.263   3.815
 2181TIP3    H1 6507   1.349   1.262   3.720
 2181TIP3    H2 6508   1.435   1.280   3.843
 2182TIP3   OH2 6509   3.699   1.129   3.998
 2182TIP3    H1 6510   3.617   1.101   4.040
 2182TIP3    H2 6511   3.766   1.071   4.036
 2183TIP3   OH2 6512   5.104   0.701   4.103
 2183TIP3    H1 6513   5.107   0.618   4.056
 2183TIP3    H2 6514   5.023   0.697   4.154
 2184TIP3   OH2 6515   0.567   2.575   0.463
 2184TIP3    H1 6516   0.650   2.623   0.462
 2184TIP3    H2 6517   0.557   2.546   0.553
 2185TIP3   OH2 6518   5.929   4.310   0.041
 2185TIP3    H1 6519   5.992   4.300   0.112
 2185TIP3    H2 6520   5.872   4.233   0.048
 2186TIP3   OH2 6521   5.138   5.990   2.259
 2186TIP3    H1 6522   5.186   5.947   2.330
 2186TIP3    H2 6523   5.179   6.076   2.251
 2187TIP3   OH2 6524   2.138   1.095   0.549
 2187TIP3    H1 6525   2.102   1.006   0.549
 2187TIP3    H2 6526   2.065   1.151   0.522
 2188TIP3   OH2 6527   6.344   3.733   0.717
 2188TIP3    H1 6528   6.305   3.687   0.791
 2188TIP3    H2 6529   6.429   3.763   0.750
 2189TIP3   OH2 6530   4.878   5.462   3.411
 2189TIP3    H1 6531   4.937   5.414   3.353
 2189TIP3    H2 6532   4.815   5.396   3.440
 2190TIP3   OH2 6533   5.130   6.537   3.987
 2190TIP3    H1 6534   5.073   6.485   4.042
 2190TIP3    H2 6535   5.203   6.479   3.965
 2191TIP3   OH2 6536   0.992   4.568   0.708
 2191TIP3    H1 6537   0.993   4.551   0.614
 2191TIP3    H2 6538   0.903   4.547   0.736
 2192TIP3   OH2 6539   7.149   3.008   1.115
 2192TIP3    H1 6540   7.152   3.044   1.203
 2192TIP3    H2 6541   7.240   3.009   1.086
 2193TIP3   OH2 6542   6.496   2.203   2.500
 2193TIP3    H1 6543   6.402   2.217   2.484
 2193TIP3    H2 6544   6.498   2.147   2.578
 2194TIP3   OH2 6545   2.186   5.318   5.826
 2194TIP3    H1 6546   2.242   5.242   5.810
 2194TIP3    H2 6547   2.212   5.382   5.760
 2195TIP3   OH2 6548   0.899   4.727   1.843
 2195TIP3    H1 6549   0.964   4.733   1.773
 2195TIP3    H2 6550   0.938   4.773   1.917
 2196TIP3   OH2 6551   3.053   3.813   3.667
 2196TIP3    H1 6552   2.982   3.753   3.640
 2196TIP3    H2 6553   3.123   3.797   3.604
 2197TIP3   OH2 6554   5.503   3.485   5.121
 2197TIP3    H1 6555   5.535   3.507   5.033
 2197TIP3    H2 6556   5.419   3.441   5.105
 2198TIP3   OH2 6557   4.187   3.237   2.243
 2198TIP3    H1 6558   4.240   3.235   2.164
 2198TIP3    H2 6559   4.192   3.328   2.274
 2199TIP3   OH2 6560   0.646   1.165   2.226
 2199TIP3    H1 6561   0.644   1.161   2.322
 2199TIP3    H2 6562   0.689   1.248   2.206
 2200TIP3   OH2 6563   4.551   1.539   5.193
 2200TIP3    H1 6564   4.631   1.496   5.163
 2200TIP3    H2 6565   4.568   1.558   5.285
 2201TIP3   OH2 6566   3.859   3.653   2.246
 2201TIP3    H1 6567   3.845   3.726   2.306
 2201TIP3    H2 6568   3.784   3.656   2.187
 2202TIP3   OH2 6569   6.857   0.606   5.182
 2202TIP3    H1 6570   6.808   0.680   5.146
 2202TIP3    H2 6571   6.946   0.618   5.149
 2203TIP3   OH2 6572   2.806   6.368   4.712
 2203TIP3    H1 6573   2.751   6.336   4.640
 2203TIP3    H2 6574   2.759   6.444   4.746
 2204TIP3   OH2 6575   2.264   2.688   2.952
 2204TIP3    H1 6576   2.181   2.661   2.914
 2204TIP3    H2 6577   2.239   2.743   3.027
 2205TIP3   OH2 6578   3.905   2.666   1.102
 2205TIP3    H1 6579   3.825   2.618   1.121
 2205TIP3    H2 6580   3.973   2.621   1.151
 2206TIP3   OH2 6581   4.928   1.838   2.862
 2206TIP3    H1 6582   4.940   1.836   2.767
 2206TIP3    H2 6583   4.922   1.931   2.884
 2207TIP3   OH2 6584   1.558   0.241   3.517
 2207TIP3    H1 6585   1.472   0.202   3.504
 2207TIP3    H2 6586   1.610   0.207   3.444
 2208TIP3   OH2 6587   5.666   4.181   1.667
 2208TIP3    H1 6588   5.584   4.133   1.671
 2208TIP3    H2 6589   5.661   4.231   1.585
 2209TIP3   OH2 6590   5.430   1.331   5.216
 2209TIP3    H1 6591   5.477   1.269   5.159
 2209TIP3    H2 6592   5.481   1.333   5.297
 2210TIP3   OH2 6593   3.584   2.381   0.254
 2210TIP3    H1 6594   3.679   2.392   0.251
 2210TIP3    H2 6595   3.550   2.449   0.196
 2211TIP3   OH2 6596   5.319   5.596   3.937
 2211TIP3    H1 6597   5.403   5.600   3.892
 2211TIP3    H2 6598   5.327   5.519   3.995
 2212TIP3   OH2 6599   1.749   6.637   0.757
 2212TIP3    H1 6600   1.665   6.601   0.785
 2212TIP3    H2 6601   1.796   6.563   0.719
 2213TIP3   OH2 6602   6.722   4.084   4.944
 2213TIP3    H1 6603   6.764   4.008   4.985
 2213TIP3    H2 6604   6.642   4.049   4.905
 2214TIP3   OH2 6605   2.513   2.478   1.210
 2214TIP3    H1 6606   2.569   2.546   1.171
 2214TIP3    H2 6607   2.545   2.470   1.300
 2215TIP3   OH2 6608   0.503   3.852   4.180
 2215TIP3    H1 6609   0.465   3.884   4.262
 2215TIP3    H2 6610   0.446   3.888   4.112
 2216TIP3   OH2 6611   6.276   0.552   4.412
 2216TIP3    H1 6612   6.259   0.502   4.493
 2216TIP3    H2 6613   6.366   0.531   4.389
 2217TIP3   OH2 6614   6.243   2.239   4.425
 2217TIP3    H1 6615   6.220   2.198   4.509
 2217TIP3    H2 6616   6.233   2.333   4.441
 2218TIP3   OH2 6617   3.866   0.353   2.888
 2218TIP3    H1 6618   3.900   0.292   2.823
 2218TIP3    H2 6619   3.862   0.302   2.969
 2219TIP3   OH2 6620   1.647   3.821   3.768
 2219TIP3    H1 6621   1.637   3.727   3.754
 2219TIP3    H2 6622   1.739   3.839   3.748
 2220TIP3   OH2 6623   6.999   4.880   5.007
 2220TIP3    H1 6624   6.997   4.843   5.095
 2220TIP3    H2 6625   7.008   4.974   5.021
 2221TIP3   OH2 6626   4.145   5.454   2.291
 2221TIP3    H1 6627   4.129   5.502   2.372
 2221TIP3    H2 6628   4.239   5.439   2.290
 2222TIP3   OH2 6629   1.701   1.704   4.392
 2222TIP3    H1 6630   1.720   1.630   4.450
 2222TIP3    H2 6631   1.769   1.699   4.325
 2223TIP3   OH2 6632   3.988   4.780   2.632
 2223TIP3    H1 6633   3.916   4.745   2.581
 2223TIP3    H2 6634   3.951   4.855   2.678
 2224TIP3   OH2 6635   3.679   4.610   1.093
 2224TIP3    H1 6636   3.760   4.572   1.058
 2224TIP3    H2 6637   3.704   4.698   1.121
 2225TIP3   OH2 6638   0.972   3.986   4.299
 2225TIP3    H1 6639   0.978   4.062   4.241
 2225TIP3    H2 6640   1.000   3.912   4.245
 2226TIP3   OH2 6641   1.493   2.912   5.257
 2226TIP3    H1 6642   1.466   2.827   5.223
 2226TIP3    H2 6643   1.434   2.928   5.331
 2227TIP3   OH2 6644   5.238   6.210   5.701
 2227TIP3    H1 6645   5.272   6.123   5.722
 2227TIP3    H2 6646   5.179   6.232   5.773
 2228TIP3   OH2 6647   4.655   4.261   3.590
 2228TIP3    H1 6648   4.607   4.218   3.518
 2228TIP3    H2 6649   4.729   4.303   3.547
 2229TIP3   OH2 6650   3.645   4.978   2.598
 2229TIP3    H1 6651   3.629   4.886   2.579
 2229TIP3    H2 6652   3.572   5.003   2.655
 2230TIP3   OH2 6653   2.723   5.151   2.249
 2230TIP3    H1 6654   2.636   5.178   2.219
 2230TIP3    H2 6655   2.708   5.073   2.302
 2231TIP3   OH2 6656   4.106   4.871   1.453
 2231TIP3    H1 6657   4.199   4.864   1.434
 2231TIP3    H2 6658   4.078   4.781   1.471
 2232TIP3   OH2 6659   0.985   6.112   3.297
 2232TIP3    H1 6660   0.947   6.032   3.333
 2232TIP3    H2 6661   0.929   6.182   3.330
 2233TIP3   OH2 6662   2.925   6.162   5.568
 2233TIP3    H1 6663   3.008   6.167   5.521
 2233TIP3    H2 6664   2.889   6.251   5.562
 2234TIP3   OH2 6665   0.562   6.132   5.023
 2234TIP3    H1 6666   0.591   6.043   5.003
 2234TIP3    H2 6667   0.504   6.121   5.099
 2235TIP3   OH2 6668   3.228   2.267   5.596
 2235TIP3    H1 6669   3.318   2.299   5.602
 2235TIP3    H2 6670   3.179   2.321   5.658
 2236TIP3   OH2 6671   6.235   0.018   3.974
 2236TIP3    H1 6672   6.149  -0.011   3.943
 2236TIP3    H2 6673   6.267   0.076   3.904
 2237TIP3   OH2 6674   1.251   2.892   4.189
 2237TIP3    H1 6675   1.282   2.888   4.098
 2237TIP3    H2 6676   1.263   2.803   4.222
 2238TIP3   OH2 6677   0.694   4.517   0.736
 2238TIP3    H1 6678   0.645   4.599   0.744
 2238TIP3    H2 6679   0.655   4.459   0.802
 2239TIP3   OH2 6680   0.714   1.189   5.412
 2239TIP3    H1 6681   0.690   1.229   5.495
 2239TIP3    H2 6682   0.639   1.206   5.354
 2240TIP3   OH2 6683   6.510   5.287   2.829
 2240TIP3    H1 6684   6.561   5.331   2.762
 2240TIP3    H2 6685   6.431   5.256   2.784
 2241TIP3   OH2 6686   1.992   6.190   1.191
 2241TIP3    H1 6687   1.939   6.120   1.154
 2241TIP3    H2 6688   2.001   6.167   1.284
 2242TIP3   OH2 6689   1.665   4.518   1.633
 2242TIP3    H1 6690   1.737   4.477   1.585
 2242TIP3    H2 6691   1.633   4.450   1.691
 2243TIP3   OH2 6692   7.008   4.206   2.844
 2243TIP3    H1 6693   6.952   4.199   2.767
 2243TIP3    H2 6694   7.076   4.141   2.830
 2244TIP3   OH2 6695   4.830   3.251   3.602
 2244TIP3    H1 6696   4.814   3.296   3.684
 2244TIP3    H2 6697   4.781   3.300   3.537
 2245TIP3   OH2 6698   3.230   4.867   1.390
 2245TIP3    H1 6699   3.314   4.833   1.359
 2245TIP3    H2 6700   3.253   4.947   1.437
 2246TIP3   OH2 6701   2.459   5.563   2.614
 2246TIP3    H1 6702   2.485   5.651   2.639
 2246TIP3    H2 6703   2.371   5.552   2.651
 2247TIP3   OH2 6704   3.571   3.026   4.089
 2247TIP3    H1 6705   3.524   3.094   4.137
 2247TIP3    H2 6706   3.640   3.073   4.041
 2248TIP3   OH2 6707   5.567   3.442   5.481
 2248TIP3    H1 6708   5.619   3.487   5.549
 2248TIP3    H2 6709   5.556   3.353   5.515
 2249TIP3   OH2 6710   0.135   3.894   0.371
 2249TIP3    H1 6711   0.206   3.864   0.315
 2249TIP3    H2 6712   0.179   3.932   0.447
 2250TIP3   OH2 6713   5.191   1.330   1.518
 2250TIP3    H1 6714   5.167   1.263   1.581
 2250TIP3    H2 6715   5.125   1.324   1.449
 2251TIP3   OH2 6716   3.403   0.115   3.476
 2251TIP3    H1 6717   3.353   0.144   3.552
 2251TIP3    H2 6718   3.340   0.070   3.421
 2252TIP3   OH2 6719   3.884   0.895   5.665
 2252TIP3    H1 6720   3.922   0.976   5.631
 2252TIP3    H2 6721   3.802   0.923   5.707
 2253TIP3   OH2 6722   4.892   0.729   2.919
 2253TIP3    H1 6723   4.819   0.724   2.980
 2253TIP3    H2 6724   4.860   0.684   2.840
 2254TIP3   OH2 6725   1.163   2.148   1.299
 2254TIP3    H1 6726   1.231   2.205   1.336
 2254TIP3    H2 6727   1.164   2.070   1.355
 2255TIP3   OH2 6728   0.520   1.280   2.845
 2255TIP3    H1 6729   0.499   1.366   2.880
 2255TIP3    H2 6730   0.465   1.219   2.895
 2256TIP3   OH2 6731   3.776   4.312   3.421
 2256TIP3    H1 6732   3.831   4.241   3.452
 2256TIP3    H2 6733   3.828   4.391   3.435
 2257TIP3   OH2 6734   1.430   6.026   1.680
 2257TIP3    H1 6735   1.434   5.934   1.656
 2257TIP3    H2 6736   1.489   6.034   1.754
 2258TIP3   OH2 6737   0.490   2.973   1.506
 2258TIP3    H1 6738   0.577   2.944   1.536
 2258TIP3    H2 6739   0.443   2.891   1.489
 2259TIP3   OH2 6740   3.265   4.603   2.441
 2259TIP3    H1 6741   3.220   4.667   2.386
 2259TIP3    H2 6742   3.200   4.535   2.458
 2260TIP3   OH2 6743   4.867   1.677   4.647
 2260TIP3    H1 6744   4.827   1.657   4.563
 2260TIP3    H2 6745   4.882   1.591   4.687
 2261TIP3   OH2 6746   1.266   4.252   1.742
 2261TIP3    H1 6747   1.203   4.270   1.673
 2261TIP3    H2 6748   1.289   4.338   1.777
 2262TIP3   OH2 6749   5.035   4.861   5.586
 2262TIP3    H1 6750   5.036   4.948   5.546
 2262TIP3    H2 6751   5.119   4.822   5.562
 2263TIP3   OH2 6752   2.493   2.829   1.615
 2263TIP3    H1 6753   2.539   2.812   1.532
 2263TIP3    H2 6754   2.558   2.872   1.670
 2264TIP3   OH2 6755   6.414   0.704   5.449
 2264TIP3    H1 6756   6.490   0.653   5.478
 2264TIP3    H2 6757   6.442   0.795   5.456
 2265TIP3   OH2 6758   5.952   0.377   5.428
 2265TIP3    H1 6759   5.914   0.385   5.515
 2265TIP3    H2 6760   5.892   0.424   5.371
 2266TIP3   OH2 6761   4.190   4.087   0.735
 2266TIP3    H1 6762   4.149   4.056   0.654
 2266TIP3    H2 6763   4.161   4.024   0.802
 2267TIP3   OH2 6764   6.269   3.581   4.652
 2267TIP3    H1 6765   6.210   3.655   4.667
 2267TIP3    H2 6766   6.223   3.506   4.691
 2268TIP3   OH2 6767   4.332   0.186   1.969
 2268TIP3    H1 6768   4.305   0.258   1.912
 2268TIP3    H2 6769   4.304   0.213   2.057
 2269TIP3   OH2 6770   1.915   1.634   5.620
 2269TIP3    H1 6771   1.826   1.620   5.587
 2269TIP3    H2 6772   1.967   1.565   5.579
 2270TIP3   OH2 6773   1.360   4.376   4.925
 2270TIP3    H1 6774   1.454   4.369   4.942
 2270TIP3    H2 6775   1.326   4.289   4.943
 2271TIP3   OH2 6776   1.967   2.888   0.726
 2271TIP3    H1 6777   1.875   2.894   0.749
 2271TIP3    H2 6778   2.005   2.829   0.791
 2272TIP3   OH2 6779   6.199   5.506   5.016
 2272TIP3    H1 6780   6.118   5.459   4.995
 2272TIP3    H2 6781   6.216   5.560   4.939
 2273TIP3   OH2 6782   4.802   6.354   1.062
 2273TIP3    H1 6783   4.717   6.310   1.067
 2273TIP3    H2 6784   4.865   6.284   1.043
 2274TIP3   OH2 6785   1.855   0.481   2.616
 2274TIP3    H1 6786   1.921   0.544   2.588
 2274TIP3    H2 6787   1.799   0.469   2.540
 2275TIP3   OH2 6788   2.883   4.555   5.586
 2275TIP3    H1 6789   2.941   4.629   5.601
 2275TIP3    H2 6790   2.931   4.479   5.617
 2276TIP3   OH2 6791   4.648   5.116   3.798
 2276TIP3    H1 6792   4.735   5.119   3.760
 2276TIP3    H2 6793   4.643   5.194   3.854
 2277TIP3   OH2 6794   1.976   2.120   1.770
 2277TIP3    H1 6795   1.892   2.165   1.763
 2277TIP3    H2 6796   1.976   2.057   1.697
 2278TIP3   OH2 6797   7.149   2.036   3.061
 2278TIP3    H1 6798   7.168   2.105   3.124
 2278TIP3    H2 6799   7.226   2.032   3.005
 2279TIP3   OH2 6800   0.373   6.176   3.187
 2279TIP3    H1 6801   0.426   6.184   3.107
 2279TIP3    H2 6802   0.424   6.221   3.254
 2280TIP3   OH2 6803   1.674   6.240   1.175
 2280TIP3    H1 6804   1.614   6.183   1.128
 2280TIP3    H2 6805   1.692   6.194   1.257
 2281TIP3   OH2 6806   1.540   1.672   1.465
 2281TIP3    H1 6807   1.457   1.667   1.513
 2281TIP3    H2 6808   1.606   1.644   1.527
 2282TIP3   OH2 6809   6.106   5.823   3.617
 2282TIP3    H1 6810   6.030   5.832   3.674
 2282TIP3    H2 6811   6.126   5.730   3.619
 2283TIP3   OH2 6812   3.186   1.401   1.694
 2283TIP3    H1 6813   3.162   1.398   1.602
 2283TIP3    H2 6814   3.176   1.311   1.725
 2284TIP3   OH2 6815   4.308   1.534   0.320
 2284TIP3    H1 6816   4.230   1.528   0.376
 2284TIP3    H2 6817   4.284   1.485   0.241
 2285TIP3   OH2 6818   5.382   1.381   0.651
 2285TIP3    H1 6819   5.296   1.418   0.630
 2285TIP3    H2 6820   5.365   1.317   0.720
 2286TIP3   OH2 6821   5.089   4.414   1.523
 2286TIP3    H1 6822   5.166   4.383   1.571
 2286TIP3    H2 6823   5.079   4.352   1.451
 2287TIP3   OH2 6824   6.724   0.205   3.081
 2287TIP3    H1 6825   6.710   0.228   2.989
 2287TIP3    H2 6826   6.812   0.167   3.083
 2288TIP3   OH2 6827   4.477   0.718   4.112
 2288TIP3    H1 6828   4.417   0.645   4.097
 2288TIP3    H2 6829   4.525   0.727   4.029
 2289TIP3   OH2 6830   0.211   4.911   1.242
 2289TIP3    H1 6831   0.184   5.002   1.226
 2289TIP3    H2 6832   0.128   4.863   1.247
 2290TIP3   OH2 6833   0.018   6.165   0.169
 2290TIP3    H1 6834  -0.032   6.238   0.132
 2290TIP3    H2 6835   0.109   6.184   0.144
 2291TIP3   OH2 6836   4.111   4.079   1.908
 2291TIP3    H1 6837   4.028   4.031   1.913
 2291TIP3    H2 6838   4.133   4.097   1.999
 2292TIP3   OH2 6839   3.180   1.482   2.449
 2292TIP3    H1 6840   3.275   1.480   2.435
 2292TIP3    H2 6841   3.143   1.488   2.361
 2293TIP3   OH2 6842   0.977   5.206   2.026
 2293TIP3    H1 6843   0.882   5.195   2.032
 2293TIP3    H2 6844   1.006   5.130   1.975
 2294TIP3   OH2 6845   4.532   2.095   1.276
 2294TIP3    H1 6846   4.452   2.042   1.268
 2294TIP3    H2 6847   4.575   2.086   1.191
 2295TIP3   OH2 6848   0.695   1.110   0.831
 2295TIP3    H1 6849   0.618   1.071   0.789
 2295TIP3    H2 6850   0.681   1.205   0.824
 2296TIP3   OH2 6851   5.622   3.099   1.746
 2296TIP3    H1 6852   5.572   3.180   1.744
 2296TIP3    H2 6853   5.708   3.123   1.711
 2297TIP3   OH2 6854   2.161   1.258   1.318
 2297TIP3    H1 6855   2.098   1.313   1.271
 2297TIP3    H2 6856   2.233   1.317   1.339
 2298TIP3   OH2 6857   5.583   0.348   2.151
 2298TIP3    H1 6858   5.512   0.284   2.158
 2298TIP3    H2 6859   5.641   0.312   2.083
 2299TIP3   OH2 6860   0.137   5.241   1.994
 2299TIP3    H1 6861   0.118   5.153   2.026
 2299TIP3    H2 6862   0.232   5.244   1.986
 2300TIP3   OH2 6863   1.359   1.369   4.693
 2300TIP3    H1 6864   1.287   1.406   4.642
 2300TIP3    H2 6865   1.364   1.423   4.771
 2301TIP3   OH2 6866   0.614   2.076   2.336
 2301TIP3    H1 6867   0.616   2.107   2.246
 2301TIP3    H2 6868   0.706   2.063   2.359
 2302TIP3   OH2 6869   2.174   0.199   2.616
 2302TIP3    H1 6870   2.151   0.133   2.550
 2302TIP3    H2 6871   2.094   0.212   2.666
 2303TIP3   OH2 6872   5.078   1.757   2.319
 2303TIP3    H1 6873   5.014   1.791   2.257
 2303TIP3    H2 6874   5.162   1.790   2.287
 2304TIP3   OH2 6875   1.625   5.880   1.196
 2304TIP3    H1 6876   1.599   5.789   1.208
 2304TIP3    H2 6877   1.623   5.917   1.285
 2305TIP3   OH2 6878   3.494   5.737   5.745
 2305TIP3    H1 6879   3.520   5.829   5.745
 2305TIP3    H2 6880   3.532   5.701   5.825
 2306TIP3   OH2 6881   0.196   2.199   0.994
 2306TIP3    H1 6882   0.167   2.118   0.952
 2306TIP3    H2 6883   0.211   2.259   0.921
 2307TIP3   OH2 6884   2.711   0.517   5.333
 2307TIP3    H1 6885   2.706   0.612   5.349
 2307TIP3    H2 6886   2.799   0.493   5.362
 2308TIP3   OH2 6887   6.199   0.839   3.355
 2308TIP3    H1 6888   6.149   0.767   3.316
 2308TIP3    H2 6889   6.286   0.802   3.371
 2309TIP3   OH2 6890   4.139   4.664   2.864
 2309TIP3    H1 6891   4.151   4.647   2.957
 2309TIP3    H2 6892   4.057   4.715   2.860
 2310TIP3   OH2 6893   0.244   4.274   0.476
 2310TIP3    H1 6894   0.167   4.309   0.522
 2310TIP3    H2 6895   0.318   4.321   0.515
 2311TIP3   OH2 6896   0.163   5.821   1.224
 2311TIP3    H1 6897   0.096   5.883   1.195
 2311TIP3    H2 6898   0.224   5.874   1.275
 2312TIP3   OH2 6899   0.531   5.131   1.122
 2312TIP3    H1 6900   0.617   5.104   1.155
 2312TIP3    H2 6901   0.546   5.219   1.087
 2313TIP3   OH2 6902   2.078   2.668   1.317
 2313TIP3    H1 6903   2.055   2.618   1.238
 2313TIP3    H2 6904   2.173   2.656   1.325
 2314TIP3   OH2 6905   6.311   0.425   5.013
 2314TIP3    H1 6906   6.305   0.330   5.015
 2314TIP3    H2 6907   6.399   0.442   4.978
 2315TIP3   OH2 6908   0.966   2.093   1.052
 2315TIP3    H1 6909   0.941   2.084   1.144
 2315TIP3    H2 6910   1.061   2.107   1.054
 2316TIP3   OH2 6911   1.227   4.795   0.334
 2316TIP3    H1 6912   1.265   4.749   0.408
 2316TIP3    H2 6913   1.133   4.776   0.340
 2317TIP3   OH2 6914   5.078   3.877   5.008
 2317TIP3    H1 6915   5.144   3.942   4.987
 2317TIP3    H2 6916   5.120   3.793   4.992
 2318TIP3   OH2 6917   5.891   3.405   4.242
 2318TIP3    H1 6918   5.805   3.385   4.279
 2318TIP3    H2 6919   5.872   3.460   4.166
 2319TIP3   OH2 6920   3.059   1.554   0.352
 2319TIP3    H1 6921   2.998   1.611   0.398
 2319TIP3    H2 6922   3.143   1.569   0.395
 2320TIP3   OH2 6923   3.586   5.442   3.486
 2320TIP3    H1 6924   3.575   5.498   3.562
 2320TIP3    H2 6925   3.599   5.503   3.413
 2321TIP3   OH2 6926   3.148   4.279   0.578
 2321TIP3    H1 6927   3.182   4.192   0.555
 2321TIP3    H2 6928   3.093   4.264   0.655
 2322TIP3   OH2 6929   1.105   4.765   1.695
 2322TIP3    H1 6930   1.158   4.759   1.775
 2322TIP3    H2 6931   1.158   4.724   1.627
 2323TIP3   OH2 6932   1.511   3.956   3.570
 2323TIP3    H1 6933   1.536   3.883   3.513
 2323TIP3    H2 6934   1.551   3.935   3.654
 2324TIP3   OH2 6935   3.957   5.769   0.142
 2324TIP3    H1 6936   3.964   5.813   0.058
 2324TIP3    H2 6937   3.881   5.809   0.184
 2325TIP3   OH2 6938   4.594   3.131   2.782
 2325TIP3    H1 6939   4.518   3.088   2.744
 2325TIP3    H2 6940   4.637   3.063   2.835
 2326TIP3   OH2 6941   1.373   3.341   4.645
 2326TIP3    H1 6942   1.398   3.424   4.685
 2326TIP3    H2 6943   1.284   3.356   4.613
 2327TIP3   OH2 6944   2.229   3.522   5.658
 2327TIP3    H1 6945   2.181   3.602   5.677
 2327TIP3    H2 6946   2.189   3.456   5.714
 2328TIP3   OH2 6947   4.573   6.193   1.018
 2328TIP3    H1 6948   4.517   6.250   1.071
 2328TIP3    H2 6949   4.523   6.113   1.007
 2329TIP3   OH2 6950   1.613   2.140   5.279
 2329TIP3    H1 6951   1.527   2.159   5.241
 2329TIP3    H2 6952   1.606   2.169   5.370
 2330TIP3   OH2 6953   7.001   4.875   2.795
 2330TIP3    H1 6954   6.971   4.786   2.775
 2330TIP3    H2 6955   6.950   4.900   2.873
 2331TIP3   OH2 6956   0.625   1.719   4.796
 2331TIP3    H1 6957   0.622   1.634   4.751
 2331TIP3    H2 6958   0.626   1.783   4.725
 2332TIP3   OH2 6959   2.281   2.995   2.620
 2332TIP3    H1 6960   2.309   3.056   2.688
 2332TIP3    H2 6961   2.314   3.034   2.538
 2333TIP3   OH2 6962   2.903   5.364   2.231
 2333TIP3    H1 6963   2.839   5.296   2.211
 2333TIP3    H2 6964   2.941   5.337   2.315
 2334TIP3   OH2 6965   4.244   6.127   2.042
 2334TIP3    H1 6966   4.305   6.160   1.976
 2334TIP3    H2 6967   4.214   6.206   2.088
 2335TIP3   OH2 6968   0.062   6.350   4.401
 2335TIP3    H1 6969   0.118   6.289   4.450
 2335TIP3    H2 6970   0.108   6.365   4.319
 2336TIP3   OH2 6971   0.796   0.996   4.488
 2336TIP3    H1 6972   0.726   1.017   4.550
 2336TIP3    H2 6973   0.787   0.902   4.471
 2337TIP3   OH2 6974   0.996   6.716   2.351
 2337TIP3    H1 6975   1.009   6.806   2.382
 2337TIP3    H2 6976   0.914   6.688   2.392
 2338TIP3   OH2 6977   3.137   0.931   1.845
 2338TIP3    H1 6978   3.195   0.961   1.774
 2338TIP3    H2 6979   3.092   1.010   1.874
 2339TIP3   OH2 6980   1.671   4.956   4.603
 2339TIP3    H1 6981   1.633   5.033   4.646
 2339TIP3    H2 6982   1.626   4.882   4.643
 2340TIP3   OH2 6983   3.339   5.923   2.176
 2340TIP3    H1 6984   3.294   5.935   2.260
 2340TIP3    H2 6985   3.429   5.950   2.194
 2341TIP3   OH2 6986   5.960   5.550   3.416
 2341TIP3    H1 6987   6.006   5.514   3.492
 2341TIP3    H2 6988   5.867   5.538   3.436
 2342TIP3   OH2 6989   3.919   5.224   1.118
 2342TIP3    H1 6990   3.951   5.168   1.189
 2342TIP3    H2 6991   3.995   5.235   1.060
 2343TIP3   OH2 6992   6.187   2.828   3.031
 2343TIP3    H1 6993   6.129   2.902   3.014
 2343TIP3    H2 6994   6.172   2.768   2.958
 2344TIP3   OH2 6995   6.719   1.678   0.706
 2344TIP3    H1 6996   6.772   1.609   0.666
 2344TIP3    H2 6997   6.687   1.638   0.787
 2345TIP3   OH2 6998   5.928   5.729   4.053
 2345TIP3    H1 6999   5.959   5.767   4.134
 2345TIP3    H2 7000   5.835   5.753   4.049
 2346TIP3   OH2 7001   2.146   1.033   4.964
 2346TIP3    H1 7002   2.053   1.026   4.987
 2346TIP3    H2 7003   2.193   1.011   5.044
 2347TIP3   OH2 7004   1.648   2.382   4.338
 2347TIP3    H1 7005   1.614   2.390   4.427
 2347TIP3    H2 7006   1.595   2.313   4.298
 2348TIP3   OH2 7007   5.125   4.109   3.284
 2348TIP3    H1 7008   5.063   4.147   3.222
 2348TIP3    H2 7009   5.126   4.015   3.263
 2349TIP3   OH2 7010   0.970   2.429   0.313
 2349TIP3    H1 7011   0.877   2.448   0.301
 2349TIP3    H2 7012   0.976   2.334   0.303
 2350TIP3   OH2 7013   6.875   5.304   0.191
 2350TIP3    H1 7014   6.966   5.278   0.176
 2350TIP3    H2 7015   6.841   5.326   0.104
 2351TIP3   OH2 7016   2.090   0.779   4.378
 2351TIP3    H1 7017   2.036   0.838   4.326
 2351TIP3    H2 7018   2.066   0.692   4.346
 2352TIP3   OH2 7019   4.493   0.665   3.233
 2352TIP3    H1 7020   4.551   0.623   3.170
 2352TIP3    H2 7021   4.427   0.599   3.252
 2353TIP3   OH2 7022   0.569   4.275   2.581
 2353TIP3    H1 7023   0.639   4.236   2.633
 2353TIP3    H2 7024   0.602   4.361   2.556
 2354TIP3   OH2 7025   6.007   5.176   4.898
 2354TIP3    H1 7026   6.095   5.139   4.895
 2354TIP3    H2 7027   5.961   5.125   4.965
 2355TIP3   OH2 7028   2.663   3.148   4.217
 2355TIP3    H1 7029   2.606   3.204   4.165
 2355TIP3    H2 7030   2.682   3.073   4.161
 2356TIP3   OH2 7031   6.134   0.276   2.718
 2356TIP3    H1 7032   6.098   0.279   2.630
 2356TIP3    H2 7033   6.091   0.349   2.764
 2357TIP3   OH2 7034   4.218   1.860   2.418
 2357TIP3    H1 7035   4.288   1.839   2.356
 2357TIP3    H2 7036   4.261   1.912   2.486
 2358TIP3   OH2 7037   4.883   4.947   0.328
 2358TIP3    H1 7038   4.828   5.022   0.348
 2358TIP3    H2 7039   4.829   4.871   0.352
 2359TIP3   OH2 7040   1.683   0.819   1.353
 2359TIP3    H1 7041   1.594   0.785   1.355
 2359TIP3    H2 7042   1.673   0.914   1.349
 2360TIP3   OH2 7043   6.916   4.452   1.532
 2360TIP3    H1 7044   6.822   4.439   1.545
 2360TIP3    H2 7045   6.955   4.432   1.617
 2361TIP3   OH2 7046   1.063   1.490   4.821
 2361TIP3    H1 7047   1.129   1.459   4.883
 2361TIP3    H2 7048   0.991   1.427   4.830
 2362TIP3   OH2 7049   4.327   3.429   0.437
 2362TIP3    H1 7050   4.402   3.435   0.378
 2362TIP3    H2 7051   4.303   3.520   0.454
 2363TIP3   OH2 7052   4.934   2.229   1.326
 2363TIP3    H1 7053   4.928   2.321   1.299
 2363TIP3    H2 7054   4.860   2.217   1.385
 2364TIP3   OH2 7055   6.564   6.046   4.534
 2364TIP3    H1 7056   6.512   6.057   4.614
 2364TIP3    H2 7057   6.590   5.954   4.536
 2365TIP3   OH2 7058   6.194   0.912   1.664
 2365TIP3    H1 7059   6.111   0.893   1.620
 2365TIP3    H2 7060   6.186   1.002   1.695
 2366TIP3   OH2 7061   0.267   2.112   3.924
 2366TIP3    H1 7062   0.211   2.047   3.966
 2366TIP3    H2 7063   0.206   2.175   3.886
 2367TIP3   OH2 7064   4.305   6.222   0.623
 2367TIP3    H1 7065   4.272   6.286   0.560
 2367TIP3    H2 7066   4.243   6.226   0.696
 2368TIP3   OH2 7067   1.113   4.572   1.297
 2368TIP3    H1 7068   1.025   4.543   1.322
 2368TIP3    H2 7069   1.170   4.498   1.321
 2369TIP3   OH2 7070   6.020   5.407   3.632
 2369TIP3    H1 7071   5.944   5.364   3.672
 2369TIP3    H2 7072   6.060   5.457   3.703
 2370TIP3   OH2 7073   7.022   5.930   4.297
 2370TIP3    H1 7074   7.065   6.011   4.269
 2370TIP3    H2 7075   6.993   5.888   4.216
 2371TIP3   OH2 7076   3.518   4.657   1.629
 2371TIP3    H1 7077   3.591   4.602   1.658
 2371TIP3    H2 7078   3.557   4.744   1.619
 2372TIP3   OH2 7079   2.438   5.409   0.716
 2372TIP3    H1 7080   2.526   5.446   0.721
 2372TIP3    H2 7081   2.436   5.343   0.786
 2373TIP3   OH2 7082   6.347   5.749   3.948
 2373TIP3    H1 7083   6.408   5.707   3.887
 2373TIP3    H2 7084   6.261   5.741   3.905
 2374TIP3   OH2 7085   4.548   0.300   5.168
 2374TIP3    H1 7086   4.540   0.237   5.240
 2374TIP3    H2 7087   4.512   0.381   5.203
 2375TIP3   OH2 7088   1.554   5.342   1.751
 2375TIP3    H1 7089   1.579   5.264   1.702
 2375TIP3    H2 7090   1.501   5.309   1.824
 2376TIP3   OH2 7091   4.589   4.494   4.462
 2376TIP3    H1 7092   4.565   4.505   4.370
 2376TIP3    H2 7093   4.641   4.414   4.463
 2377TIP3   OH2 7094   4.007   6.475   1.293
 2377TIP3    H1 7095   4.047   6.389   1.296
 2377TIP3    H2 7096   3.913   6.458   1.287
 2378TIP3   OH2 7097   1.090   0.830   1.591
 2378TIP3    H1 7098   1.170   0.882   1.583
 2378TIP3    H2 7099   1.032   0.883   1.647
 2379TIP3   OH2 7100   2.537   4.763   1.144
 2379TIP3    H1 7101   2.502   4.675   1.130
 2379TIP3    H2 7102   2.627   4.758   1.112
 2380TIP3   OH2 7103   5.024   1.542   0.612
 2380TIP3    H1 7104   5.041   1.612   0.548
 2380TIP3    H2 7105   5.017   1.463   0.559
 2381TIP3   OH2 7106   2.136   2.267   0.763
 2381TIP3    H1 7107   2.047   2.247   0.791
 2381TIP3    H2 7108   2.174   2.182   0.741
 2382TIP3   OH2 7109   3.070   0.566   3.913
 2382TIP3    H1 7110   2.978   0.539   3.913
 2382TIP3    H2 7111   3.091   0.582   4.005
 2383TIP3   OH2 7112   0.116   2.404   3.032
 2383TIP3    H1 7113   0.028   2.397   3.068
 2383TIP3    H2 7114   0.104   2.455   2.951
 2384TIP3   OH2 7115   0.212   0.037   2.523
 2384TIP3    H1 7116   0.121   0.037   2.493
 2384TIP3    H2 7117   0.234   0.130   2.532
 2385TIP3   OH2 7118   3.748   1.878   0.331
 2385TIP3    H1 7119   3.687   1.814   0.294
 2385TIP3    H2 7120   3.733   1.873   0.426
 2386TIP3   OH2 7121   1.832   4.777   2.514
 2386TIP3    H1 7122   1.841   4.859   2.562
 2386TIP3    H2 7123   1.738   4.767   2.501
 2387TIP3   OH2 7124   4.747   1.046   5.396
 2387TIP3    H1 7125   4.657   1.014   5.393
 2387TIP3    H2 7126   4.785   1.018   5.313
 2388TIP3   OH2 7127   5.117   5.465   5.888
 2388TIP3    H1 7128   5.191   5.413   5.921
 2388TIP3    H2 7129   5.117   5.449   5.793
 2389TIP3   OH2 7130   1.392   3.103   3.962
 2389TIP3    H1 7131   1.298   3.123   3.958
 2389TIP3    H2 7132   1.398   3.014   3.929
 2390TIP3   OH2 7133   5.600   4.227   1.050
 2390TIP3    H1 7134   5.675   4.185   1.007
 2390TIP3    H2 7135   5.524   4.199   0.999
 2391TIP3   OH2 7136   6.278   2.023   0.362
 2391TIP3    H1 7137   6.366   1.988   0.355
 2391TIP3    H2 7138   6.278   2.072   0.444
 2392TIP3   OH2 7139   6.000   4.776   4.990
 2392TIP3    H1 7140   5.932   4.728   4.943
 2392TIP3    H2 7141   6.056   4.708   5.027
 2393TIP3   OH2 7142   2.915   2.384   3.898
 2393TIP3    H1 7143   2.869   2.309   3.860
 2393TIP3    H2 7144   2.896   2.456   3.838
 2394TIP3   OH2 7145   6.707   2.320   5.712
 2394TIP3    H1 7146   6.720   2.376   5.636
 2394TIP3    H2 7147   6.792   2.317   5.755
 2395TIP3   OH2 7148   6.223   4.601   1.969
 2395TIP3    H1 7149   6.216   4.526   2.028
 2395TIP3    H2 7150   6.313   4.598   1.938
 2396TIP3   OH2 7151   2.459   0.852   3.380
 2396TIP3    H1 7152   2.478   0.946   3.375
 2396TIP3    H2 7153   2.518   0.812   3.317
 2397TIP3   OH2 7154   2.027   1.785   4.888
 2397TIP3    H1 7155   1.967   1.729   4.938
 2397TIP3    H2 7156   2.042   1.861   4.945
 2398TIP3   OH2 7157   3.166   2.017   4.526
 2398TIP3    H1 7158   3.131   1.938   4.484
 2398TIP3    H2 7159   3.233   2.048   4.465
 2399TIP3   OH2 7160   5.969   5.144   1.088
 2399TIP3    H1 7161   6.019   5.077   1.042
 2399TIP3    H2 7162   5.906   5.174   1.023
 2400TIP3   OH2 7163   6.949   3.538   1.493
 2400TIP3    H1 7164   6.942   3.607   1.427
 2400TIP3    H2 7165   7.024   3.486   1.466
 2401TIP3   OH2 7166   1.113   5.354   4.487
 2401TIP3    H1 7167   1.116   5.272   4.536
 2401TIP3    H2 7168   1.169   5.339   4.411
 2402TIP3   OH2 7169   4.377   3.943   0.581
 2402TIP3    H1 7170   4.462   3.958   0.623
 2402TIP3    H2 7171   4.319   4.009   0.619
 2403TIP3   OH2 7172   1.451   3.948   4.526
 2403TIP3    H1 7173   1.384   3.982   4.584
 2403TIP3    H2 7174   1.453   4.008   4.452
 2404TIP3   OH2 7175   4.072   1.591   0.955
 2404TIP3    H1 7176   4.002   1.529   0.935
 2404TIP3    H2 7177   4.149   1.537   0.972
 2405TIP3   OH2 7178   4.165   2.205  -0.007
 2405TIP3    H1 7179   4.161   2.167   0.081
 2405TIP3    H2 7180   4.193   2.133  -0.063
 2406TIP3   OH2 7181   4.410   0.928   4.947
 2406TIP3    H1 7182   4.404   0.888   5.033
 2406TIP3    H2 7183   4.319   0.929   4.915
 2407TIP3   OH2 7184   2.993   2.002   2.950
 2407TIP3    H1 7185   3.026   1.997   2.860
 2407TIP3    H2 7186   3.010   1.915   2.986
 2408TIP3   OH2 7187   3.242   6.517   1.278
 2408TIP3    H1 7188   3.296   6.442   1.252
 2408TIP3    H2 7189   3.153   6.490   1.256
 2409TIP3   OH2 7190   0.955   4.508   0.423
 2409TIP3    H1 7191   0.986   4.585   0.375
 2409TIP3    H2 7192   0.860   4.508   0.410
 2410TIP3   OH2 7193   1.632   2.044   0.622
 2410TIP3    H1 7194   1.690   2.039   0.546
 2410TIP3    H2 7195   1.610   2.137   0.629
 2411TIP3   OH2 7196   6.279   2.524   0.076
 2411TIP3    H1 7197   6.329   2.605   0.067
 2411TIP3    H2 7198   6.198   2.540   0.028
 2412TIP3   OH2 7199   2.730   6.229   3.467
 2412TIP3    H1 7200   2.727   6.177   3.547
 2412TIP3    H2 7201   2.643   6.218   3.428
 2413TIP3   OH2 7202   5.998   4.601   3.265
 2413TIP3    H1 7203   5.996   4.513   3.228
 2413TIP3    H2 7204   6.069   4.645   3.218
 2414TIP3   OH2 7205   1.803   1.933   4.712
 2414TIP3    H1 7206   1.871   1.982   4.665
 2414TIP3    H2 7207   1.846   1.852   4.738
 2415TIP3   OH2 7208   6.536   2.215   2.944
 2415TIP3    H1 7209   6.609   2.184   2.997
 2415TIP3    H2 7210   6.537   2.310   2.954
 2416TIP3   OH2 7211   0.289   2.283   2.220
 2416TIP3    H1 7212   0.297   2.189   2.202
 2416TIP3    H2 7213   0.262   2.287   2.312
 2417TIP3   OH2 7214   0.802   5.633   3.379
 2417TIP3    H1 7215   0.726   5.586   3.344
 2417TIP3    H2 7216   0.847   5.569   3.432
 2418TIP3   OH2 7217   2.254   5.035   1.158
 2418TIP3    H1 7218   2.235   4.974   1.087
 2418TIP3    H2 7219   2.343   5.013   1.185
 2419TIP3   OH2 7220   2.827   1.494   2.561
 2419TIP3    H1 7221   2.753   1.453   2.606
 2419TIP3    H2 7222   2.857   1.562   2.622
 2420TIP3   OH2 7223   4.800   1.350   5.369
 2420TIP3    H1 7224   4.866   1.338   5.437
 2420TIP3    H2 7225   4.831   1.297   5.296
 2421TIP3   OH2 7226   4.101   3.593   4.004
 2421TIP3    H1 7227   4.030   3.552   4.053
 2421TIP3    H2 7228   4.073   3.684   3.994
 2422TIP3   OH2 7229   5.561   0.096   5.360
 2422TIP3    H1 7230   5.636   0.101   5.418
 2422TIP3    H2 7231   5.529   0.006   5.371
 2423TIP3   OH2 7232   5.180   0.095   2.656
 2423TIP3    H1 7233   5.206   0.052   2.738
 2423TIP3    H2 7234   5.179   0.188   2.678
 2424TIP3   OH2 7235   2.038   1.712   4.434
 2424TIP3    H1 7236   2.110   1.717   4.497
 2424TIP3    H2 7237   2.022   1.802   4.408
 2425TIP3   OH2 7238   2.601   2.491   4.152
 2425TIP3    H1 7239   2.588   2.409   4.104
 2425TIP3    H2 7240   2.606   2.463   4.244
 2426TIP3   OH2 7241   3.248   6.435   4.940
 2426TIP3    H1 7242   3.163   6.428   4.984
 2426TIP3    H2 7243   3.299   6.361   4.973
 2427TIP3   OH2 7244   3.790   5.103   2.983
 2427TIP3    H1 7245   3.853   5.156   3.031
 2427TIP3    H2 7246   3.717   5.162   2.965
 2428TIP3   OH2 7247   5.577   3.350   2.538
 2428TIP3    H1 7248   5.655   3.377   2.587
 2428TIP3    H2 7249   5.564   3.421   2.474
 2429TIP3   OH2 7250   3.721   6.685   5.614
 2429TIP3    H1 7251   3.676   6.769   5.611
 2429TIP3    H2 7252   3.812   6.704   5.591
 2430TIP3   OH2 7253   6.694   1.554   3.807
 2430TIP3    H1 7254   6.715   1.605   3.886
 2430TIP3    H2 7255   6.775   1.553   3.757
 2431TIP3   OH2 7256   6.326   1.285   1.320
 2431TIP3    H1 7257   6.352   1.235   1.397
 2431TIP3    H2 7258   6.232   1.299   1.331
 2432TIP3   OH2 7259   0.445   2.873   5.844
 2432TIP3    H1 7260   0.419   2.790   5.806
 2432TIP3    H2 7261   0.540   2.869   5.850
 2433TIP3   OH2 7262   4.773   0.932   4.491
 2433TIP3    H1 7263   4.732   0.899   4.571
 2433TIP3    H2 7264   4.700   0.966   4.439
 2434TIP3   OH2 7265   4.035   2.450   4.236
 2434TIP3    H1 7266   3.951   2.495   4.252
 2434TIP3    H2 7267   4.094   2.485   4.302
 2435TIP3   OH2 7268   2.455   2.165   3.660
 2435TIP3    H1 7269   2.463   2.142   3.567
 2435TIP3    H2 7270   2.528   2.225   3.676
 2436TIP3   OH2 7271   6.839   0.417   0.501
 2436TIP3    H1 7272   6.796   0.376   0.426
 2436TIP3    H2 7273   6.809   0.367   0.577
 2437TIP3   OH2 7274   3.038   3.891   4.066
 2437TIP3    H1 7275   2.965   3.937   4.107
 2437TIP3    H2 7276   3.024   3.799   4.086
 2438TIP3   OH2 7277   5.532   6.748   2.850
 2438TIP3    H1 7278   5.538   6.842   2.830
 2438TIP3    H2 7279   5.442   6.735   2.879
 2439TIP3   OH2 7280   6.656   4.462   1.542
 2439TIP3    H1 7281   6.599   4.536   1.522
 2439TIP3    H2 7282   6.606   4.385   1.514
 2440TIP3   OH2 7283   2.308   5.211   3.985
 2440TIP3    H1 7284   2.336   5.136   3.933
 2440TIP3    H2 7285   2.215   5.196   4.000
 2441TIP3   OH2 7286   2.967   6.710   5.666
 2441TIP3    H1 7287   3.037   6.649   5.642
 2441TIP3    H2 7288   2.951   6.692   5.759
 2442TIP3   OH2 7289   1.461   3.335   3.781
 2442TIP3    H1 7290   1.446   3.274   3.853
 2442TIP3    H2 7291   1.465   3.280   3.703
 2443TIP3   OH2 7292   3.496   4.618   4.800
 2443TIP3    H1 7293   3.456   4.674   4.866
 2443TIP3    H2 7294   3.586   4.649   4.793
 2444TIP3   OH2 7295   5.326   5.833   0.752
 2444TIP3    H1 7296   5.392   5.823   0.684
 2444TIP3    H2 7297   5.311   5.928   0.756
 2445TIP3   OH2 7298   2.577   2.448   3.601
 2445TIP3    H1 7299   2.528   2.498   3.666
 2445TIP3    H2 7300   2.514   2.428   3.532
 2446TIP3   OH2 7301   2.528   1.950   5.731
 2446TIP3    H1 7302   2.588   1.966   5.658
 2446TIP3    H2 7303   2.578   1.897   5.793
 2447TIP3   OH2 7304   1.138   0.154   0.220
 2447TIP3    H1 7305   1.050   0.140   0.254
 2447TIP3    H2 7306   1.165   0.238   0.258
 2448TIP3   OH2 7307   4.935   4.662   3.520
 2448TIP3    H1 7308   5.019   4.696   3.551
 2448TIP3    H2 7309   4.898   4.615   3.595
 2449TIP3   OH2 7310   4.794   1.791   3.540
 2449TIP3    H1 7311   4.811   1.745   3.622
 2449TIP3    H2 7312   4.794   1.722   3.474
 2450TIP3   OH2 7313   1.270   6.169   0.466
 2450TIP3    H1 7314   1.270   6.096   0.404
 2450TIP3    H2 7315   1.344   6.223   0.439
 2451TIP3   OH2 7316   1.775   5.885   0.281
 2451TIP3    H1 7317   1.815   5.972   0.275
 2451TIP3    H2 7318   1.843   5.825   0.250
 2452TIP3   OH2 7319   2.959   0.043   2.558
 2452TIP3    H1 7320   2.889  -0.005   2.601
 2452TIP3    H2 7321   2.915   0.103   2.498
 2453TIP3   OH2 7322   3.762   5.269   2.609
 2453TIP3    H1 7323   3.725   5.181   2.605
 2453TIP3    H2 7324   3.829   5.264   2.677
 2454TIP3   OH2 7325   1.904   4.222   4.280
 2454TIP3    H1 7326   1.915   4.308   4.320
 2454TIP3    H2 7327   1.960   4.164   4.333
 2455TIP3   OH2 7328   5.713   5.047   5.622
 2455TIP3    H1 7329   5.701   5.120   5.684
 2455TIP3    H2 7330   5.785   5.075   5.566
 2456TIP3   OH2 7331   2.050   0.430   5.826
 2456TIP3    H1 7332   2.062   0.520   5.798
 2456TIP3    H2 7333   2.113   0.380   5.774
 2457TIP3   OH2 7334   0.382   6.091   0.411
 2457TIP3    H1 7335   0.438   6.076   0.335
 2457TIP3    H2 7336   0.391   6.012   0.465
 2458TIP3   OH2 7337   4.608   0.249   1.258
 2458TIP3    H1 7338   4.625   0.334   1.298
 2458TIP3    H2 7339   4.664   0.189   1.307
 2459TIP3   OH2 7340   6.530   6.311   5.324
 2459TIP3    H1 7341   6.567   6.379   5.267
 2459TIP3    H2 7342   6.440   6.300   5.294
 2460TIP3   OH2 7343   5.710   4.303   2.900
 2460TIP3    H1 7344   5.694   4.377   2.959
 2460TIP3    H2 7345   5.678   4.333   2.815
 2461TIP3   OH2 7346   2.740   2.249   2.464
 2461TIP3    H1 7347   2.662   2.193   2.469
 2461TIP3    H2 7348   2.761   2.253   2.371
 2462TIP3   OH2 7349   1.808   0.068   5.097
 2462TIP3    H1 7350   1.723   0.107   5.077
 2462TIP3    H2 7351   1.826   0.096   5.187
 2463TIP3   OH2 7352   3.882   6.642   4.541
 2463TIP3    H1 7353   3.964   6.644   4.491
 2463TIP3    H2 7354   3.903   6.593   4.620
 2464TIP3   OH2 7355   3.826   0.379   1.794
 2464TIP3    H1 7356   3.914   0.415   1.809
 2464TIP3    H2 7357   3.842   0.291   1.758
 2465TIP3   OH2 7358   6.440   2.686   1.570
 2465TIP3    H1 7359   6.531   2.670   1.542
 2465TIP3    H2 7360   6.418   2.610   1.623
 2466TIP3   OH2 7361   3.430   0.406   3.065
 2466TIP3    H1 7362   3.409   0.498   3.083
 2466TIP3    H2 7363   3.503   0.410   3.003
 2467TIP3   OH2 7364   6.923   0.972   4.122
 2467TIP3    H1 7365   6.917   0.903   4.056
 2467TIP3    H2 7366   6.959   0.929   4.199
 2468TIP3   OH2 7367   4.991   5.630   4.178
 2468TIP3    H1 7368   4.960   5.556   4.126
 2468TIP3    H2 7369   5.052   5.676   4.120
 2469TIP3   OH2 7370   0.158   4.805   2.672
 2469TIP3    H1 7371   0.238   4.836   2.630
 2469TIP3    H2 7372   0.188   4.767   2.755
 2470TIP3   OH2 7373   3.472   4.339   4.198
 2470TIP3    H1 7374   3.447   4.397   4.126
 2470TIP3    H2 7375   3.471   4.395   4.275
 2471TIP3   OH2 7376   2.826   3.195   0.318
 2471TIP3    H1 7377   2.740   3.233   0.336
 2471TIP3    H2 7378   2.820   3.162   0.229
 2472TIP3   OH2 7379   2.246   2.013   2.301
 2472TIP3    H1 7380   2.240   2.045   2.391
 2472TIP3    H2 7381   2.162   1.971   2.284
 2473TIP3   OH2 7382   6.715   2.790   4.681
 2473TIP3    H1 7383   6.770   2.806   4.604
 2473TIP3    H2 7384   6.774   2.806   4.755
 2474TIP3   OH2 7385   2.764   6.136   1.357
 2474TIP3    H1 7386   2.705   6.107   1.287
 2474TIP3    H2 7387   2.795   6.222   1.328
 2475TIP3   OH2 7388   2.865   6.226   0.993
 2475TIP3    H1 7389   2.936   6.225   0.930
 2475TIP3    H2 7390   2.818   6.144   0.978
 2476TIP3   OH2 7391   3.013   3.666   1.503
 2476TIP3    H1 7392   3.085   3.615   1.541
 2476TIP3    H2 7393   3.013   3.642   1.410
 2477TIP3   OH2 7394   5.209   4.099   0.301
 2477TIP3    H1 7395   5.221   4.024   0.243
 2477TIP3    H2 7396   5.168   4.063   0.380
 2478TIP3   OH2 7397   1.568   5.776   2.566
 2478TIP3    H1 7398   1.475   5.768   2.587
 2478TIP3    H2 7399   1.586   5.870   2.576
 2479TIP3   OH2 7400   6.380   2.572   5.096
 2479TIP3    H1 7401   6.359   2.623   5.018
 2479TIP3    H2 7402   6.408   2.637   5.161
 2480TIP3   OH2 7403   2.856   2.322   0.587
 2480TIP3    H1 7404   2.840   2.382   0.660
 2480TIP3    H2 7405   2.839   2.374   0.509
 2481TIP3   OH2 7406   0.463   1.859   1.963
 2481TIP3    H1 7407   0.417   1.781   1.929
 2481TIP3    H2 7408   0.538   1.824   2.010
 2482TIP3   OH2 7409   3.618   4.092   4.146
 2482TIP3    H1 7410   3.707   4.105   4.180
 2482TIP3    H2 7411   3.573   4.175   4.165
 2483TIP3   OH2 7412   6.148   2.080   1.861
 2483TIP3    H1 7413   6.149   2.047   1.951
 2483TIP3    H2 7414   6.206   2.021   1.813
 2484TIP3   OH2 7415   2.253   1.685   0.875
 2484TIP3    H1 7416   2.248   1.607   0.820
 2484TIP3    H2 7417   2.303   1.657   0.952
 2485TIP3   OH2 7418   3.706   1.517   3.613
 2485TIP3    H1 7419   3.707   1.424   3.590
 2485TIP3    H2 7420   3.775   1.526   3.679
 2486TIP3   OH2 7421   5.406   5.928   4.235
 2486TIP3    H1 7422   5.393   5.990   4.308
 2486TIP3    H2 7423   5.493   5.948   4.202
 2487TIP3   OH2 7424   0.746   3.333   4.538
 2487TIP3    H1 7425   0.776   3.407   4.486
 2487TIP3    H2 7426   0.758   3.362   4.629
 2488TIP3   OH2 7427   6.374   0.804   5.130
 2488TIP3    H1 7428   6.371   0.892   5.167
 2488TIP3    H2 7429   6.370   0.746   5.206
 2489TIP3   OH2 7430   3.721   1.098   2.659
 2489TIP3    H1 7431   3.633   1.136   2.652
 2489TIP3    H2 7432   3.775   1.170   2.692
 2490TIP3   OH2 7433   1.477   5.577   0.085
 2490TIP3    H1 7434   1.539   5.595   0.155
 2490TIP3    H2 7435   1.461   5.483   0.091
 2491TIP3   OH2 7436   3.177   5.689   3.393
 2491TIP3    H1 7437   3.122   5.767   3.391
 2491TIP3    H2 7438   3.162   5.652   3.480
 2492TIP3   OH2 7439   1.756   2.398   2.626
 2492TIP3    H1 7440   1.794   2.468   2.573
 2492TIP3    H2 7441   1.662   2.408   2.615
 2493TIP3   OH2 7442   3.362   2.841   4.756
 2493TIP3    H1 7443   3.273   2.824   4.786
 2493TIP3    H2 7444   3.352   2.908   4.689
 2494TIP3   OH2 7445   0.147   5.828   4.177
 2494TIP3    H1 7446   0.139   5.830   4.272
 2494TIP3    H2 7447   0.074   5.772   4.148
 2495TIP3   OH2 7448   0.825   2.781   3.357
 2495TIP3    H1 7449   0.908   2.765   3.313
 2495TIP3    H2 7450   0.759   2.743   3.299
 2496TIP3   OH2 7451   3.299   3.693   4.058
 2496TIP3    H1 7452   3.274   3.611   4.101
 2496TIP3    H2 7453   3.258   3.689   3.972
 2497TIP3   OH2 7454   3.064   6.574   3.723
 2497TIP3    H1 7455   3.085   6.497   3.669
 2497TIP3    H2 7456   3.001   6.542   3.787
 2498TIP3   OH2 7457   5.073   3.530   2.295
 2498TIP3    H1 7458   5.129   3.475   2.240
 2498TIP3    H2 7459   5.123   3.539   2.377
 2499TIP3   OH2 7460   4.013   5.083   3.498
 2499TIP3    H1 7461   3.943   5.148   3.505
 2499TIP3    H2 7462   4.094   5.134   3.503
 2500TIP3   OH2 7463   0.852   1.294   4.325
 2500TIP3    H1 7464   0.804   1.310   4.406
 2500TIP3    H2 7465   0.944   1.298   4.351
 2501TIP3   OH2 7466   1.515   0.219   2.494
 2501TIP3    H1 7467   1.454   0.203   2.566
 2501TIP3    H2 7468   1.600   0.190   2.528
 2502TIP3   OH2 7469   4.492   6.399   2.387
 2502TIP3    H1 7470   4.437   6.451   2.329
 2502TIP3    H2 7471   4.453   6.312   2.386
 2503TIP3   OH2 7472   6.204   1.899   2.157
 2503TIP3    H1 7473   6.248   1.970   2.204
 2503TIP3    H2 7474   6.249   1.820   2.185
 2504TIP3   OH2 7475   6.640   0.833   5.659
 2504TIP3    H1 7476   6.622   0.748   5.699
 2504TIP3    H2 7477   6.711   0.816   5.597
 2505TIP3   OH2 7478   0.494   4.128   4.629
 2505TIP3    H1 7479   0.548   4.095   4.701
 2505TIP3    H2 7480   0.471   4.217   4.655
 2506TIP3   OH2 7481   0.651   4.967   3.062
 2506TIP3    H1 7482   0.692   5.026   3.125
 2506TIP3    H2 7483   0.640   4.884   3.110
 2507TIP3   OH2 7484   5.490  -0.041   0.328
 2507TIP3    H1 7485   5.427  -0.009   0.263
 2507TIP3    H2 7486   5.505   0.034   0.386
 2508TIP3   OH2 7487   5.743   2.587   3.176
 2508TIP3    H1 7488   5.693   2.612   3.253
 2508TIP3    H2 7489   5.759   2.669   3.129
 2509TIP3   OH2 7490   6.980   0.637   1.822
 2509TIP3    H1 7491   7.055   0.685   1.856
 2509TIP3    H2 7492   7.009   0.604   1.737
 2510TIP3   OH2 7493   0.151   4.699   1.814
 2510TIP3    H1 7494   0.074   4.706   1.871
 2510TIP3    H2 7495   0.186   4.612   1.831
 2511TIP3   OH2 7496   0.107   5.702   3.071
 2511TIP3    H1 7497   0.031   5.651   3.099
 2511TIP3    H2 7498   0.142   5.740   3.152
 2512TIP3   OH2 7499   5.078   5.752   4.705
 2512TIP3    H1 7500   5.000   5.722   4.751
 2512TIP3    H2 7501   5.086   5.694   4.630
 2513TIP3   OH2 7502   2.978   2.684   0.654
 2513TIP3    H1 7503   2.966   2.761   0.710
 2513TIP3    H2 7504   3.056   2.641   0.688
 2514TIP3   OH2 7505   0.526   3.762   4.916
 2514TIP3    H1 7506   0.474   3.737   4.840
 2514TIP3    H2 7507   0.575   3.839   4.887
 2515TIP3   OH2 7508   5.081   4.061   0.755
 2515TIP3    H1 7509   5.076   4.043   0.661
 2515TIP3    H2 7510   5.037   3.987   0.796
 2516TIP3   OH2 7511   5.076   3.658   4.816
 2516TIP3    H1 7512   5.143   3.591   4.802
 2516TIP3    H2 7513   5.108   3.734   4.767
 2517TIP3   OH2 7514   4.009   5.902   2.350
 2517TIP3    H1 7515   3.982   5.822   2.396
 2517TIP3    H2 7516   4.102   5.910   2.369
 2518TIP3   OH2 7517   2.342   4.765   5.553
 2518TIP3    H1 7518   2.434   4.786   5.571
 2518TIP3    H2 7519   2.344   4.728   5.465
 2519TIP3   OH2 7520   4.304   1.692   4.356
 2519TIP3    H1 7521   4.328   1.640   4.280
 2519TIP3    H2 7522   4.283   1.628   4.424
 2520TIP3   OH2 7523   2.408   2.720   3.359
 2520TIP3    H1 7524   2.484   2.713   3.301
 2520TIP3    H2 7525   2.384   2.629   3.377
 2521TIP3   OH2 7526   0.366   5.758   1.069
 2521TIP3    H1 7527   0.273   5.773   1.082
 2521TIP3    H2 7528   0.372   5.722   0.980
 2522TIP3   OH2 7529   0.242   6.409   4.978
 2522TIP3    H1 7530   0.279   6.325   4.955
 2522TIP3    H2 7531   0.218   6.449   4.894
 2523TIP3   OH2 7532   2.893   4.647   0.804
 2523TIP3    H1 7533   2.808   4.612   0.830
 2523TIP3    H2 7534   2.955   4.577   0.822
 2524TIP3   OH2 7535   6.472   6.030   5.440
 2524TIP3    H1 7536   6.442   6.088   5.370
 2524TIP3    H2 7537   6.479   6.087   5.517
 2525TIP3   OH2 7538   5.389   2.908   1.994
 2525TIP3    H1 7539   5.391   2.841   2.061
 2525TIP3    H2 7540   5.480   2.926   1.974
 2526TIP3   OH2 7541   3.079   5.519   2.510
 2526TIP3    H1 7542   3.138   5.482   2.575
 2526TIP3    H2 7543   3.060   5.446   2.451
 2527TIP3   OH2 7544   7.040   2.051   3.427
 2527TIP3    H1 7545   6.948   2.075   3.420
 2527TIP3    H2 7546   7.040   1.956   3.437
 2528TIP3   OH2 7547   1.173   2.940   5.749
 2528TIP3    H1 7548   1.227   2.938   5.829
 2528TIP3    H2 7549   1.087   2.910   5.778
 2529TIP3   OH2 7550   1.899   4.950   4.438
 2529TIP3    H1 7551   1.927   4.877   4.493
 2529TIP3    H2 7552   1.818   4.981   4.477
 2530TIP3   OH2 7553   3.897   4.459   3.150
 2530TIP3    H1 7554   3.916   4.377   3.195
 2530TIP3    H2 7555   3.954   4.523   3.192
 2531TIP3   OH2 7556   1.494   5.585   3.297
 2531TIP3    H1 7557   1.544   5.658   3.261
 2531TIP3    H2 7558   1.510   5.512   3.237
 2532TIP3   OH2 7559   4.584   1.462   3.408
 2532TIP3    H1 7560   4.669   1.496   3.378
 2532TIP3    H2 7561   4.589   1.467   3.503
 2533TIP3   OH2 7562   4.490   6.279   3.647
 2533TIP3    H1 7563   4.499   6.200   3.701
 2533TIP3    H2 7564   4.396   6.298   3.648
 2534TIP3   OH2 7565   5.544   0.960   2.632
 2534TIP3    H1 7566   5.593   1.034   2.669
 2534TIP3    H2 7567   5.454   0.992   2.626
 2535TIP3   OH2 7568   5.745   5.195   3.442
 2535TIP3    H1 7569   5.787   5.207   3.356
 2535TIP3    H2 7570   5.722   5.102   3.444
 2536TIP3   OH2 7571   4.560   2.500   3.159
 2536TIP3    H1 7572   4.602   2.548   3.087
 2536TIP3    H2 7573   4.479   2.467   3.122
 2537TIP3   OH2 7574   6.954   5.835   4.057
 2537TIP3    H1 7575   7.016   5.779   4.009
 2537TIP3    H2 7576   6.943   5.911   4.001
 2538TIP3   OH2 7577   5.181   4.516   0.287
 2538TIP3    H1 7578   5.217   4.593   0.332
 2538TIP3    H2 7579   5.126   4.473   0.353
 2539TIP3   OH2 7580   6.840   0.963   0.269
 2539TIP3    H1 7581   6.800   0.876   0.269
 2539TIP3    H2 7582   6.900   0.962   0.343
 2540TIP3   OH2 7583   4.785   5.881   4.945
 2540TIP3    H1 7584   4.723   5.853   5.012
 2540TIP3    H2 7585   4.751   5.845   4.863
 2541TIP3   OH2 7586   4.037   1.708   3.379
 2541TIP3    H1 7587   4.000   1.775   3.436
 2541TIP3    H2 7588   3.999   1.626   3.410
 2542TIP3   OH2 7589   6.455   0.451   2.391
 2542TIP3    H1 7590   6.522   0.515   2.416
 2542TIP3    H2 7591   6.489   0.412   2.311
 2543TIP3   OH2 7592   0.957   2.539   4.356
 2543TIP3    H1 7593   0.987   2.465   4.303
 2543TIP3    H2 7594   0.948   2.611   4.293
 2544TIP3   OH2 7595   5.382   4.586   4.964
 2544TIP3    H1 7596   5.356   4.606   4.874
 2544TIP3    H2 7597   5.471   4.552   4.956
 2545TIP3   OH2 7598   2.546   4.685   2.284
 2545TIP3    H1 7599   2.474   4.734   2.324
 2545TIP3    H2 7600   2.585   4.636   2.357
 2546TIP3   OH2 7601   0.161   3.321   3.620
 2546TIP3    H1 7602   0.132   3.230   3.625
 2546TIP3    H2 7603   0.082   3.372   3.632
 2547TIP3   OH2 7604   0.871   5.553   5.025
 2547TIP3    H1 7605   0.921   5.483   5.067
 2547TIP3    H2 7606   0.852   5.615   5.095
 2548TIP3   OH2 7607   3.788   4.651   2.797
 2548TIP3    H1 7608   3.840   4.718   2.840
 2548TIP3    H2 7609   3.719   4.630   2.860
 2549TIP3   OH2 7610   2.676   1.415   0.349
 2549TIP3    H1 7611   2.757   1.464   0.333
 2549TIP3    H2 7612   2.621   1.433   0.273
 2550TIP3   OH2 7613   4.026   1.841   4.058
 2550TIP3    H1 7614   4.023   1.910   4.124
 2550TIP3    H2 7615   3.937   1.835   4.025
 2551TIP3   OH2 7616   0.383   5.816   5.063
 2551TIP3    H1 7617   0.304   5.868   5.048
 2551TIP3    H2 7618   0.404   5.830   5.155
 2552TIP3   OH2 7619   5.657   2.887   2.072
 2552TIP3    H1 7620   5.643   2.808   2.122
 2552TIP3    H2 7621   5.751   2.887   2.053
 2553TIP3   OH2 7622   4.357   3.545   2.364
 2553TIP3    H1 7623   4.430   3.578   2.312
 2553TIP3    H2 7624   4.280   3.560   2.310
 2554TIP3   OH2 7625   0.938   6.568   3.200
 2554TIP3    H1 7626   0.935   6.613   3.116
 2554TIP3    H2 7627   0.910   6.633   3.264
 2555TIP3   OH2 7628   5.939   2.789   1.584
 2555TIP3    H1 7629   5.881   2.788   1.661
 2555TIP3    H2 7630   5.892   2.841   1.519
 2556TIP3   OH2 7631   3.308   1.073   1.716
 2556TIP3    H1 7632   3.400   1.050   1.732
 2556TIP3    H2 7633   3.306   1.100   1.624
 2557TIP3   OH2 7634   3.872   0.487   3.847
 2557TIP3    H1 7635   3.863   0.407   3.795
 2557TIP3    H2 7636   3.858   0.458   3.938
 2558TIP3   OH2 7637   1.017   2.993   4.144
 2558TIP3    H1 7638   1.103   2.978   4.181
 2558TIP3    H2 7639   1.032   3.053   4.071
 2559TIP3   OH2 7640   2.775   3.027   3.672
 2559TIP3    H1 7641   2.854   3.062   3.630
 2559TIP3    H2 7642   2.757   2.945   3.625
 2560TIP3   OH2 7643   4.098   5.643   4.973
 2560TIP3    H1 7644   4.171   5.684   4.927
 2560TIP3    H2 7645   4.115   5.549   4.966
 2561TIP3   OH2 7646   6.804   2.085   5.542
 2561TIP3    H1 7647   6.725   2.052   5.584
 2561TIP3    H2 7648   6.849   2.133   5.611
 2562TIP3   OH2 7649   5.286   6.636   2.967
 2562TIP3    H1 7650   5.248   6.548   2.972
 2562TIP3    H2 7651   5.237   6.686   3.032
 2563TIP3   OH2 7652   2.142   1.830   5.821
 2563TIP3    H1 7653   2.153   1.735   5.812
 2563TIP3    H2 7654   2.061   1.849   5.774
 2564TIP3   OH2 7655   1.042   2.879   4.446
 2564TIP3    H1 7656   1.018   2.788   4.429
 2564TIP3    H2 7657   0.997   2.902   4.527
 2565TIP3   OH2 7658   2.135   2.075   5.414
 2565TIP3    H1 7659   2.207   2.073   5.477
 2565TIP3    H2 7660   2.173   2.111   5.335
 2566TIP3   OH2 7661   2.627   4.444   4.754
 2566TIP3    H1 7662   2.627   4.511   4.685
 2566TIP3    H2 7663   2.573   4.373   4.718
 2567TIP3   OH2 7664   0.245   3.725   1.780
 2567TIP3    H1 7665   0.183   3.656   1.803
 2567TIP3    H2 7666   0.204   3.806   1.812
 2568TIP3   OH2 7667   6.973   3.926   1.053
 2568TIP3    H1 7668   6.930   3.841   1.053
 2568TIP3    H2 7669   7.061   3.908   1.085
 2569TIP3   OH2 7670   6.117   5.048   1.879
 2569TIP3    H1 7671   6.111   5.013   1.968
 2569TIP3    H2 7672   6.128   5.142   1.890
 2570TIP3   OH2 7673   4.473   0.777   5.609
 2570TIP3    H1 7674   4.404   0.724   5.648
 2570TIP3    H2 7675   4.548   0.717   5.601
 2571TIP3   OH2 7676   3.681   0.102   2.970
 2571TIP3    H1 7677   3.673   0.164   2.898
 2571TIP3    H2 7678   3.698   0.018   2.927
 2572TIP3   OH2 7679   4.577   5.390   3.259
 2572TIP3    H1 7680   4.482   5.381   3.251
 2572TIP3    H2 7681   4.589   5.471   3.309
 2573TIP3   OH2 7682   3.588   3.525   2.981
 2573TIP3    H1 7683   3.559   3.436   3.000
 2573TIP3    H2 7684   3.552   3.578   3.052
 2574TIP3   OH2 7685   4.369   2.123   0.938
 2574TIP3    H1 7686   4.320   2.167   0.868
 2574TIP3    H2 7687   4.301   2.092   0.999
 2575TIP3   OH2 7688   1.715   3.410   4.314
 2575TIP3    H1 7689   1.790   3.352   4.298
 2575TIP3    H2 7690   1.741   3.462   4.391
 2576TIP3   OH2 7691   5.778   1.059   1.223
 2576TIP3    H1 7692   5.701   1.004   1.235
 2576TIP3    H2 7693   5.748   1.134   1.173
 2577TIP3   OH2 7694   0.840   4.654   0.073
 2577TIP3    H1 7695   0.859   4.646   0.166
 2577TIP3    H2 7696   0.799   4.740   0.064
 2578TIP3   OH2 7697   5.015   6.559   1.996
 2578TIP3    H1 7698   4.961   6.548   1.918
 2578TIP3    H2 7699   5.039   6.470   2.021
 2579TIP3   OH2 7700   6.003   3.930   3.494
 2579TIP3    H1 7701   6.091   3.896   3.480
 2579TIP3    H2 7702   6.017   4.015   3.536
 2580TIP3   OH2 7703   0.955   4.866   3.936
 2580TIP3    H1 7704   1.038   4.895   3.974
 2580TIP3    H2 7705   0.979   4.831   3.850
 2581TIP3   OH2 7706   6.211   0.799   4.650
 2581TIP3    H1 7707   6.216   0.709   4.683
 2581TIP3    H2 7708   6.232   0.792   4.557
 2582TIP3   OH2 7709   4.984   5.858   0.167
 2582TIP3    H1 7710   5.048   5.885   0.101
 2582TIP3    H2 7711   4.962   5.939   0.214
 2583TIP3   OH2 7712   1.219   5.397   0.041
 2583TIP3    H1 7713   1.197   5.490   0.032
 2583TIP3    H2 7714   1.140   5.351   0.012
 2584TIP3   OH2 7715   3.020   4.008   5.660
 2584TIP3    H1 7716   3.001   3.965   5.743
 2584TIP3    H2 7717   3.115   4.005   5.652
 2585TIP3   OH2 7718   1.454   5.907   4.282
 2585TIP3    H1 7719   1.396   5.883   4.209
 2585TIP3    H2 7720   1.394   5.927   4.354
 2586TIP3   OH2 7721   4.087   5.778   2.720
 2586TIP3    H1 7722   4.177   5.806   2.709
 2586TIP3    H2 7723   4.081   5.696   2.671
 2587TIP3   OH2 7724   6.759   3.896   3.318
 2587TIP3    H1 7725   6.795   3.808   3.312
 2587TIP3    H2 7726   6.753   3.914   3.412
 2588TIP3   OH2 7727   0.050   2.696   5.735
 2588TIP3    H1 7728   0.087   2.654   5.657
 2588TIP3    H2 7729   0.049   2.789   5.713
 2589TIP3   OH2 7730   1.915   2.273   4.547
 2589TIP3    H1 7731   1.856   2.294   4.620
 2589TIP3    H2 7732   1.908   2.348   4.488
 2590TIP3   OH2 7733   0.460   4.252   0.307
 2590TIP3    H1 7734   0.368   4.227   0.299
 2590TIP3    H2 7735   0.508   4.174   0.281
 2591TIP3   OH2 7736   1.440   5.678   2.162
 2591TIP3    H1 7737   1.450   5.730   2.083
 2591TIP3    H2 7738   1.384   5.605   2.136
 2592TIP3   OH2 7739   4.136   6.513   4.053
 2592TIP3    H1 7740   4.213   6.522   4.109
 2592TIP3    H2 7741   4.083   6.590   4.072
 2593TIP3   OH2 7742   2.700   4.111   3.143
 2593TIP3    H1 7743   2.657   4.040   3.190
 2593TIP3    H2 7744   2.790   4.111   3.176
 2594TIP3   OH2 7745   3.746   0.122   4.757
 2594TIP3    H1 7746   3.682   0.191   4.738
 2594TIP3    H2 7747   3.827   0.169   4.777
 2595TIP3   OH2 7748   3.568   3.017   4.947
 2595TIP3    H1 7749   3.562   2.922   4.958
 2595TIP3    H2 7750   3.617   3.029   4.866
 2596TIP3   OH2 7751   5.751   2.516   1.598
 2596TIP3    H1 7752   5.664   2.477   1.608
 2596TIP3    H2 7753   5.766   2.561   1.681
 2597TIP3   OH2 7754   2.977   0.123   3.733
 2597TIP3    H1 7755   2.911   0.063   3.700
 2597TIP3    H2 7756   2.952   0.209   3.698
 2598TIP3   OH2 7757   3.526   3.008   3.749
 2598TIP3    H1 7758   3.432   2.994   3.736
 2598TIP3    H2 7759   3.540   2.987   3.842
 2599TIP3   OH2 7760   6.970   3.398   1.984
 2599TIP3    H1 7761   7.006   3.473   1.937
 2599TIP3    H2 7762   7.040   3.371   2.044
 2600TIP3   OH2 7763   5.398   0.692   2.333
 2600TIP3    H1 7764   5.325   0.630   2.342
 2600TIP3    H2 7765   5.397   0.741   2.415
 2601TIP3   OH2 7766   1.793   0.524   5.869
 2601TIP3    H1 7767   1.864   0.525   5.804
 2601TIP3    H2 7768   1.739   0.449   5.844
 2602TIP3   OH2 7769   5.646   1.698   4.639
 2602TIP3    H1 7770   5.649   1.639   4.714
 2602TIP3    H2 7771   5.652   1.641   4.563
 2603TIP3   OH2 7772   5.164   5.627   3.123
 2603TIP3    H1 7773   5.204   5.541   3.132
 2603TIP3    H2 7774   5.209   5.667   3.049
 2604TIP3   OH2 7775   0.787   3.051   0.936
 2604TIP3    H1 7776   0.732   3.128   0.918
 2604TIP3    H2 7777   0.846   3.079   1.005
 2605TIP3   OH2 7778   0.960   0.726   5.666
 2605TIP3    H1 7779   1.051   0.735   5.696
 2605TIP3    H2 7780   0.916   0.680   5.737
 2606TIP3   OH2 7781   4.515   0.222   0.695
 2606TIP3    H1 7782   4.449   0.242   0.761
 2606TIP3    H2 7783   4.530   0.305   0.650
 2607TIP3   OH2 7784   6.687   5.669   0.378
 2607TIP3    H1 7785   6.745   5.638   0.308
 2607TIP3    H2 7786   6.733   5.646   0.459
 2608TIP3   OH2 7787   6.504   5.049   3.978
 2608TIP3    H1 7788   6.432   5.001   3.938
 2608TIP3    H2 7789   6.463   5.104   4.045
 2609TIP3   OH2 7790   1.731   3.742   1.157
 2609TIP3    H1 7791   1.709   3.691   1.235
 2609TIP3    H2 7792   1.657   3.728   1.098
 2610TIP3   OH2 7793   1.782   1.873   1.130
 2610TIP3    H1 7794   1.718   1.907   1.193
 2610TIP3    H2 7795   1.749   1.901   1.045
 2611TIP3   OH2 7796   7.120   5.402   1.248
 2611TIP3    H1 7797   7.203   5.448   1.259
 2611TIP3    H2 7798   7.077   5.447   1.176
 2612TIP3   OH2 7799   6.088   0.412   2.045
 2612TIP3    H1 7800   6.047   0.447   1.966
 2612TIP3    H2 7801   6.018   0.411   2.110
 2613TIP3   OH2 7802   4.418   2.320   2.718
 2613TIP3    H1 7803   4.509   2.341   2.739
 2613TIP3    H2 7804   4.374   2.405   2.713
 2614TIP3   OH2 7805   1.197   4.983   2.118
 2614TIP3    H1 7806   1.280   4.990   2.164
 2614TIP3    H2 7807   1.131   5.007   2.183
 2615TIP3   OH2 7808   5.712   5.600   1.157
 2615TIP3    H1 7809   5.702   5.690   1.188
 2615TIP3    H2 7810   5.678   5.601   1.067
 2616TIP3   OH2 7811   3.573   5.846   0.377
 2616TIP3    H1 7812   3.521   5.769   0.357
 2616TIP3    H2 7813   3.631   5.818   0.448
 2617TIP3   OH2 7814   3.390   2.350   3.566
 2617TIP3    H1 7815   3.439   2.317   3.490
 2617TIP3    H2 7816   3.426   2.438   3.580
 2618TIP3   OH2 7817   3.607   3.018   0.425
 2618TIP3    H1 7818   3.674   2.950   0.437
 2618TIP3    H2 7819   3.618   3.076   0.501
 2619TIP3   OH2 7820   3.369   1.717   1.444
 2619TIP3    H1 7821   3.375   1.652   1.373
 2619TIP3    H2 7822   3.332   1.794   1.402
 2620TIP3   OH2 7823   0.978   0.792   4.936
 2620TIP3    H1 7824   0.987   0.713   4.989
 2620TIP3    H2 7825   1.034   0.776   4.860
 2621TIP3   OH2 7826   5.804   4.527   0.826
 2621TIP3    H1 7827   5.854   4.463   0.877
 2621TIP3    H2 7828   5.737   4.474   0.782
 2622TIP3   OH2 7829   5.274   4.742   2.985
 2622TIP3    H1 7830   5.204   4.806   2.979
 2622TIP3    H2 7831   5.241   4.676   3.046
 2623TIP3   OH2 7832   5.551   2.628   4.123
 2623TIP3    H1 7833   5.496   2.570   4.175
 2623TIP3    H2 7834   5.493   2.660   4.053
 2624TIP3   OH2 7835   1.663   0.252   2.027
 2624TIP3    H1 7836   1.653   0.158   2.011
 2624TIP3    H2 7837   1.603   0.293   1.965
 2625TIP3   OH2 7838   5.908   4.090   2.915
 2625TIP3    H1 7839   5.844   4.158   2.892
 2625TIP3    H2 7840   5.863   4.033   2.977
 2626TIP3   OH2 7841   5.527   3.371   0.108
 2626TIP3    H1 7842   5.590   3.405   0.044
 2626TIP3    H2 7843   5.575   3.302   0.154
 2627TIP3   OH2 7844   3.704   1.187   3.067
 2627TIP3    H1 7845   3.760   1.205   3.143
 2627TIP3    H2 7846   3.765   1.177   2.994
 2628TIP3   OH2 7847   3.648   3.958   5.613
 2628TIP3    H1 7848   3.728   3.932   5.569
 2628TIP3    H2 7849   3.581   3.899   5.578
 2629TIP3   OH2 7850   7.060   3.138   5.144
 2629TIP3    H1 7851   7.020   3.199   5.083
 2629TIP3    H2 7852   7.033   3.168   5.231
 2630TIP3   OH2 7853   2.927   6.209   2.584
 2630TIP3    H1 7854   2.879   6.189   2.665
 2630TIP3    H2 7855   2.998   6.267   2.612
 2631TIP3   OH2 7856   4.571   4.309   0.712
 2631TIP3    H1 7857   4.639   4.373   0.687
 2631TIP3    H2 7858   4.567   4.314   0.807
 2632TIP3   OH2 7859   0.112   4.405   3.814
 2632TIP3    H1 7860   0.159   4.372   3.891
 2632TIP3    H2 7861   0.112   4.500   3.826
 2633TIP3   OH2 7862   4.191   0.251   4.464
 2633TIP3    H1 7863   4.157   0.321   4.520
 2633TIP3    H2 7864   4.122   0.185   4.464
 2634TIP3   OH2 7865   3.417   0.281   4.937
 2634TIP3    H1 7866   3.322   0.295   4.939
 2634TIP3    H2 7867   3.446   0.323   4.857
 2635TIP3   OH2 7868   2.252   6.127   1.801
 2635TIP3    H1 7869   2.340   6.104   1.771
 2635TIP3    H2 7870   2.202   6.046   1.794
 2636TIP3   OH2 7871   5.039   3.678   4.282
 2636TIP3    H1 7872   4.953   3.719   4.286
 2636TIP3    H2 7873   5.026   3.591   4.321
 2637TIP3   OH2 7874   6.873   1.262   4.974
 2637TIP3    H1 7875   6.870   1.244   4.880
 2637TIP3    H2 7876   6.812   1.335   4.986
 2638TIP3   OH2 7877   0.594   3.430   0.446
 2638TIP3    H1 7878   0.640   3.513   0.431
 2638TIP3    H2 7879   0.639   3.367   0.390
 2639TIP3   OH2 7880   4.916   0.532   2.596
 2639TIP3    H1 7881   4.990   0.590   2.581
 2639TIP3    H2 7882   4.841   0.577   2.555
 2640TIP3   OH2 7883   6.880   2.211   4.924
 2640TIP3    H1 7884   6.810   2.276   4.932
 2640TIP3    H2 7885   6.959   2.263   4.907
 2641TIP3   OH2 7886   5.893   1.890   1.513
 2641TIP3    H1 7887   5.961   1.826   1.533
 2641TIP3    H2 7888   5.823   1.871   1.575
 2642TIP3   OH2 7889   3.588   1.705   0.171
 2642TIP3    H1 7890   3.602   1.737   0.082
 2642TIP3    H2 7891   3.495   1.684   0.174
 2643TIP3   OH2 7892   1.026   2.165   0.372
 2643TIP3    H1 7893   1.052   2.205   0.455
 2643TIP3    H2 7894   0.991   2.079   0.396
 2644TIP3   OH2 7895   2.934   2.885   5.295
 2644TIP3    H1 7896   2.844   2.874   5.264
 2644TIP3    H2 7897   2.977   2.936   5.226
 2645TIP3   OH2 7898   5.702   2.935   0.337
 2645TIP3    H1 7899   5.673   2.873   0.404
 2645TIP3    H2 7900   5.754   2.881   0.276
 2646TIP3   OH2 7901   6.945   1.082   0.053
 2646TIP3    H1 7902   7.024   1.108   0.101
 2646TIP3    H2 7903   6.890   1.040   0.119
 2647TIP3   OH2 7904   1.820   3.537   0.484
 2647TIP3    H1 7905   1.781   3.520   0.398
 2647TIP3    H2 7906   1.914   3.537   0.468
 2648TIP3   OH2 7907   0.816   2.918   0.680
 2648TIP3    H1 7908   0.909   2.899   0.692
 2648TIP3    H2 7909   0.789   2.959   0.762
 2649TIP3   OH2 7910   5.647   3.310   4.329
 2649TIP3    H1 7911   5.556   3.335   4.314
 2649TIP3    H2 7912   5.662   3.237   4.268
 2650TIP3   OH2 7913   5.280   6.564   5.704
 2650TIP3    H1 7914   5.215   6.623   5.666
 2650TIP3    H2 7915   5.345   6.553   5.634
 2651TIP3   OH2 7916   0.959   4.826   3.652
 2651TIP3    H1 7917   0.897   4.886   3.611
 2651TIP3    H2 7918   1.028   4.814   3.586
 2652TIP3   OH2 7919   4.436   1.958   1.592
 2652TIP3    H1 7920   4.468   2.046   1.611
 2652TIP3    H2 7921   4.447   1.911   1.675
 2653TIP3   OH2 7922   3.664   1.665   3.235
 2653TIP3    H1 7923   3.619   1.668   3.150
 2653TIP3    H2 7924   3.593   1.661   3.299
 2654TIP3   OH2 7925   7.001   2.612   1.417
 2654TIP3    H1 7926   7.021   2.583   1.328
 2654TIP3    H2 7927   6.906   2.627   1.417
 2655TIP3   OH2 7928   2.604   4.359   2.398
 2655TIP3    H1 7929   2.625   4.281   2.448
 2655TIP3    H2 7930   2.687   4.385   2.357
 2656TIP3   OH2 7931   3.524   2.555   5.670
 2656TIP3    H1 7932   3.488   2.468   5.685
 2656TIP3    H2 7933   3.566   2.550   5.584
 2657TIP3   OH2 7934   4.007   0.642   2.881
 2657TIP3    H1 7935   4.040   0.632   2.792
 2657TIP3    H2 7936   4.083   0.668   2.932
 2658TIP3   OH2 7937   2.191   5.766   2.953
 2658TIP3    H1 7938   2.155   5.786   3.040
 2658TIP3    H2 7939   2.151   5.831   2.895
 2659TIP3   OH2 7940   0.730   5.718   5.210
 2659TIP3    H1 7941   0.638   5.715   5.237
 2659TIP3    H2 7942   0.779   5.715   5.293
 2660TIP3   OH2 7943   3.562   6.009   5.758
 2660TIP3    H1 7944   3.638   6.045   5.803
 2660TIP3    H2 7945   3.509   6.085   5.735
 2661TIP3   OH2 7946   6.832   6.113   1.205
 2661TIP3    H1 7947   6.836   6.083   1.296
 2661TIP3    H2 7948   6.776   6.050   1.161
 2662TIP3   OH2 7949   2.265   4.566   2.913
 2662TIP3    H1 7950   2.283   4.554   2.820
 2662TIP3    H2 7951   2.178   4.605   2.916
 2663TIP3   OH2 7952   4.069   3.846   3.864
 2663TIP3    H1 7953   4.018   3.815   3.789
 2663TIP3    H2 7954   4.160   3.844   3.833
 2664TIP3   OH2 7955   0.532   2.026   0.290
 2664TIP3    H1 7956   0.463   2.089   0.269
 2664TIP3    H2 7957   0.566   2.054   0.374
 2665TIP3   OH2 7958   3.278   0.676   4.852
 2665TIP3    H1 7959   3.288   0.588   4.816
 2665TIP3    H2 7960   3.197   0.672   4.903
 2666TIP3   OH2 7961   6.479   5.588   1.034
 2666TIP3    H1 7962   6.524   5.532   1.098
 2666TIP3    H2 7963   6.543   5.599   0.964
 2667TIP3   OH2 7964   3.272   5.309   1.826
 2667TIP3    H1 7965   3.282   5.392   1.872
 2667TIP3    H2 7966   3.357   5.296   1.782
 2668TIP3   OH2 7967   1.179   2.236   4.661
 2668TIP3    H1 7968   1.193   2.300   4.731
 2668TIP3    H2 7969   1.265   2.196   4.648
 2669TIP3   OH2 7970   6.750   1.642   2.432
 2669TIP3    H1 7971   6.761   1.635   2.337
 2669TIP3    H2 7972   6.833   1.613   2.469
 2670TIP3   OH2 7973   1.843   1.615   1.663
 2670TIP3    H1 7974   1.833   1.519   1.659
 2670TIP3    H2 7975   1.913   1.634   1.600
 2671TIP3   OH2 7976   0.702   2.444   2.070
 2671TIP3    H1 7977   0.656   2.526   2.087
 2671TIP3    H2 7978   0.777   2.446   2.130
 2672TIP3   OH2 7979   6.208   5.881   1.761
 2672TIP3    H1 7980   6.272   5.834   1.708
 2672TIP3    H2 7981   6.193   5.823   1.836
 2673TIP3   OH2 7982   5.893   4.836   0.010
 2673TIP3    H1 7983   5.922   4.756   0.055
 2673TIP3    H2 7984   5.974   4.880  -0.015
 2674TIP3   OH2 7985   4.220   2.897   1.282
 2674TIP3    H1 7986   4.178   2.822   1.325
 2674TIP3    H2 7987   4.230   2.869   1.191
 2675TIP3   OH2 7988   5.535   3.756   2.947
 2675TIP3    H1 7989   5.472   3.685   2.936
 2675TIP3    H2 7990   5.490   3.821   3.000
 2676TIP3   OH2 7991   4.787   4.053   3.142
 2676TIP3    H1 7992   4.839   4.133   3.136
 2676TIP3    H2 7993   4.806   4.006   3.061
 2677TIP3   OH2 7994   0.778   1.940   5.131
 2677TIP3    H1 7995   0.695   1.964   5.091
 2677TIP3    H2 7996   0.795   1.851   5.100
 2678TIP3   OH2 7997   5.634   6.500   4.369
 2678TIP3    H1 7998   5.630   6.414   4.411
 2678TIP3    H2 7999   5.685   6.485   4.289
 2679TIP3   OH2 8000   0.723   1.969   5.693
 2679TIP3    H1 8001   0.781   2.004   5.625
 2679TIP3    H2 8002   0.756   1.880   5.709
 2680TIP3   OH2 8003   1.514   4.739   2.582
 2680TIP3    H1 8004   1.446   4.806   2.584
 2680TIP3    H2 8005   1.549   4.738   2.672
 2681TIP3   OH2 8006   2.596   3.218   1.448
 2681TIP3    H1 8007   2.595   3.311   1.429
 2681TIP3    H2 8008   2.531   3.207   1.518
 2682TIP3   OH2 8009   0.806   0.786   1.983
 2682TIP3    H1 8010   0.837   0.824   1.900
 2682TIP3    H2 8011   0.862   0.710   1.997
 2683TIP3   OH2 8012   0.585   5.323   2.212
 2683TIP3    H1 8013   0.602   5.296   2.302
 2683TIP3    H2 8014   0.502   5.282   2.190
 2684TIP3   OH2 8015   0.005   3.540   0.983
 2684TIP3    H1 8016  -0.004   3.522   0.889
 2684TIP3    H2 8017   0.007   3.636   0.989
 2685TIP3   OH2 8018   5.611   5.479   1.408
 2685TIP3    H1 8019   5.634   5.488   1.315
 2685TIP3    H2 8020   5.516   5.481   1.409
 2686TIP3   OH2 8021   4.565   3.817   4.835
 2686TIP3    H1 8022   4.480   3.773   4.844
 2686TIP3    H2 8023   4.629   3.746   4.843
 2687TIP3   OH2 8024   5.801   1.568   5.148
 2687TIP3    H1 8025   5.707   1.582   5.135
 2687TIP3    H2 8026   5.812   1.473   5.145
 2688TIP3   OH2 8027   6.213   5.531   0.210
 2688TIP3    H1 8028   6.259   5.531   0.293
 2688TIP3    H2 8029   6.132   5.579   0.227
 2689TIP3   OH2 8030   0.716   4.183   5.120
 2689TIP3    H1 8031   0.802   4.144   5.132
 2689TIP3    H2 8032   0.731   4.277   5.132
 2690TIP3   OH2 8033   2.662   5.450   2.719
 2690TIP3    H1 8034   2.648   5.487   2.806
 2690TIP3    H2 8035   2.586   5.479   2.668
 2691TIP3   OH2 8036   3.718   2.762   0.240
 2691TIP3    H1 8037   3.768   2.827   0.191
 2691TIP3    H2 8038   3.783   2.709   0.284
 2692TIP3   OH2 8039   4.460   6.715   2.080
 2692TIP3    H1 8040   4.481   6.801   2.116
 2692TIP3    H2 8041   4.403   6.675   2.146
 2693TIP3   OH2 8042   4.405  -0.005   4.478
 2693TIP3    H1 8043   4.374   0.085   4.467
 2693TIP3    H2 8044   4.372  -0.031   4.564
 2694TIP3   OH2 8045   4.041   3.490   3.716
 2694TIP3    H1 8046   4.108   3.442   3.666
 2694TIP3    H2 8047   4.088   3.524   3.792
 2695TIP3   OH2 8048   5.876   4.854   5.324
 2695TIP3    H1 8049   5.783   4.833   5.313
 2695TIP3    H2 8050   5.910   4.785   5.381
 2696TIP3   OH2 8051   3.723   1.583   0.637
 2696TIP3    H1 8052   3.675   1.617   0.713
 2696TIP3    H2 8053   3.764   1.502   0.669
 2697TIP3   OH2 8054   6.656   0.960   3.894
 2697TIP3    H1 8055   6.628   0.878   3.853
 2697TIP3    H2 8056   6.582   0.985   3.950
 2698TIP3   OH2 8057   3.833   3.910   1.512
 2698TIP3    H1 8058   3.755   3.927   1.565
 2698TIP3    H2 8059   3.880   3.994   1.512
 2699TIP3   OH2 8060   1.500   3.152   1.365
 2699TIP3    H1 8061   1.434   3.153   1.295
 2699TIP3    H2 8062   1.583   3.137   1.319
 2700TIP3   OH2 8063   3.385   1.742   4.603
 2700TIP3    H1 8064   3.295   1.718   4.626
 2700TIP3    H2 8065   3.409   1.809   4.666
 2701TIP3   OH2 8066   4.821   2.126  -0.011
 2701TIP3    H1 8067   4.887   2.063   0.019
 2701TIP3    H2 8068   4.834   2.203   0.045
 2702TIP3   OH2 8069   0.299   3.946   4.969
 2702TIP3    H1 8070   0.378   3.912   4.928
 2702TIP3    H2 8071   0.265   3.872   5.020
 2703TIP3   OH2 8072   6.754   0.271   3.871
 2703TIP3    H1 8073   6.795   0.331   3.809
 2703TIP3    H2 8074   6.746   0.323   3.952
 2704TIP3   OH2 8075   4.190   3.241   0.900
 2704TIP3    H1 8076   4.159   3.200   0.980
 2704TIP3    H2 8077   4.285   3.233   0.903
 2705TIP3   OH2 8078   3.371   1.326   3.048
 2705TIP3    H1 8079   3.293   1.284   3.011
 2705TIP3    H2 8080   3.347   1.419   3.052
 2706TIP3   OH2 8081   5.385   3.887   0.976
 2706TIP3    H1 8082   5.293   3.874   0.997
 2706TIP3    H2 8083   5.394   3.981   0.962
 2707TIP3   OH2 8084   2.344   5.424   3.381
 2707TIP3    H1 8085   2.334   5.335   3.414
 2707TIP3    H2 8086   2.414   5.418   3.316
 2708TIP3   OH2 8087   2.612   5.922   3.393
 2708TIP3    H1 8088   2.578   5.989   3.334
 2708TIP3    H2 8089   2.648   5.855   3.334
 2709TIP3   OH2 8090   6.030   6.598   2.873
 2709TIP3    H1 8091   6.089   6.631   2.804
 2709TIP3    H2 8092   5.957   6.559   2.825
 2710TIP3   OH2 8093   4.189   6.621   2.466
 2710TIP3    H1 8094   4.237   6.691   2.510
 2710TIP3    H2 8095   4.189   6.549   2.529
 2711TIP3   OH2 8096   0.102   4.644   4.720
 2711TIP3    H1 8097   0.035   4.583   4.751
 2711TIP3    H2 8098   0.165   4.650   4.792
 2712TIP3   OH2 8099   4.046   1.302   4.335
 2712TIP3    H1 8100   3.981   1.369   4.313
 2712TIP3    H2 8101   4.003   1.219   4.313
 2713TIP3   OH2 8102   0.840   2.689   0.513
 2713TIP3    H1 8103   0.891   2.745   0.455
 2713TIP3    H2 8104   0.817   2.746   0.587
 2714TIP3   OH2 8105   4.003   5.972   2.912
 2714TIP3    H1 8106   4.000   5.911   2.839
 2714TIP3    H2 8107   3.936   5.942   2.972
 2715TIP3   OH2 8108   5.940   0.865   3.954
 2715TIP3    H1 8109   6.036   0.865   3.958
 2715TIP3    H2 8110   5.917   0.772   3.957
 2716TIP3   OH2 8111   3.420   0.935   0.260
 2716TIP3    H1 8112   3.496   0.936   0.317
 2716TIP3    H2 8113   3.345   0.947   0.318
 2717TIP3   OH2 8114   1.747   4.820   5.340
 2717TIP3    H1 8115   1.841   4.820   5.357
 2717TIP3    H2 8116   1.721   4.911   5.351
 2718TIP3   OH2 8117   2.729   0.509   1.830
 2718TIP3    H1 8118   2.819   0.492   1.856
 2718TIP3    H2 8119   2.683   0.525   1.913
 2719TIP3   OH2 8120   3.965   6.262   1.629
 2719TIP3    H1 8121   3.889   6.215   1.666
 2719TIP3    H2 8122   3.933   6.351   1.614
 2720TIP3   OH2 8123   5.455   1.437   2.653
 2720TIP3    H1 8124   5.467   1.374   2.582
 2720TIP3    H2 8125   5.438   1.520   2.609
 2721TIP3   OH2 8126   4.720   5.652   3.316
 2721TIP3    H1 8127   4.780   5.669   3.244
 2721TIP3    H2 8128   4.773   5.606   3.381
 2722TIP3   OH2 8129   2.252   4.346   4.971
 2722TIP3    H1 8130   2.167   4.303   4.976
 2722TIP3    H2 8131   2.233   4.439   4.986
 2723TIP3   OH2 8132   4.122   5.680   0.510
 2723TIP3    H1 8133   4.089   5.754   0.460
 2723TIP3    H2 8134   4.192   5.717   0.565
 2724TIP3   OH2 8135   1.504   4.009   1.283
 2724TIP3    H1 8136   1.475   3.935   1.229
 2724TIP3    H2 8137   1.535   4.074   1.221
 2725TIP3   OH2 8138   5.284   6.618   5.230
 2725TIP3    H1 8139   5.214   6.632   5.167
 2725TIP3    H2 8140   5.277   6.692   5.291
 2726TIP3   OH2 8141   2.859   1.811   5.818
 2726TIP3    H1 8142   2.902   1.750   5.877
 2726TIP3    H2 8143   2.837   1.887   5.872
 2727TIP3   OH2 8144   1.097   5.878   2.485
 2727TIP3    H1 8145   1.101   5.908   2.394
 2727TIP3    H2 8146   1.010   5.841   2.494
 2728TIP3   OH2 8147   7.158   6.033   1.700
 2728TIP3    H1 8148   7.095   5.977   1.745
 2728TIP3    H2 8149   7.131   6.032   1.608
 2729TIP3   OH2 8150   0.417   5.243   3.859
 2729TIP3    H1 8151   0.490   5.295   3.826
 2729TIP3    H2 8152   0.416   5.165   3.803
 2730TIP3   OH2 8153   5.448   1.693   3.445
 2730TIP3    H1 8154   5.446   1.772   3.499
 2730TIP3    H2 8155   5.464   1.725   3.356
 2731TIP3   OH2 8156   4.164   4.478   2.035
 2731TIP3    H1 8157   4.206   4.392   2.041
 2731TIP3    H2 8158   4.234   4.538   2.010
 2732TIP3   OH2 8159   5.660   3.373   4.633
 2732TIP3    H1 8160   5.749   3.402   4.615
 2732TIP3    H2 8161   5.618   3.371   4.547
 2733TIP3   OH2 8162   6.228   2.435   3.284
 2733TIP3    H1 8163   6.145   2.457   3.241
 2733TIP3    H2 8164   6.293   2.490   3.239
 2734TIP3   OH2 8165   4.080   0.942   4.160
 2734TIP3    H1 8166   4.007   0.921   4.102
 2734TIP3    H2 8167   4.040   0.964   4.244
 2735TIP3   OH2 8168   0.358   1.537   4.795
 2735TIP3    H1 8169   0.342   1.603   4.863
 2735TIP3    H2 8170   0.436   1.490   4.824
 2736TIP3   OH2 8171   3.597   3.864   0.732
 2736TIP3    H1 8172   3.543   3.828   0.661
 2736TIP3    H2 8173   3.535   3.886   0.801
 2737TIP3   OH2 8174   6.107   5.637   2.410
 2737TIP3    H1 8175   6.109   5.542   2.418
 2737TIP3    H2 8176   6.048   5.654   2.336
 2738TIP3   OH2 8177   1.090   4.496   3.696
 2738TIP3    H1 8178   1.138   4.418   3.724
 2738TIP3    H2 8179   1.148   4.569   3.718
 2739TIP3   OH2 8180   2.340   2.411   0.843
 2739TIP3    H1 8181   2.252   2.386   0.814
 2739TIP3    H2 8182   2.334   2.505   0.858
 2740TIP3   OH2 8183   0.657   5.334   4.190
 2740TIP3    H1 8184   0.594   5.278   4.234
 2740TIP3    H2 8185   0.713   5.368   4.260
 2741TIP3   OH2 8186   2.729   2.336   3.235
 2741TIP3    H1 8187   2.772   2.395   3.297
 2741TIP3    H2 8188   2.795   2.271   3.213
 2742TIP3   OH2 8189   3.371   3.798   2.075
 2742TIP3    H1 8190   3.421   3.731   2.122
 2742TIP3    H2 8191   3.279   3.778   2.094
 2743TIP3   OH2 8192   6.243   0.890   3.911
 2743TIP3    H1 8193   6.304   0.821   3.887
 2743TIP3    H2 8194   6.273   0.920   3.996
 2744TIP3   OH2 8195   2.043   0.312   4.918
 2744TIP3    H1 8196   2.123   0.271   4.951
 2744TIP3    H2 8197   1.980   0.240   4.911
 2745TIP3   OH2 8198   5.391   6.683   2.180
 2745TIP3    H1 8199   5.480   6.675   2.213
 2745TIP3    H2 8200   5.397   6.746   2.109
 2746TIP3   OH2 8201   6.625   4.556   0.705
 2746TIP3    H1 8202   6.565   4.483   0.687
 2746TIP3    H2 8203   6.632   4.558   0.801
 2747TIP3   OH2 8204   2.074   5.185   5.050
 2747TIP3    H1 8205   2.110   5.207   4.965
 2747TIP3    H2 8206   2.116   5.247   5.111
 2748TIP3   OH2 8207   2.891   4.745   4.658
 2748TIP3    H1 8208   2.984   4.724   4.663
 2748TIP3    H2 8209   2.873   4.749   4.564
 2749TIP3   OH2 8210   6.037   2.569   5.442
 2749TIP3    H1 8211   5.963   2.625   5.465
 2749TIP3    H2 8212   6.035   2.499   5.507
 2750TIP3   OH2 8213   6.095   4.969   2.147
 2750TIP3    H1 8214   6.107   4.883   2.187
 2750TIP3    H2 8215   6.178   5.014   2.160
 2751TIP3   OH2 8216   3.288   0.754   1.483
 2751TIP3    H1 8217   3.247   0.819   1.426
 2751TIP3    H2 8218   3.225   0.743   1.555
 2752TIP3   OH2 8219   2.385   0.246   1.560
 2752TIP3    H1 8220   2.352   0.286   1.480
 2752TIP3    H2 8221   2.383   0.317   1.625
 2753TIP3   OH2 8222   4.421   3.466   3.160
 2753TIP3    H1 8223   4.482   3.519   3.211
 2753TIP3    H2 8224   4.461   3.459   3.073
 2754TIP3   OH2 8225   1.710   6.014   2.521
 2754TIP3    H1 8226   1.790   5.965   2.504
 2754TIP3    H2 8227   1.725   6.056   2.606
 2755TIP3   OH2 8228   1.838   6.624   1.498
 2755TIP3    H1 8229   1.748   6.595   1.480
 2755TIP3    H2 8230   1.892   6.546   1.484
 2756TIP3   OH2 8231   4.025   3.060   5.666
 2756TIP3    H1 8232   4.033   3.011   5.747
 2756TIP3    H2 8233   3.943   3.030   5.627
 2757TIP3   OH2 8234   0.653   0.607   1.462
 2757TIP3    H1 8235   0.748   0.601   1.472
 2757TIP3    H2 8236   0.631   0.534   1.404
 2758TIP3   OH2 8237   0.359   0.754   2.345
 2758TIP3    H1 8238   0.371   0.843   2.379
 2758TIP3    H2 8239   0.408   0.698   2.406
 2759TIP3   OH2 8240   2.831   1.874   3.261
 2759TIP3    H1 8241   2.786   1.851   3.180
 2759TIP3    H2 8242   2.850   1.967   3.252
 2760TIP3   OH2 8243   1.989   3.082   1.602
 2760TIP3    H1 8244   2.033   3.024   1.540
 2760TIP3    H2 8245   2.052   3.151   1.620
 2761TIP3   OH2 8246   1.779   2.437   0.485
 2761TIP3    H1 8247   1.856   2.485   0.455
 2761TIP3    H2 8248   1.774   2.456   0.579
 2762TIP3   OH2 8249   4.624   4.913   0.817
 2762TIP3    H1 8250   4.685   4.979   0.782
 2762TIP3    H2 8251   4.551   4.964   0.852
 2763TIP3   OH2 8252   2.635   4.187   1.456
 2763TIP3    H1 8253   2.647   4.282   1.446
 2763TIP3    H2 8254   2.721   4.155   1.483
 2764TIP3   OH2 8255   4.878   5.632   5.597
 2764TIP3    H1 8256   4.939   5.702   5.575
 2764TIP3    H2 8257   4.805   5.644   5.536
 2765TIP3   OH2 8258   3.284   0.133   0.659
 2765TIP3    H1 8259   3.248   0.221   0.649
 2765TIP3    H2 8260   3.208   0.075   0.651
 2766TIP3   OH2 8261   3.644   0.280   4.375
 2766TIP3    H1 8262   3.603   0.328   4.304
 2766TIP3    H2 8263   3.589   0.202   4.386
 2767TIP3   OH2 8264   1.060   1.998   4.813
 2767TIP3    H1 8265   0.991   2.042   4.862
 2767TIP3    H2 8266   1.067   2.048   4.731
 2768TIP3   OH2 8267   3.153   2.489   3.466
 2768TIP3    H1 8268   3.193   2.563   3.420
 2768TIP3    H2 8269   3.223   2.457   3.524
 2769TIP3   OH2 8270   1.583   0.744   5.761
 2769TIP3    H1 8271   1.558   0.824   5.714
 2769TIP3    H2 8272   1.674   0.759   5.786
 2770TIP3   OH2 8273   0.548   4.733   0.231
 2770TIP3    H1 8274   0.614   4.801   0.217
 2770TIP3    H2 8275   0.483   4.747   0.162
 2771TIP3   OH2 8276   2.068   0.615   2.463
 2771TIP3    H1 8277   2.046   0.529   2.426
 2771TIP3    H2 8278   2.158   0.631   2.435
 2772TIP3   OH2 8279   0.841   4.114   2.418
 2772TIP3    H1 8280   0.786   4.157   2.352
 2772TIP3    H2 8281   0.927   4.153   2.407
 2773TIP3   OH2 8282   3.248   4.077   2.107
 2773TIP3    H1 8283   3.282   3.988   2.111
 2773TIP3    H2 8284   3.299   4.125   2.173
 2774TIP3   OH2 8285   5.649   1.808   2.133
 2774TIP3    H1 8286   5.656   1.746   2.061
 2774TIP3    H2 8287   5.624   1.891   2.091
 2775TIP3   OH2 8288   0.399   1.105   4.059
 2775TIP3    H1 8289   0.468   1.066   4.112
 2775TIP3    H2 8290   0.422   1.082   3.969
 2776TIP3   OH2 8291   7.041   0.493   3.729
 2776TIP3    H1 8292   7.072   0.521   3.643
 2776TIP3    H2 8293   6.946   0.487   3.719
 2777TIP3   OH2 8294   3.551   4.108   0.904
 2777TIP3    H1 8295   3.507   4.026   0.883
 2777TIP3    H2 8296   3.551   4.112   0.999
 2778TIP3   OH2 8297   5.848   2.962   4.810
 2778TIP3    H1 8298   5.802   2.907   4.746
 2778TIP3    H2 8299   5.826   2.924   4.895
 2779TIP3   OH2 8300   6.872   5.659   0.585
 2779TIP3    H1 8301   6.883   5.751   0.610
 2779TIP3    H2 8302   6.961   5.629   0.568
 2780TIP3   OH2 8303   4.811   5.149   4.696
 2780TIP3    H1 8304   4.889   5.122   4.744
 2780TIP3    H2 8305   4.815   5.101   4.614
 2781TIP3   OH2 8306   7.150   0.444   5.717
 2781TIP3    H1 8307   7.203   0.425   5.640
 2781TIP3    H2 8308   7.132   0.537   5.711
 2782TIP3   OH2 8309   1.728   2.103   3.887
 2782TIP3    H1 8310   1.775   2.020   3.884
 2782TIP3    H2 8311   1.796   2.169   3.902
 2783TIP3   OH2 8312   6.271   4.230   2.615
 2783TIP3    H1 8313   6.291   4.141   2.587
 2783TIP3    H2 8314   6.198   4.258   2.560
 2784TIP3   OH2 8315   5.488   4.988   3.832
 2784TIP3    H1 8316   5.578   4.955   3.824
 2784TIP3    H2 8317   5.441   4.948   3.759
 2785TIP3   OH2 8318   3.133   4.250   3.717
 2785TIP3    H1 8319   3.122   4.314   3.787
 2785TIP3    H2 8320   3.099   4.168   3.754
 2786TIP3   OH2 8321   5.789   5.266   0.914
 2786TIP3    H1 8322   5.732   5.313   0.974
 2786TIP3    H2 8323   5.740   5.186   0.893
 2787TIP3   OH2 8324   2.524   0.262   2.423
 2787TIP3    H1 8325   2.545   0.248   2.516
 2787TIP3    H2 8326   2.446   0.319   2.425
 2788TIP3   OH2 8327   0.586   2.999   5.440
 2788TIP3    H1 8328   0.539   3.008   5.357
 2788TIP3    H2 8329   0.631   3.083   5.451
 2789TIP3   OH2 8330   0.341   1.067   5.029
 2789TIP3    H1 8331   0.350   1.066   4.934
 2789TIP3    H2 8332   0.323   0.976   5.052
 2790TIP3   OH2 8333   3.503   6.156   3.678
 2790TIP3    H1 8334   3.465   6.115   3.600
 2790TIP3    H2 8335   3.428   6.177   3.733
 2791TIP3   OH2 8336   3.471   1.420   0.415
 2791TIP3    H1 8337   3.519   1.429   0.332
 2791TIP3    H2 8338   3.501   1.336   0.450
 2792TIP3   OH2 8339   2.273   5.272   4.837
 2792TIP3    H1 8340   2.318   5.192   4.863
 2792TIP3    H2 8341   2.336   5.319   4.782
 2793TIP3   OH2 8342   4.117   6.528   2.866
 2793TIP3    H1 8343   4.132   6.528   2.961
 2793TIP3    H2 8344   4.029   6.492   2.856
 2794TIP3   OH2 8345   4.395   4.108   3.000
 2794TIP3    H1 8346   4.445   4.060   2.933
 2794TIP3    H2 8347   4.463   4.145   3.058
 2795TIP3   OH2 8348   2.372   0.879   4.147
 2795TIP3    H1 8349   2.364   0.956   4.203
 2795TIP3    H2 8350   2.288   0.875   4.100
 2796TIP3   OH2 8351   4.509   2.894   3.372
 2796TIP3    H1 8352   4.518   2.989   3.376
 2796TIP3    H2 8353   4.437   2.875   3.432
 2797TIP3   OH2 8354   5.395   4.799   3.387
 2797TIP3    H1 8355   5.325   4.801   3.452
 2797TIP3    H2 8356   5.476   4.809   3.439
 2798TIP3   OH2 8357   0.705   4.942   4.852
 2798TIP3    H1 8358   0.713   4.910   4.942
 2798TIP3    H2 8359   0.640   5.012   4.857
 2799TIP3   OH2 8360   1.826   1.680   5.084
 2799TIP3    H1 8361   1.790   1.758   5.126
 2799TIP3    H2 8362   1.763   1.658   5.016
 2800TIP3   OH2 8363   4.485   1.899   3.450
 2800TIP3    H1 8364   4.499   1.871   3.540
 2800TIP3    H2 8365   4.414   1.843   3.418
 2801TIP3   OH2 8366   0.896   0.970   0.957
 2801TIP3    H1 8367   0.841   0.907   1.004
 2801TIP3    H2 8368   0.841   1.001   0.885
 2802TIP3   OH2 8369   5.453   1.304   1.646
 2802TIP3    H1 8370   5.373   1.341   1.609
 2802TIP3    H2 8371   5.493   1.257   1.573
 2803TIP3   OH2 8372   2.635   2.489   1.468
 2803TIP3    H1 8373   2.603   2.435   1.540
 2803TIP3    H2 8374   2.713   2.532   1.504
 2804TIP3   OH2 8375   6.744   0.822   4.427
 2804TIP3    H1 8376   6.755   0.779   4.512
 2804TIP3    H2 8377   6.670   0.881   4.440
 2805TIP3   OH2 8378   3.824   3.676   4.793
 2805TIP3    H1 8379   3.844   3.723   4.874
 2805TIP3    H2 8380   3.847   3.585   4.811
 2806TIP3   OH2 8381   3.650   4.339   2.989
 2806TIP3    H1 8382   3.698   4.388   3.055
 2806TIP3    H2 8383   3.717   4.309   2.928
 2807TIP3   OH2 8384   3.569   0.460   5.417
 2807TIP3    H1 8385   3.542   0.443   5.327
 2807TIP3    H2 8386   3.647   0.514   5.410
 2808TIP3   OH2 8387   3.622   6.413   4.771
 2808TIP3    H1 8388   3.586   6.409   4.682
 2808TIP3    H2 8389   3.715   6.394   4.760
 2809TIP3   OH2 8390   5.954   4.982   3.670
 2809TIP3    H1 8391   5.903   5.051   3.627
 2809TIP3    H2 8392   6.001   4.940   3.598
 2810TIP3   OH2 8393   6.394   5.187   1.808
 2810TIP3    H1 8394   6.366   5.174   1.717
 2810TIP3    H2 8395   6.319   5.231   1.850
 2811TIP3   OH2 8396   1.219   4.227   5.262
 2811TIP3    H1 8397   1.291   4.234   5.200
 2811TIP3    H2 8398   1.257   4.186   5.339
 2812TIP3   OH2 8399   5.605   3.908   4.663
 2812TIP3    H1 8400   5.614   3.898   4.758
 2812TIP3    H2 8401   5.574   3.998   4.651
 2813TIP3   OH2 8402   2.233   1.162   1.600
 2813TIP3    H1 8403   2.224   1.144   1.506
 2813TIP3    H2 8404   2.147   1.197   1.625
 2814TIP3   OH2 8405   1.187   1.753   1.872
 2814TIP3    H1 8406   1.191   1.815   1.946
 2814TIP3    H2 8407   1.202   1.668   1.912
 2815TIP3   OH2 8408   1.189   2.715   3.393
 2815TIP3    H1 8409   1.205   2.671   3.310
 2815TIP3    H2 8410   1.161   2.803   3.369
 2816TIP3   OH2 8411   3.041   5.434   3.143
 2816TIP3    H1 8412   3.122   5.420   3.191
 2816TIP3    H2 8413   3.069   5.463   3.056
 2817TIP3   OH2 8414   2.480   1.318   0.829
 2817TIP3    H1 8415   2.532   1.307   0.909
 2817TIP3    H2 8416   2.501   1.240   0.777
 2818TIP3   OH2 8417   0.175   4.750   2.300
 2818TIP3    H1 8418   0.188   4.657   2.320
 2818TIP3    H2 8419   0.229   4.796   2.365
 2819TIP3   OH2 8420   6.529   4.415   4.552
 2819TIP3    H1 8421   6.592   4.355   4.511
 2819TIP3    H2 8422   6.529   4.390   4.644
 2820TIP3   OH2 8423  -0.009   1.227   1.963
 2820TIP3    H1 8424   0.069   1.184   1.926
 2820TIP3    H2 8425  -0.081   1.167   1.943
 2821TIP3   OH2 8426   0.534   6.529   4.972
 2821TIP3    H1 8427   0.605   6.488   5.022
 2821TIP3    H2 8428   0.461   6.533   5.034
 2822TIP3   OH2 8429   4.603   3.821   4.131
 2822TIP3    H1 8430   4.516   3.860   4.134
 2822TIP3    H2 8431   4.660   3.891   4.100
 2823TIP3   OH2 8432   2.284   5.730   5.223
 2823TIP3    H1 8433   2.364   5.736   5.276
 2823TIP3    H2 8434   2.279   5.814   5.178
 2824TIP3   OH2 8435   2.235   6.470   0.289
 2824TIP3    H1 8436   2.314   6.417   0.282
 2824TIP3    H2 8437   2.231   6.495   0.381
 2825TIP3   OH2 8438   4.560   5.905   2.502
 2825TIP3    H1 8439   4.622   5.966   2.463
 2825TIP3    H2 8440   4.602   5.819   2.495
 2826TIP3   OH2 8441   4.565   0.929   5.202
 2826TIP3    H1 8442   4.594   0.989   5.134
 2826TIP3    H2 8443   4.596   0.843   5.173
 2827TIP3   OH2 8444   3.062   2.370   2.300
 2827TIP3    H1 8445   2.975   2.394   2.270
 2827TIP3    H2 8446   3.084   2.292   2.249
 2828TIP3   OH2 8447   0.910   2.692   2.990
 2828TIP3    H1 8448   0.852   2.660   3.059
 2828TIP3    H2 8449   0.859   2.686   2.910
 2829TIP3   OH2 8450   5.531   1.656   0.311
 2829TIP3    H1 8451   5.549   1.717   0.239
 2829TIP3    H2 8452   5.445   1.620   0.290
 2830TIP3   OH2 8453   2.942   6.436   4.083
 2830TIP3    H1 8454   2.909   6.413   4.170
 2830TIP3    H2 8455   3.013   6.498   4.100
 2831TIP3   OH2 8456   4.998   1.324   4.984
 2831TIP3    H1 8457   4.982   1.302   4.892
 2831TIP3    H2 8458   5.077   1.276   5.007
 2832TIP3   OH2 8459   7.216   3.477   3.960
 2832TIP3    H1 8460   7.162   3.552   3.934
 2832TIP3    H2 8461   7.153   3.410   3.985
 2833TIP3   OH2 8462   4.644   6.207   1.494
 2833TIP3    H1 8463   4.701   6.265   1.443
 2833TIP3    H2 8464   4.563   6.256   1.505
 2834TIP3   OH2 8465   0.679   4.264   2.254
 2834TIP3    H1 8466   0.609   4.213   2.293
 2834TIP3    H2 8467   0.691   4.339   2.313
 2835TIP3   OH2 8468   0.825   2.567   1.344
 2835TIP3    H1 8469   0.877   2.614   1.409
 2835TIP3    H2 8470   0.829   2.622   1.266
 2836TIP3   OH2 8471   6.527   3.295   5.731
 2836TIP3    H1 8472   6.567   3.347   5.800
 2836TIP3    H2 8473   6.596   3.236   5.701
 2837TIP3   OH2 8474   5.332   3.221   1.155
 2837TIP3    H1 8475   5.422   3.189   1.151
 2837TIP3    H2 8476   5.340   3.315   1.170
 2838TIP3   OH2 8477   1.570   4.000   5.248
 2838TIP3    H1 8478   1.630   3.953   5.306
 2838TIP3    H2 8479   1.600   4.090   5.250
 2839TIP3   OH2 8480   6.235   4.531   0.787
 2839TIP3    H1 8481   6.317   4.481   0.783
 2839TIP3    H2 8482   6.207   4.523   0.878
 2840TIP3   OH2 8483   7.128   0.799   3.135
 2840TIP3    H1 8484   7.103   0.799   3.228
 2840TIP3    H2 8485   7.182   0.877   3.125
 2841TIP3   OH2 8486   3.189   2.239   2.819
 2841TIP3    H1 8487   3.180   2.289   2.738
 2841TIP3    H2 8488   3.268   2.185   2.805
 2842TIP3   OH2 8489   5.333   3.016   3.854
 2842TIP3    H1 8490   5.306   3.036   3.764
 2842TIP3    H2 8491   5.418   3.059   3.864
 2843TIP3   OH2 8492   1.469   1.486   0.230
 2843TIP3    H1 8493   1.412   1.533   0.291
 2843TIP3    H2 8494   1.409   1.452   0.163
 2844TIP3   OH2 8495   0.538   4.472   3.429
 2844TIP3    H1 8496   0.556   4.403   3.365
 2844TIP3    H2 8497   0.620   4.483   3.477
 2845TIP3   OH2 8498   6.666   0.099   2.381
 2845TIP3    H1 8499   6.580   0.069   2.353
 2845TIP3    H2 8500   6.662   0.100   2.476
 2846TIP3   OH2 8501   2.502   2.261   1.767
 2846TIP3    H1 8502   2.417   2.254   1.809
 2846TIP3    H2 8503   2.565   2.252   1.838
 2847TIP3   OH2 8504   1.666   0.146   0.619
 2847TIP3    H1 8505   1.647   0.225   0.568
 2847TIP3    H2 8506   1.581   0.110   0.641
 2848TIP3   OH2 8507   2.560   5.040   0.113
 2848TIP3    H1 8508   2.620   5.103   0.073
 2848TIP3    H2 8509   2.485   5.093   0.141
 2849TIP3   OH2 8510   0.733   4.224   4.491
 2849TIP3    H1 8511   0.742   4.259   4.402
 2849TIP3    H2 8512   0.646   4.185   4.493
 2850TIP3   OH2 8513   0.047   3.699   3.448
 2850TIP3    H1 8514   0.038   3.785   3.490
 2850TIP3    H2 8515   0.135   3.700   3.411
 2851TIP3   OH2 8516   1.466   6.652   2.021
 2851TIP3    H1 8517   1.515   6.706   2.082
 2851TIP3    H2 8518   1.530   6.590   1.986
 2852TIP3   OH2 8519   3.374   3.117   1.386
 2852TIP3    H1 8520   3.459   3.157   1.403
 2852TIP3    H2 8521   3.319   3.190   1.359
 2853TIP3   OH2 8522   1.313   0.220   1.083
 2853TIP3    H1 8523   1.285   0.298   1.035
 2853TIP3    H2 8524   1.403   0.240   1.110
 2854TIP3   OH2 8525   5.550   1.274   5.444
 2854TIP3    H1 8526   5.532   1.264   5.537
 2854TIP3    H2 8527   5.640   1.242   5.432
 2855TIP3   OH2 8528   3.362   5.416   4.512
 2855TIP3    H1 8529   3.360   5.487   4.447
 2855TIP3    H2 8530   3.449   5.423   4.552
 2856TIP3   OH2 8531   4.744   3.472   1.564
 2856TIP3    H1 8532   4.660   3.484   1.609
 2856TIP3    H2 8533   4.763   3.379   1.573
 2857TIP3   OH2 8534   1.655   0.998   2.754
 2857TIP3    H1 8535   1.673   1.021   2.845
 2857TIP3    H2 8536   1.560   0.991   2.749
 2858TIP3   OH2 8537   2.005   3.623   3.615
 2858TIP3    H1 8538   1.909   3.630   3.611
 2858TIP3    H2 8539   2.021   3.563   3.688
 2859TIP3   OH2 8540   3.581   0.253   5.929
 2859TIP3    H1 8541   3.595   0.232   5.837
 2859TIP3    H2 8542   3.610   0.344   5.937
 2860TIP3   OH2 8543   4.488   0.700   0.326
 2860TIP3    H1 8544   4.582   0.709   0.341
 2860TIP3    H2 8545   4.478   0.704   0.231
 2861TIP3   OH2 8546   3.122   6.481   3.005
 2861TIP3    H1 8547   3.074   6.502   2.925
 2861TIP3    H2 8548   3.187   6.416   2.977
 2862TIP3   OH2 8549   2.972   3.273   4.619
 2862TIP3    H1 8550   2.933   3.215   4.554
 2862TIP3    H2 8551   2.928   3.357   4.605
 2863TIP3   OH2 8552   6.149   6.080   3.740
 2863TIP3    H1 8553   6.063   6.122   3.734
 2863TIP3    H2 8554   6.139   5.999   3.689
 2864TIP3   OH2 8555   0.150   2.267   4.799
 2864TIP3    H1 8556   0.055   2.279   4.792
 2864TIP3    H2 8557   0.161   2.195   4.860
 2865TIP3   OH2 8558   5.147   5.767   3.792
 2865TIP3    H1 8559   5.208   5.839   3.804
 2865TIP3    H2 8560   5.198   5.689   3.813
 2866TIP3   OH2 8561   7.150   5.584   0.615
 2866TIP3    H1 8562   7.114   5.654   0.669
 2866TIP3    H2 8563   7.180   5.628   0.536
 2867TIP3   OH2 8564   2.010   4.323   2.919
 2867TIP3    H1 8565   2.011   4.378   2.841
 2867TIP3    H2 8566   2.086   4.353   2.970
 2868TIP3   OH2 8567   0.700   1.437   2.064
 2868TIP3    H1 8568   0.618   1.425   2.112
 2868TIP3    H2 8569   0.703   1.531   2.046
 2869TIP3   OH2 8570   5.528   0.458   1.822
 2869TIP3    H1 8571   5.511   0.369   1.792
 2869TIP3    H2 8572   5.551   0.506   1.742
 2870TIP3   OH2 8573   4.067   4.997   5.013
 2870TIP3    H1 8574   4.099   5.063   5.075
 2870TIP3    H2 8575   3.978   4.978   5.043
 2871TIP3   OH2 8576   6.974   3.677   3.365
 2871TIP3    H1 8577   7.054   3.728   3.375
 2871TIP3    H2 8578   6.947   3.657   3.454
 2872TIP3   OH2 8579   4.906   0.315   0.135
 2872TIP3    H1 8580   4.859   0.389   0.173
 2872TIP3    H2 8581   4.992   0.351   0.111
 2873TIP3   OH2 8582   4.678   6.042   5.817
 2873TIP3    H1 8583   4.745   6.011   5.757
 2873TIP3    H2 8584   4.699   6.001   5.901
 2874TIP3   OH2 8585   2.346   3.370   1.347
 2874TIP3    H1 8586   2.373   3.300   1.407
 2874TIP3    H2 8587   2.256   3.349   1.325
 2875TIP3   OH2 8588   6.856   1.290   1.047
 2875TIP3    H1 8589   6.915   1.347   0.997
 2875TIP3    H2 8590   6.830   1.222   0.986
 2876TIP3   OH2 8591   0.736   4.524   1.800
 2876TIP3    H1 8592   0.671   4.556   1.738
 2876TIP3    H2 8593   0.801   4.594   1.806
 2877TIP3   OH2 8594   5.258   6.555   1.645
 2877TIP3    H1 8595   5.333   6.612   1.631
 2877TIP3    H2 8596   5.282   6.501   1.721
 2878TIP3   OH2 8597   2.817   3.387   3.424
 2878TIP3    H1 8598   2.761   3.404   3.349
 2878TIP3    H2 8599   2.887   3.331   3.390
 2879TIP3   OH2 8600   0.372   0.084   5.900
 2879TIP3    H1 8601   0.443   0.032   5.937
 2879TIP3    H2 8602   0.415   0.157   5.855
 2880TIP3   OH2 8603   2.607   1.833   5.313
 2880TIP3    H1 8604   2.582   1.877   5.394
 2880TIP3    H2 8605   2.683   1.881   5.281
 2881TIP3   OH2 8606   6.835   1.682   0.239
 2881TIP3    H1 8607   6.893   1.616   0.277
 2881TIP3    H2 8608   6.824   1.747   0.308
 2882TIP3   OH2 8609   6.447   4.375   4.016
 2882TIP3    H1 8610   6.501   4.418   4.082
 2882TIP3    H2 8611   6.505   4.365   3.940
 2883TIP3   OH2 8612   2.040   4.111   5.833
 2883TIP3    H1 8613   1.973   4.113   5.765
 2883TIP3    H2 8614   1.991   4.104   5.915
 2884TIP3   OH2 8615   3.184   4.788   0.831
 2884TIP3    H1 8616   3.182   4.760   0.922
 2884TIP3    H2 8617   3.102   4.756   0.793
 2885TIP3   OH2 8618   1.868   2.587   0.695
 2885TIP3    H1 8619   1.901   2.606   0.782
 2885TIP3    H2 8620   1.945   2.557   0.646
 2886TIP3   OH2 8621   7.082   0.740   5.086
 2886TIP3    H1 8622   7.140   0.666   5.067
 2886TIP3    H2 8623   7.133   0.817   5.060
 2887TIP3   OH2 8624   5.794   5.115   2.526
 2887TIP3    H1 8625   5.788   5.028   2.565
 2887TIP3    H2 8626   5.885   5.123   2.500
 2888TIP3   OH2 8627   1.207   6.065   4.772
 2888TIP3    H1 8628   1.269   6.075   4.844
 2888TIP3    H2 8629   1.169   5.979   4.785
 2889TIP3   OH2 8630   2.007   1.214   1.756
 2889TIP3    H1 8631   1.936   1.224   1.694
 2889TIP3    H2 8632   1.971   1.160   1.827
 2890TIP3   OH2 8633   0.991   4.520   2.330
 2890TIP3    H1 8634   0.991   4.425   2.337
 2890TIP3    H2 8635   1.034   4.550   2.411
 2891TIP3   OH2 8636   4.950   4.493   5.311
 2891TIP3    H1 8637   4.932   4.400   5.298
 2891TIP3    H2 8638   5.010   4.516   5.240
 2892TIP3   OH2 8639   3.671   1.260   0.943
 2892TIP3    H1 8640   3.638   1.177   0.909
 2892TIP3    H2 8641   3.734   1.235   1.011
 2893TIP3   OH2 8642   6.646   6.588   1.680
 2893TIP3    H1 8643   6.651   6.568   1.773
 2893TIP3    H2 8644   6.726   6.552   1.642
 2894TIP3   OH2 8645   5.390   3.009   4.247
 2894TIP3    H1 8646   5.386   3.104   4.235
 2894TIP3    H2 8647   5.311   2.976   4.204
 2895TIP3   OH2 8648   6.034   1.589   2.140
 2895TIP3    H1 8649   6.019   1.503   2.179
 2895TIP3    H2 8650   6.109   1.624   2.188
 2896TIP3   OH2 8651   6.508   3.799   5.416
 2896TIP3    H1 8652   6.429   3.824   5.464
 2896TIP3    H2 8653   6.533   3.877   5.367
 2897TIP3   OH2 8654   5.460   2.400   1.172
 2897TIP3    H1 8655   5.498   2.324   1.128
 2897TIP3    H2 8656   5.400   2.362   1.237
 2898TIP3   OH2 8657   6.084   1.838   2.563
 2898TIP3    H1 8658   6.081   1.915   2.506
 2898TIP3    H2 8659   6.122   1.769   2.509
 2899TIP3   OH2 8660   4.383   4.294   1.324
 2899TIP3    H1 8661   4.291   4.272   1.309
 2899TIP3    H2 8662   4.425   4.278   1.240
 2900TIP3   OH2 8663   2.909   5.252   5.294
 2900TIP3    H1 8664   2.921   5.259   5.200
 2900TIP3    H2 8665   2.988   5.290   5.332
 2901TIP3   OH2 8666   4.000   5.091   3.810
 2901TIP3    H1 8667   4.050   5.125   3.884
 2901TIP3    H2 8668   4.023   4.998   3.806
 2902TIP3   OH2 8669   2.086   1.412   5.570
 2902TIP3    H1 8670   2.063   1.368   5.489
 2902TIP3    H2 8671   2.059   1.351   5.639
 2903TIP3   OH2 8672   5.948   5.320   2.878
 2903TIP3    H1 8673   5.920   5.240   2.833
 2903TIP3    H2 8674   5.970   5.292   2.967
 2904TIP3   OH2 8675   2.436   2.498   2.590
 2904TIP3    H1 8676   2.530   2.498   2.574
 2904TIP3    H2 8677   2.414   2.591   2.603
 2905TIP3   OH2 8678   6.439   1.634   5.388
 2905TIP3    H1 8679   6.529   1.605   5.375
 2905TIP3    H2 8680   6.386   1.556   5.373
 2906TIP3   OH2 8681   7.036   6.732   1.760
 2906TIP3    H1 8682   6.965   6.767   1.814
 2906TIP3    H2 8683   7.022   6.771   1.674
 2907TIP3   OH2 8684   3.013   3.544   1.233
 2907TIP3    H1 8685   2.962   3.615   1.195
 2907TIP3    H2 8686   2.949   3.475   1.249
 2908TIP3   OH2 8687   2.912   5.124   4.488
 2908TIP3    H1 8688   2.984   5.091   4.434
 2908TIP3    H2 8689   2.942   5.210   4.518
 2909TIP3   OH2 8690   0.294   3.784   3.281
 2909TIP3    H1 8691   0.352   3.786   3.357
 2909TIP3    H2 8692   0.327   3.853   3.223
 2910TIP3   OH2 8693   3.259   1.922   0.469
 2910TIP3    H1 8694   3.198   1.873   0.524
 2910TIP3    H2 8695   3.248   2.013   0.496
 2911TIP3   OH2 8696   0.600   2.769   1.885
 2911TIP3    H1 8697   0.603   2.707   1.958
 2911TIP3    H2 8698   0.550   2.844   1.919
 2912TIP3   OH2 8699   1.281   5.988   4.480
 2912TIP3    H1 8700   1.196   6.005   4.438
 2912TIP3    H2 8701   1.272   6.022   4.568
 2913TIP3   OH2 8702   3.641   4.531   4.387
 2913TIP3    H1 8703   3.718   4.525   4.330
 2913TIP3    H2 8704   3.674   4.513   4.475
 2914TIP3   OH2 8705   3.437   0.193   2.368
 2914TIP3    H1 8706   3.456   0.200   2.274
 2914TIP3    H2 8707   3.480   0.269   2.407
 2915TIP3   OH2 8708  -0.012   1.443   5.107
 2915TIP3    H1 8709   0.005   1.533   5.080
 2915TIP3    H2 8710   0.061   1.393   5.071
 2916TIP3   OH2 8711   2.041   2.833   4.325
 2916TIP3    H1 8712   2.055   2.907   4.266
 2916TIP3    H2 8713   1.946   2.826   4.334
 2917TIP3   OH2 8714   4.718   6.648   5.072
 2917TIP3    H1 8715   4.729   6.686   5.160
 2917TIP3    H2 8716   4.727   6.553   5.086
 2918TIP3   OH2 8717   5.476   1.051   0.679
 2918TIP3    H1 8718   5.465   1.098   0.762
 2918TIP3    H2 8719   5.391   1.059   0.636
 2919TIP3   OH2 8720   3.886   4.805   0.597
 2919TIP3    H1 8721   3.868   4.783   0.505
 2919TIP3    H2 8722   3.857   4.896   0.606
 2920TIP3   OH2 8723   2.584   2.786   1.359
 2920TIP3    H1 8724   2.678   2.803   1.354
 2920TIP3    H2 8725   2.569   2.714   1.298
 2921TIP3   OH2 8726   1.412   1.743   5.365
 2921TIP3    H1 8727   1.495   1.706   5.335
 2921TIP3    H2 8728   1.374   1.675   5.421
 2922TIP3   OH2 8729   2.924   6.645   3.111
 2922TIP3    H1 8730   2.861   6.575   3.131
 2922TIP3    H2 8731   3.005   6.600   3.088
 2923TIP3   OH2 8732   3.568   4.131   1.199
 2923TIP3    H1 8733   3.588   4.178   1.279
 2923TIP3    H2 8734   3.473   4.138   1.189
 2924TIP3   OH2 8735   3.035   4.049   0.782
 2924TIP3    H1 8736   2.958   4.098   0.809
 2924TIP3    H2 8737   3.002   3.963   0.756
 2925TIP3   OH2 8738   2.754   0.841   2.373
 2925TIP3    H1 8739   2.770   0.872   2.462
 2925TIP3    H2 8740   2.840   0.811   2.342
 2926TIP3   OH2 8741   5.928   2.489   2.556
 2926TIP3    H1 8742   6.009   2.530   2.585
 2926TIP3    H2 8743   5.944   2.469   2.464
 2927TIP3   OH2 8744   3.843   5.560   1.101
 2927TIP3    H1 8745   3.833   5.466   1.089
 2927TIP3    H2 8746   3.754   5.595   1.096
 2928TIP3   OH2 8747   5.127   2.499   2.891
 2928TIP3    H1 8748   5.125   2.592   2.872
 2928TIP3    H2 8749   5.140   2.457   2.806
 2929TIP3   OH2 8750   3.589   1.997   3.053
 2929TIP3    H1 8751   3.551   1.917   3.016
 2929TIP3    H2 8752   3.516   2.059   3.055
 2930TIP3   OH2 8753   6.920   6.662   0.814
 2930TIP3    H1 8754   6.933   6.678   0.721
 2930TIP3    H2 8755   6.998   6.613   0.842
 2931TIP3   OH2 8756   7.020   0.473   2.795
 2931TIP3    H1 8757   7.048   0.471   2.886
 2931TIP3    H2 8758   6.934   0.430   2.794
 2932TIP3   OH2 8759   5.911   2.186   1.120
 2932TIP3    H1 8760   5.852   2.118   1.089
 2932TIP3    H2 8761   5.873   2.267   1.086
 2933TIP3   OH2 8762   5.197   1.567   3.478
 2933TIP3    H1 8763   5.276   1.609   3.444
 2933TIP3    H2 8764   5.190   1.485   3.429
 2934TIP3   OH2 8765   6.013   5.833   1.316
 2934TIP3    H1 8766   6.079   5.897   1.291
 2934TIP3    H2 8767   5.935   5.885   1.333
 2935TIP3   OH2 8768   1.244   2.137   1.031
 2935TIP3    H1 8769   1.235   2.116   1.124
 2935TIP3    H2 8770   1.326   2.095   1.005
 2936TIP3   OH2 8771   1.096   2.540   0.532
 2936TIP3    H1 8772   1.097   2.484   0.454
 2936TIP3    H2 8773   1.009   2.578   0.533
 2937TIP3   OH2 8774   6.878   2.155   2.844
 2937TIP3    H1 8775   6.931   2.224   2.803
 2937TIP3    H2 8776   6.804   2.202   2.881
 2938TIP3   OH2 8777   1.985   2.823   0.461
 2938TIP3    H1 8778   1.939   2.740   0.451
 2938TIP3    H2 8779   1.980   2.842   0.554
 2939TIP3   OH2 8780   4.495   4.997   3.602
 2939TIP3    H1 8781   4.520   5.061   3.669
 2939TIP3    H2 8782   4.554   5.016   3.529
 2940TIP3   OH2 8783   0.959   0.152   0.418
 2940TIP3    H1 8784   0.870   0.189   0.424
 2940TIP3    H2 8785   1.013   0.210   0.471
 2941TIP3   OH2 8786   1.116   1.393   5.659
 2941TIP3    H1 8787   1.066   1.452   5.715
 2941TIP3    H2 8788   1.054   1.363   5.593
 2942TIP3   OH2 8789   6.567   6.653   0.381
 2942TIP3    H1 8790   6.595   6.565   0.407
 2942TIP3    H2 8791   6.485   6.666   0.428
 2943TIP3   OH2 8792   4.028   5.939   0.405
 2943TIP3    H1 8793   4.104   5.986   0.373
 2943TIP3    H2 8794   3.975   6.006   0.449
 2944TIP3   OH2 8795   2.886   1.951   1.000
 2944TIP3    H1 8796   2.961   1.893   0.984
 2944TIP3    H2 8797   2.926   2.037   1.015
 2945TIP3   OH2 8798   6.569   4.015   1.513
 2945TIP3    H1 8799   6.493   4.073   1.516
 2945TIP3    H2 8800   6.557   3.962   1.434
 2946TIP3   OH2 8801   1.904   4.448   2.673
 2946TIP3    H1 8802   1.872   4.460   2.583
 2946TIP3    H2 8803   1.824   4.440   2.726
 2947TIP3   OH2 8804   5.261   1.067   3.523
 2947TIP3    H1 8805   5.300   1.026   3.600
 2947TIP3    H2 8806   5.299   1.019   3.449
 2948TIP3   OH2 8807   2.154   2.910   1.456
 2948TIP3    H1 8808   2.241   2.938   1.427
 2948TIP3    H2 8809   2.134   2.834   1.400
 2949TIP3   OH2 8810   5.879   1.740   3.607
 2949TIP3    H1 8811   5.820   1.771   3.676
 2949TIP3    H2 8812   5.824   1.731   3.530
 2950TIP3   OH2 8813   3.214   6.015   5.482
 2950TIP3    H1 8814   3.214   5.970   5.566
 2950TIP3    H2 8815   3.150   5.967   5.429
 2951TIP3   OH2 8816   3.260   6.269   2.113
 2951TIP3    H1 8817   3.227   6.329   2.180
 2951TIP3    H2 8818   3.342   6.235   2.148
 2952TIP3   OH2 8819   5.369   0.476   4.644
 2952TIP3    H1 8820   5.440   0.414   4.657
 2952TIP3    H2 8821   5.339   0.497   4.733
 2953TIP3   OH2 8822   2.394   1.717   5.222
 2953TIP3    H1 8823   2.323   1.780   5.217
 2953TIP3    H2 8824   2.464   1.763   5.268
 2954TIP3   OH2 8825   4.359   4.886   1.130
 2954TIP3    H1 8826   4.380   4.975   1.159
 2954TIP3    H2 8827   4.403   4.829   1.192
 2955TIP3   OH2 8828   1.198   0.780   2.344
 2955TIP3    H1 8829   1.180   0.856   2.399
 2955TIP3    H2 8830   1.140   0.712   2.378
 2956TIP3   OH2 8831   5.861   0.250   4.099
 2956TIP3    H1 8832   5.947   0.276   4.066
 2956TIP3    H2 8833   5.869   0.256   4.194
 2957TIP3   OH2 8834   0.902   2.622   1.985
 2957TIP3    H1 8835   0.893   2.715   2.007
 2957TIP3    H2 8836   0.902   2.577   2.070
 2958TIP3   OH2 8837   2.048   5.727   3.588
 2958TIP3    H1 8838   2.061   5.819   3.610
 2958TIP3    H2 8839   1.970   5.701   3.637
 2959TIP3   OH2 8840   6.446   4.349   0.717
 2959TIP3    H1 8841   6.423   4.342   0.624
 2959TIP3    H2 8842   6.469   4.260   0.742
 2960TIP3   OH2 8843   1.133   1.018   1.880
 2960TIP3    H1 8844   1.171   0.933   1.856
 2960TIP3    H2 8845   1.203   1.063   1.928
 2961TIP3   OH2 8846   6.977   2.261   5.389
 2961TIP3    H1 8847   7.002   2.333   5.447
 2961TIP3    H2 8848   7.029   2.187   5.419
 2962TIP3   OH2 8849   1.346   5.473   3.541
 2962TIP3    H1 8850   1.401   5.521   3.479
 2962TIP3    H2 8851   1.408   5.434   3.603
 2963TIP3   OH2 8852   3.676   2.858   3.552
 2963TIP3    H1 8853   3.714   2.812   3.627
 2963TIP3    H2 8854   3.622   2.927   3.591
 2964TIP3   OH2 8855   6.105   3.608   0.855
 2964TIP3    H1 8856   6.059   3.587   0.773
 2964TIP3    H2 8857   6.044   3.664   0.903
 2965TIP3   OH2 8858   6.357   5.260   0.347
 2965TIP3    H1 8859   6.449   5.278   0.365
 2965TIP3    H2 8860   6.317   5.246   0.432
 2966TIP3   OH2 8861   6.799   6.490   4.050
 2966TIP3    H1 8862   6.750   6.570   4.035
 2966TIP3    H2 8863   6.855   6.481   3.973
 2967TIP3   OH2 8864   2.570   5.346   1.757
 2967TIP3    H1 8865   2.549   5.432   1.794
 2967TIP3    H2 8866   2.516   5.285   1.806
 2968TIP3   OH2 8867   5.493   0.590   4.913
 2968TIP3    H1 8868   5.447   0.669   4.884
 2968TIP3    H2 8869   5.433   0.548   4.974
 2969TIP3   OH2 8870   0.982   4.923   4.769
 2969TIP3    H1 8871   0.961   4.831   4.777
 2969TIP3    H2 8872   0.898   4.969   4.777
 2970TIP3   OH2 8873   5.596   5.642   0.911
 2970TIP3    H1 8874   5.586   5.685   0.827
 2970TIP3    H2 8875   5.542   5.563   0.905
 2971TIP3   OH2 8876   2.419   5.290   1.310
 2971TIP3    H1 8877   2.398   5.203   1.344
 2971TIP3    H2 8878   2.344   5.313   1.255
 2972TIP3   OH2 8879   6.730   3.337   1.500
 2972TIP3    H1 8880   6.774   3.419   1.523
 2972TIP3    H2 8881   6.714   3.294   1.584
 2973TIP3   OH2 8882   0.555   5.959   1.073
 2973TIP3    H1 8883   0.483   5.897   1.087
 2973TIP3    H2 8884   0.629   5.903   1.047
 2974TIP3   OH2 8885   0.048   1.337   3.646
 2974TIP3    H1 8886   0.027   1.345   3.739
 2974TIP3    H2 8887   0.139   1.308   3.644
 2975TIP3   OH2 8888   7.177   0.493   0.781
 2975TIP3    H1 8889   7.202   0.523   0.868
 2975TIP3    H2 8890   7.083   0.505   0.777
 2976TIP3   OH2 8891   1.812   5.682   4.477
 2976TIP3    H1 8892   1.781   5.758   4.427
 2976TIP3    H2 8893   1.907   5.689   4.473
 2977TIP3   OH2 8894   0.350   1.712   5.034
 2977TIP3    H1 8895   0.411   1.783   5.015
 2977TIP3    H2 8896   0.387   1.668   5.111
 2978TIP3   OH2 8897   3.367   5.920   4.362
 2978TIP3    H1 8898   3.346   5.977   4.436
 2978TIP3    H2 8899   3.341   5.971   4.285
 2979TIP3   OH2 8900   1.181   0.661   3.042
 2979TIP3    H1 8901   1.180   0.636   2.950
 2979TIP3    H2 8902   1.164   0.755   3.041
 2980TIP3   OH2 8903   5.890   2.498   3.816
 2980TIP3    H1 8904   5.795   2.494   3.807
 2980TIP3    H2 8905   5.922   2.507   3.726
 2981TIP3   OH2 8906   3.192   3.519   2.165
 2981TIP3    H1 8907   3.144   3.438   2.148
 2981TIP3    H2 8908   3.222   3.510   2.255
 2982TIP3   OH2 8909   7.149   4.041   3.827
 2982TIP3    H1 8910   7.149   4.019   3.920
 2982TIP3    H2 8911   7.083   4.109   3.818
 2983TIP3   OH2 8912   6.203   0.839   5.739
 2983TIP3    H1 8913   6.254   0.851   5.820
 2983TIP3    H2 8914   6.113   0.860   5.764
 2984TIP3   OH2 8915   4.366   5.508   0.206
 2984TIP3    H1 8916   4.446   5.459   0.220
 2984TIP3    H2 8917   4.306   5.446   0.165
 2985TIP3   OH2 8918   3.447   1.530   2.394
 2985TIP3    H1 8919   3.525   1.560   2.440
 2985TIP3    H2 8920   3.415   1.609   2.349
 2986TIP3   OH2 8921   1.487   2.599   3.354
 2986TIP3    H1 8922   1.542   2.522   3.338
 2986TIP3    H2 8923   1.415   2.590   3.291
 2987TIP3   OH2 8924   3.381   5.236   2.155
 2987TIP3    H1 8925   3.451   5.287   2.195
 2987TIP3    H2 8926   3.311   5.300   2.139
 2988TIP3   OH2 8927   1.965   5.929   5.313
 2988TIP3    H1 8928   1.921   5.967   5.389
 2988TIP3    H2 8929   1.990   6.005   5.260
 2989TIP3   OH2 8930   3.745   6.581   0.064
 2989TIP3    H1 8931   3.832   6.544   0.080
 2989TIP3    H2 8932   3.684   6.509   0.081
 2990TIP3   OH2 8933   0.520   3.737   0.206
 2990TIP3    H1 8934   0.518   3.689   0.124
 2990TIP3    H2 8935   0.601   3.710   0.248
 2991TIP3   OH2 8936   0.350   1.307   5.622
 2991TIP3    H1 8937   0.281   1.257   5.666
 2991TIP3    H2 8938   0.426   1.298   5.680
 2992TIP3   OH2 8939   2.899   4.964   0.395
 2992TIP3    H1 8940   2.890   4.871   0.416
 2992TIP3    H2 8941   2.855   5.010   0.466
 2993TIP3   OH2 8942   4.170   4.609   3.134
 2993TIP3    H1 8943   4.114   4.659   3.194
 2993TIP3    H2 8944   4.203   4.537   3.187
 2994TIP3   OH2 8945   0.198   0.895   0.118
 2994TIP3    H1 8946   0.242   0.949   0.184
 2994TIP3    H2 8947   0.269   0.854   0.069
 2995TIP3   OH2 8948   5.938   4.618   3.926
 2995TIP3    H1 8949   5.951   4.525   3.909
 2995TIP3    H2 8950   5.983   4.634   4.009
 2996TIP3   OH2 8951   1.283   1.607   2.747
 2996TIP3    H1 8952   1.292   1.551   2.824
 2996TIP3    H2 8953   1.245   1.688   2.781
 2997TIP3   OH2 8954   1.637   2.167   3.086
 2997TIP3    H1 8955   1.637   2.143   2.994
 2997TIP3    H2 8956   1.546   2.161   3.113
 2998TIP3   OH2 8957   2.718   5.186   0.877
 2998TIP3    H1 8958   2.804   5.148   0.895
 2998TIP3    H2 8959   2.656   5.117   0.902
 2999TIP3   OH2 8960   4.093   6.154   5.047
 2999TIP3    H1 8961   4.130   6.115   4.968
 2999TIP3    H2 8962   4.011   6.194   5.018
 3000TIP3   OH2 8963   1.082   6.769   0.282
 3000TIP3    H1 8964   1.130   6.750   0.201
 3000TIP3    H2 8965   0.997   6.727   0.270
 3001TIP3   OH2 8966   3.818   3.150   4.071
 3001TIP3    H1 8967   3.896   3.170   4.020
 3001TIP3    H2 8968   3.850   3.130   4.159
 3002TIP3   OH2 8969   6.057   1.215   1.376
 3002TIP3    H1 8970   6.080   1.190   1.466
 3002TIP3    H2 8971   5.997   1.146   1.348
 3003TIP3   OH2 8972   0.009   5.387   1.812
 3003TIP3    H1 8973   0.045   5.341   1.889
 3003TIP3    H2 8974   0.055   5.348   1.738
 3004TIP3   OH2 8975   0.218   1.211   0.264
 3004TIP3    H1 8976   0.293   1.217   0.204
 3004TIP3    H2 8977   0.257   1.187   0.348
 3005TIP3   OH2 8978   6.451   0.085   2.170
 3005TIP3    H1 8979   6.488   0.173   2.175
 3005TIP3    H2 8980   6.483   0.050   2.088
 3006TIP3   OH2 8981   1.709   5.097   5.353
 3006TIP3    H1 8982   1.771   5.159   5.316
 3006TIP3    H2 8983   1.632   5.104   5.297
 3007TIP3   OH2 8984   4.026   5.330   3.996
 3007TIP3    H1 8985   3.945   5.378   3.979
 3007TIP3    H2 8986   4.094   5.383   3.955
 3008TIP3   OH2 8987   0.928   0.477   5.504
 3008TIP3    H1 8988   0.893   0.527   5.578
 3008TIP3    H2 8989   0.998   0.531   5.469
 3009TIP3   OH2 8990   4.675   5.599   0.185
 3009TIP3    H1 8991   4.646   5.508   0.192
 3009TIP3    H2 8992   4.730   5.613   0.262
 3010TIP3   OH2 8993   3.277   5.430   0.513
 3010TIP3    H1 8994   3.280   5.398   0.603
 3010TIP3    H2 8995   3.242   5.357   0.463
 3011TIP3   OH2 8996   5.477   6.570   5.518
 3011TIP3    H1 8997   5.465   6.545   5.426
 3011TIP3    H2 8998   5.528   6.651   5.514
 3012TIP3   OH2 8999   2.797   3.357   5.872
 3012TIP3    H1 9000   2.858   3.430   5.857
 3012TIP3    H2 9001   2.838   3.282   5.829
 3013TIP3   OH2 9002   2.631   1.705   3.791
 3013TIP3    H1 9003   2.619   1.628   3.847
 3013TIP3    H2 9004   2.542   1.740   3.780
 3014TIP3   OH2 9005   2.050   4.315   1.913
 3014TIP3    H1 9006   2.042   4.252   1.842
 3014TIP3    H2 9007   2.144   4.327   1.924
 3015TIP3   OH2 9008   2.186   5.600   1.502
 3015TIP3    H1 9009   2.158   5.549   1.426
 3015TIP3    H2 9010   2.280   5.613   1.488
 3016TIP3   OH2 9011   5.893   1.896   3.273
 3016TIP3    H1 9012   5.948   1.973   3.291
 3016TIP3    H2 9013   5.813   1.912   3.324
 3017TIP3   OH2 9014   3.715   0.605   3.065
 3017TIP3    H1 9015   3.707   0.665   3.139
 3017TIP3    H2 9016   3.731   0.519   3.105
 3018TIP3   OH2 9017   1.162   0.625   5.442
 3018TIP3    H1 9018   1.140   0.707   5.398
 3018TIP3    H2 9019   1.192   0.651   5.529
 3019TIP3   OH2 9020   0.779   1.045   3.186
 3019TIP3    H1 9021   0.823   1.082   3.109
 3019TIP3    H2 9022   0.686   1.056   3.168
 3020TIP3   OH2 9023   2.372   5.042   1.466
 3020TIP3    H1 9024   2.282   5.012   1.476
 3020TIP3    H2 9025   2.423   4.986   1.525
 3021TIP3   OH2 9026   5.772   4.566   5.704
 3021TIP3    H1 9027   5.748   4.544   5.794
 3021TIP3    H2 9028   5.707   4.520   5.650
 3022TIP3   OH2 9029   0.923   2.287   1.276
 3022TIP3    H1 9030   1.005   2.238   1.269
 3022TIP3    H2 9031   0.950   2.376   1.298
 3023TIP3   OH2 9032   3.751   4.532   4.673
 3023TIP3    H1 9033   3.824   4.569   4.624
 3023TIP3    H2 9034   3.784   4.523   4.763
 3024TIP3   OH2 9035   0.192   5.942   0.852
 3024TIP3    H1 9036   0.190   5.994   0.932
 3024TIP3    H2 9037   0.132   5.987   0.792
 3025TIP3   OH2 9038   6.400   0.391   1.754
 3025TIP3    H1 9039   6.490   0.411   1.778
 3025TIP3    H2 9040   6.362   0.476   1.732
 3026TIP3   OH2 9041   1.340   5.156   0.068
 3026TIP3    H1 9042   1.322   5.249   0.083
 3026TIP3    H2 9043   1.433   5.153   0.045
 3027TIP3   OH2 9044   4.682   6.282   0.501
 3027TIP3    H1 9045   4.735   6.293   0.422
 3027TIP3    H2 9046   4.745   6.250   0.567
 3028TIP3   OH2 9047   4.289   0.022   0.595
 3028TIP3    H1 9048   4.338   0.097   0.630
 3028TIP3    H2 9049   4.232  -0.006   0.666
 3029TIP3   OH2 9050   1.183   0.482   4.510
 3029TIP3    H1 9051   1.095   0.513   4.529
 3029TIP3    H2 9052   1.174   0.387   4.499
 3030TIP3   OH2 9053   0.432   2.731   5.307
 3030TIP3    H1 9054   0.356   2.777   5.342
 3030TIP3    H2 9055   0.506   2.763   5.358
 3031TIP3   OH2 9056   2.049   2.028   5.018
 3031TIP3    H1 9057   2.080   2.087   4.949
 3031TIP3    H2 9058   1.961   2.059   5.038
 3032TIP3   OH2 9059   5.578   6.076   4.037
 3032TIP3    H1 9060   5.652   6.030   3.997
 3032TIP3    H2 9061   5.501   6.045   3.988
 3033TIP3   OH2 9062   7.088   4.122   0.447
 3033TIP3    H1 9063   7.161   4.075   0.489
 3033TIP3    H2 9064   7.124   4.209   0.430
 3034TIP3   OH2 9065   6.651   2.517   3.300
 3034TIP3    H1 9066   6.611   2.432   3.315
 3034TIP3    H2 9067   6.599   2.556   3.230
 3035TIP3   OH2 9068   2.534   6.612   3.152
 3035TIP3    H1 9069   2.514   6.644   3.240
 3035TIP3    H2 9070   2.623   6.576   3.159
 3036TIP3   OH2 9071   0.764   2.882   3.866
 3036TIP3    H1 9072   0.774   2.789   3.886
 3036TIP3    H2 9073   0.830   2.899   3.799
 3037TIP3   OH2 9074   2.695   2.841   4.307
 3037TIP3    H1 9075   2.715   2.904   4.376
 3037TIP3    H2 9076   2.616   2.796   4.337
 3038TIP3   OH2 9077   2.914   0.469   2.813
 3038TIP3    H1 9078   2.988   0.500   2.865
 3038TIP3    H2 9079   2.888   0.387   2.855
 3039TIP3   OH2 9080   2.794   1.628   1.149
 3039TIP3    H1 9081   2.829   1.698   1.204
 3039TIP3    H2 9082   2.782   1.668   1.063
 3040TIP3   OH2 9083   4.715   5.079   4.062
 3040TIP3    H1 9084   4.715   5.008   4.126
 3040TIP3    H2 9085   4.683   5.038   3.982
 3041TIP3   OH2 9086   6.318   4.829   2.396
 3041TIP3    H1 9087   6.262   4.864   2.466
 3041TIP3    H2 9088   6.406   4.857   2.420
 3042TIP3   OH2 9089   6.618   0.438   4.067
 3042TIP3    H1 9090   6.546   0.395   4.020
 3042TIP3    H2 9091   6.584   0.525   4.088
 3043TIP3   OH2 9092   1.393   0.767   0.146
 3043TIP3    H1 9093   1.374   0.787   0.238
 3043TIP3    H2 9094   1.480   0.803   0.131
 3044TIP3   OH2 9095   4.703   4.196   3.847
 3044TIP3    H1 9096   4.611   4.214   3.825
 3044TIP3    H2 9097   4.740   4.159   3.768
 3045TIP3   OH2 9098   1.979   3.841   1.334
 3045TIP3    H1 9099   1.939   3.769   1.285
 3045TIP3    H2 9100   2.030   3.797   1.402
 3046TIP3   OH2 9101   0.492   3.225   2.046
 3046TIP3    H1 9102   0.442   3.266   2.117
 3046TIP3    H2 9103   0.508   3.297   1.984
 3047TIP3   OH2 9104   1.424   5.321   5.352
 3047TIP3    H1 9105   1.339   5.278   5.341
 3047TIP3    H2 9106   1.468   5.308   5.268
 3048TIP3   OH2 9107   3.539   0.345   1.370
 3048TIP3    H1 9108   3.480   0.402   1.420
 3048TIP3    H2 9109   3.560   0.273   1.429
 3049TIP3   OH2 9110   4.816   1.914   1.863
 3049TIP3    H1 9111   4.831   1.926   1.769
 3049TIP3    H2 9112   4.756   1.839   1.868
 3050TIP3   OH2 9113   2.122   4.584   0.255
 3050TIP3    H1 9114   2.126   4.651   0.186
 3050TIP3    H2 9115   2.043   4.534   0.236
 3051TIP3   OH2 9116   3.981   5.625   2.474
 3051TIP3    H1 9117   4.000   5.560   2.542
 3051TIP3    H2 9118   3.887   5.614   2.456
 3052TIP3   OH2 9119   4.075   0.157   2.771
 3052TIP3    H1 9120   4.110   0.218   2.706
 3052TIP3    H2 9121   4.070   0.073   2.726
 3053TIP3   OH2 9122   2.617   2.330   0.843
 3053TIP3    H1 9123   2.527   2.352   0.821
 3053TIP3    H2 9124   2.667   2.408   0.818
 3054TIP3   OH2 9125   1.875   3.829   0.635
 3054TIP3    H1 9126   1.956   3.786   0.662
 3054TIP3    H2 9127   1.886   3.842   0.541
 3055TIP3   OH2 9128   7.065   1.204   4.399
 3055TIP3    H1 9129   6.989   1.254   4.369
 3055TIP3    H2 9130   7.035   1.113   4.398
 3056TIP3   OH2 9131   5.618   2.268   4.198
 3056TIP3    H1 9132   5.524   2.276   4.219
 3056TIP3    H2 9133   5.634   2.174   4.196
 3057TIP3   OH2 9134   4.410   6.509   1.892
 3057TIP3    H1 9135   4.456   6.577   1.941
 3057TIP3    H2 9136   4.326   6.549   1.869
 3058TIP3   OH2 9137   1.707  -0.004   3.682
 3058TIP3    H1 9138   1.795   0.032   3.695
 3058TIP3    H2 9139   1.710  -0.042   3.594
 3059TIP3   OH2 9140   2.270   4.798   3.280
 3059TIP3    H1 9141   2.315   4.739   3.220
 3059TIP3    H2 9142   2.275   4.884   3.238
 3060TIP3   OH2 9143   2.337   3.208   1.580
 3060TIP3    H1 9144   2.304   3.126   1.544
 3060TIP3    H2 9145   2.301   3.212   1.669
 3061TIP3   OH2 9146   1.138   3.384   2.737
 3061TIP3    H1 9147   1.188   3.328   2.679
 3061TIP3    H2 9148   1.049   3.383   2.702
 3062TIP3   OH2 9149   0.959   1.339   3.911
 3062TIP3    H1 9150   0.964   1.385   3.995
 3062TIP3    H2 9151   0.978   1.248   3.932
 3063TIP3   OH2 9152   2.391   0.818   3.646
 3063TIP3    H1 9153   2.423   0.816   3.556
 3063TIP3    H2 9154   2.384   0.911   3.667
 3064TIP3   OH2 9155   6.072   1.340   0.051
 3064TIP3    H1 9156   6.161   1.331   0.016
 3064TIP3    H2 9157   6.045   1.250   0.070
 3065TIP3   OH2 9158   6.766   2.267   2.435
 3065TIP3    H1 9159   6.779   2.317   2.516
 3065TIP3    H2 9160   6.687   2.216   2.451
 3066TIP3   OH2 9161   6.359   3.808   4.002
 3066TIP3    H1 9162   6.375   3.876   4.068
 3066TIP3    H2 9163   6.264   3.797   4.002
 3067TIP3   OH2 9164   2.640   1.692   1.524
 3067TIP3    H1 9165   2.570   1.706   1.588
 3067TIP3    H2 9166   2.717   1.729   1.565
 3068TIP3   OH2 9167   2.151   4.864   2.540
 3068TIP3    H1 9168   2.066   4.904   2.557
 3068TIP3    H2 9169   2.212   4.913   2.596
 3069TIP3   OH2 9170   2.141   0.348   0.716
 3069TIP3    H1 9171   2.205   0.286   0.751
 3069TIP3    H2 9172   2.056   0.306   0.731
 3070TIP3   OH2 9173   6.874   0.482   2.269
 3070TIP3    H1 9174   6.858   0.421   2.197
 3070TIP3    H2 9175   6.968   0.495   2.270
 3071TIP3   OH2 9176   1.189   1.795   5.179
 3071TIP3    H1 9177   1.215   1.844   5.101
 3071TIP3    H2 9178   1.254   1.819   5.245
 3072TIP3   OH2 9179   2.509   6.140   2.046
 3072TIP3    H1 9180   2.426   6.183   2.068
 3072TIP3    H2 9181   2.487   6.084   1.971
 3073TIP3   OH2 9182   4.338   1.725   1.426
 3073TIP3    H1 9183   4.347   1.802   1.481
 3073TIP3    H2 9184   4.395   1.743   1.350
 3074TIP3   OH2 9185   1.669   3.498   3.699
 3074TIP3    H1 9186   1.638   3.538   3.617
 3074TIP3    H2 9187   1.593   3.449   3.732
 3075TIP3   OH2 9188   5.071   2.003   1.455
 3075TIP3    H1 9189   5.030   2.087   1.437
 3075TIP3    H2 9190   5.153   2.005   1.406
 3076TIP3   OH2 9191   3.919   0.907   2.613
 3076TIP3    H1 9192   3.852   0.975   2.604
 3076TIP3    H2 9193   3.946   0.888   2.524
 3077TIP3   OH2 9194   3.768   6.131   3.622
 3077TIP3    H1 9195   3.678   6.120   3.653
 3077TIP3    H2 9196   3.769   6.218   3.581
 3078TIP3   OH2 9197   1.791   5.732   5.288
 3078TIP3    H1 9198   1.864   5.793   5.298
 3078TIP3    H2 9199   1.818   5.672   5.219
 3079TIP3   OH2 9200   0.600   5.835   5.568
 3079TIP3    H1 9201   0.689   5.826   5.534
 3079TIP3    H2 9202   0.612   5.863   5.659
 3080TIP3   OH2 9203   4.024   0.099   3.795
 3080TIP3    H1 9204   4.081   0.176   3.786
 3080TIP3    H2 9205   4.008   0.071   3.705
 3081TIP3   OH2 9206   5.284   5.148   4.533
 3081TIP3    H1 9207   5.240   5.085   4.476
 3081TIP3    H2 9208   5.319   5.214   4.472
 3082TIP3   OH2 9209   0.666   1.978   4.595
 3082TIP3    H1 9210   0.601   1.931   4.543
 3082TIP3    H2 9211   0.678   2.061   4.549
 3083TIP3   OH2 9212   1.112   2.427   4.874
 3083TIP3    H1 9213   1.161   2.501   4.911
 3083TIP3    H2 9214   1.071   2.463   4.795
 3084TIP3   OH2 9215   3.674   5.877   1.957
 3084TIP3    H1 9216   3.692   5.932   1.882
 3084TIP3    H2 9217   3.691   5.788   1.927
 3085TIP3   OH2 9218   2.442   1.949   2.779
 3085TIP3    H1 9219   2.387   2.021   2.811
 3085TIP3    H2 9220   2.531   1.973   2.807
 3086TIP3   OH2 9221   5.094   5.785   0.473
 3086TIP3    H1 9222   5.186   5.783   0.446
 3086TIP3    H2 9223   5.087   5.719   0.542
 3087TIP3   OH2 9224   2.225   6.627   4.858
 3087TIP3    H1 9225   2.310   6.597   4.825
 3087TIP3    H2 9226   2.245   6.664   4.944
 3088TIP3   OH2 9227   7.102   3.721   3.862
 3088TIP3    H1 9228   7.014   3.754   3.879
 3088TIP3    H2 9229   7.128   3.763   3.780
 3089TIP3   OH2 9230   5.276   1.541   0.228
 3089TIP3    H1 9231   5.239   1.629   0.231
 3089TIP3    H2 9232   5.301   1.529   0.136
 3090TIP3   OH2 9233   1.629   6.358   3.025
 3090TIP3    H1 9234   1.699   6.423   3.040
 3090TIP3    H2 9235   1.592   6.383   2.940
 3091TIP3   OH2 9236   6.719   0.486   3.153
 3091TIP3    H1 9237   6.745   0.500   3.062
 3091TIP3    H2 9238   6.737   0.393   3.169
 3092TIP3   OH2 9239   0.584   0.779   3.534
 3092TIP3    H1 9240   0.662   0.831   3.553
 3092TIP3    H2 9241   0.612   0.717   3.466
 3093TIP3   OH2 9242   0.242   3.859   1.377
 3093TIP3    H1 9243   0.180   3.932   1.379
 3093TIP3    H2 9244   0.319   3.894   1.332
 3094TIP3   OH2 9245   3.419   6.654   5.284
 3094TIP3    H1 9246   3.432   6.600   5.362
 3094TIP3    H2 9247   3.492   6.716   5.286
 3095TIP3   OH2 9248   2.561   0.787   2.045
 3095TIP3    H1 9249   2.651   0.799   2.015
 3095TIP3    H2 9250   2.569   0.753   2.134
 3096TIP3   OH2 9251   5.732   1.213   4.671
 3096TIP3    H1 9252   5.734   1.198   4.576
 3096TIP3    H2 9253   5.692   1.133   4.706
 3097TIP3   OH2 9254   5.819   5.713   4.604
 3097TIP3    H1 9255   5.819   5.641   4.540
 3097TIP3    H2 9256   5.897   5.763   4.583
 3098TIP3   OH2 9257   4.744   3.757   3.814
 3098TIP3    H1 9258   4.835   3.785   3.811
 3098TIP3    H2 9259   4.749   3.663   3.830
 3099TIP3   OH2 9260   6.764   4.004   5.484
 3099TIP3    H1 9261   6.823   3.934   5.455
 3099TIP3    H2 9262   6.689   3.998   5.425
 3100TIP3   OH2 9263   1.478   5.319   2.752
 3100TIP3    H1 9264   1.485   5.283   2.840
 3100TIP3    H2 9265   1.451   5.410   2.766
 3101TIP3   OH2 9266   4.148   2.685   1.754
 3101TIP3    H1 9267   4.235   2.694   1.717
 3101TIP3    H2 9268   4.145   2.752   1.823
 3102TIP3   OH2 9269   4.050   2.699   1.465
 3102TIP3    H1 9270   4.056   2.610   1.429
 3102TIP3    H2 9271   4.086   2.691   1.553
 3103TIP3   OH2 9272   1.970   1.216   5.391
 3103TIP3    H1 9273   1.936   1.137   5.348
 3103TIP3    H2 9274   2.060   1.224   5.359
 3104TIP3   OH2 9275   7.172   3.157   4.757
 3104TIP3    H1 9276   7.079   3.171   4.774
 3104TIP3    H2 9277   7.209   3.246   4.753
 3105TIP3   OH2 9278   4.577   1.833   4.500
 3105TIP3    H1 9279   4.635   1.860   4.572
 3105TIP3    H2 9280   4.489   1.844   4.535
 3106TIP3   OH2 9281   7.033   1.007   1.941
 3106TIP3    H1 9282   7.077   0.930   1.905
 3106TIP3    H2 9283   6.986   0.974   2.018
 3107TIP3   OH2 9284   5.927   0.513   0.687
 3107TIP3    H1 9285   5.838   0.484   0.670
 3107TIP3    H2 9286   5.971   0.437   0.724
 3108TIP3   OH2 9287   5.252   3.981   2.884
 3108TIP3    H1 9288   5.247   4.075   2.903
 3108TIP3    H2 9289   5.326   3.950   2.936
 3109TIP3   OH2 9290   3.363   2.978   0.283
 3109TIP3    H1 9291   3.447   3.004   0.321
 3109TIP3    H2 9292   3.372   2.884   0.267
 3110TIP3   OH2 9293   1.011   6.399   1.067
 3110TIP3    H1 9294   0.915   6.404   1.070
 3110TIP3    H2 9295   1.029   6.330   1.003
 3111TIP3   OH2 9296   4.329   3.846   3.797
 3111TIP3    H1 9297   4.406   3.875   3.748
 3111TIP3    H2 9298   4.357   3.763   3.837
 3112TIP3   OH2 9299   4.761   2.405   3.300
 3112TIP3    H1 9300   4.679   2.427   3.255
 3112TIP3    H2 9301   4.825   2.466   3.264
 3113TIP3   OH2 9302   5.605   5.767   2.577
 3113TIP3    H1 9303   5.572   5.742   2.490
 3113TIP3    H2 9304   5.608   5.863   2.575
 3114TIP3   OH2 9305   2.166   0.097   0.005
 3114TIP3    H1 9306   2.230   0.077   0.073
 3114TIP3    H2 9307   2.206   0.168  -0.046
 3115TIP3   OH2 9308   4.862   1.602   3.752
 3115TIP3    H1 9309   4.953   1.628   3.765
 3115TIP3    H2 9310   4.839   1.554   3.831
 3116TIP3   OH2 9311   1.807   5.498   2.079
 3116TIP3    H1 9312   1.830   5.541   2.162
 3116TIP3    H2 9313   1.768   5.415   2.105
 3117TIP3   OH2 9314   1.136   3.593   0.785
 3117TIP3    H1 9315   1.052   3.634   0.765
 3117TIP3    H2 9316   1.201   3.663   0.774
 3118TIP3   OH2 9317   4.008   6.311   0.737
 3118TIP3    H1 9318   3.970   6.396   0.759
 3118TIP3    H2 9319   4.055   6.284   0.815
 3119TIP3   OH2 9320   4.544   2.066   2.540
 3119TIP3    H1 9321   4.593   2.145   2.519
 3119TIP3    H2 9322   4.605   2.014   2.593
 3120TIP3   OH2 9323   2.539   5.839   3.999
 3120TIP3    H1 9324   2.572   5.756   4.034
 3120TIP3    H2 9325   2.610   5.901   4.014
 3121TIP3   OH2 9326   4.879   6.279   3.719
 3121TIP3    H1 9327   4.973   6.296   3.715
 3121TIP3    H2 9328   4.871   6.189   3.750
 3122TIP3   OH2 9329   3.740   2.377   4.457
 3122TIP3    H1 9330   3.808   2.313   4.477
 3122TIP3    H2 9331   3.736   2.433   4.534
 3123TIP3   OH2 9332   6.966   5.998   5.259
 3123TIP3    H1 9333   7.024   5.988   5.335
 3123TIP3    H2 9334   7.012   6.059   5.202
 3124TIP3   OH2 9335   3.936   0.012   3.564
 3124TIP3    H1 9336   3.889  -0.032   3.494
 3124TIP3    H2 9337   3.939   0.104   3.538
 3125TIP3   OH2 9338   5.955   6.577   1.714
 3125TIP3    H1 9339   6.028   6.524   1.682
 3125TIP3    H2 9340   5.978   6.598   1.805
 3126TIP3   OH2 9341   4.709   5.295   5.009
 3126TIP3    H1 9342   4.720   5.382   5.047
 3126TIP3    H2 9343   4.685   5.311   4.918
 3127TIP3   OH2 9344   0.965   0.613   2.125
 3127TIP3    H1 9345   0.917   0.612   2.207
 3127TIP3    H2 9346   1.017   0.533   2.127
 3128TIP3   OH2 9347   2.035   4.123   1.708
 3128TIP3    H1 9348   2.061   4.032   1.719
 3128TIP3    H2 9349   2.016   4.131   1.614
 3129TIP3   OH2 9350   6.181   1.504   2.751
 3129TIP3    H1 9351   6.225   1.452   2.818
 3129TIP3    H2 9352   6.251   1.536   2.695
 3130TIP3   OH2 9353   3.362   1.830   5.106
 3130TIP3    H1 9354   3.282   1.792   5.141
 3130TIP3    H2 9355   3.349   1.924   5.113
 3131TIP3   OH2 9356   1.768   3.882   4.516
 3131TIP3    H1 9357   1.760   3.965   4.563
 3131TIP3    H2 9358   1.678   3.859   4.493
 3132TIP3   OH2 9359   5.143   2.041   0.364
 3132TIP3    H1 9360   5.107   2.118   0.408
 3132TIP3    H2 9361   5.229   2.028   0.404
 3133TIP3   OH2 9362   1.093   1.798   2.887
 3133TIP3    H1 9363   1.052   1.795   2.801
 3133TIP3    H2 9364   1.041   1.861   2.937
 3134TIP3   OH2 9365   5.906   0.752   4.839
 3134TIP3    H1 9366   5.883   0.675   4.891
 3134TIP3    H2 9367   5.990   0.780   4.875
 3135TIP3   OH2 9368   6.732   3.067   4.367
 3135TIP3    H1 9369   6.717   3.142   4.309
 3135TIP3    H2 9370   6.661   3.006   4.346
 3136TIP3   OH2 9371   5.997   3.223   0.391
 3136TIP3    H1 9372   6.013   3.166   0.316
 3136TIP3    H2 9373   5.941   3.292   0.356
 3137TIP3   OH2 9374   1.576   0.604   3.802
 3137TIP3    H1 9375   1.606   0.637   3.717
 3137TIP3    H2 9376   1.517   0.532   3.781
 3138TIP3   OH2 9377   5.278   4.033   5.104
 3138TIP3    H1 9378   5.219   4.022   5.179
 3138TIP3    H2 9379   5.358   3.988   5.130
 3139TIP3   OH2 9380   4.654   5.023   5.378
 3139TIP3    H1 9381   4.576   4.975   5.351
 3139TIP3    H2 9382   4.635   5.051   5.468
 3140TIP3   OH2 9383   5.330   5.775   2.970
 3140TIP3    H1 9384   5.399   5.722   2.929
 3140TIP3    H2 9385   5.348   5.864   2.941
 3141TIP3   OH2 9386   3.387   1.762   5.596
 3141TIP3    H1 9387   3.428   1.771   5.682
 3141TIP3    H2 9388   3.348   1.848   5.580
 3142TIP3   OH2 9389   3.888   3.297   2.199
 3142TIP3    H1 9390   3.950   3.348   2.252
 3142TIP3    H2 9391   3.802   3.321   2.233
 3143TIP3   OH2 9392   5.057   4.697   4.765
 3143TIP3    H1 9393   4.962   4.693   4.774
 3143TIP3    H2 9394   5.090   4.717   4.852
 3144TIP3   OH2 9395   6.132   3.919   2.854
 3144TIP3    H1 9396   6.053   3.972   2.848
 3144TIP3    H2 9397   6.100   3.829   2.855
 3145TIP3   OH2 9398   2.882   1.733   0.479
 3145TIP3    H1 9399   2.800   1.735   0.430
 3145TIP3    H2 9400   2.857   1.706   0.567
 3146TIP3   OH2 9401   4.199   2.142   0.290
 3146TIP3    H1 9402   4.119   2.096   0.314
 3146TIP3    H2 9403   4.269   2.078   0.307
 3147TIP3   OH2 9404   0.599   5.390   0.511
 3147TIP3    H1 9405   0.636   5.457   0.453
 3147TIP3    H2 9406   0.672   5.332   0.531
 3148TIP3   OH2 9407   4.286   1.471   3.201
 3148TIP3    H1 9408   4.240   1.543   3.159
 3148TIP3    H2 9409   4.230   1.446   3.275
 3149TIP3   OH2 9410   5.074   2.433   2.619
 3149TIP3    H1 9411   5.085   2.354   2.567
 3149TIP3    H2 9412   5.075   2.505   2.556
 3150TIP3   OH2 9413   3.947   1.088   5.459
 3150TIP3    H1 9414   3.986   1.098   5.372
 3150TIP3    H2 9415   3.860   1.128   5.451
 3151TIP3   OH2 9416   4.836   2.840   5.130
 3151TIP3    H1 9417   4.897   2.910   5.108
 3151TIP3    H2 9418   4.861   2.767   5.073
 3152TIP3   OH2 9419   6.725   5.107   1.307
 3152TIP3    H1 9420   6.776   5.034   1.344
 3152TIP3    H2 9421   6.791   5.168   1.274
 3153TIP3   OH2 9422   5.488   6.641   1.851
 3153TIP3    H1 9423   5.519   6.568   1.904
 3153TIP3    H2 9424   5.473   6.712   1.914
 3154TIP3   OH2 9425   6.570   3.635   0.272
 3154TIP3    H1 9426   6.578   3.552   0.318
 3154TIP3    H2 9427   6.632   3.629   0.200
 3155TIP3   OH2 9428   4.765   0.867   1.703
 3155TIP3    H1 9429   4.833   0.852   1.770
 3155TIP3    H2 9430   4.684   0.874   1.752
 3156TIP3   OH2 9431   4.551   4.250   1.930
 3156TIP3    H1 9432   4.630   4.282   1.886
 3156TIP3    H2 9433   4.579   4.169   1.973
 3157TIP3   OH2 9434   2.363   6.514   1.805
 3157TIP3    H1 9435   2.394   6.530   1.894
 3157TIP3    H2 9436   2.436   6.471   1.761
 3158TIP3   OH2 9437   6.094   2.058   2.425
 3158TIP3    H1 9438   6.063   2.098   2.343
 3158TIP3    H2 9439   6.121   2.132   2.479
 3159TIP3   OH2 9440   5.088   2.091   0.713
 3159TIP3    H1 9441   5.020   2.077   0.648
 3159TIP3    H2 9442   5.083   2.015   0.771
 3160TIP3   OH2 9443   7.078   0.288   4.968
 3160TIP3    H1 9444   6.993   0.284   4.924
 3160TIP3    H2 9445   7.137   0.235   4.914
 3161TIP3   OH2 9446   4.232   3.331   3.607
 3161TIP3    H1 9447   4.237   3.237   3.626
 3161TIP3    H2 9448   4.316   3.366   3.637
 3162TIP3   OH2 9449   2.109   2.523   1.104
 3162TIP3    H1 9450   2.174   2.453   1.097
 3162TIP3    H2 9451   2.026   2.482   1.080
 3163TIP3   OH2 9452   3.093   1.176   5.140
 3163TIP3    H1 9453   3.045   1.205   5.217
 3163TIP3    H2 9454   3.152   1.107   5.173
 3164TIP3   OH2 9455   1.401   0.367   4.956
 3164TIP3    H1 9456   1.430   0.417   4.880
 3164TIP3    H2 9457   1.360   0.431   5.013
 3165TIP3   OH2 9458   4.499   2.780   1.330
 3165TIP3    H1 9459   4.504   2.870   1.298
 3165TIP3    H2 9460   4.587   2.745   1.317
 3166TIP3   OH2 9461   6.815   5.206   0.760
 3166TIP3    H1 9462   6.729   5.186   0.798
 3166TIP3    H2 9463   6.829   5.135   0.697
 3167TIP3   OH2 9464   4.775   1.444   3.984
 3167TIP3    H1 9465   4.807   1.355   3.997
 3167TIP3    H2 9466   4.684   1.442   4.012
 3168TIP3   OH2 9467   3.007   6.752   4.799
 3168TIP3    H1 9468   3.033   6.754   4.891
 3168TIP3    H2 9469   3.026   6.663   4.770
 3169TIP3   OH2 9470   0.102   3.668   2.300
 3169TIP3    H1 9471   0.030   3.628   2.350
 3169TIP3    H2 9472   0.068   3.674   2.211
 3170TIP3   OH2 9473   3.426   6.314   1.254
 3170TIP3    H1 9474   3.478   6.239   1.282
 3170TIP3    H2 9475   3.471   6.346   1.176
 3171TIP3   OH2 9476   4.274   4.203   5.291
 3171TIP3    H1 9477   4.271   4.166   5.202
 3171TIP3    H2 9478   4.245   4.131   5.347
 3172TIP3   OH2 9479   2.531   5.955   5.730
 3172TIP3    H1 9480   2.571   5.888   5.675
 3172TIP3    H2 9481   2.452   5.914   5.764
 3173TIP3   OH2 9482   0.915   3.911   2.127
 3173TIP3    H1 9483   0.937   4.001   2.101
 3173TIP3    H2 9484   0.878   3.872   2.048
 3174TIP3   OH2 9485   2.034   3.995   1.109
 3174TIP3    H1 9486   1.961   3.971   1.052
 3174TIP3    H2 9487   2.023   3.940   1.186
 3175TIP3   OH2 9488   4.961   2.389   5.187
 3175TIP3    H1 9489   5.021   2.317   5.206
 3175TIP3    H2 9490   5.014   2.468   5.200
 3176TIP3   OH2 9491   0.733   6.009   0.004
 3176TIP3    H1 9492   0.754   5.976   0.091
 3176TIP3    H2 9493   0.811   5.993  -0.048
 3177TIP3   OH2 9494   5.480   4.864   4.561
 3177TIP3    H1 9495   5.493   4.922   4.486
 3177TIP3    H2 9496   5.437   4.919   4.627
 3178TIP3   OH2 9497   6.785   3.575   3.236
 3178TIP3    H1 9498   6.778   3.482   3.258
 3178TIP3    H2 9499   6.866   3.603   3.279
 3179TIP3   OH2 9500   1.239   6.509   1.229
 3179TIP3    H1 9501   1.150   6.476   1.225
 3179TIP3    H2 9502   1.246   6.569   1.154
 3180TIP3   OH2 9503   1.467   6.603   0.865
 3180TIP3    H1 9504   1.382   6.624   0.904
 3180TIP3    H2 9505   1.464   6.508   0.851
 3181TIP3   OH2 9506   4.536   6.175   4.598
 3181TIP3    H1 9507   4.585   6.153   4.677
 3181TIP3    H2 9508   4.573   6.258   4.569
 3182TIP3   OH2 9509   1.766   5.408   2.384
 3182TIP3    H1 9510   1.797   5.498   2.372
 3182TIP3    H2 9511   1.672   5.418   2.402
 3183TIP3   OH2 9512   3.274   3.964  -0.038
 3183TIP3    H1 9513   3.243   4.000   0.045
 3183TIP3    H2 9514   3.360   3.927  -0.017
 3184TIP3   OH2 9515   1.639   4.435   0.928
 3184TIP3    H1 9516   1.670   4.504   0.986
 3184TIP3    H2 9517   1.577   4.478   0.869
 3185TIP3   OH2 9518   4.921   3.621   1.415
 3185TIP3    H1 9519   4.876   3.570   1.482
 3185TIP3    H2 9520   4.881   3.592   1.333
 3186TIP3   OH2 9521   4.855   5.050   5.083
 3186TIP3    H1 9522   4.878   5.142   5.075
 3186TIP3    H2 9523   4.760   5.048   5.072
 3187TIP3   OH2 9524   2.968   5.054   4.823
 3187TIP3    H1 9525   3.054   5.022   4.795
 3187TIP3    H2 9526   2.909   5.025   4.754
 3188TIP3   OH2 9527   7.059   2.056   1.426
 3188TIP3    H1 9528   6.996   2.010   1.371
 3188TIP3    H2 9529   7.145   2.032   1.389
 3189TIP3   OH2 9530   0.567   5.383   1.053
 3189TIP3    H1 9531   0.622   5.409   0.979
 3189TIP3    H2 9532   0.555   5.464   1.103
 3190TIP3   OH2 9533   3.305   1.907   0.211
 3190TIP3    H1 9534   3.332   1.815   0.208
 3190TIP3    H2 9535   3.265   1.917   0.298
 3191TIP3   OH2 9536   6.863   0.874   4.731
 3191TIP3    H1 9537   6.784   0.892   4.782
 3191TIP3    H2 9538   6.858   0.780   4.713
 3192TIP3   OH2 9539   0.907   0.473   4.583
 3192TIP3    H1 9540   0.919   0.429   4.667
 3192TIP3    H2 9541   0.852   0.415   4.532
 3193TIP3   OH2 9542   0.591   3.241   0.843
 3193TIP3    H1 9543   0.549   3.267   0.761
 3193TIP3    H2 9544   0.522   3.247   0.909
 3194TIP3   OH2 9545   2.759   4.024   5.149
 3194TIP3    H1 9546   2.830   4.018   5.213
 3194TIP3    H2 9547   2.773   4.109   5.107
 3195TIP3   OH2 9548   0.259   1.696   0.792
 3195TIP3    H1 9549   0.300   1.660   0.713
 3195TIP3    H2 9550   0.332   1.707   0.854
 3196TIP3   OH2 9551   2.889   4.357   3.022
 3196TIP3    H1 9552   2.939   4.326   3.098
 3196TIP3    H2 9553   2.840   4.432   3.056
 3197TIP3   OH2 9554   7.110   0.939   3.845
 3197TIP3    H1 9555   7.060   0.865   3.878
 3197TIP3    H2 9556   7.156   0.973   3.923
 3198TIP3   OH2 9557   5.740   4.346   2.614
 3198TIP3    H1 9558   5.820   4.359   2.564
 3198TIP3    H2 9559   5.706   4.434   2.628
 3199TIP3   OH2 9560   3.581   1.169   0.067
 3199TIP3    H1 9561   3.571   1.255   0.107
 3199TIP3    H2 9562   3.496   1.126   0.081
 3200TIP3   OH2 9563   4.723   5.290   2.493
 3200TIP3    H1 9564   4.676   5.217   2.453
 3200TIP3    H2 9565   4.805   5.294   2.445
 3201TIP3   OH2 9566   4.457   5.870   3.592
 3201TIP3    H1 9567   4.550   5.893   3.586
 3201TIP3    H2 9568   4.418   5.905   3.512
 3202TIP3   OH2 9569   2.262   6.007   0.229
 3202TIP3    H1 9570   2.169   5.987   0.238
 3202TIP3    H2 9571   2.272   6.093   0.271
 3203TIP3   OH2 9572   3.682   5.936   4.418
 3203TIP3    H1 9573   3.676   5.842   4.435
 3203TIP3    H2 9574   3.599   5.958   4.375
 3204TIP3   OH2 9575   6.925   4.770   3.762
 3204TIP3    H1 9576   7.001   4.778   3.704
 3204TIP3    H2 9577   6.873   4.848   3.743
 3205TIP3   OH2 9578   3.154   5.137   1.996
 3205TIP3    H1 9579   3.174   5.191   1.920
 3205TIP3    H2 9580   3.238   5.127   2.041
 3206TIP3   OH2 9581   2.604   0.775   3.173
 3206TIP3    H1 9582   2.683   0.828   3.178
 3206TIP3    H2 9583   2.557   0.809   3.096
 3207TIP3   OH2 9584   2.439   3.427   5.504
 3207TIP3    H1 9585   2.518   3.418   5.557
 3207TIP3    H2 9586   2.376   3.468   5.563
 3208TIP3   OH2 9587   5.014   4.635   2.199
 3208TIP3    H1 9588   4.965   4.667   2.123
 3208TIP3    H2 9589   5.090   4.590   2.161
 3209TIP3   OH2 9590   4.814   2.186   2.734
 3209TIP3    H1 9591   4.806   2.095   2.706
 3209TIP3    H2 9592   4.902   2.191   2.772
 3210TIP3   OH2 9593   5.344   3.559   5.718
 3210TIP3    H1 9594   5.387   3.477   5.696
 3210TIP3    H2 9595   5.319   3.548   5.810
 3211TIP3   OH2 9596   6.061   4.060   3.238
 3211TIP3    H1 9597   6.103   3.977   3.262
 3211TIP3    H2 9598   5.971   4.052   3.271
 3212TIP3   OH2 9599   3.772   0.407   2.129
 3212TIP3    H1 9600   3.706   0.375   2.067
 3212TIP3    H2 9601   3.856   0.382   2.090
 3213TIP3   OH2 9602   6.115   4.697   2.244
 3213TIP3    H1 9603   6.185   4.739   2.294
 3213TIP3    H2 9604   6.161   4.642   2.181
 3214TIP3   OH2 9605   3.891   3.698   1.358
 3214TIP3    H1 9606   3.854   3.780   1.392
 3214TIP3    H2 9607   3.972   3.686   1.407
 3215TIP3   OH2 9608   3.175   0.985   5.315
 3215TIP3    H1 9609   3.106   0.920   5.327
 3215TIP3    H2 9610   3.189   1.022   5.402
 3216TIP3   OH2 9611   1.686   1.046   0.240
 3216TIP3    H1 9612   1.661   1.089   0.321
 3216TIP3    H2 9613   1.631   1.086   0.173
 3217TIP3   OH2 9614   6.754   3.095   2.045
 3217TIP3    H1 9615   6.673   3.060   2.082
 3217TIP3    H2 9616   6.729   3.180   2.009
 3218TIP3   OH2 9617   2.497   1.155   5.731
 3218TIP3    H1 9618   2.448   1.219   5.679
 3218TIP3    H2 9619   2.582   1.197   5.746
 3219TIP3   OH2 9620   3.577   3.259   2.209
 3219TIP3    H1 9621   3.524   3.296   2.279
 3219TIP3    H2 9622   3.545   3.301   2.129
 3220TIP3   OH2 9623   6.160   3.999   0.071
 3220TIP3    H1 9624   6.216   4.073   0.095
 3220TIP3    H2 9625   6.148   4.008  -0.024
 3221TIP3   OH2 9626   0.868   1.058   5.020
 3221TIP3    H1 9627   0.898   0.981   4.972
 3221TIP3    H2 9628   0.890   1.040   5.111
 3222TIP3   OH2 9629   4.735   6.018   1.670
 3222TIP3    H1 9630   4.668   6.027   1.738
 3222TIP3    H2 9631   4.714   6.086   1.606
 3223TIP3   OH2 9632   5.677   4.614   1.486
 3223TIP3    H1 9633   5.716   4.679   1.544
 3223TIP3    H2 9634   5.712   4.635   1.399
 3224TIP3   OH2 9635   6.192   4.349   2.074
 3224TIP3    H1 9636   6.156   4.288   2.010
 3224TIP3    H2 9637   6.125   4.354   2.143
 3225TIP3   OH2 9638   6.843   4.892   1.444
 3225TIP3    H1 9639   6.912   4.919   1.382
 3225TIP3    H2 9640   6.887   4.830   1.503
 3226TIP3   OH2 9641   5.208   5.431   0.081
 3226TIP3    H1 9642   5.134   5.489   0.064
 3226TIP3    H2 9643   5.283   5.489   0.095
 3227TIP3   OH2 9644   0.248   3.139   2.259
 3227TIP3    H1 9645   0.188   3.139   2.185
 3227TIP3    H2 9646   0.245   3.228   2.293
 3228TIP3   OH2 9647   0.401   1.467   2.156
 3228TIP3    H1 9648   0.349   1.395   2.191
 3228TIP3    H2 9649   0.394   1.536   2.222
 3229TIP3   OH2 9650   2.786   4.927   5.807
 3229TIP3    H1 9651   2.729   4.882   5.745
 3229TIP3    H2 9652   2.859   4.959   5.754
 3230TIP3   OH2 9653   3.838   4.170   4.335
 3230TIP3    H1 9654   3.804   4.223   4.406
 3230TIP3    H2 9655   3.933   4.185   4.336
 3231TIP3   OH2 9656   6.790   1.177   4.711
 3231TIP3    H1 9657   6.831   1.090   4.717
 3231TIP3    H2 9658   6.746   1.177   4.626
 3232TIP3   OH2 9659   1.489   5.317   0.297
 3232TIP3    H1 9660   1.570   5.368   0.293
 3232TIP3    H2 9661   1.514   5.229   0.271
 3233TIP3   OH2 9662   1.053   1.319   3.479
 3233TIP3    H1 9663   1.044   1.406   3.518
 3233TIP3    H2 9664   1.017   1.328   3.391
 3234TIP3   OH2 9665   4.567   1.439   4.167
 3234TIP3    H1 9666   4.590   1.532   4.167
 3234TIP3    H2 9667   4.472   1.438   4.175
 3235TIP3   OH2 9668   1.988   2.526   0.314
 3235TIP3    H1 9669   2.083   2.510   0.319
 3235TIP3    H2 9670   1.969   2.523   0.220
 3236TIP3   OH2 9671   5.191   0.974   4.109
 3236TIP3    H1 9672   5.111   1.027   4.117
 3236TIP3    H2 9673   5.160   0.885   4.097
 3237TIP3   OH2 9674   2.120   3.939   5.455
 3237TIP3    H1 9675   2.169   4.010   5.413
 3237TIP3    H2 9676   2.164   3.859   5.425
 3238TIP3   OH2 9677   6.664   4.054   2.906
 3238TIP3    H1 9678   6.576   4.089   2.892
 3238TIP3    H2 9679   6.700   4.043   2.818
 3239TIP3   OH2 9680   0.814   3.617   2.744
 3239TIP3    H1 9681   0.763   3.620   2.825
 3239TIP3    H2 9682   0.756   3.576   2.680
 3240TIP3   OH2 9683   7.165   1.535   5.811
 3240TIP3    H1 9684   7.244   1.565   5.856
 3240TIP3    H2 9685   7.197   1.498   5.729
 3241TIP3   OH2 9686   0.692   0.154   5.156
 3241TIP3    H1 9687   0.731   0.214   5.220
 3241TIP3    H2 9688   0.600   0.150   5.179
 3242TIP3   OH2 9689   3.501   3.609   2.258
 3242TIP3    H1 9690   3.561   3.650   2.320
 3242TIP3    H2 9691   3.470   3.531   2.303
 3243TIP3   OH2 9692   4.632   1.041   0.089
 3243TIP3    H1 9693   4.671   1.077   0.009
 3243TIP3    H2 9694   4.588   1.116   0.129
 3244TIP3   OH2 9695   1.919   0.748   2.840
 3244TIP3    H1 9696   1.883   0.750   2.751
 3244TIP3    H2 9697   2.009   0.718   2.829
 3245TIP3   OH2 9698   0.796   2.486   1.777
 3245TIP3    H1 9699   0.820   2.549   1.845
 3245TIP3    H2 9700   0.720   2.441   1.813
 3246TIP3   OH2 9701   3.948   6.743   2.562
 3246TIP3    H1 9702   3.936   6.836   2.544
 3246TIP3    H2 9703   3.862   6.704   2.545
 3247TIP3   OH2 9704   4.412   0.640   3.723
 3247TIP3    H1 9705   4.396   0.724   3.679
 3247TIP3    H2 9706   4.325   0.604   3.739
 3248TIP3   OH2 9707   5.425   3.773   5.583
 3248TIP3    H1 9708   5.410   3.695   5.636
 3248TIP3    H2 9709   5.519   3.772   5.565
 3249TIP3   OH2 9710   5.362   5.701   0.405
 3249TIP3    H1 9711   5.343   5.673   0.316
 3249TIP3    H2 9712   5.457   5.711   0.408
 3250TIP3   OH2 9713   1.006   4.998   2.333
 3250TIP3    H1 9714   0.968   4.937   2.270
 3250TIP3    H2 9715   0.976   4.967   2.418
 3251TIP3   OH2 9716   6.294   2.949   1.951
 3251TIP3    H1 9717   6.371   2.911   1.907
 3251TIP3    H2 9718   6.323   3.037   1.976
 3252TIP3   OH2 9719   2.062   5.831   1.173
 3252TIP3    H1 9720   2.022   5.753   1.211
 3252TIP3    H2 9721   1.990   5.893   1.163
 3253TIP3   OH2 9722   0.542   0.676   2.068
 3253TIP3    H1 9723   0.543   0.688   2.163
 3253TIP3    H2 9724   0.606   0.740   2.036
 3254TIP3   OH2 9725   6.600   4.605   4.949
 3254TIP3    H1 9726   6.587   4.666   5.022
 3254TIP3    H2 9727   6.686   4.566   4.966
 3255TIP3   OH2 9728   5.621   0.847   1.795
 3255TIP3    H1 9729   5.578   0.933   1.803
 3255TIP3    H2 9730   5.558   0.786   1.832
 3256TIP3   OH2 9731   5.027   1.749   3.366
 3256TIP3    H1 9732   5.109   1.714   3.403
 3256TIP3    H2 9733   5.043   1.750   3.272
 3257TIP3   OH2 9734   3.194   6.120   5.785
 3257TIP3    H1 9735   3.103   6.102   5.809
 3257TIP3    H2 9736   3.236   6.146   5.867
 3258TIP3   OH2 9737   2.480   0.766   0.771
 3258TIP3    H1 9738   2.468   0.861   0.781
 3258TIP3    H2 9739   2.402   0.737   0.723
 3259TIP3   OH2 9740   1.838   4.728   3.138
 3259TIP3    H1 9741   1.808   4.818   3.151
 3259TIP3    H2 9742   1.822   4.685   3.222
 3260TIP3   OH2 9743   3.354   6.300   0.916
 3260TIP3    H1 9744   3.400   6.218   0.936
 3260TIP3    H2 9745   3.423   6.366   0.918
 3261TIP3   OH2 9746   5.052   3.033   2.789
 3261TIP3    H1 9747   5.090   3.121   2.784
 3261TIP3    H2 9748   5.035   3.020   2.883
 3262TIP3   OH2 9749   1.140   2.322   5.148
 3262TIP3    H1 9750   1.107   2.386   5.085
 3262TIP3    H2 9751   1.071   2.256   5.154
 3263TIP3   OH2 9752   2.728   1.680   4.359
 3263TIP3    H1 9753   2.729   1.606   4.420
 3263TIP3    H2 9754   2.780   1.748   4.403
 3264TIP3   OH2 9755   5.678   3.168   0.227
 3264TIP3    H1 9756   5.660   3.080   0.262
 3264TIP3    H2 9757   5.773   3.177   0.231
 3265TIP3   OH2 9758   2.635   6.029   1.148
 3265TIP3    H1 9759   2.605   6.117   1.125
 3265TIP3    H2 9760   2.693   6.004   1.076
 3266TIP3   OH2 9761   5.810   3.809   4.227
 3266TIP3    H1 9762   5.726   3.768   4.207
 3266TIP3    H2 9763   5.803   3.835   4.318
 3267TIP3   OH2 9764   5.050   1.979   0.074
 3267TIP3    H1 9765   5.049   1.896   0.122
 3267TIP3    H2 9766   5.114   1.966   0.004
 3268TIP3   OH2 9767   1.395   0.108   0.600
 3268TIP3    H1 9768   1.358   0.071   0.681
 3268TIP3    H2 9769   1.356   0.195   0.594
 3269TIP3   OH2 9770   4.723   4.268   5.462
 3269TIP3    H1 9771   4.638   4.224   5.456
 3269TIP3    H2 9772   4.702   4.361   5.455
 3270TIP3   OH2 9773   7.143   1.169   0.248
 3270TIP3    H1 9774   7.220   1.115   0.230
 3270TIP3    H2 9775   7.163   1.213   0.331
 3271TIP3   OH2 9776   0.066   2.540   1.472
 3271TIP3    H1 9777  -0.026   2.518   1.456
 3271TIP3    H2 9778   0.074   2.542   1.567
 3272TIP3   OH2 9779   2.540   4.293   5.196
 3272TIP3    H1 9780   2.592   4.356   5.147
 3272TIP3    H2 9781   2.521   4.223   5.134
 3273TIP3   OH2 9782   0.586   0.446   1.071
 3273TIP3    H1 9783   0.608   0.393   1.147
 3273TIP3    H2 9784   0.537   0.387   1.013
 3274TIP3   OH2 9785   4.775   6.142   4.336
 3274TIP3    H1 9786   4.869   6.158   4.350
 3274TIP3    H2 9787   4.735   6.229   4.341
 3275TIP3   OH2 9788   2.103   0.684   4.622
 3275TIP3    H1 9789   2.023   0.634   4.637
 3275TIP3    H2 9790   2.088   0.729   4.539
 3276TIP3   OH2 9791   3.853   1.417   1.087
 3276TIP3    H1 9792   3.906   1.383   1.159
 3276TIP3    H2 9793   3.766   1.383   1.104
 3277TIP3   OH2 9794   3.070   1.316   1.405
 3277TIP3    H1 9795   3.044   1.406   1.426
 3277TIP3    H2 9796   3.009   1.290   1.336
 3278TIP3   OH2 9797   1.410   3.251   0.557
 3278TIP3    H1 9798   1.458   3.303   0.622
 3278TIP3    H2 9799   1.353   3.194   0.609
 3279TIP3   OH2 9800   2.353   1.254   1.832
 3279TIP3    H1 9801   2.312   1.239   1.747
 3279TIP3    H2 9802   2.435   1.204   1.828
 3280TIP3   OH2 9803   1.711   2.672   3.060
 3280TIP3    H1 9804   1.776   2.742   3.050
 3280TIP3    H2 9805   1.759   2.592   3.042
 3281TIP3   OH2 9806   5.255   3.203   5.196
 3281TIP3    H1 9807   5.351   3.213   5.193
 3281TIP3    H2 9808   5.233   3.160   5.114
 3282TIP3   OH2 9809   5.170   0.613   0.225
 3282TIP3    H1 9810   5.115   0.545   0.265
 3282TIP3    H2 9811   5.193   0.671   0.298
 3283TIP3   OH2 9812   4.560   4.231   4.127
 3283TIP3    H1 9813   4.646   4.190   4.118
 3283TIP3    H2 9814   4.534   4.252   4.038
 3284TIP3   OH2 9815   6.971   2.774   0.373
 3284TIP3    H1 9816   7.009   2.765   0.460
 3284TIP3    H2 9817   6.920   2.694   0.361
 3285TIP3   OH2 9818   5.587   2.094   0.209
 3285TIP3    H1 9819   5.649   2.143   0.154
 3285TIP3    H2 9820   5.592   2.137   0.295
 3286TIP3   OH2 9821   6.908   5.870   0.230
 3286TIP3    H1 9822   6.876   5.874   0.320
 3286TIP3    H2 9823   6.908   5.777   0.208
 3287TIP3   OH2 9824   3.260   4.895   1.798
 3287TIP3    H1 9825   3.333   4.833   1.792
 3287TIP3    H2 9826   3.193   4.847   1.847
 3288TIP3   OH2 9827   7.034   4.274   4.934
 3288TIP3    H1 9828   7.008   4.252   5.023
 3288TIP3    H2 9829   6.963   4.329   4.900
 3289TIP3   OH2 9830   3.576   5.814   3.039
 3289TIP3    H1 9831   3.512   5.856   3.096
 3289TIP3    H2 9832   3.534   5.812   2.953
 3290TIP3   OH2 9833   5.747   0.378   2.663
 3290TIP3    H1 9834   5.665   0.428   2.666
 3290TIP3    H2 9835   5.741   0.326   2.583
 3291TIP3   OH2 9836   1.133   4.198   3.831
 3291TIP3    H1 9837   1.174   4.238   3.907
 3291TIP3    H2 9838   1.206   4.165   3.779
 3292TIP3   OH2 9839   5.979   0.114   5.706
 3292TIP3    H1 9840   6.022   0.187   5.749
 3292TIP3    H2 9841   5.931   0.070   5.776
 3293TIP3   OH2 9842   5.462   4.647   3.828
 3293TIP3    H1 9843   5.373   4.647   3.864
 3293TIP3    H2 9844   5.488   4.555   3.826
 3294TIP3   OH2 9845   7.087   1.443   1.458
 3294TIP3    H1 9846   7.087   1.388   1.380
 3294TIP3    H2 9847   7.034   1.519   1.434
 3295TIP3   OH2 9848   4.331   1.361   1.390
 3295TIP3    H1 9849   4.284   1.432   1.433
 3295TIP3    H2 9850   4.404   1.405   1.345
 3296TIP3   OH2 9851   4.733   2.958   0.478
 3296TIP3    H1 9852   4.679   2.894   0.524
 3296TIP3    H2 9853   4.713   2.944   0.385
 3297TIP3   OH2 9854   4.026   3.132   1.482
 3297TIP3    H1 9855   4.100   3.192   1.466
 3297TIP3    H2 9856   3.979   3.172   1.555
 3298TIP3   OH2 9857   2.871   6.234   1.733
 3298TIP3    H1 9858   2.930   6.241   1.808
 3298TIP3    H2 9859   2.791   6.279   1.760
 3299TIP3   OH2 9860   2.453   4.650   1.856
 3299TIP3    H1 9861   2.489   4.727   1.900
 3299TIP3    H2 9862   2.363   4.675   1.834
 3300TIP3   OH2 9863   4.539   0.380   3.082
 3300TIP3    H1 9864   4.628   0.382   3.047
 3300TIP3    H2 9865   4.504   0.295   3.054
 3301TIP3   OH2 9866   3.686   2.872   3.104
 3301TIP3    H1 9867   3.640   2.904   3.026
 3301TIP3    H2 9868   3.730   2.950   3.139
 3302TIP3   OH2 9869   6.540   6.012   1.382
 3302TIP3    H1 9870   6.484   6.074   1.334
 3302TIP3    H2 9871   6.542   5.934   1.327
 3303TIP3   OH2 9872   5.782   1.975   0.429
 3303TIP3    H1 9873   5.802   1.946   0.340
 3303TIP3    H2 9874   5.738   2.060   0.417
 3304TIP3   OH2 9875   1.954   3.299   4.335
 3304TIP3    H1 9876   2.040   3.268   4.308
 3304TIP3    H2 9877   1.967   3.331   4.424
 3305TIP3   OH2 9878   2.074   0.311   2.321
 3305TIP3    H1 9879   1.981   0.301   2.301
 3305TIP3    H2 9880   2.112   0.225   2.302
 3306TIP3   OH2 9881   3.477   3.774   5.553
 3306TIP3    H1 9882   3.396   3.781   5.504
 3306TIP3    H2 9883   3.451   3.739   5.638
 3307TIP3   OH2 9884   0.334   5.068   1.485
 3307TIP3    H1 9885   0.428   5.083   1.491
 3307TIP3    H2 9886   0.326   4.990   1.430
 3308TIP3   OH2 9887   3.498   4.083   0.277
 3308TIP3    H1 9888   3.480   3.993   0.301
 3308TIP3    H2 9889   3.572   4.078   0.217
 3309TIP3   OH2 9890   0.438   0.229   5.319
 3309TIP3    H1 9891   0.441   0.324   5.328
 3309TIP3    H2 9892   0.353   0.211   5.278
 3310TIP3   OH2 9893   2.097   0.681   5.748
 3310TIP3    H1 9894   2.108   0.776   5.746
 3310TIP3    H2 9895   2.184   0.646   5.731
 3311TIP3   OH2 9896   5.710   2.702   1.389
 3311TIP3    H1 9897   5.677   2.778   1.436
 3311TIP3    H2 9898   5.757   2.651   1.455
 3312TIP3   OH2 9899   0.942   3.157   4.393
 3312TIP3    H1 9900   0.983   3.071   4.398
 3312TIP3    H2 9901   0.848   3.139   4.383
 3313TIP3   OH2 9902   1.571   6.683   0.124
 3313TIP3    H1 9903   1.617   6.714   0.046
 3313TIP3    H2 9904   1.636   6.689   0.194
 3314TIP3   OH2 9905   0.045   3.937   2.430
 3314TIP3    H1 9906   0.102   3.890   2.369
 3314TIP3    H2 9907   0.041   3.882   2.508
 3315TIP3   OH2 9908   2.916   3.805   0.663
 3315TIP3    H1 9909   2.939   3.803   0.570
 3315TIP3    H2 9910   2.904   3.713   0.687
 3316TIP3   OH2 9911   0.625   4.489   4.845
 3316TIP3    H1 9912   0.570   4.482   4.767
 3316TIP3    H2 9913   0.710   4.454   4.818
 3317TIP3   OH2 9914   1.485   6.155   5.499
 3317TIP3    H1 9915   1.480   6.242   5.459
 3317TIP3    H2 9916   1.521   6.099   5.430
 3318TIP3   OH2 9917   3.593   6.029   2.193
 3318TIP3    H1 9918   3.662   6.092   2.215
 3318TIP3    H2 9919   3.617   5.996   2.106
 3319TIP3   OH2 9920   3.528   6.466   2.322
 3319TIP3    H1 9921   3.464   6.534   2.302
 3319TIP3    H2 9922   3.481   6.402   2.375
 3320TIP3   OH2 9923   5.093   2.720   4.541
 3320TIP3    H1 9924   5.184   2.746   4.530
 3320TIP3    H2 9925   5.068   2.682   4.457
 3321TIP3   OH2 9926   0.307   2.797   4.712
 3321TIP3    H1 9927   0.343   2.846   4.786
 3321TIP3    H2 9928   0.304   2.706   4.743
 3322TIP3   OH2 9929   2.449   1.558   4.736
 3322TIP3    H1 9930   2.475   1.650   4.723
 3322TIP3    H2 9931   2.468   1.541   4.828
 3323TIP3   OH2 9932   5.968   0.231   5.078
 3323TIP3    H1 9933   6.002   0.187   5.000
 3323TIP3    H2 9934   6.037   0.219   5.143
 3324TIP3   OH2 9935   7.041   3.930   3.126
 3324TIP3    H1 9936   6.956   3.901   3.094
 3324TIP3    H2 9937   7.103   3.866   3.092
 3325TIP3   OH2 9938   6.543   4.076   0.836
 3325TIP3    H1 9939   6.624   4.096   0.882
 3325TIP3    H2 9940   6.549   3.983   0.816
 3326TIP3   OH2 9941   5.852   6.477   3.350
 3326TIP3    H1 9942   5.776   6.423   3.371
 3326TIP3    H2 9943   5.919   6.415   3.320
 3327TIP3   OH2 9944   2.836   3.047   4.423
 3327TIP3    H1 9945   2.908   3.045   4.360
 3327TIP3    H2 9946   2.777   3.116   4.390
 3328TIP3   OH2 9947   4.620   0.033   0.541
 3328TIP3    H1 9948   4.573   0.103   0.586
 3328TIP3    H2 9949   4.634   0.067   0.452
 3329TIP3   OH2 9950   4.430   5.326   4.143
 3329TIP3    H1 9951   4.482   5.353   4.068
 3329TIP3    H2 9952   4.481   5.256   4.184
 3330TIP3   OH2 9953   6.467   1.724   0.193
 3330TIP3    H1 9954   6.417   1.783   0.136
 3330TIP3    H2 9955   6.550   1.711   0.147
 3331TIP3   OH2 9956   0.960   4.768   0.314
 3331TIP3    H1 9957   0.924   4.820   0.386
 3331TIP3    H2 9958   0.975   4.831   0.243
 3332TIP3   OH2 9959   0.905   2.233   4.622
 3332TIP3    H1 9960   0.867   2.199   4.704
 3332TIP3    H2 9961   0.998   2.214   4.629
 3333TIP3   OH2 9962   3.918   4.839   2.932
 3333TIP3    H1 9963   4.000   4.888   2.927
 3333TIP3    H2 9964   3.870   4.879   3.005
 3334TIP3   OH2 9965   1.889   0.757   2.286
 3334TIP3    H1 9966   1.902   0.744   2.380
 3334TIP3    H2 9967   1.933   0.683   2.245
 3335TIP3   OH2 9968   2.755   0.707   4.041
 3335TIP3    H1 9969   2.720   0.680   4.126
 3335TIP3    H2 9970   2.783   0.626   3.999
 3336TIP3   OH2 9971   3.700   3.598   2.020
 3336TIP3    H1 9972   3.673   3.591   1.928
 3336TIP3    H2 9973   3.623   3.567   2.069
 3337TIP3   OH2 9974   0.386   4.878   4.260
 3337TIP3    H1 9975   0.461   4.882   4.319
 3337TIP3    H2 9976   0.313   4.910   4.313
 3338TIP3   OH2 9977   1.485   4.766   1.627
 3338TIP3    H1 9978   1.551   4.697   1.633
 3338TIP3    H2 9979   1.408   4.723   1.590
 3339TIP3   OH2 9980   6.075   4.861   1.688
 3339TIP3    H1 9981   6.065   4.926   1.758
 3339TIP3    H2 9982   6.169   4.841   1.687
 3340TIP3   OH2 9983   0.302   5.637   4.028
 3340TIP3    H1 9984   0.268   5.708   4.082
 3340TIP3    H2 9985   0.233   5.571   4.029
 3341TIP3   OH2 9986   4.562   1.661   2.129
 3341TIP3    H1 9987   4.642   1.643   2.079
 3341TIP3    H2 9988   4.498   1.598   2.096
 3342TIP3   OH2 9989   1.877   5.166   4.150
 3342TIP3    H1 9990   1.949   5.103   4.148
 3342TIP3    H2 9991   1.846   5.169   4.059
 3343TIP3   OH2 9992   6.023   3.746   3.915
 3343TIP3    H1 9993   6.077   3.671   3.890
 3343TIP3    H2 9994   5.975   3.716   3.993
 3344TIP3   OH2 9995   0.258   4.946   5.294
 3344TIP3    H1 9996   0.218   4.860   5.306
 3344TIP3    H2 9997   0.191   4.997   5.248
 3345TIP3   OH2 9998   2.744   1.042   4.560
 3345TIP3    H1 9999   2.760   1.024   4.468
 3345TIP3    H210000   2.824   1.084   4.591
 3346TIP3   OH210001   2.492   5.695   4.951
 3346TIP3    H110002   2.520   5.733   5.035
 3346TIP3    H210003   2.401   5.668   4.967
 3347TIP3   OH210004   6.765   5.734   4.226
 3347TIP3    H110005   6.768   5.643   4.197
 3347TIP3    H210006   6.827   5.780   4.169
 3348TIP3   OH210007   2.860   5.003   1.732
 3348TIP3    H110008   2.899   5.076   1.683
 3348TIP3    H210009   2.835   5.042   1.816
 3349TIP3   OH210010   4.000   2.706   3.439
 3349TIP3    H110011   3.916   2.683   3.398
 3349TIP3    H210012   3.977   2.727   3.530
 3350TIP3   OH210013   0.836   1.506   2.600
 3350TIP3    H110014   0.913   1.563   2.607
 3350TIP3    H210015   0.871   1.417   2.599
 3351TIP3   OH210016   6.603   0.543   5.702
 3351TIP3    H110017   6.590   0.477   5.635
 3351TIP3    H210018   6.698   0.556   5.705
 3352TIP3   OH210019   3.448   6.272   5.680
 3352TIP3    H110020   3.365   6.225   5.681
 3352TIP3    H210021   3.484   6.257   5.593
 3353TIP3   OH210022   1.586   4.213   2.724
 3353TIP3    H110023   1.613   4.239   2.636
 3353TIP3    H210024   1.570   4.295   2.770
 3354TIP3   OH210025   5.589   1.882   2.901
 3354TIP3    H110026   5.657   1.833   2.947
 3354TIP3    H210027   5.605   1.864   2.808
 3355TIP3   OH210028   5.556   3.500   3.309
 3355TIP3    H110029   5.472   3.470   3.275
 3355TIP3    H210030   5.541   3.513   3.402
 3356TIP3   OH210031   1.502   1.101   4.951
 3356TIP3    H110032   1.425   1.157   4.957
 3356TIP3    H210033   1.557   1.142   4.884
 3357TIP3   OH210034   6.970   6.154   0.666
 3357TIP3    H110035   7.007   6.227   0.715
 3357TIP3    H210036   6.927   6.100   0.732
 3358TIP3   OH210037   4.505   1.774   1.188
 3358TIP3    H110038   4.550   1.709   1.133
 3358TIP3    H210039   4.425   1.794   1.139
 3359TIP3   OH210040   6.985   2.604   4.737
 3359TIP3    H110041   6.987   2.652   4.654
 3359TIP3    H210042   6.905   2.634   4.780
 3360TIP3   OH210043   5.188   3.573   3.558
 3360TIP3    H110044   5.185   3.658   3.513
 3360TIP3    H210045   5.158   3.510   3.493
 3361TIP3   OH210046   2.910   1.653   1.710
 3361TIP3    H110047   2.999   1.656   1.746
 3361TIP3    H210048   2.854   1.634   1.785
 3362TIP3   OH210049   0.690   2.662   5.059
 3362TIP3    H110050   0.609   2.612   5.068
 3362TIP3    H210051   0.688   2.695   4.969
 3363TIP3   OH210052   6.364   2.114   3.710
 3363TIP3    H110053   6.366   2.147   3.799
 3363TIP3    H210054   6.444   2.061   3.701
 3364TIP3   OH210055   0.191   3.424   2.588
 3364TIP3    H110056   0.240   3.465   2.516
 3364TIP3    H210057   0.153   3.346   2.548
 3365TIP3   OH210058   6.374   1.508   1.158
 3365TIP3    H110059   6.375   1.426   1.208
 3365TIP3    H210060   6.367   1.576   1.225
 3366TIP3   OH210061   6.903   1.490   0.634
 3366TIP3    H110062   6.944   1.419   0.585
 3366TIP3    H210063   6.959   1.502   0.711
 3367TIP3   OH210064   6.059   2.576   5.153
 3367TIP3    H110065   6.052   2.564   5.248
 3367TIP3    H210066   6.144   2.619   5.141
 3368TIP3   OH210067   5.293   3.552   2.043
 3368TIP3    H110068   5.221   3.611   2.021
 3368TIP3    H210069   5.268   3.468   2.005
 3369TIP3   OH210070   4.971   0.954   3.244
 3369TIP3    H110071   4.928   0.990   3.167
 3369TIP3    H210072   5.024   0.881   3.211
 3370TIP3   OH210073   2.188   6.327   5.424
 3370TIP3    H110074   2.158   6.257   5.367
 3370TIP3    H210075   2.273   6.297   5.456
 3371TIP3   OH210076   5.149   1.297   0.312
 3371TIP3    H110077   5.213   1.361   0.281
 3371TIP3    H210078   5.175   1.215   0.270
 3372TIP3   OH210079   3.994   2.290   3.699
 3372TIP3    H110080   3.965   2.359   3.758
 3372TIP3    H210081   3.917   2.270   3.646
 3373TIP3   OH210082   3.991   3.268   4.628
 3373TIP3    H110083   3.943   3.314   4.560
 3373TIP3    H210084   3.956   3.179   4.627
 3374TIP3   OH210085   5.051   6.597   5.045
 3374TIP3    H110086   5.040   6.601   4.950
 3374TIP3    H210087   4.988   6.530   5.073
 3375TIP3   OH210088   4.026   5.542   3.586
 3375TIP3    H110089   3.957   5.607   3.594
 3375TIP3    H210090   4.074   5.548   3.669
 3376TIP3   OH210091   4.972   5.575   2.182
 3376TIP3    H110092   5.010   5.508   2.126
 3376TIP3    H210093   4.969   5.653   2.127
 3377TIP3   OH210094   1.967   6.121   0.239
 3377TIP3    H110095   2.034   6.124   0.308
 3377TIP3    H210096   1.899   6.180   0.270
 3378TIP3   OH210097   0.077   1.395   2.574
 3378TIP3    H110098   0.017   1.445   2.630
 3378TIP3    H210099   0.109   1.460   2.511
 3379TIP3   OH210100   3.796   4.765   0.347
 3379TIP3    H110101   3.765   4.676   0.326
 3379TIP3    H210102   3.808   4.807   0.261
 3380TIP3   OH210103   6.002   3.951   2.583
 3380TIP3    H110104   5.993   3.879   2.522
 3380TIP3    H210105   6.095   3.952   2.606
 3381TIP3   OH210106   2.358   2.682   0.862
 3381TIP3    H110107   2.371   2.731   0.781
 3381TIP3    H210108   2.411   2.728   0.927
 3382TIP3   OH210109   4.109   2.404   2.357
 3382TIP3    H110110   4.060   2.327   2.386
 3382TIP3    H210111   4.191   2.369   2.324
 3383TIP3   OH210112   2.072   6.762   1.874
 3383TIP3    H110113   2.032   6.830   1.928
 3383TIP3    H210114   2.166   6.780   1.878
 3384TIP3   OH210115   6.520   2.968   2.134
 3384TIP3    H110116   6.552   2.946   2.222
 3384TIP3    H210117   6.430   2.935   2.132
 3385TIP3   OH210118   4.230   6.115   2.773
 3385TIP3    H110119   4.265   6.026   2.770
 3385TIP3    H210120   4.306   6.172   2.762
 3386TIP3   OH210121   1.934   2.022   3.011
 3386TIP3    H110122   1.975   1.963   2.948
 3386TIP3    H210123   2.000   2.089   3.027
 3387TIP3   OH210124   0.430   0.989   2.479
 3387TIP3    H110125   0.392   1.072   2.508
 3387TIP3    H210126   0.525   1.002   2.486
 3388TIP3   OH210127   2.060   4.105   3.425
 3388TIP3    H110128   1.965   4.096   3.416
 3388TIP3    H210129   2.094   4.017   3.408
 3389TIP3   OH210130   5.829   6.744   5.416
 3389TIP3    H110131   5.845   6.661   5.463
 3389TIP3    H210132   5.861   6.727   5.328
 3390TIP3   OH210133   4.774   5.825   2.896
 3390TIP3    H110134   4.855   5.839   2.946
 3390TIP3    H210135   4.788   5.872   2.814
 3391TIP3   OH210136   4.475   3.646   3.431
 3391TIP3    H110137   4.382   3.626   3.446
 3391TIP3    H210138   4.499   3.703   3.504
 3392TIP3   OH210139   4.114   0.298   1.294
 3392TIP3    H110140   4.110   0.243   1.372
 3392TIP3    H210141   4.022   0.312   1.270
 3393TIP3   OH210142   1.746   3.282   5.687
 3393TIP3    H110143   1.696   3.221   5.633
 3393TIP3    H210144   1.801   3.329   5.625
 3394TIP3   OH210145   5.258   4.369   2.650
 3394TIP3    H110146   5.345   4.335   2.672
 3394TIP3    H210147   5.264   4.463   2.667
 3395TIP3   OH210148   0.814   5.430   2.515
 3395TIP3    H110149   0.724   5.437   2.547
 3395TIP3    H210150   0.814   5.353   2.458
 3396TIP3   OH210151   0.272   3.064   3.501
 3396TIP3    H110152   0.248   3.002   3.432
 3396TIP3    H210153   0.227   3.032   3.579
 3397TIP3   OH210154   0.616   3.998   3.614
 3397TIP3    H110155   0.630   3.979   3.707
 3397TIP3    H210156   0.693   4.049   3.589
 3398TIP3   OH210157   4.752   4.203   0.254
 3398TIP3    H110158   4.720   4.115   0.236
 3398TIP3    H210159   4.847   4.196   0.250
 3399TIP3   OH210160   5.212   4.961   1.393
 3399TIP3    H110161   5.151   4.887   1.401
 3399TIP3    H210162   5.253   4.968   1.479
 3400TIP3   OH210163   0.725   5.096   2.070
 3400TIP3    H110164   0.682   5.052   2.143
 3400TIP3    H210165   0.677   5.066   1.993
 3401TIP3   OH210166   0.522   4.908   5.235
 3401TIP3    H110167   0.498   4.858   5.157
 3401TIP3    H210168   0.438   4.938   5.271
 3402TIP3   OH210169   4.053   1.955   1.738
 3402TIP3    H110170   4.056   2.021   1.807
 3402TIP3    H210171   4.026   2.003   1.660
 3403TIP3   OH210172   3.337   5.408   3.785
 3403TIP3    H110173   3.299   5.496   3.780
 3403TIP3    H210174   3.261   5.350   3.783
 3404TIP3   OH210175   1.861   4.329   1.556
 3404TIP3    H110176   1.820   4.243   1.555
 3404TIP3    H210177   1.932   4.322   1.492
 3405TIP3   OH210178   2.747   5.583   5.789
 3405TIP3    H110179   2.752   5.572   5.883
 3405TIP3    H210180   2.783   5.502   5.753
 3406TIP3   OH210181   3.580   1.047   2.028
 3406TIP3    H110182   3.522   0.972   2.040
 3406TIP3    H210183   3.617   1.062   2.115
 3407TIP3   OH210184   5.924   2.189   3.871
 3407TIP3    H110185   5.870   2.253   3.825
 3407TIP3    H210186   6.010   2.230   3.876
 3408TIP3   OH210187   6.670   1.054   2.622
 3408TIP3    H110188   6.733   1.118   2.654
 3408TIP3    H210189   6.675   0.983   2.685
 3409TIP3   OH210190   5.381   1.295   2.886
 3409TIP3    H110191   5.290   1.317   2.906
 3409TIP3    H210192   5.402   1.348   2.809
 3410TIP3   OH210193   1.190   2.840   1.869
 3410TIP3    H110194   1.227   2.927   1.883
 3410TIP3    H210195   1.110   2.840   1.921
 3411TIP3   OH210196   4.813   5.207   3.149
 3411TIP3    H110197   4.785   5.285   3.100
 3411TIP3    H210198   4.857   5.153   3.084
 3412TIP3   OH210199   4.838   2.140   2.312
 3412TIP3    H110200   4.813   2.208   2.250
 3412TIP3    H210201   4.884   2.186   2.382
 3413TIP3   OH210202   0.316   0.228   3.090
 3413TIP3    H110203   0.240   0.234   3.032
 3413TIP3    H210204   0.280   0.249   3.177
 3414TIP3   OH210205   2.680   1.776   0.920
 3414TIP3    H110206   2.595   1.814   0.900
 3414TIP3    H210207   2.734   1.851   0.947
 3415TIP3   OH210208   6.529   4.066   2.510
 3415TIP3    H110209   6.590   4.009   2.557
 3415TIP3    H210210   6.551   4.154   2.540
 3416TIP3   OH210211   6.429   2.926   5.672
 3416TIP3    H110212   6.484   2.964   5.740
 3416TIP3    H210213   6.388   2.850   5.713
 3417TIP3   OH210214   3.760   0.145   1.991
 3417TIP3    H110215   3.779   0.063   1.946
 3417TIP3    H210216   3.841   0.195   1.985
 3418TIP3   OH210217   5.792   6.488   5.536
 3418TIP3    H110218   5.772   6.479   5.629
 3418TIP3    H210219   5.795   6.399   5.502
 3419TIP3   OH210220   3.832   0.605   0.029
 3419TIP3    H110221   3.830   0.516   0.063
 3419TIP3    H210222   3.742   0.636   0.039
 3420TIP3   OH210223   1.186   4.016   4.625
 3420TIP3    H110224   1.094   4.007   4.600
 3420TIP3    H210225   1.193   4.107   4.656
 3421TIP3   OH210226   4.861   2.323   5.473
 3421TIP3    H110227   4.950   2.309   5.504
 3421TIP3    H210228   4.870   2.383   5.400
 3422TIP3   OH210229   2.859   5.416   1.114
 3422TIP3    H110230   2.808   5.368   1.179
 3422TIP3    H210231   2.888   5.350   1.052
 3423TIP3   OH210232   5.448   0.365   1.020
 3423TIP3    H110233   5.484   0.362   0.932
 3423TIP3    H210234   5.435   0.458   1.038
 3424TIP3   OH210235   2.689   5.569   2.959
 3424TIP3    H110236   2.752   5.586   3.030
 3424TIP3    H210237   2.610   5.539   3.004
 3425TIP3   OH210238   2.337   0.977   4.752
 3425TIP3    H110239   2.284   1.005   4.827
 3425TIP3    H210240   2.295   0.896   4.722
 3426TIP3   OH210241   6.364   5.156   3.317
 3426TIP3    H110242   6.363   5.251   3.330
 3426TIP3    H210243   6.435   5.125   3.373
 3427TIP3   OH210244   1.364   2.025   1.767
 3427TIP3    H110245   1.339   2.102   1.818
 3427TIP3    H210246   1.384   1.959   1.834
 3428TIP3   OH210247   5.829   1.483   0.075
 3428TIP3    H110248   5.916   1.449   0.056
 3428TIP3    H210249   5.810   1.454   0.164
 3429TIP3   OH210250   0.658   3.535   2.312
 3429TIP3    H110251   0.661   3.445   2.281
 3429TIP3    H210252   0.723   3.581   2.258
 3430TIP3   OH210253   4.059   1.365   3.413
 3430TIP3    H110254   4.071   1.342   3.505
 3430TIP3    H210255   3.973   1.330   3.390
 3431TIP3   OH210256   0.651   1.521   1.044
 3431TIP3    H110257   0.679   1.471   0.968
 3431TIP3    H210258   0.721   1.584   1.059
 3432TIP3   OH210259   5.930   4.290   0.923
 3432TIP3    H110260   5.898   4.200   0.924
 3432TIP3    H210261   5.985   4.297   1.002
 3433TIP3   OH210262   6.530   2.057   2.721
 3433TIP3    H110263   6.519   2.128   2.785
 3433TIP3    H210264   6.541   1.978   2.774
 3434TIP3   OH210265   2.523   3.364   4.584
 3434TIP3    H110266   2.527   3.285   4.639
 3434TIP3    H210267   2.613   3.377   4.555
 3435TIP3   OH210268   0.173   4.132   2.685
 3435TIP3    H110269   0.217   4.048   2.668
 3435TIP3    H210270   0.133   4.121   2.771
 3436TIP3   OH210271   5.636   4.176   4.263
 3436TIP3    H110272   5.688   4.166   4.343
 3436TIP3    H210273   5.655   4.265   4.233
 3437TIP3   OH210274   1.520   4.409   0.653
 3437TIP3    H110275   1.448   4.406   0.590
 3437TIP3    H210276   1.544   4.501   0.659
 3438TIP3   OH210277   2.768  -0.026   5.161
 3438TIP3    H110278   2.793   0.063   5.183
 3438TIP3    H210279   2.706  -0.016   5.089
 3439TIP3   OH210280   1.544   3.909   5.741
 3439TIP3    H110281   1.482   3.913   5.814
 3439TIP3    H210282   1.489   3.897   5.664
 3440TIP3   OH210283   6.102   3.792   3.226
 3440TIP3    H110284   6.161   3.776   3.152
 3440TIP3    H210285   6.143   3.748   3.300
 3441TIP3   OH210286   5.069   3.864   1.391
 3441TIP3    H110287   5.025   3.781   1.411
 3441TIP3    H210288   5.162   3.845   1.403
 3442TIP3   OH210289   6.053   2.087   5.242
 3442TIP3    H110290   6.076   2.090   5.335
 3442TIP3    H210291   6.063   2.177   5.212
 3443TIP3   OH210292   2.956   4.552   1.126
 3443TIP3    H110293   3.015   4.627   1.115
 3443TIP3    H210294   2.986   4.508   1.205
 3444TIP3   OH210295   0.697   5.853   2.085
 3444TIP3    H110296   0.637   5.923   2.061
 3444TIP3    H210297   0.734   5.823   2.002
 3445TIP3   OH210298   6.699   1.146   4.133
 3445TIP3    H110299   6.771   1.084   4.123
 3445TIP3    H210300   6.731   1.227   4.093
 3446TIP3   OH210301   2.585   1.177   1.097
 3446TIP3    H110302   2.603   1.271   1.106
 3446TIP3    H210303   2.596   1.142   1.185
 3447TIP3   OH210304   2.520   1.591   3.140
 3447TIP3    H110305   2.492   1.541   3.062
 3447TIP3    H210306   2.542   1.678   3.106
 3448TIP3   OH210307   2.539   1.836   4.639
 3448TIP3    H110308   2.565   1.822   4.730
 3448TIP3    H210309   2.610   1.887   4.602
 3449TIP3   OH210310   3.911   3.664   2.650
 3449TIP3    H110311   3.965   3.699   2.721
 3449TIP3    H210312   3.967   3.601   2.606
 3450TIP3   OH210313   6.595   0.912   4.697
 3450TIP3    H110314   6.549   0.864   4.766
 3450TIP3    H210315   6.551   0.998   4.694
 3451TIP3   OH210316   4.467   3.149   0.938
 3451TIP3    H110317   4.524   3.211   0.983
 3451TIP3    H210318   4.520   3.114   0.867
 3452TIP3   OH210319   6.584   0.700   3.232
 3452TIP3    H110320   6.638   0.625   3.209
 3452TIP3    H210321   6.646   0.773   3.244
 3453TIP3   OH210322   5.832   4.166   4.460
 3453TIP3    H110323   5.818   4.250   4.504
 3453TIP3    H210324   5.912   4.178   4.409
 3454TIP3   OH210325   4.643   2.732   0.597
 3454TIP3    H110326   4.721   2.747   0.649
 3454TIP3    H210327   4.586   2.678   0.653
 3455TIP3   OH210328   2.665   5.545   0.116
 3455TIP3    H110329   2.635   5.538   0.207
 3455TIP3    H210330   2.758   5.562   0.122
 3456TIP3   OH210331   5.040   5.451   4.520
 3456TIP3    H110332   5.000   5.464   4.606
 3456TIP3    H210333   5.134   5.460   4.535
 3457TIP3   OH210334   0.102   3.172   0.684
 3457TIP3    H110335   0.042   3.135   0.619
 3457TIP3    H210336   0.139   3.096   0.729
 3458TIP3   OH210337   2.033   2.523   3.809
 3458TIP3    H110338   2.057   2.579   3.883
 3458TIP3    H210339   2.080   2.560   3.735
 3459TIP3   OH210340   3.295   3.911   2.655
 3459TIP3    H110341   3.239   3.854   2.706
 3459TIP3    H210342   3.291   3.877   2.566
 3460TIP3   OH210343   4.004   3.660   2.001
 3460TIP3    H110344   4.073   3.712   2.043
 3460TIP3    H210345   3.935   3.655   2.066
 3461TIP3   OH210346   4.557   1.761   4.207
 3461TIP3    H110347   4.567   1.769   4.302
 3461TIP3    H210348   4.516   1.842   4.180
 3462TIP3   OH210349   6.345   3.203   1.975
 3462TIP3    H110350   6.332   3.278   1.917
 3462TIP3    H210351   6.293   3.223   2.052
 3463TIP3   OH210352   5.921   1.435   2.661
 3463TIP3    H110353   5.869   1.515   2.656
 3463TIP3    H210354   6.005   1.463   2.698
 3464TIP3   OH210355   3.591   3.555   4.157
 3464TIP3    H110356   3.589   3.614   4.081
 3464TIP3    H210357   3.505   3.514   4.158
 3465TIP3   OH210358   6.204   0.484   2.982
 3465TIP3    H110359   6.130   0.493   2.922
 3465TIP3    H210360   6.258   0.415   2.943
 3466TIP3   OH210361   6.360   1.478   4.392
 3466TIP3    H110362   6.304   1.555   4.386
 3466TIP3    H210363   6.381   1.471   4.485
 3467TIP3   OH210364   1.552   1.721   0.672
 3467TIP3    H110365   1.640   1.720   0.633
 3467TIP3    H210366   1.506   1.789   0.624
 3468TIP3   OH210367   2.933   4.027   3.787
 3468TIP3    H110368   2.844   3.996   3.802
 3468TIP3    H210369   2.983   3.948   3.766
 3469TIP3   OH210370   0.843   4.390   3.751
 3469TIP3    H110371   0.777   4.453   3.781
 3469TIP3    H210372   0.927   4.428   3.777
 3470TIP3   OH210373   1.732   3.586   2.696
 3470TIP3    H110374   1.670   3.514   2.691
 3470TIP3    H210375   1.816   3.547   2.672
 3471TIP3   OH210376   5.092   1.533   0.896
 3471TIP3    H110377   5.118   1.452   0.941
 3471TIP3    H210378   5.109   1.515   0.804
 3472TIP3   OH210379   4.802   3.830   4.374
 3472TIP3    H110380   4.837   3.822   4.463
 3472TIP3    H210381   4.725   3.774   4.372
 3473TIP3   OH210382   5.912   0.574   0.965
 3473TIP3    H110383   5.833   0.624   0.985
 3473TIP3    H210384   5.914   0.570   0.869
 3474TIP3   OH210385   1.648   2.213   0.960
 3474TIP3    H110386   1.618   2.282   1.020
 3474TIP3    H210387   1.587   2.140   0.975
 3475TIP3   OH210388   1.002   4.109   0.034
 3475TIP3    H110389   0.942   4.067  -0.028
 3475TIP3    H210390   0.975   4.076   0.119
 3476TIP3   OH210391   3.153   5.281   4.834
 3476TIP3    H110392   3.248   5.272   4.828
 3476TIP3    H210393   3.121   5.192   4.848
 3477TIP3   OH210394   5.247   5.143   3.423
 3477TIP3    H110395   5.290   5.136   3.508
 3477TIP3    H210396   5.194   5.223   3.430
 3478TIP3   OH210397   7.116   6.434   2.966
 3478TIP3    H110398   7.093   6.485   3.044
 3478TIP3    H210399   7.204   6.402   2.984
 3479TIP3   OH210400   3.567   6.620   1.809
 3479TIP3    H110401   3.563   6.703   1.857
 3479TIP3    H210402   3.481   6.611   1.769
 3480TIP3   OH210403   0.101   0.916   5.283
 3480TIP3    H110404   0.061   0.950   5.203
 3480TIP3    H210405   0.191   0.950   5.280
 3481TIP3   OH210406   6.845   3.640   1.765
 3481TIP3    H110407   6.758   3.601   1.767
 3481TIP3    H210408   6.903   3.568   1.737
 3482TIP3   OH210409   3.070   5.699   0.577
 3482TIP3    H110410   3.034   5.630   0.521
 3482TIP3    H210411   3.074   5.659   0.664
 3483TIP3   OH210412   0.656   4.541   2.095
 3483TIP3    H110413   0.689   4.502   2.014
 3483TIP3    H210414   0.709   4.501   2.164
 3484TIP3   OH210415   4.886   3.924   2.528
 3484TIP3    H110416   4.966   3.974   2.518
 3484TIP3    H210417   4.909   3.856   2.592
 3485TIP3   OH210418   3.548   1.469   1.692
 3485TIP3    H110419   3.550   1.457   1.597
 3485TIP3    H210420   3.513   1.387   1.726
 3486TIP3   OH210421   3.352   3.190   1.688
 3486TIP3    H110422   3.377   3.124   1.623
 3486TIP3    H210423   3.419   3.183   1.756
 3487TIP3   OH210424   6.420   2.497   2.256
 3487TIP3    H110425   6.414   2.513   2.162
 3487TIP3    H210426   6.514   2.495   2.274
 3488TIP3   OH210427   3.894   1.229   2.852
 3488TIP3    H110428   3.950   1.157   2.881
 3488TIP3    H210429   3.953   1.288   2.806
 3489TIP3   OH210430   5.651   4.429   4.169
 3489TIP3    H110431   5.672   4.515   4.205
 3489TIP3    H210432   5.697   4.425   4.085
 3490TIP3   OH210433   2.548   4.575   0.656
 3490TIP3    H110434   2.624   4.598   0.602
 3490TIP3    H210435   2.494   4.521   0.599
 3491TIP3   OH210436   0.388   4.454   3.712
 3491TIP3    H110437   0.411   4.390   3.645
 3491TIP3    H210438   0.298   4.432   3.736
 3492TIP3   OH210439   2.188   5.545   5.390
 3492TIP3    H110440   2.209   5.635   5.364
 3492TIP3    H210441   2.093   5.538   5.378
 3493TIP3   OH210442   4.032   1.106   0.078
 3493TIP3    H110443   4.114   1.134   0.036
 3493TIP3    H210444   3.998   1.185   0.120
 3494TIP3   OH210445   2.543   2.365   3.876
 3494TIP3    H110446   2.605   2.342   3.806
 3494TIP3    H210447   2.509   2.281   3.906
 3495TIP3   OH210448   2.822   1.529   4.887
 3495TIP3    H110449   2.808   1.484   4.804
 3495TIP3    H210450   2.903   1.490   4.922
 3496TIP3   OH210451   1.716   2.695   1.328
 3496TIP3    H110452   1.651   2.724   1.265
 3496TIP3    H210453   1.785   2.761   1.325
 3497TIP3   OH210454   0.217   1.435   2.814
 3497TIP3    H110455   0.280   1.493   2.770
 3497TIP3    H210456   0.132   1.465   2.784
 3498TIP3   OH210457   6.883   6.262   5.113
 3498TIP3    H110458   6.852   6.344   5.074
 3498TIP3    H210459   6.943   6.226   5.048
 3499TIP3   OH210460   0.326   4.281   3.995
 3499TIP3    H110461   0.318   4.251   4.086
 3499TIP3    H210462   0.420   4.283   3.979
 3500TIP3   OH210463   5.989   6.172   0.495
 3500TIP3    H110464   6.021   6.088   0.461
 3500TIP3    H210465   6.054   6.198   0.560
 3501TIP3   OH210466   4.153   6.761   3.408
 3501TIP3    H110467   4.139   6.848   3.370
 3501TIP3    H210468   4.071   6.714   3.392
 3502TIP3   OH210469   3.887   2.915   0.088
 3502TIP3    H110470   3.882   2.829   0.046
 3502TIP3    H210471   3.935   2.969   0.026
 3503TIP3   OH210472   1.154   4.355   5.690
 3503TIP3    H110473   1.110   4.405   5.760
 3503TIP3    H210474   1.231   4.408   5.669
 3504TIP3   OH210475   6.322   6.089   4.754
 3504TIP3    H110476   6.251   6.073   4.815
 3504TIP3    H210477   6.341   6.182   4.763
 3505TIP3   OH210478   5.402   0.809   2.931
 3505TIP3    H110479   5.421   0.900   2.956
 3505TIP3    H210480   5.483   0.779   2.889
 3506TIP3   OH210481   0.849   4.435   1.433
 3506TIP3    H110482   0.788   4.379   1.481
 3506TIP3    H210483   0.820   4.430   1.342
 3507TIP3   OH210484   6.636   5.790   5.370
 3507TIP3    H110485   6.683   5.740   5.436
 3507TIP3    H210486   6.610   5.870   5.415
 3508TIP3   OH210487   4.083   6.352   2.133
 3508TIP3    H110488   4.040   6.418   2.078
 3508TIP3    H210489   4.017   6.328   2.198
 3509TIP3   OH210490   0.263   1.768   4.307
 3509TIP3    H110491   0.182   1.757   4.358
 3509TIP3    H210492   0.282   1.680   4.274
 3510TIP3   OH210493   0.654   4.904   4.438
 3510TIP3    H110494   0.730   4.873   4.487
 3510TIP3    H210495   0.687   4.978   4.387
 3511TIP3   OH210496   5.706   5.985   5.342
 3511TIP3    H110497   5.759   5.968   5.264
 3511TIP3    H210498   5.690   5.899   5.380
 3512TIP3   OH210499   0.480   2.606   3.492
 3512TIP3    H110500   0.449   2.665   3.424
 3512TIP3    H210501   0.538   2.660   3.546
 3513TIP3   OH210502   1.643   6.357   5.332
 3513TIP3    H110503   1.553   6.357   5.299
 3513TIP3    H210504   1.696   6.328   5.257
 3514TIP3   OH210505   1.785   0.698   4.636
 3514TIP3    H110506   1.803   0.631   4.570
 3514TIP3    H210507   1.838   0.673   4.711
 3515TIP3   OH210508   1.281   2.569   4.570
 3515TIP3    H110509   1.191   2.568   4.603
 3515TIP3    H210510   1.290   2.488   4.520
 3516TIP3   OH210511   5.027   4.673   3.255
 3516TIP3    H110512   4.954   4.720   3.216
 3516TIP3    H210513   4.999   4.657   3.345
 3517TIP3   OH210514   0.764   6.281   4.168
 3517TIP3    H110515   0.820   6.273   4.245
 3517TIP3    H210516   0.756   6.375   4.154
 3518TIP3   OH210517   1.705   3.472   0.249
 3518TIP3    H110518   1.631   3.411   0.250
 3518TIP3    H210519   1.763   3.439   0.180
 3519TIP3   OH210520   2.696   5.978   2.179
 3519TIP3    H110521   2.631   6.030   2.131
 3519TIP3    H210522   2.644   5.911   2.224
 3520TIP3   OH210523   6.389   6.528   2.616
 3520TIP3    H110524   6.475   6.508   2.653
 3520TIP3    H210525   6.403   6.527   2.521
 3521TIP3   OH210526   6.369   1.916   1.500
 3521TIP3    H110527   6.424   1.995   1.504
 3521TIP3    H210528   6.337   1.906   1.590
 3522TIP3   OH210529   6.289   6.009   2.614
 3522TIP3    H110530   6.283   5.943   2.683
 3522TIP3    H210531   6.318   5.961   2.537
 3523TIP3   OH210532   2.185   3.106   3.516
 3523TIP3    H110533   2.110   3.076   3.566
 3523TIP3    H210534   2.185   3.201   3.527
 3524TIP3   OH210535   4.877   2.064   5.858
 3524TIP3    H110536   4.801   2.105   5.817
 3524TIP3    H210537   4.842   1.988   5.905
 3525TIP3   OH210538   1.755   3.278   5.375
 3525TIP3    H110539   1.701   3.345   5.333
 3525TIP3    H210540   1.693   3.211   5.403
 3526TIP3   OH210541   6.560   3.658   3.927
 3526TIP3    H110542   6.513   3.575   3.929
 3526TIP3    H210543   6.491   3.725   3.933
 3527TIP3   OH210544   5.373   3.922   3.120
 3527TIP3    H110545   5.411   4.001   3.159
 3527TIP3    H210546   5.305   3.895   3.182
 3528TIP3   OH210547   0.534   6.035   1.946
 3528TIP3    H110548   0.541   6.013   1.853
 3528TIP3    H210549   0.533   6.130   1.948
 3529TIP3   OH210550   5.748   5.386   2.477
 3529TIP3    H110551   5.742   5.291   2.483
 3529TIP3    H210552   5.777   5.402   2.387
 3530TIP3   OH210553   5.651   0.956   3.438
 3530TIP3    H110554   5.638   0.892   3.508
 3530TIP3    H210555   5.595   1.029   3.463
 3531TIP3   OH210556   0.207   1.315   5.028
 3531TIP3    H110557   0.204   1.319   4.933
 3531TIP3    H210558   0.237   1.226   5.048
 3532TIP3   OH210559   4.474   1.732   2.887
 3532TIP3    H110560   4.561   1.694   2.875
 3532TIP3    H210561   4.421   1.696   2.816
 3533TIP3   OH210562   6.699   3.318   1.224
 3533TIP3    H110563   6.741   3.241   1.185
 3533TIP3    H210564   6.733   3.320   1.314
 3534TIP3   OH210565   6.397   6.595   4.882
 3534TIP3    H110566   6.422   6.679   4.844
 3534TIP3    H210567   6.428   6.599   4.973
 3535TIP3   OH210568   2.792   3.720   4.357
 3535TIP3    H110569   2.858   3.695   4.292
 3535TIP3    H210570   2.761   3.806   4.328
 3536TIP3   OH210571   2.513   4.303   3.727
 3536TIP3    H110572   2.529   4.312   3.821
 3536TIP3    H210573   2.492   4.210   3.715
 3537TIP3   OH210574   5.534   2.012   1.212
 3537TIP3    H110575   5.627   1.998   1.200
 3537TIP3    H210576   5.511   2.079   1.147
 3538TIP3   OH210577   3.939   0.624   4.700
 3538TIP3    H110578   3.956   0.674   4.619
 3538TIP3    H210579   3.915   0.691   4.764
 3539TIP3   OH210580   1.470   5.222   2.493
 3539TIP3    H110581   1.485   5.304   2.445
 3539TIP3    H210582   1.487   5.244   2.584
 3540TIP3   OH210583   1.299   2.785   0.320
 3540TIP3    H110584   1.286   2.746   0.406
 3540TIP3    H210585   1.336   2.871   0.337
 3541TIP3   OH210586   2.932   5.856   3.252
 3541TIP3    H110587   2.915   5.909   3.174
 3541TIP3    H210588   2.920   5.916   3.325
 3542TIP3   OH210589   1.227   0.956   0.032
 3542TIP3    H110590   1.160   0.909   0.082
 3542TIP3    H210591   1.309   0.913   0.054
 3543TIP3   OH210592   6.947   6.110   4.655
 3543TIP3    H110593   6.907   6.139   4.573
 3543TIP3    H210594   6.973   6.019   4.637
 3544TIP3   OH210595   5.664   4.387   2.332
 3544TIP3    H110596   5.589   4.444   2.351
 3544TIP3    H210597   5.739   4.446   2.335
 3545TIP3   OH210598   3.200   0.977   1.267
 3545TIP3    H110599   3.147   0.989   1.188
 3545TIP3    H210600   3.272   1.039   1.257
 3546TIP3   OH210601   2.339   5.039   5.398
 3546TIP3    H110602   2.263   5.094   5.419
 3546TIP3    H210603   2.321   4.955   5.440
 3547TIP3   OH210604   4.296   4.869   3.476
 3547TIP3    H110605   4.338   4.851   3.392
 3547TIP3    H210606   4.356   4.930   3.520
 3548TIP3   OH210607   3.589   3.091   4.660
 3548TIP3    H110608   3.523   3.054   4.602
 3548TIP3    H210609   3.575   3.185   4.657
 3549TIP3   OH210610   4.025   2.996   3.346
 3549TIP3    H110611   4.076   3.006   3.266
 3549TIP3    H210612   3.998   2.904   3.345
 3550TIP3   OH210613   5.142   6.760   3.151
 3550TIP3    H110614   5.109   6.848   3.131
 3550TIP3    H210615   5.184   6.770   3.237
 3551TIP3   OH210616   4.089   4.764   1.154
 3551TIP3    H110617   4.073   4.685   1.205
 3551TIP3    H210618   4.184   4.775   1.153
 3552TIP3   OH210619   0.480   4.408   0.565
 3552TIP3    H110620   0.487   4.454   0.649
 3552TIP3    H210621   0.565   4.423   0.523
 3553TIP3   OH210622   5.936   2.767   3.404
 3553TIP3    H110623   5.935   2.843   3.345
 3553TIP3    H210624   5.891   2.798   3.483
 3554TIP3   OH210625   1.501   0.803   4.567
 3554TIP3    H110626   1.495   0.894   4.596
 3554TIP3    H210627   1.595   0.786   4.562
 3555TIP3   OH210628   3.263   3.916   4.978
 3555TIP3    H110629   3.287   3.827   4.952
 3555TIP3    H210630   3.323   3.937   5.050
 3556TIP3   OH210631   7.096   0.096   4.703
 3556TIP3    H110632   7.013   0.126   4.666
 3556TIP3    H210633   7.072   0.023   4.760
 3557TIP3   OH210634   1.589   4.173   0.527
 3557TIP3    H110635   1.661   4.150   0.586
 3557TIP3    H210636   1.556   4.256   0.561
 3558TIP3   OH210637   6.195   6.263   4.386
 3558TIP3    H110638   6.193   6.182   4.334
 3558TIP3    H210639   6.152   6.239   4.468
 3559TIP3   OH210640   1.280   5.451   5.671
 3559TIP3    H110641   1.367   5.441   5.709
 3559TIP3    H210642   1.281   5.538   5.631
 3560TIP3   OH210643   3.296   6.787   1.287
 3560TIP3    H110644   3.213   6.830   1.266
 3560TIP3    H210645   3.277   6.693   1.282
 3561TIP3   OH210646   0.850   5.722   1.567
 3561TIP3    H110647   0.834   5.765   1.483
 3561TIP3    H210648   0.771   5.671   1.584
 3562TIP3   OH210649   0.720   3.298   5.853
 3562TIP3    H110650   0.815   3.308   5.847
 3562TIP3    H210651   0.708   3.228   5.917
 3563TIP3   OH210652   6.598   5.319   5.832
 3563TIP3    H110653   6.522   5.283   5.786
 3563TIP3    H210654   6.608   5.264   5.909
 3564TIP3   OH210655   2.188   2.433   4.550
 3564TIP3    H110656   2.156   2.344   4.538
 3564TIP3    H210657   2.183   2.472   4.463
 3565TIP3   OH210658   3.810   3.873   0.505
 3565TIP3    H110659   3.776   3.963   0.503
 3565TIP3    H210660   3.812   3.850   0.598
 3566TIP3   OH210661   4.208   0.708   0.408
 3566TIP3    H110662   4.136   0.769   0.420
 3566TIP3    H210663   4.275   0.759   0.362
 3567TIP3   OH210664   0.873   1.982  -0.017
 3567TIP3    H110665   0.835   2.047   0.041
 3567TIP3    H210666   0.797   1.935  -0.053
 3568TIP3   OH210667   4.168   4.849   4.272
 3568TIP3    H110668   4.240   4.911   4.283
 3568TIP3    H210669   4.135   4.836   4.361
 3569TIP3   OH210670   6.500   4.290   5.579
 3569TIP3    H110671   6.486   4.343   5.500
 3569TIP3    H210672   6.414   4.251   5.596
 3570TIP3   OH210673   3.154   2.796   2.130
 3570TIP3    H110674   3.133   2.818   2.039
 3570TIP3    H210675   3.248   2.775   2.128
 3571TIP3   OH210676   1.926   3.367   0.063
 3571TIP3    H110677   1.846   3.330   0.025
 3571TIP3    H210678   1.993   3.301   0.048
 3572TIP3   OH210679   0.122   0.732   5.571
 3572TIP3    H110680   0.052   0.790   5.541
 3572TIP3    H210681   0.125   0.746   5.666
 3573TIP3   OH210682   4.327   3.932   4.107
 3573TIP3    H110683   4.350   3.948   4.015
 3573TIP3    H210684   4.237   3.899   4.104
 3574TIP3   OH210685   6.114   3.195   4.990
 3574TIP3    H110686   6.025   3.202   5.024
 3574TIP3    H210687   6.109   3.129   4.921
 3575TIP3   OH210688   3.313   5.554   1.540
 3575TIP3    H110689   3.376   5.534   1.470
 3575TIP3    H210690   3.277   5.470   1.565
 3576TIP3   OH210691   5.875   1.417   3.741
 3576TIP3    H110692   5.813   1.358   3.698
 3576TIP3    H210693   5.821   1.488   3.776
 3577TIP3   OH210694   1.798   3.689   2.948
 3577TIP3    H110695   1.892   3.669   2.948
 3577TIP3    H210696   1.762   3.633   2.878
 3578TIP3   OH210697   0.716   5.482   4.433
 3578TIP3    H110698   0.692   5.574   4.440
 3578TIP3    H210699   0.726   5.453   4.524
 3579TIP3   OH210700   2.770   4.445   5.114
 3579TIP3    H110701   2.831   4.512   5.146
 3579TIP3    H210702   2.817   4.403   5.042
 3580TIP3   OH210703   2.857   3.427   2.692
 3580TIP3    H110704   2.802   3.454   2.765
 3580TIP3    H210705   2.936   3.393   2.733
 3581TIP3   OH210706   5.975   0.469   4.923
 3581TIP3    H110707   5.946   0.391   4.971
 3581TIP3    H210708   6.054   0.497   4.969
 3582TIP3   OH210709   1.446   5.877   5.654
 3582TIP3    H110710   1.412   5.964   5.631
 3582TIP3    H210711   1.531   5.872   5.609
 3583TIP3   OH210712   5.333   3.860   3.400
 3583TIP3    H110713   5.412   3.913   3.400
 3583TIP3    H210714   5.289   3.881   3.482
 3584TIP3   OH210715   1.357   5.219   4.343
 3584TIP3    H110716   1.419   5.180   4.283
 3584TIP3    H210717   1.387   5.310   4.353
 3585TIP3   OH210718   0.629   3.596   5.511
 3585TIP3    H110719   0.673   3.675   5.542
 3585TIP3    H210720   0.654   3.589   5.419
 3586TIP3   OH210721   5.027   4.057   4.060
 3586TIP3    H110722   5.088   4.028   3.992
 3586TIP3    H210723   5.056   4.145   4.083
 3587TIP3   OH210724   5.652   1.484   1.302
 3587TIP3    H110725   5.624   1.538   1.228
 3587TIP3    H210726   5.583   1.419   1.312
 3588TIP3   OH210727   3.711   0.333   3.136
 3588TIP3    H110728   3.721   0.238   3.126
 3588TIP3    H210729   3.678   0.344   3.225
 3589TIP3   OH210730   1.344   1.620   1.654
 3589TIP3    H110731   1.280   1.676   1.699
 3589TIP3    H210732   1.290   1.557   1.605
 3590TIP3   OH210733   0.185   0.169   1.031
 3590TIP3    H110734   0.225   0.180   1.117
 3590TIP3    H210735   0.091   0.165   1.049
 3591TIP3   OH210736   0.814   1.755   4.522
 3591TIP3    H110737   0.894   1.735   4.570
 3591TIP3    H210738   0.770   1.821   4.575
 3592TIP3   OH210739   1.341   3.854   5.292
 3592TIP3    H110740   1.411   3.905   5.251
 3592TIP3    H210741   1.351   3.872   5.386
 3593TIP3   OH210742   3.341   5.187   4.344
 3593TIP3    H110743   3.350   5.255   4.412
 3593TIP3    H210744   3.293   5.230   4.274
 3594TIP3   OH210745   6.506   5.070   3.534
 3594TIP3    H110746   6.481   5.153   3.574
 3594TIP3    H210747   6.459   5.003   3.585
 3595TIP3   OH210748   1.948   0.768   1.867
 3595TIP3    H110749   2.012   0.754   1.937
 3595TIP3    H210750   1.979   0.714   1.795
 3596TIP3   OH210751   0.411   3.314   0.611
 3596TIP3    H110752   0.459   3.357   0.541
 3596TIP3    H210753   0.344   3.263   0.566
 3597TIP3   OH210754   5.003   1.149   3.915
 3597TIP3    H110755   4.979   1.141   3.823
 3597TIP3    H210756   5.098   1.147   3.916
 3598TIP3   OH210757   3.530   0.279   4.671
 3598TIP3    H110758   3.502   0.308   4.584
 3598TIP3    H210759   3.589   0.348   4.701
 3599TIP3   OH210760   6.967   1.386   2.930
 3599TIP3    H110761   6.979   1.350   3.018
 3599TIP3    H210762   6.926   1.471   2.945
 3600TIP3   OH210763   3.058   0.038   5.371
 3600TIP3    H110764   2.998  -0.033   5.348
 3600TIP3    H210765   3.028   0.112   5.320
 3601TIP3   OH210766   2.963   3.180   3.334
 3601TIP3    H110767   2.900   3.109   3.350
 3601TIP3    H210768   2.951   3.202   3.242
 3602TIP3   OH210769   5.348   6.032   1.488
 3602TIP3    H110770   5.414   6.005   1.551
 3602TIP3    H210771   5.358   6.127   1.482
 3603TIP3   OH210772   4.621   5.383   3.918
 3603TIP3    H110773   4.682   5.448   3.951
 3603TIP3    H210774   4.610   5.405   3.825
 3604TIP3   OH210775   3.374   1.277   2.715
 3604TIP3    H110776   3.366   1.223   2.793
 3604TIP3    H210777   3.304   1.342   2.724
 3605TIP3   OH210778   6.315   5.772   4.222
 3605TIP3    H110779   6.386   5.836   4.231
 3605TIP3    H210780   6.316   5.748   4.130
 3606TIP3   OH210781   3.174   2.015   5.611
 3606TIP3    H110782   3.192   1.993   5.702
 3606TIP3    H210783   3.172   2.111   5.609
 3607TIP3   OH210784   3.240   5.407   4.213
 3607TIP3    H110785   3.188   5.487   4.206
 3607TIP3    H210786   3.232   5.365   4.127
 3608TIP3   OH210787   5.880   6.171   1.631
 3608TIP3    H110788   5.860   6.139   1.719
 3608TIP3    H210789   5.975   6.160   1.623
 3609TIP3   OH210790   3.847   2.360   1.841
 3609TIP3    H110791   3.911   2.330   1.777
 3609TIP3    H210792   3.848   2.456   1.832
 3610TIP3   OH210793   5.903   2.162   3.512
 3610TIP3    H110794   5.819   2.124   3.538
 3610TIP3    H210795   5.881   2.249   3.478
 3611TIP3   OH210796   0.852   5.434   1.583
 3611TIP3    H110797   0.889   5.520   1.604
 3611TIP3    H210798   0.767   5.433   1.627
 3612TIP3   OH210799   5.408   2.607   3.668
 3612TIP3    H110800   5.455   2.643   3.594
 3612TIP3    H210801   5.325   2.575   3.630
 3613TIP3   OH210802   6.382   6.486   3.364
 3613TIP3    H110803   6.330   6.484   3.445
 3613TIP3    H210804   6.401   6.394   3.345
 3614TIP3   OH210805   2.162   1.964   4.337
 3614TIP3    H110806   2.156   2.045   4.287
 3614TIP3    H210807   2.170   1.896   4.271
 3615TIP3   OH210808   0.354   4.064   2.034
 3615TIP3    H110809   0.288   4.072   2.102
 3615TIP3    H210810   0.429   4.023   2.077
 3616TIP3   OH210811   0.279   2.550   1.033
 3616TIP3    H110812   0.288   2.559   1.127
 3616TIP3    H210813   0.347   2.488   1.007
 3617TIP3   OH210814   4.748   2.593   3.840
 3617TIP3    H110815   4.784   2.539   3.911
 3617TIP3    H210816   4.791   2.559   3.761
 3618TIP3   OH210817   3.088   3.275   2.151
 3618TIP3    H110818   3.019   3.238   2.207
 3618TIP3    H210819   3.154   3.206   2.145
 3619TIP3   OH210820   6.473   3.164   3.136
 3619TIP3    H110821   6.506   3.092   3.081
 3619TIP3    H210822   6.406   3.123   3.191
 3620TIP3   OH210823   2.328   5.141   3.062
 3620TIP3    H110824   2.380   5.186   2.996
 3620TIP3    H210825   2.356   5.050   3.058
 3621TIP3   OH210826   4.905   0.697   1.533
 3621TIP3    H110827   4.868   0.758   1.597
 3621TIP3    H210828   4.903   0.612   1.577
 3622TIP3   OH210829   5.031   5.956   3.277
 3622TIP3    H110830   4.990   6.012   3.343
 3622TIP3    H210831   5.056   6.016   3.207
 3623TIP3   OH210832   4.733   4.309   1.578
 3623TIP3    H110833   4.784   4.312   1.659
 3623TIP3    H210834   4.799   4.321   1.509
 3624TIP3   OH210835   4.727   1.890   3.250
 3624TIP3    H110836   4.679   1.915   3.329
 3624TIP3    H210837   4.805   1.945   3.251
 3625TIP3   OH210838   7.037   0.892   3.409
 3625TIP3    H110839   7.033   0.980   3.447
 3625TIP3    H210840   7.111   0.850   3.452
 3626TIP3   OH210841   2.163   0.124   5.322
 3626TIP3    H110842   2.203   0.092   5.241
 3626TIP3    H210843   2.211   0.079   5.391
 3627TIP3   OH210844   6.501   5.846   0.251
 3627TIP3    H110845   6.495   5.823   0.158
 3627TIP3    H210846   6.543   5.770   0.292
 3628TIP3   OH210847   0.327   6.194   1.419
 3628TIP3    H110848   0.346   6.271   1.366
 3628TIP3    H210849   0.237   6.208   1.449
 3629TIP3   OH210850   4.006   0.213   4.868
 3629TIP3    H110851   4.101   0.224   4.871
 3629TIP3    H210852   3.971   0.290   4.913
 3630TIP3   OH210853   6.673   6.500   3.687
 3630TIP3    H110854   6.622   6.420   3.701
 3630TIP3    H210855   6.647   6.558   3.759
 3631TIP3   OH210856   5.355   4.438   4.138
 3631TIP3    H110857   5.445   4.431   4.168
 3631TIP3    H210858   5.361   4.450   4.043
 3632TIP3   OH210859   5.861   5.223   3.192
 3632TIP3    H110860   5.955   5.218   3.209
 3632TIP3    H210861   5.849   5.308   3.150
 3633TIP3   OH210862   4.927   3.626   5.912
 3633TIP3    H110863   4.968   3.547   5.946
 3633TIP3    H210864   4.971   3.643   5.829
 3634TIP3   OH210865   2.535   4.169   1.093
 3634TIP3    H110866   2.562   4.128   1.175
 3634TIP3    H210867   2.485   4.100   1.048
 3635TIP3   OH210868   2.385   0.614   3.824
 3635TIP3    H110869   2.381   0.671   3.747
 3635TIP3    H210870   2.440   0.662   3.887
 3636TIP3   OH210871   5.626   3.278   1.407
 3636TIP3    H110872   5.617   3.241   1.319
 3636TIP3    H210873   5.539   3.313   1.427
 3637TIP3   OH210874   5.007   0.627   0.582
 3637TIP3    H110875   4.925   0.650   0.627
 3637TIP3    H210876   5.011   0.687   0.508
 3638TIP3   OH210877   7.135   5.894   1.126
 3638TIP3    H110878   7.147   5.819   1.068
 3638TIP3    H210879   7.083   5.861   1.199
 3639TIP3   OH210880   1.063   0.604   0.479
 3639TIP3    H110881   1.025   0.692   0.475
 3639TIP3    H210882   1.044   0.574   0.568
 3640TIP3   OH210883   0.780   3.101   1.820
 3640TIP3    H110884   0.767   3.052   1.738
 3640TIP3    H210885   0.700   3.152   1.831
 3641TIP3   OH210886   2.572   3.725   0.466
 3641TIP3    H110887   2.585   3.631   0.478
 3641TIP3    H210888   2.597   3.763   0.551
 3642TIP3   OH210889   5.020   0.277   5.897
 3642TIP3    H110890   4.953   0.333   5.934
 3642TIP3    H210891   5.020   0.296   5.803
 3643TIP3   OH210892   4.052   1.411   2.720
 3643TIP3    H110893   4.039   1.474   2.792
 3643TIP3    H210894   4.008   1.451   2.645
 3644TIP3   OH210895   2.145   3.683   4.921
 3644TIP3    H110896   2.067   3.697   4.868
 3644TIP3    H210897   2.188   3.608   4.879
 3645TIP3   OH210898   7.138   4.989   0.693
 3645TIP3    H110899   7.139   4.942   0.776
 3645TIP3    H210900   7.203   5.058   0.704
 3646TIP3   OH210901   0.436   4.244   1.832
 3646TIP3    H110902   0.375   4.215   1.899
 3646TIP3    H210903   0.522   4.214   1.863
 3647TIP3   OH210904   3.472   1.027   0.841
 3647TIP3    H110905   3.437   1.013   0.929
 3647TIP3    H210906   3.476   0.940   0.802
 3648TIP3   OH210907   3.465   4.440   2.326
 3648TIP3    H110908   3.505   4.479   2.248
 3648TIP3    H210909   3.403   4.506   2.357
 3649TIP3   OH210910   2.494   5.042   2.459
 3649TIP3    H110911   2.586   5.020   2.474
 3649TIP3    H210912   2.461   5.071   2.544
 3650TIP3   OH210913   5.045   1.284   4.482
 3650TIP3    H110914   5.015   1.215   4.423
 3650TIP3    H210915   5.138   1.292   4.466
 3651TIP3   OH210916   4.322   5.348   5.022
 3651TIP3    H110917   4.372   5.314   5.097
 3651TIP3    H210918   4.231   5.326   5.042
 3652TIP3   OH210919   0.343   0.032   3.805
 3652TIP3    H110920   0.378   0.038   3.894
 3652TIP3    H210921   0.370   0.114   3.764
 3653TIP3   OH210922   1.003   3.636   5.283
 3653TIP3    H110923   1.097   3.643   5.271
 3653TIP3    H210924   0.967   3.630   5.195
 3654TIP3   OH210925   0.768   5.480   2.082
 3654TIP3    H110926   0.778   5.454   1.990
 3654TIP3    H210927   0.738   5.400   2.126
 3655TIP3   OH210928   4.441   5.886   2.001
 3655TIP3    H110929   4.370   5.940   2.036
 3655TIP3    H210930   4.404   5.799   1.993
 3656TIP3   OH210931   2.804   1.278   3.964
 3656TIP3    H110932   2.811   1.285   4.059
 3656TIP3    H210933   2.728   1.333   3.942
 3657TIP3   OH210934   2.239   4.396   1.556
 3657TIP3    H110935   2.178   4.462   1.523
 3657TIP3    H210936   2.183   4.328   1.593
 3658TIP3   OH210937   4.833   1.105   1.538
 3658TIP3    H110938   4.906   1.050   1.509
 3658TIP3    H210939   4.766   1.043   1.567
 3659TIP3   OH210940   4.675   3.384   2.646
 3659TIP3    H110941   4.650   3.293   2.662
 3659TIP3    H210942   4.743   3.380   2.580
 3660TIP3   OH210943   5.713   0.426   4.813
 3660TIP3    H110944   5.646   0.490   4.836
 3660TIP3    H210945   5.791   0.454   4.861
 3661TIP3   OH210946   5.820   3.556   4.009
 3661TIP3    H110947   5.739   3.607   4.000
 3661TIP3    H210948   5.832   3.516   3.923
 3662TIP3   OH210949   3.435   6.220   0.268
 3662TIP3    H110950   3.495   6.217   0.343
 3662TIP3    H210951   3.353   6.186   0.303
 3663TIP3   OH210952   0.558   4.611   1.626
 3663TIP3    H110953   0.468   4.642   1.617
 3663TIP3    H210954   0.570   4.550   1.553
 3664TIP3   OH210955   3.503   5.275   4.071
 3664TIP3    H110956   3.417   5.263   4.031
 3664TIP3    H210957   3.556   5.318   4.003
 3665TIP3   OH210958   4.035   0.220   0.283
 3665TIP3    H110959   4.017   0.132   0.316
 3665TIP3    H210960   3.984   0.278   0.338
 3666TIP3   OH210961   3.487   5.508   4.806
 3666TIP3    H110962   3.462   5.459   4.885
 3666TIP3    H210963   3.406   5.552   4.778
 3667TIP3   OH210964   6.511   1.339   2.049
 3667TIP3    H110965   6.601   1.306   2.052
 3667TIP3    H210966   6.499   1.368   1.958
 3668TIP3   OH210967   1.735   2.854   4.945
 3668TIP3    H110968   1.673   2.810   4.887
 3668TIP3    H210969   1.821   2.822   4.917
 3669TIP3   OH210970   2.737   6.031   4.019
 3669TIP3    H110971   2.823   6.054   3.986
 3669TIP3    H210972   2.734   6.070   4.107
 3670TIP3   OH210973   0.960   1.040   4.697
 3670TIP3    H110974   0.914   1.013   4.618
 3670TIP3    H210975   1.045   0.995   4.691
 3671TIP3   OH210976   6.995   5.739   1.306
 3671TIP3    H110977   6.913   5.695   1.325
 3671TIP3    H210978   7.039   5.743   1.391
 3672TIP3   OH210979   1.152   0.728   3.754
 3672TIP3    H110980   1.224   0.705   3.813
 3672TIP3    H210981   1.145   0.823   3.760
 3673TIP3   OH210982   6.371   3.484   5.298
 3673TIP3    H110983   6.322   3.566   5.298
 3673TIP3    H210984   6.369   3.455   5.389
 3674TIP3   OH210985   0.378   0.260   1.599
 3674TIP3    H110986   0.395   0.344   1.556
 3674TIP3    H210987   0.454   0.206   1.576
 3675TIP3   OH210988   5.000   5.869   2.043
 3675TIP3    H110989   5.028   5.929   1.973
 3675TIP3    H210990   5.022   5.915   2.124
 3676TIP3   OH210991   2.486   6.052   1.686
 3676TIP3    H110992   2.494   5.979   1.748
 3676TIP3    H210993   2.569   6.052   1.638
 3677TIP3   OH210994   4.083   5.391   2.657
 3677TIP3    H110995   4.069   5.299   2.638
 3677TIP3    H210996   4.026   5.409   2.732
 3678TIP3   OH210997   4.413   6.297   3.056
 3678TIP3    H110998   4.440   6.245   3.131
 3678TIP3    H210999   4.435   6.243   2.980
 3679TIP3   OH211000   6.127   2.002   1.371
 3679TIP3    H111001   6.049   1.968   1.416
 3679TIP3    H211002   6.200   1.966   1.421
 3680TIP3   OH211003   0.470   2.766   1.176
 3680TIP3    H111004   0.471   2.712   1.097
 3680TIP3    H211005   0.386   2.745   1.218
 3681TIP3   OH211006   3.739   3.221   0.224
 3681TIP3    H111007   3.680   3.259   0.289
 3681TIP3    H211008   3.814   3.190   0.274
 3682TIP3   OH211009   0.583   0.094   5.514
 3682TIP3    H111010   0.527   0.016   5.514
 3682TIP3    H211011   0.541   0.153   5.452
 3683TIP3   OH211012   6.792   2.714   1.573
 3683TIP3    H111013   6.796   2.762   1.490
 3683TIP3    H211014   6.777   2.781   1.639
 3684TIP3   OH211015   5.206   0.140   4.746
 3684TIP3    H111016   5.265   0.177   4.811
 3684TIP3    H211017   5.225   0.046   4.746
 3685TIP3   OH211018   6.689   2.607   1.831
 3685TIP3    H111019   6.765   2.571   1.785
 3685TIP3    H211020   6.722   2.683   1.879
 3686TIP3   OH211021   6.227   4.758   2.837
 3686TIP3    H111022   6.177   4.679   2.859
 3686TIP3    H211023   6.269   4.736   2.754
 3687TIP3   OH211024   6.225   1.331   4.239
 3687TIP3    H111025   6.280   1.388   4.292
 3687TIP3    H211026   6.152   1.386   4.212
 3688TIP3   OH211027   1.723   3.884   2.164
 3688TIP3    H111028   1.693   3.857   2.251
 3688TIP3    H211029   1.788   3.952   2.181
 3689TIP3   OH211030   4.549   6.509   1.397
 3689TIP3    H111031   4.583   6.510   1.486
 3689TIP3    H211032   4.455   6.527   1.407
 3690TIP3   OH211033   5.117   2.834   0.837
 3690TIP3    H111034   5.165   2.818   0.756
 3690TIP3    H211035   5.165   2.904   0.880
 3691TIP3   OH211036   4.523   3.137   4.891
 3691TIP3    H111037   4.459   3.142   4.962
 3691TIP3    H211038   4.544   3.043   4.885
 3692TIP3   OH211039   1.803   2.136   5.068
 3692TIP3    H111040   1.714   2.148   5.034
 3692TIP3    H211041   1.796   2.159   5.161
 3693TIP3   OH211042   6.556   4.115   4.493
 3693TIP3    H111043   6.615   4.042   4.475
 3693TIP3    H211044   6.470   4.084   4.465
 3694TIP3   OH211045   0.505   5.583   5.667
 3694TIP3    H111046   0.539   5.546   5.749
 3694TIP3    H211047   0.576   5.639   5.636
 3695TIP3   OH211048   2.486   1.330   4.334
 3695TIP3    H111049   2.521   1.364   4.416
 3695TIP3    H211050   2.402   1.375   4.323
 3696TIP3   OH211051   3.700   1.350   2.072
 3696TIP3    H111052   3.625   1.298   2.044
 3696TIP3    H211053   3.702   1.424   2.012
 3697TIP3   OH211054   2.052   4.961   1.608
 3697TIP3    H111055   2.121   4.981   1.671
 3697TIP3    H211056   1.982   4.922   1.660
 3698TIP3   OH211057   6.232   4.576   5.011
 3698TIP3    H111058   6.312   4.543   5.050
 3698TIP3    H211059   6.169   4.580   5.084
 3699TIP3   OH211060   2.523   1.658   0.010
 3699TIP3    H111061   2.474   1.716   0.068
 3699TIP3    H211062   2.460   1.633  -0.057
 3700TIP3   OH211063   6.679   4.740   1.922
 3700TIP3    H111064   6.630   4.816   1.890
 3700TIP3    H211065   6.639   4.665   1.877
 3701TIP3   OH211066   6.848   6.163   1.732
 3701TIP3    H111067   6.853   6.067   1.727
 3701TIP3    H211068   6.887   6.193   1.650
 3702TIP3   OH211069   0.066   6.161   2.133
 3702TIP3    H111070   0.129   6.094   2.108
 3702TIP3    H211071   0.036   6.198   2.050
 3703TIP3   OH211072   5.273   2.642   0.360
 3703TIP3    H111073   5.313   2.685   0.284
 3703TIP3    H211074   5.316   2.683   0.436
 3704TIP3   OH211075   2.477   1.324   2.990
 3704TIP3    H111076   2.431   1.241   2.972
 3704TIP3    H211077   2.549   1.324   2.928
 3705TIP3   OH211078   2.923   4.774   3.539
 3705TIP3    H111079   2.912   4.868   3.520
 3705TIP3    H211080   2.910   4.767   3.634
 3706TIP3   OH211081   1.875   3.597   2.131
 3706TIP3    H111082   1.850   3.670   2.074
 3706TIP3    H211083   1.792   3.564   2.165
 3707TIP3   OH211084   2.866   2.578   2.860
 3707TIP3    H111085   2.835   2.489   2.879
 3707TIP3    H211086   2.907   2.571   2.774
 3708TIP3   OH211087   7.036   0.689   5.687
 3708TIP3    H111088   7.021   0.731   5.603
 3708TIP3    H211089   7.029   0.760   5.751
 3709TIP3   OH211090   5.690   0.516   1.228
 3709TIP3    H111091   5.715   0.441   1.175
 3709TIP3    H211092   5.625   0.482   1.289
 3710TIP3   OH211093   4.605   6.245   5.642
 3710TIP3    H111094   4.614   6.172   5.703
 3710TIP3    H211095   4.695   6.273   5.625
 3711TIP3   OH211096   0.181   0.640   5.260
 3711TIP3    H111097   0.157   0.730   5.281
 3711TIP3    H211098   0.115   0.586   5.304
 3712TIP3   OH211099   4.361   5.815   4.875
 3712TIP3    H111100   4.423   5.889   4.873
 3712TIP3    H211101   4.416   5.738   4.889
 3713TIP3   OH211102   5.597   4.009   2.875
 3713TIP3    H111103   5.617   4.059   2.954
 3713TIP3    H211104   5.575   3.921   2.908
 3714TIP3   OH211105   3.309   2.404   2.994
 3714TIP3    H111106   3.273   2.355   2.921
 3714TIP3    H211107   3.310   2.495   2.964
 3715TIP3   OH211108   4.488   2.463   1.744
 3715TIP3    H111109   4.463   2.533   1.684
 3715TIP3    H211110   4.583   2.458   1.736
 3716TIP3   OH211111   4.697   3.013   2.523
 3716TIP3    H111112   4.701   2.999   2.618
 3716TIP3    H211113   4.660   2.931   2.489
 3717TIP3   OH211114   1.902   2.494   4.371
 3717TIP3    H111115   1.812   2.464   4.356
 3717TIP3    H211116   1.911   2.571   4.314
 3718TIP3   OH211117   3.029   1.460   3.914
 3718TIP3    H111118   2.947   1.414   3.897
 3718TIP3    H211119   3.076   1.405   3.976
 3719TIP3   OH211120   4.691   3.491   4.914
 3719TIP3    H111121   4.667   3.438   4.990
 3719TIP3    H211122   4.608   3.512   4.872
 3720TIP3   OH211123   1.100   3.385   4.535
 3720TIP3    H111124   1.145   3.439   4.471
 3720TIP3    H211125   1.056   3.318   4.482
 3721TIP3   OH211126   6.763   1.103   3.539
 3721TIP3    H111127   6.744   1.143   3.624
 3721TIP3    H211128   6.845   1.142   3.511
 3722TIP3   OH211129   3.876   0.673   1.671
 3722TIP3    H111130   3.848   0.624   1.594
 3722TIP3    H211131   3.805   0.735   1.687
 3723TIP3   OH211132   0.136   1.855   1.948
 3723TIP3    H111133   0.181   1.773   1.927
 3723TIP3    H211134   0.044   1.829   1.961
 3724TIP3   OH211135   0.897   0.422   3.863
 3724TIP3    H111136   0.883   0.504   3.816
 3724TIP3    H211137   0.874   0.441   3.954
 3725TIP3   OH211138   4.884   0.970   5.154
 3725TIP3    H111139   4.953   0.913   5.121
 3725TIP3    H211140   4.822   0.977   5.080
 3726TIP3   OH211141   1.436   3.279   3.385
 3726TIP3    H111142   1.365   3.243   3.332
 3726TIP3    H211143   1.417   3.372   3.390
 3727TIP3   OH211144   1.263   3.974   0.891
 3727TIP3    H111145   1.311   3.934   0.819
 3727TIP3    H211146   1.290   4.066   0.890
 3728TIP3   OH211147   4.439   3.550   4.814
 3728TIP3    H111148   4.397   3.563   4.729
 3728TIP3    H211149   4.373   3.505   4.866
 3729TIP3   OH211150   4.826   3.724   4.843
 3729TIP3    H111151   4.922   3.719   4.846
 3729TIP3    H211152   4.797   3.633   4.855
 3730TIP3   OH211153   5.847   4.389   3.647
 3730TIP3    H111154   5.902   4.466   3.626
 3730TIP3    H211155   5.826   4.400   3.740
 3731TIP3   OH211156   5.383   4.563   0.556
 3731TIP3    H111157   5.361   4.643   0.508
 3731TIP3    H211158   5.309   4.550   0.615
 3732TIP3   OH211159   4.059   5.569   4.264
 3732TIP3    H111160   4.025   5.575   4.353
 3732TIP3    H211161   4.151   5.544   4.275
 3733TIP3   OH211162   3.698   4.289   4.530
 3733TIP3    H111163   3.695   4.361   4.594
 3733TIP3    H211164   3.609   4.284   4.495
 3734TIP3   OH211165   6.355   3.110   0.470
 3734TIP3    H111166   6.292   3.174   0.501
 3734TIP3    H211167   6.430   3.118   0.529
 3735TIP3   OH211168   3.682   2.924   1.386
 3735TIP3    H111169   3.760   2.917   1.441
 3735TIP3    H211170   3.635   2.999   1.422
 3736TIP3   OH211171   1.642   5.913   4.504
 3736TIP3    H111172   1.562   5.919   4.452
 3736TIP3    H211173   1.638   5.826   4.545
 3737TIP3   OH211174   2.552   0.855   3.945
 3737TIP3    H111175   2.621   0.789   3.956
 3737TIP3    H211176   2.513   0.864   4.032
 3738TIP3   OH211177   2.526   2.283   4.717
 3738TIP3    H111178   2.540   2.234   4.798
 3738TIP3    H211179   2.495   2.369   4.745
 3739TIP3   OH211180   6.498   4.111   4.766
 3739TIP3    H111181   6.511   4.089   4.674
 3739TIP3    H211182   6.497   4.207   4.767
 3740TIP3   OH211183   5.935   3.682   1.273
 3740TIP3    H111184   5.950   3.777   1.277
 3740TIP3    H211185   5.934   3.654   1.365
 3741TIP3   OH211186   5.967   1.691   5.317
 3741TIP3    H111187   5.893   1.673   5.376
 3741TIP3    H211188   5.955   1.630   5.244
 3742TIP3   OH211189   4.286   5.007   3.168
 3742TIP3    H111190   4.303   5.064   3.243
 3742TIP3    H211191   4.339   4.929   3.184
 3743TIP3   OH211192   4.242   1.918   5.063
 3743TIP3    H111193   4.324   1.879   5.032
 3743TIP3    H211194   4.260   2.012   5.067
 3744TIP3   OH211195   4.607   5.186   1.298
 3744TIP3    H111196   4.574   5.157   1.383
 3744TIP3    H211197   4.694   5.146   1.292
 3745TIP3   OH211198   1.307   3.781   2.272
 3745TIP3    H111199   1.250   3.829   2.332
 3745TIP3    H211200   1.249   3.721   2.226
 3746TIP3   OH211201   2.759   6.128   4.291
 3746TIP3    H111202   2.694   6.198   4.285
 3746TIP3    H211203   2.781   6.122   4.384
 3747TIP3   OH211204   4.833   4.457   5.040
 3747TIP3    H111205   4.891   4.393   5.082
 3747TIP3    H211206   4.879   4.541   5.051
 3748TIP3   OH211207   6.154   4.966   4.862
 3748TIP3    H111208   6.243   4.930   4.870
 3748TIP3    H211209   6.098   4.900   4.901
 3749TIP3   OH211210   2.379   0.721   4.550
 3749TIP3    H111211   2.344   0.775   4.479
 3749TIP3    H211212   2.301   0.685   4.593
 3750TIP3   OH211213   4.469   2.320   1.428
 3750TIP3    H111214   4.513   2.288   1.507
 3750TIP3    H211215   4.483   2.251   1.363
 3751TIP3   OH211216   5.090   0.410   0.406
 3751TIP3    H111217   5.053   0.465   0.475
 3751TIP3    H211218   5.158   0.359   0.450
 3752TIP3   OH211219   6.538   2.303   1.999
 3752TIP3    H111220   6.564   2.390   1.971
 3752TIP3    H211221   6.603   2.278   2.064
 3753TIP3   OH211222   0.280   4.756   3.010
 3753TIP3    H111223   0.311   4.802   3.088
 3753TIP3    H211224   0.185   4.769   3.010
 3754TIP3   OH211225   4.649   5.012   5.803
 3754TIP3    H111226   4.594   5.064   5.862
 3754TIP3    H211227   4.664   5.070   5.728
 3755TIP3   OH211228   4.098   2.323   4.752
 3755TIP3    H111229   4.164   2.328   4.683
 3755TIP3    H211230   4.058   2.409   4.753
 3756TIP3   OH211231   1.539   6.555   5.686
 3756TIP3    H111232   1.565   6.623   5.749
 3756TIP3    H211233   1.472   6.505   5.731
 3757TIP3   OH211234   6.503   5.992   4.222
 3757TIP3    H111235   6.567   6.002   4.153
 3757TIP3    H211236   6.554   5.979   4.302
 3758TIP3   OH211237   1.407   5.696   4.981
 3758TIP3    H111238   1.446   5.730   5.061
 3758TIP3    H211239   1.426   5.762   4.915
 3759TIP3   OH211240   5.414   5.058   0.106
 3759TIP3    H111241   5.357   4.983   0.119
 3759TIP3    H211242   5.503   5.023   0.111
 3760TIP3   OH211243   3.295   2.795   4.219
 3760TIP3    H111244   3.311   2.889   4.235
 3760TIP3    H211245   3.348   2.775   4.142
 3761TIP3   OH211246   1.957   5.635   1.643
 3761TIP3    H111247   1.948   5.540   1.650
 3761TIP3    H211248   2.046   5.648   1.611
 3762TIP3   OH211249   1.145   3.461   2.999
 3762TIP3    H111250   1.222   3.413   3.029
 3762TIP3    H211251   1.148   3.455   2.904
 3763TIP3   OH211252   3.388   3.845   4.278
 3763TIP3    H111253   3.394   3.771   4.217
 3763TIP3    H211254   3.358   3.918   4.224
 3764TIP3   OH211255   1.866   4.958   1.234
 3764TIP3    H111256   1.815   4.944   1.314
 3764TIP3    H211257   1.940   4.897   1.241
 3765TIP3   OH211258   4.080   0.047   0.949
 3765TIP3    H111259   3.990   0.075   0.928
 3765TIP3    H211260   4.101  -0.015   0.879
 3766TIP3   OH211261   4.444   1.346   1.693
 3766TIP3    H111262   4.401   1.270   1.733
 3766TIP3    H211263   4.531   1.313   1.669
 3767TIP3   OH211264  -0.003   0.497   3.501
 3767TIP3    H111265  -0.012   0.582   3.544
 3767TIP3    H211266   0.091   0.481   3.501
 3768TIP3   OH211267   2.981   4.780   1.851
 3768TIP3    H111268   2.985   4.821   1.937
 3768TIP3    H211269   2.942   4.846   1.794
 3769TIP3   OH211270   1.833   2.887   3.345
 3769TIP3    H111271   1.863   2.945   3.415
 3769TIP3    H211272   1.747   2.921   3.320
 3770TIP3   OH211273   3.271   0.179   4.000
 3770TIP3    H111274   3.186   0.222   3.994
 3770TIP3    H211275   3.294   0.156   3.910
 3771TIP3   OH211276   3.196   1.199   0.922
 3771TIP3    H111277   3.137   1.273   0.931
 3771TIP3    H211278   3.261   1.226   0.857
 3772TIP3   OH211279   1.733   1.326   5.300
 3772TIP3    H111280   1.819   1.325   5.342
 3772TIP3    H211281   1.748   1.292   5.212
 3773TIP3   OH211282   1.985   4.584   1.941
 3773TIP3    H111283   1.918   4.594   2.009
 3773TIP3    H211284   1.991   4.490   1.927
 3774TIP3   OH211285   3.643   4.909   0.740
 3774TIP3    H111286   3.705   4.839   0.720
 3774TIP3    H211287   3.662   4.932   0.831
 3775TIP3   OH211288   5.545   0.200   0.465
 3775TIP3    H111289   5.515   0.281   0.423
 3775TIP3    H211290   5.636   0.191   0.437
 3776TIP3   OH211291   5.769   1.057   5.668
 3776TIP3    H111292   5.687   1.014   5.643
 3776TIP3    H211293   5.834   1.021   5.608
 3777TIP3   OH211294   3.414   3.712   0.569
 3777TIP3    H111295   3.354   3.676   0.634
 3777TIP3    H211296   3.369   3.701   0.485
 3778TIP3   OH211297   4.902   3.886   4.644
 3778TIP3    H111298   4.882   3.964   4.696
 3778TIP3    H211299   4.866   3.814   4.694
 3779TIP3   OH211300   5.304   5.824   1.317
 3779TIP3    H111301   5.348   5.883   1.377
 3779TIP3    H211302   5.331   5.853   1.230
 3780TIP3   OH211303   5.807   1.299   5.101
 3780TIP3    H111304   5.822   1.296   5.006
 3780TIP3    H211305   5.732   1.241   5.115
 3781TIP3   OH211306   0.545   1.934   3.280
 3781TIP3    H111307   0.602   1.858   3.271
 3781TIP3    H211308   0.508   1.947   3.193
 3782TIP3   OH211309   2.316   6.394   5.767
 3782TIP3    H111310   2.225   6.419   5.778
 3782TIP3    H211311   2.361   6.474   5.742
 3783TIP3   OH211312   2.553   3.401   1.107
 3783TIP3    H111313   2.524   3.403   1.016
 3783TIP3    H211314   2.515   3.480   1.146
 3784TIP3   OH211315   3.032   5.801   2.613
 3784TIP3    H111316   2.982   5.826   2.535
 3784TIP3    H211317   3.021   5.707   2.620
 3785TIP3   OH211318   6.896   4.217   2.586
 3785TIP3    H111319   6.851   4.287   2.632
 3785TIP3    H211320   6.887   4.240   2.493
 3786TIP3   OH211321   3.286   3.567   0.137
 3786TIP3    H111322   3.278   3.564   0.233
 3786TIP3    H211323   3.293   3.476   0.111
 3787TIP3   OH211324   0.782   0.292   5.379
 3787TIP3    H111325   0.803   0.206   5.416
 3787TIP3    H211326   0.856   0.348   5.405
 3788TIP3   OH211327   2.672   5.768   5.560
 3788TIP3    H111328   2.723   5.731   5.488
 3788TIP3    H211329   2.702   5.721   5.638
 3789TIP3   OH211330   0.581   2.210   5.093
 3789TIP3    H111331   0.543   2.144   5.036
 3789TIP3    H211332   0.549   2.293   5.060
 3790TIP3   OH211333   0.581   5.568   4.040
 3790TIP3    H111334   0.589   5.485   4.087
 3790TIP3    H211335   0.488   5.577   4.023
 3791TIP3   OH211336   3.297   6.301   2.915
 3791TIP3    H111337   3.382   6.266   2.939
 3791TIP3    H211338   3.255   6.230   2.865
 3792TIP3   OH211339   3.677   1.933   2.718
 3792TIP3    H111340   3.719   1.919   2.803
 3792TIP3    H211341   3.749   1.954   2.659
 3793TIP3   OH211342   1.591   2.740   0.322
 3793TIP3    H111343   1.571   2.833   0.331
 3793TIP3    H211344   1.626   2.715   0.408
 3794TIP3   OH211345   4.632   1.159   1.187
 3794TIP3    H111346   4.633   1.254   1.170
 3794TIP3    H211347   4.707   1.125   1.139
 3795TIP3   OH211348   2.527   5.379   4.740
 3795TIP3    H111349   2.536   5.341   4.828
 3795TIP3    H211350   2.593   5.448   4.736
 3796TIP3   OH211351   3.464   1.166   3.222
 3796TIP3    H111352   3.551   1.152   3.185
 3796TIP3    H211353   3.426   1.236   3.169
 3797TIP3   OH211354   0.155   3.790   3.720
 3797TIP3    H111355   0.190   3.764   3.805
 3797TIP3    H211356   0.171   3.884   3.715
 3798TIP3   OH211357   7.101   1.597   3.743
 3798TIP3    H111358   7.051   1.515   3.752
 3798TIP3    H211359   7.034   1.666   3.746
 3799TIP3   OH211360   2.693   2.921   2.552
 3799TIP3    H111361   2.614   2.927   2.606
 3799TIP3    H211362   2.724   3.011   2.545
 3800TIP3   OH211363   0.509   6.649   2.102
 3800TIP3    H111364   0.567   6.595   2.049
 3800TIP3    H211365   0.568   6.695   2.163
 3801TIP3   OH211366   5.350   4.147   2.446
 3801TIP3    H111367   5.401   4.187   2.516
 3801TIP3    H211368   5.414   4.134   2.375
 3802TIP3   OH211369   5.449   6.271   4.186
 3802TIP3    H111370   5.485   6.353   4.153
 3802TIP3    H211371   5.483   6.204   4.126
 3803TIP3   OH211372   4.268   0.061   0.034
 3803TIP3    H111373   4.284   0.156   0.031
 3803TIP3    H211374   4.266   0.041   0.128
 3804TIP3   OH211375   5.229   3.382   5.441
 3804TIP3    H111376   5.227   3.324   5.365
 3804TIP3    H211377   5.190   3.464   5.410
 3805TIP3   OH211378   4.730   2.346   2.168
 3805TIP3    H111379   4.660   2.386   2.220
 3805TIP3    H211380   4.795   2.415   2.158
 3806TIP3   OH211381   6.980   2.532   3.753
 3806TIP3    H111382   7.063   2.578   3.769
 3806TIP3    H211383   6.957   2.494   3.837
 3807TIP3   OH211384   0.913   2.495   2.263
 3807TIP3    H111385   0.970   2.418   2.271
 3807TIP3    H211386   0.973   2.569   2.270
 3808TIP3   OH211387   5.886   1.026   1.524
 3808TIP3    H111388   5.861   1.094   1.587
 3808TIP3    H211389   5.804   0.984   1.500
 3809TIP3   OH211390   2.858   2.829   5.782
 3809TIP3    H111391   2.879   2.882   5.705
 3809TIP3    H211392   2.782   2.777   5.754
 3810TIP3   OH211393   2.885   5.610   4.092
 3810TIP3    H111394   2.897   5.681   4.154
 3810TIP3    H211395   2.796   5.579   4.106
 3811TIP3   OH211396   1.577   5.787   3.983
 3811TIP3    H111397   1.590   5.872   4.024
 3811TIP3    H211398   1.661   5.742   3.993
 3812TIP3   OH211399   2.253   1.017   1.918
 3812TIP3    H111400   2.158   1.025   1.905
 3812TIP3    H211401   2.290   1.091   1.870
 3813TIP3   OH211402   0.378   4.769   4.011
 3813TIP3    H111403   0.401   4.809   4.095
 3813TIP3    H211404   0.453   4.786   3.955
 3814TIP3   OH211405   1.576   6.808   0.442
 3814TIP3    H111406   1.500   6.794   0.499
 3814TIP3    H211407   1.637   6.738   0.467
 3815TIP3   OH211408   6.105   0.349   3.967
 3815TIP3    H111409   6.125   0.325   3.876
 3815TIP3    H211410   6.038   0.416   3.960
 3816TIP3   OH211411   7.031   1.938   0.223
 3816TIP3    H111412   6.955   1.938   0.281
 3816TIP3    H211413   6.995   1.932   0.135
 3817TIP3   OH211414   5.796   4.356   3.951
 3817TIP3    H111415   5.736   4.284   3.935
 3817TIP3    H211416   5.883   4.315   3.955
 3818TIP3   OH211417   0.353   3.567   5.438
 3818TIP3    H111418   0.442   3.549   5.468
 3818TIP3    H211419   0.325   3.641   5.491
 3819TIP3   OH211420   1.464   6.133   0.236
 3819TIP3    H111421   1.409   6.203   0.202
 3819TIP3    H211422   1.553   6.167   0.229
 3820TIP3   OH211423   3.728   0.239   0.678
 3820TIP3    H111424   3.703   0.330   0.690
 3820TIP3    H211425   3.662   0.203   0.619
 3821TIP3   OH211426   1.179   6.274   3.147
 3821TIP3    H111427   1.102   6.237   3.191
 3821TIP3    H211428   1.186   6.225   3.065
 3822TIP3   OH211429   2.488   5.877   1.907
 3822TIP3    H111430   2.542   5.802   1.933
 3822TIP3    H211431   2.423   5.885   1.976
 3823TIP3   OH211432   2.157   3.599   1.952
 3823TIP3    H111433   2.155   3.634   2.041
 3823TIP3    H211434   2.229   3.646   1.909
 3824TIP3   OH211435   2.783   4.566   3.155
 3824TIP3    H111436   2.831   4.647   3.172
 3824TIP3    H211437   2.710   4.567   3.218
 3825TIP3   OH211438   4.877   2.442   4.011
 3825TIP3    H111439   4.896   2.356   4.049
 3825TIP3    H211440   4.855   2.497   4.086
 3826TIP3   OH211441   3.711   1.236   5.394
 3826TIP3    H111442   3.732   1.308   5.336
 3826TIP3    H211443   3.624   1.257   5.428
 3827TIP3   OH211444   0.091   5.536   2.251
 3827TIP3    H111445   0.119   5.501   2.336
 3827TIP3    H211446   0.009   5.581   2.271
 3828TIP3   OH211447   1.076   5.597   5.385
 3828TIP3    H111448   1.165   5.605   5.418
 3828TIP3    H211449   1.081   5.624   5.293
 3829TIP3   OH211450   3.195   5.349   5.271
 3829TIP3    H111451   3.212   5.282   5.337
 3829TIP3    H211452   3.224   5.431   5.312
 3830TIP3   OH211453   7.137   2.383   5.200
 3830TIP3    H111454   7.106   2.447   5.136
 3830TIP3    H211455   7.059   2.360   5.250
 3831TIP3   OH211456   1.636   1.252   0.529
 3831TIP3    H111457   1.611   1.343   0.515
 3831TIP3    H211458   1.630   1.239   0.624
 3832TIP3   OH211459   0.223   3.375   4.393
 3832TIP3    H111460   0.257   3.289   4.420
 3832TIP3    H211461   0.300   3.422   4.360
 3833TIP3   OH211462   6.868   0.501   5.824
 3833TIP3    H111463   6.941   0.549   5.785
 3833TIP3    H211464   6.888   0.497   5.917
 3834TIP3   OH211465   6.943   4.586   1.303
 3834TIP3    H111466   6.858   4.628   1.298
 3834TIP3    H211467   6.930   4.512   1.363
 3835TIP3   OH211468   5.474   1.698   1.446
 3835TIP3    H111469   5.541   1.670   1.384
 3835TIP3    H211470   5.473   1.794   1.438
 3836TIP3   OH211471   3.368   4.227   4.630
 3836TIP3    H111472   3.300   4.159   4.631
 3836TIP3    H211473   3.434   4.193   4.568
 3837TIP3   OH211474   5.905   5.050   4.437
 3837TIP3    H111475   5.910   4.978   4.499
 3837TIP3    H211476   5.914   5.129   4.491
 3838TIP3   OH211477   5.556   3.175   3.253
 3838TIP3    H111478   5.597   3.098   3.293
 3838TIP3    H211479   5.499   3.210   3.322
 3839TIP3   OH211480   5.962   5.605   2.856
 3839TIP3    H111481   5.962   5.511   2.876
 3839TIP3    H211482   5.914   5.612   2.774
 3840TIP3   OH211483   4.809   6.747   1.900
 3840TIP3    H111484   4.823   6.669   1.846
 3840TIP3    H211485   4.872   6.810   1.867
 3841TIP3   OH211486   3.461   1.774   5.887
 3841TIP3    H111487   3.532   1.804   5.944
 3841TIP3    H211488   3.413   1.711   5.941
 3842TIP3   OH211489   4.471   1.017   1.007
 3842TIP3    H111490   4.547   1.028   1.063
 3842TIP3    H211491   4.506   1.010   0.918
 3843TIP3   OH211492   4.136   1.266   1.561
 3843TIP3    H111493   4.199   1.298   1.497
 3843TIP3    H211494   4.188   1.217   1.624
 3844TIP3   OH211495   0.291   5.264   3.542
 3844TIP3    H111496   0.232   5.328   3.582
 3844TIP3    H211497   0.376   5.280   3.582
 3845TIP3   OH211498   6.438   2.020   4.195
 3845TIP3    H111499   6.428   1.930   4.224
 3845TIP3    H211500   6.474   2.066   4.271
 3846TIP3   OH211501   5.904   0.485   4.620
 3846TIP3    H111502   5.964   0.413   4.641
 3846TIP3    H211503   5.911   0.544   4.695
 3847TIP3   OH211504   4.677   0.996   4.944
 3847TIP3    H111505   4.591   0.957   4.931
 3847TIP3    H211506   4.690   1.054   4.869
 3848TIP3   OH211507   5.000   4.267   2.595
 3848TIP3    H111508   5.081   4.300   2.634
 3848TIP3    H211509   5.015   4.173   2.583
 3849TIP3   OH211510   4.677   6.030   2.181
 3849TIP3    H111511   4.657   6.120   2.154
 3849TIP3    H211512   4.636   5.975   2.115
 3850TIP3   OH211513   3.889   6.709   3.640
 3850TIP3    H111514   3.912   6.684   3.729
 3850TIP3    H211515   3.956   6.668   3.585
 3851TIP3   OH211516   1.013   0.347   3.491
 3851TIP3    H111517   0.956   0.272   3.506
 3851TIP3    H211518   1.063   0.323   3.412
 3852TIP3   OH211519   3.867   0.566   2.628
 3852TIP3    H111520   3.909   0.642   2.588
 3852TIP3    H211521   3.914   0.490   2.591
 3853TIP3   OH211522   0.043   4.392   0.603
 3853TIP3    H111523   0.002   4.420   0.685
 3853TIP3    H211524   0.057   4.474   0.554
 3854TIP3   OH211525   6.963   2.130   1.132
 3854TIP3    H111526   6.948   2.223   1.150
 3854TIP3    H211527   7.037   2.106   1.188
 3855TIP3   OH211528   5.805   5.893   0.991
 3855TIP3    H111529   5.725   5.841   1.001
 3855TIP3    H211530   5.858   5.844   0.928
 3856TIP3   OH211531   3.266   0.042   1.346
 3856TIP3    H111532   3.202  -0.025   1.321
 3856TIP3    H211533   3.270   0.036   1.442
 3857TIP3   OH211534   1.676   0.333   5.460
 3857TIP3    H111535   1.691   0.428   5.461
 3857TIP3    H211536   1.597   0.322   5.407
 3858TIP3   OH211537   1.049   2.736   2.231
 3858TIP3    H111538   1.010   2.815   2.267
 3858TIP3    H211539   1.138   2.762   2.206
 3859TIP3   OH211540   5.656   6.116   0.200
 3859TIP3    H111541   5.660   6.059   0.277
 3859TIP3    H211542   5.739   6.102   0.154
 3860TIP3   OH211543   4.805   4.852   3.108
 3860TIP3    H111544   4.791   4.946   3.101
 3860TIP3    H211545   4.875   4.833   3.045
 3861TIP3   OH211546   1.190   1.124   4.007
 3861TIP3    H111547   1.239   1.170   3.939
 3861TIP3    H211548   1.257   1.093   4.068
 3862TIP3   OH211549   1.002   4.548   4.433
 3862TIP3    H111550   0.927   4.494   4.406
 3862TIP3    H211551   0.975   4.638   4.413
 3863TIP3   OH211552   2.495   2.603   1.755
 3863TIP3    H111553   2.529   2.640   1.673
 3863TIP3    H211554   2.405   2.635   1.760
 3864TIP3   OH211555   5.249   2.943   5.015
 3864TIP3    H111556   5.319   2.936   5.080
 3864TIP3    H211557   5.237   2.854   4.983
 3865TIP3   OH211558   6.120   2.308   1.725
 3865TIP3    H111559   6.062   2.301   1.649
 3865TIP3    H211560   6.133   2.218   1.754
 3866TIP3   OH211561   6.550   3.631   3.100
 3866TIP3    H111562   6.628   3.610   3.150
 3866TIP3    H211563   6.562   3.586   3.016
 3867TIP3   OH211564   0.709   0.164   0.702
 3867TIP3    H111565   0.727   0.071   0.685
 3867TIP3    H211566   0.728   0.207   0.618
 3868TIP3   OH211567   4.399   4.516   4.647
 3868TIP3    H111568   4.435   4.591   4.693
 3868TIP3    H211569   4.471   4.483   4.594
 3869TIP3   OH211570   0.217   2.987   5.200
 3869TIP3    H111571   0.303   3.029   5.207
 3869TIP3    H211572   0.170   3.039   5.135
 3870TIP3   OH211573   2.238   4.860   2.102
 3870TIP3    H111574   2.145   4.837   2.098
 3870TIP3    H211575   2.261   4.854   2.194
 3871TIP3   OH211576   6.089   1.356   2.255
 3871TIP3    H111577   6.160   1.327   2.198
 3871TIP3    H211578   6.104   1.311   2.337
 3872TIP3   OH211579   5.335   0.813   0.490
 3872TIP3    H111580   5.333   0.751   0.563
 3872TIP3    H211581   5.289   0.890   0.523
 3873TIP3   OH211582   0.549   2.061   3.906
 3873TIP3    H111583   0.460   2.095   3.899
 3873TIP3    H211584   0.539   1.975   3.946
 3874TIP3   OH211585   1.141   2.579   3.667
 3874TIP3    H111586   1.149   2.607   3.576
 3874TIP3    H211587   1.056   2.534   3.671
 3875TIP3   OH211588   0.888   5.450   3.556
 3875TIP3    H111589   0.817   5.402   3.598
 3875TIP3    H211590   0.951   5.382   3.533
 3876TIP3   OH211591   7.045   6.438   3.789
 3876TIP3    H111592   7.015   6.527   3.805
 3876TIP3    H211593   7.134   6.436   3.823
 3877TIP3   OH211594   3.360   5.019   2.388
 3877TIP3    H111595   3.440   4.982   2.425
 3877TIP3    H211596   3.389   5.097   2.342
 3878TIP3   OH211597   1.740   2.001   3.538
 3878TIP3    H111598   1.715   2.094   3.542
 3878TIP3    H211599   1.742   1.980   3.445
 3879TIP3   OH211600   6.001   1.253   0.333
 3879TIP3    H111601   6.078   1.310   0.335
 3879TIP3    H211602   5.927   1.314   0.332
 3880TIP3   OH211603   3.096   1.466   5.528
 3880TIP3    H111604   3.041   1.398   5.488
 3880TIP3    H211605   3.034   1.536   5.550
 3881TIP3   OH211606   1.735   2.563   3.741
 3881TIP3    H111607   1.828   2.577   3.759
 3881TIP3    H211608   1.734   2.518   3.656
 3882TIP3   OH211609   4.684   2.900   5.857
 3882TIP3    H111610   4.728   2.830   5.809
 3882TIP3    H211611   4.610   2.925   5.801
 3883TIP3   OH211612   7.024   5.419   2.713
 3883TIP3    H111613   7.015   5.348   2.648
 3883TIP3    H211614   7.115   5.449   2.702
 3884TIP3   OH211615   4.187   2.169   1.882
 3884TIP3    H111616   4.157   2.220   1.807
 3884TIP3    H211617   4.120   2.183   1.949
 3885TIP3   OH211618   2.603   0.479   2.868
 3885TIP3    H111619   2.695   0.478   2.844
 3885TIP3    H211620   2.559   0.517   2.792
 3886TIP3   OH211621   5.137   0.442   0.010
 3886TIP3    H111622   5.222   0.424  -0.030
 3886TIP3    H211623   5.149   0.525   0.056
 3887TIP3   OH211624   2.715   3.898   2.646
 3887TIP3    H111625   2.784   3.964   2.656
 3887TIP3    H211626   2.687   3.879   2.735
 3888TIP3   OH211627   2.671   4.487   0.885
 3888TIP3    H111628   2.611   4.492   0.810
 3888TIP3    H211629   2.614   4.476   0.961
 3889TIP3   OH211630   5.202   6.812   4.082
 3889TIP3    H111631   5.184   6.731   4.036
 3889TIP3    H211632   5.257   6.786   4.156
 3890TIP3   OH211633   2.130   3.055   1.149
 3890TIP3    H111634   2.101   3.035   1.060
 3890TIP3    H211635   2.223   3.076   1.140
 3891TIP3   OH211636   5.318   0.570   5.797
 3891TIP3    H111637   5.413   0.582   5.801
 3891TIP3    H211638   5.306   0.475   5.794
 3892TIP3   OH211639   1.547   0.376   1.057
 3892TIP3    H111640   1.475   0.377   0.993
 3892TIP3    H211641   1.579   0.466   1.058
 3893TIP3   OH211642   3.534   0.244   2.662
 3893TIP3    H111643   3.626   0.217   2.662
 3893TIP3    H211644   3.485   0.162   2.670
 3894TIP3   OH211645   2.532   4.359   1.859
 3894TIP3    H111646   2.505   4.451   1.854
 3894TIP3    H211647   2.457   4.314   1.899
 3895TIP3   OH211648   4.693   1.092   3.877
 3895TIP3    H111649   4.788   1.105   3.878
 3895TIP3    H211650   4.663   1.128   3.960
 3896TIP3   OH211651   4.069   1.327   5.586
 3896TIP3    H111652   4.010   1.261   5.550
 3896TIP3    H211653   4.131   1.276   5.639
 3897TIP3   OH211654   0.428   4.497   5.764
 3897TIP3    H111655   0.413   4.405   5.787
 3897TIP3    H211656   0.465   4.494   5.676
 3898TIP3   OH211657   5.425   4.852   4.076
 3898TIP3    H111658   5.367   4.797   4.024
 3898TIP3    H211659   5.467   4.911   4.013
 3899TIP3   OH211660   1.315   2.371   4.370
 3899TIP3    H111661   1.240   2.312   4.366
 3899TIP3    H211662   1.390   2.317   4.347
 3900TIP3   OH211663   0.552   1.322   5.220
 3900TIP3    H111664   0.524   1.413   5.229
 3900TIP3    H211665   0.543   1.302   5.127
 3901TIP3   OH211666   0.045   1.310   1.667
 3901TIP3    H111667   0.069   1.283   1.579
 3901TIP3    H211668   0.060   1.232   1.721
 3902TIP3   OH211669   2.412   3.466   0.068
 3902TIP3    H111670   2.438   3.549   0.109
 3902TIP3    H211671   2.396   3.489  -0.024
 3903TIP3   OH211672   6.702   6.280   4.179
 3903TIP3    H111673   6.714   6.237   4.094
 3903TIP3    H211674   6.700   6.374   4.158
 3904TIP3   OH211675   0.922   3.057   3.544
 3904TIP3    H111676   0.968   2.995   3.601
 3904TIP3    H211677   0.833   3.022   3.538
 3905TIP3   OH211678   2.636   0.815   4.692
 3905TIP3    H111679   2.559   0.816   4.635
 3905TIP3    H211680   2.676   0.901   4.681
 3906TIP3   OH211681   4.229   5.681   5.540
 3906TIP3    H111682   4.199   5.677   5.449
 3906TIP3    H211683   4.317   5.717   5.535
 3907TIP3   OH211684   1.123   1.684   3.927
 3907TIP3    H111685   1.116   1.629   4.005
 3907TIP3    H211686   1.183   1.754   3.953
 3908TIP3   OH211687   1.801   4.478   3.394
 3908TIP3    H111688   1.832   4.533   3.467
 3908TIP3    H211689   1.881   4.451   3.349
 3909TIP3   OH211690   2.725   5.275   1.319
 3909TIP3    H111691   2.685   5.193   1.291
 3909TIP3    H211692   2.651   5.335   1.328
 3910TIP3   OH211693   2.857   2.474   1.145
 3910TIP3    H111694   2.801   2.398   1.162
 3910TIP3    H211695   2.795   2.548   1.138
 3911TIP3   OH211696   6.915   3.970   4.638
 3911TIP3    H111697   6.960   3.979   4.554
 3911TIP3    H211698   6.955   3.893   4.678
 3912TIP3   OH211699   2.010   0.522   2.168
 3912TIP3    H111700   1.966   0.467   2.103
 3912TIP3    H211701   2.055   0.460   2.225
 3913TIP3   OH211702   1.161   5.815   1.137
 3913TIP3    H111703   1.077   5.837   1.177
 3913TIP3    H211704   1.167   5.720   1.143
 3914TIP3   OH211705   2.623   0.469   1.218
 3914TIP3    H111706   2.674   0.417   1.280
 3914TIP3    H211707   2.686   0.529   1.179
 3915TIP3   OH211708   0.641   0.879   1.154
 3915TIP3    H111709   0.661   0.968   1.184
 3915TIP3    H211710   0.547   0.880   1.134
 3916TIP3   OH211711   2.819   0.696   0.167
 3916TIP3    H111712   2.756   0.745   0.114
 3916TIP3    H211713   2.772   0.617   0.194
 3917TIP3   OH211714   2.593   0.302   3.104
 3917TIP3    H111715   2.677   0.337   3.075
 3917TIP3    H211716   2.555   0.373   3.157
 3918TIP3   OH211717   0.334   6.497   5.214
 3918TIP3    H111718   0.292   6.447   5.144
 3918TIP3    H211719   0.321   6.588   5.189
 3919TIP3   OH211720   4.679   1.382   2.822
 3919TIP3    H111721   4.609   1.384   2.888
 3919TIP3    H211722   4.736   1.455   2.846
 3920TIP3   OH211723   1.527   1.411   5.721
 3920TIP3    H111724   1.535   1.482   5.657
 3920TIP3    H211725   1.607   1.360   5.711
 3921TIP3   OH211726   2.303   3.336   0.677
 3921TIP3    H111727   2.361   3.269   0.639
 3921TIP3    H211728   2.362   3.396   0.721
 3922TIP3   OH211729   0.251   3.632   2.047
 3922TIP3    H111730   0.337   3.655   2.081
 3922TIP3    H211731   0.203   3.715   2.047
 3923TIP3   OH211732   3.058   2.174   0.873
 3923TIP3    H111733   3.008   2.255   0.883
 3923TIP3    H211734   3.001   2.117   0.821
 3924TIP3   OH211735   4.283   4.199   5.704
 3924TIP3    H111736   4.215   4.132   5.697
 3924TIP3    H211737   4.236   4.282   5.699
 3925TIP3   OH211738   0.662   4.916   0.888
 3925TIP3    H111739   0.667   5.009   0.864
 3925TIP3    H211740   0.687   4.870   0.808
 3926TIP3   OH211741   3.490   5.160   4.761
 3926TIP3    H111742   3.516   5.252   4.760
 3926TIP3    H211743   3.573   5.112   4.767
 3927TIP3   OH211744   3.762   5.460   0.481
 3927TIP3    H111745   3.834   5.412   0.522
 3927TIP3    H211746   3.729   5.517   0.550
 3928TIP3   OH211747   6.603   3.786   2.465
 3928TIP3    H111748   6.684   3.743   2.437
 3928TIP3    H211749   6.533   3.726   2.436
 3929TIP3   OH211750   4.539   3.671   2.175
 3929TIP3    H111751   4.494   3.729   2.113
 3929TIP3    H211752   4.581   3.731   2.237
 3930TIP3   OH211753   4.444   0.535   2.736
 3930TIP3    H111754   4.474   0.471   2.671
 3930TIP3    H211755   4.394   0.483   2.799
 3931TIP3   OH211756   3.019   6.271   1.517
 3931TIP3    H111757   3.108   6.236   1.514
 3931TIP3    H211758   2.987   6.249   1.604
 3932TIP3   OH211759   0.066   0.806   4.123
 3932TIP3    H111760   0.149   0.765   4.149
 3932TIP3    H211761  -0.001   0.749   4.161
 3933TIP3   OH211762   4.963   6.528   2.914
 3933TIP3    H111763   5.020   6.464   2.873
 3933TIP3    H211764   4.994   6.613   2.881
 3934TIP3   OH211765   0.350   1.356   0.747
 3934TIP3    H111766   0.393   1.321   0.825
 3934TIP3    H211767   0.305   1.281   0.709
 3935TIP3   OH211768   0.216   0.354   0.842
 3935TIP3    H111769   0.211   0.286   0.909
 3935TIP3    H211770   0.133   0.401   0.849
 3936TIP3   OH211771   4.216   4.797   5.124
 3936TIP3    H111772   4.170   4.875   5.094
 3936TIP3    H211773   4.155   4.755   5.185
 3937TIP3   OH211774   6.647   4.747   5.542
 3937TIP3    H111775   6.705   4.698   5.601
 3937TIP3    H211776   6.679   4.837   5.546
 3938TIP3   OH211777   3.673   1.702   4.641
 3938TIP3    H111778   3.582   1.701   4.611
 3938TIP3    H211779   3.688   1.613   4.674
 3939TIP3   OH211780   2.110   0.660   3.540
 3939TIP3    H111781   2.114   0.706   3.624
 3939TIP3    H211782   2.047   0.589   3.555
 3940TIP3   OH211783   2.748   3.979   4.196
 3940TIP3    H111784   2.706   3.998   4.112
 3940TIP3    H211785   2.760   4.065   4.236
 3941TIP3   OH211786   6.224   6.370   0.305
 3941TIP3    H111787   6.264   6.412   0.228
 3941TIP3    H211788   6.130   6.375   0.289
 3942TIP3   OH211789   6.912   0.061   2.758
 3942TIP3    H111790   6.839  -0.001   2.755
 3942TIP3    H211791   6.885   0.134   2.703
 3943TIP3   OH211792   4.639   2.650   4.565
 3943TIP3    H111793   4.720   2.607   4.536
 3943TIP3    H211794   4.634   2.631   4.658
 3944TIP3   OH211795   4.262   4.519   4.426
 3944TIP3    H111796   4.349   4.507   4.389
 3944TIP3    H211797   4.276   4.524   4.521
 3945TIP3   OH211798   4.548   1.416   5.572
 3945TIP3    H111799   4.590   1.501   5.557
 3945TIP3    H211800   4.608   1.370   5.631
 3946TIP3   OH211801   6.438   1.000   4.082
 3946TIP3    H111802   6.474   1.010   4.170
 3946TIP3    H211803   6.421   1.090   4.053
 3947TIP3   OH211804   5.369   3.392   2.753
 3947TIP3    H111805   5.390   3.314   2.702
 3947TIP3    H211806   5.410   3.377   2.838
 3948TIP3   OH211807   2.914   2.146   3.183
 3948TIP3    H111808   2.964   2.087   3.126
 3948TIP3    H211809   2.969   2.155   3.261
 3949TIP3   OH211810   2.238   0.678   1.003
 3949TIP3    H111811   2.170   0.615   1.027
 3949TIP3    H211812   2.195   0.763   1.010
 3950TIP3   OH211813   7.078   6.001   2.661
 3950TIP3    H111814   6.988   5.987   2.691
 3950TIP3    H211815   7.129   6.008   2.742
 3951TIP3   OH211816   6.037   5.164   5.744
 3951TIP3    H111817   6.101   5.095   5.726
 3951TIP3    H211818   6.005   5.190   5.658
 3952TIP3   OH211819   3.399   4.793   3.593
 3952TIP3    H111820   3.380   4.851   3.519
 3952TIP3    H211821   3.349   4.830   3.666
 3953TIP3   OH211822   6.381   1.105   1.133
 3953TIP3    H111823   6.369   1.163   1.208
 3953TIP3    H211824   6.295   1.101   1.091
 3954TIP3   OH211825   5.808   4.878   2.658
 3954TIP3    H111826   5.719   4.852   2.681
 3954TIP3    H211827   5.848   4.799   2.621
 3955TIP3   OH211828   4.869   2.724   0.115
 3955TIP3    H111829   4.848   2.685   0.200
 3955TIP3    H211830   4.789   2.770   0.090
 3956TIP3   OH211831   2.889   4.551   1.498
 3956TIP3    H111832   2.807   4.530   1.455
 3956TIP3    H211833   2.954   4.496   1.455
 3957TIP3   OH211834   6.884   2.142   2.008
 3957TIP3    H111835   6.911   2.198   1.936
 3957TIP3    H211836   6.825   2.197   2.060
 3958TIP3   OH211837   1.680   2.132   2.512
 3958TIP3    H111838   1.618   2.080   2.563
 3958TIP3    H211839   1.712   2.198   2.573
 3959TIP3   OH211840   5.970   1.014   2.417
 3959TIP3    H111841   5.925   1.053   2.342
 3959TIP3    H211842   6.049   1.067   2.428
 3960TIP3   OH211843   6.958   4.397   0.582
 3960TIP3    H111844   6.917   4.338   0.520
 3960TIP3    H211845   7.052   4.381   0.573
 3961TIP3   OH211846   0.210   4.022   1.800
 3961TIP3    H111847   0.286   4.011   1.857
 3961TIP3    H211848   0.143   4.061   1.857
 3962TIP3   OH211849   6.964   4.868   2.119
 3962TIP3    H111850   6.877   4.842   2.148
 3962TIP3    H211851   7.020   4.855   2.196
 3963TIP3   OH211852   0.032   1.786   0.344
 3963TIP3    H111853  -0.032   1.847   0.308
 3963TIP3    H211854   0.000   1.700   0.319
 3964TIP3   OH211855   3.079   2.124   4.951
 3964TIP3    H111856   3.154   2.094   5.003
 3964TIP3    H211857   3.118   2.160   4.871
 3965TIP3   OH211858   4.737   5.916   3.564
 3965TIP3    H111859   4.730   5.929   3.470
 3965TIP3    H211860   4.803   5.847   3.574
 3966TIP3   OH211861   3.627   0.835  -0.018
 3966TIP3    H111862   3.560   0.808   0.045
 3966TIP3    H211863   3.694   0.877   0.035
 3967TIP3   OH211864   1.424   6.822   2.424
 3967TIP3    H111865   1.513   6.789   2.414
 3967TIP3    H211866   1.371   6.767   2.366
 3968TIP3   OH211867   4.568   4.176   5.834
 3968TIP3    H111868   4.484   4.198   5.792
 3968TIP3    H211869   4.543   4.129   5.913
 3969TIP3   OH211870   1.423   1.602   0.916
 3969TIP3    H111871   1.503   1.561   0.948
 3969TIP3    H211872   1.438   1.612   0.822
 3970TIP3   OH211873   0.057   1.579   4.156
 3970TIP3    H111874  -0.025   1.534   4.174
 3970TIP3    H211875   0.117   1.545   4.223
 3971TIP3   OH211876   5.168   4.713   2.452
 3971TIP3    H111877   5.115   4.700   2.374
 3971TIP3    H211878   5.156   4.633   2.503
 3972TIP3   OH211879   7.019   2.220   0.840
 3972TIP3    H111880   7.096   2.276   0.843
 3972TIP3    H211881   7.018   2.177   0.926
 3973TIP3   OH211882   5.372   6.163   2.265
 3973TIP3    H111883   5.371   6.115   2.348
 3973TIP3    H211884   5.434   6.235   2.280
 3974TIP3   OH211885   3.198   5.973   5.041
 3974TIP3    H111886   3.221   5.880   5.042
 3974TIP3    H211887   3.211   5.999   4.950
 3975TIP3   OH211888   5.989   0.326   1.727
 3975TIP3    H111889   5.961   0.337   1.636
 3975TIP3    H211890   6.010   0.414   1.756
 3976TIP3   OH211891   4.709   2.077   0.356
 3976TIP3    H111892   4.794   2.091   0.314
 3976TIP3    H211893   4.665   2.014   0.299
 3977TIP3   OH211894   1.447   0.042  -0.046
 3977TIP3    H111895   1.415   0.033   0.044
 3977TIP3    H211896   1.540   0.061  -0.036
 3978TIP3   OH211897   0.557   1.510   3.025
 3978TIP3    H111898   0.588   1.537   3.111
 3978TIP3    H211899   0.485   1.569   3.006
 3979TIP3   OH211900   5.892   2.452   4.079
 3979TIP3    H111901   5.813   2.398   4.067
 3979TIP3    H211902   5.919   2.472   3.989
 3980TIP3   OH211903   3.195   2.528   0.781
 3980TIP3    H111904   3.203   2.440   0.743
 3980TIP3    H211905   3.267   2.578   0.742
 3981TIP3   OH211906   3.841   3.481   5.578
 3981TIP3    H111907   3.820   3.488   5.671
 3981TIP3    H211908   3.917   3.423   5.574
 3982TIP3   OH211909   0.431   4.192   3.592
 3982TIP3    H111910   0.508   4.138   3.609
 3982TIP3    H211911   0.433   4.209   3.498
 3983TIP3   OH211912   6.483   0.263   0.575
 3983TIP3    H111913   6.397   0.223   0.581
 3983TIP3    H211914   6.494   0.282   0.481
 3984TIP3   OH211915   6.338   1.148   3.778
 3984TIP3    H111916   6.260   1.095   3.790
 3984TIP3    H211917   6.346   1.198   3.859
 3985TIP3   OH211918   3.791   0.994   0.163
 3985TIP3    H111919   3.878   1.023   0.136
 3985TIP3    H211920   3.732   1.065   0.137
 3986TIP3   OH211921   6.952   3.468   2.711
 3986TIP3    H111922   6.934   3.378   2.683
 3986TIP3    H211923   6.974   3.460   2.804
 3987TIP3   OH211924   4.014   1.091   5.828
 3987TIP3    H111925   4.067   1.098   5.749
 3987TIP3    H211926   4.016   0.998   5.850
 3988TIP3   OH211927   5.197   1.224   5.511
 3988TIP3    H111928   5.143   1.302   5.523
 3988TIP3    H211929   5.149   1.171   5.447
 3989TIP3   OH211930   4.549   0.364   1.010
 3989TIP3    H111931   4.454   0.356   1.000
 3989TIP3    H211932   4.567   0.326   1.096
 3990TIP3   OH211933   5.552   3.199   3.935
 3990TIP3    H111934   5.618   3.164   3.995
 3990TIP3    H211935   5.484   3.233   3.993
 3991TIP3   OH211936   4.701   0.073   3.171
 3991TIP3    H111937   4.791   0.103   3.186
 3991TIP3    H211938   4.708   0.012   3.098
 3992TIP3   OH211939   6.841   3.575   0.148
 3992TIP3    H111940   6.912   3.556   0.087
 3992TIP3    H211941   6.879   3.564   0.235
 3993TIP3   OH211942   6.117   4.842   4.088
 3993TIP3    H111943   6.127   4.910   4.154
 3993TIP3    H211944   6.049   4.784   4.123
 3994TIP3   OH211945   6.097   2.320   3.675
 3994TIP3    H111946   6.057   2.361   3.598
 3994TIP3    H211947   6.129   2.393   3.727
 3995TIP3   OH211948   2.213   5.623   4.978
 3995TIP3    H111949   2.224   5.673   5.059
 3995TIP3    H211950   2.160   5.681   4.922
 3996TIP3   OH211951   0.287   4.942   1.822
 3996TIP3    H111952   0.218   4.993   1.780
 3996TIP3    H211953   0.251   4.854   1.829
 3997TIP3   OH211954   1.549   4.767   5.863
 3997TIP3    H111955   1.553   4.791   5.770
 3997TIP3    H211956   1.639   4.775   5.894
 3998TIP3   OH211957   1.972   4.475   0.724
 3998TIP3    H111958   2.038   4.431   0.671
 3998TIP3    H211959   1.926   4.403   0.769
 3999TIP3   OH211960   3.808   3.185   3.414
 3999TIP3    H111961   3.883   3.136   3.380
 3999TIP3    H211962   3.749   3.118   3.448
 4000TIP3   OH211963   4.322   3.687   0.134
 4000TIP3    H111964   4.342   3.707   0.225
 4000TIP3    H211965   4.380   3.743   0.083
 4001TIP3   OH211966   7.200   5.489   4.577
 4001TIP3    H111967   7.183   5.578   4.607
 4001TIP3    H211968   7.268   5.456   4.637
 4002TIP3   OH211969   4.608   2.607   5.725
 4002TIP3    H111970   4.514   2.592   5.734
 4002TIP3    H211971   4.639   2.623   5.814
 4003TIP3   OH211972   3.665   5.397   4.486
 4003TIP3    H111973   3.712   5.315   4.466
 4003TIP3    H211974   3.617   5.416   4.406
 4004TIP3   OH211975   7.199   5.366   3.164
 4004TIP3    H111976   7.127   5.429   3.169
 4004TIP3    H211977   7.156   5.280   3.161
 4005TIP3   OH211978   2.649   1.449   1.011
 4005TIP3    H111979   2.721   1.446   0.947
 4005TIP3    H211980   2.677   1.513   1.076
 4006TIP3   OH211981   3.617   2.428   5.419
 4006TIP3    H111982   3.681   2.486   5.378
 4006TIP3    H211983   3.667   2.349   5.441
 4007TIP3   OH211984   0.620   5.942   0.298
 4007TIP3    H111985   0.690   5.923   0.360
 4007TIP3    H211986   0.566   5.863   0.298
 4008TIP3   OH211987   5.798   6.124   3.422
 4008TIP3    H111988   5.728   6.058   3.421
 4008TIP3    H211989   5.763   6.197   3.371
 4009TIP3   OH211990   2.716   3.532   0.265
 4009TIP3    H111991   2.707   3.524   0.170
 4009TIP3    H211992   2.769   3.611   0.277
 4010TIP3   OH211993   0.091   4.398   5.033
 4010TIP3    H111994   0.000   4.375   5.015
 4010TIP3    H211995   0.142   4.351   4.967
 4011TIP3   OH211996   2.066   3.847   1.808
 4011TIP3    H111997   1.983   3.812   1.839
 4011TIP3    H211998   2.133   3.796   1.855
 4012TIP3   OH211999   3.351   6.738   3.535
 4012TIP3    H112000   3.278   6.800   3.528
 4012TIP3    H212001   3.427   6.793   3.554
 4013TIP3   OH212002   5.874   5.509   3.129
 4013TIP3    H112003   5.917   5.521   3.213
 4013TIP3    H212004   5.839   5.596   3.108
 4014TIP3   OH212005   6.666   0.460   1.798
 4014TIP3    H112006   6.685   0.543   1.840
 4014TIP3    H212007   6.706   0.467   1.711
 4015TIP3   OH212008   0.473   2.125   4.772
 4015TIP3    H112009   0.511   2.119   4.685
 4015TIP3    H212010   0.381   2.104   4.760
 4016TIP3   OH212011   6.367   2.082   5.140
 4016TIP3    H112012   6.429   2.152   5.158
 4016TIP3    H212013   6.294   2.124   5.095
 4017TIP3   OH212014   5.880   5.453   0.250
 4017TIP3    H112015   5.935   5.430   0.325
 4017TIP3    H212016   5.792   5.464   0.287
 4018TIP3   OH212017   6.287   5.377   2.192
 4018TIP3    H112018   6.347   5.447   2.170
 4018TIP3    H212019   6.336   5.321   2.252
 4019TIP3   OH212020   4.411   3.210   4.615
 4019TIP3    H112021   4.330   3.160   4.605
 4019TIP3    H212022   4.455   3.171   4.690
 4020TIP3   OH212023   2.691   1.751   2.355
 4020TIP3    H112024   2.662   1.662   2.335
 4020TIP3    H212025   2.716   1.747   2.448
 4021TIP3   OH212026   5.880   2.394   0.469
 4021TIP3    H112027   5.902   2.461   0.534
 4021TIP3    H212028   5.945   2.405   0.400
 4022TIP3   OH212029   5.118   5.181   5.560
 4022TIP3    H112030   5.088   5.269   5.583
 4022TIP3    H212031   5.197   5.196   5.508
 4023TIP3   OH212032   4.380   0.898   3.654
 4023TIP3    H112033   4.310   0.867   3.597
 4023TIP3    H212034   4.408   0.981   3.616
 4024TIP3   OH212035   4.233   1.388   1.019
 4024TIP3    H112036   4.248   1.302   1.058
 4024TIP3    H212037   4.172   1.372   0.947
 4025TIP3   OH212038   2.973   6.028   3.874
 4025TIP3    H112039   3.042   6.049   3.812
 4025TIP3    H212040   3.013   5.963   3.932
 4026TIP3   OH212041   4.215   6.728   3.828
 4026TIP3    H112042   4.208   6.749   3.735
 4026TIP3    H212043   4.309   6.730   3.847
 4027TIP3   OH212044   1.471   3.527   1.373
 4027TIP3    H112045   1.478   3.500   1.464
 4027TIP3    H212046   1.417   3.607   1.376
 4028TIP3   OH212047   3.664   2.306   2.049
 4028TIP3    H112048   3.597   2.361   2.009
 4028TIP3    H212049   3.736   2.306   1.986
 4029TIP3   OH212050   1.299   4.871   0.013
 4029TIP3    H112051   1.223   4.819  -0.014
 4029TIP3    H212052   1.267   4.962   0.012
 4030TIP3   OH212053   2.815   0.464   3.891
 4030TIP3    H112054   2.767   0.400   3.943
 4030TIP3    H212055   2.828   0.422   3.806
 4031TIP3   OH212056   6.143   1.948   4.377
 4031TIP3    H112057   6.206   2.003   4.329
 4031TIP3    H212058   6.144   1.982   4.466
 4032TIP3   OH212059   1.131   3.338   5.131
 4032TIP3    H112060   1.183   3.392   5.191
 4032TIP3    H212061   1.130   3.252   5.172
 4033TIP3   OH212062   0.833   1.725   1.101
 4033TIP3    H112063   0.824   1.793   1.034
 4033TIP3    H212064   0.861   1.772   1.180
 4034TIP3   OH212065   5.688   3.380   0.426
 4034TIP3    H112066   5.730   3.348   0.346
 4034TIP3    H212067   5.686   3.475   0.415
 4035TIP3   OH212068   5.904   2.944   1.969
 4035TIP3    H112069   5.897   3.039   1.977
 4035TIP3    H212070   5.998   2.927   1.967
 4036TIP3   OH212071   6.421   3.053   0.198
 4036TIP3    H112072   6.446   3.144   0.181
 4036TIP3    H212073   6.411   3.049   0.293
 4037TIP3   OH212074   1.830   6.502   3.355
 4037TIP3    H112075   1.860   6.481   3.267
 4037TIP3    H212076   1.906   6.544   3.397
 4038TIP3   OH212077   2.328   1.541   2.371
 4038TIP3    H112078   2.344   1.628   2.409
 4038TIP3    H212079   2.408   1.492   2.389
 4039TIP3   OH212080   6.174   5.229   1.255
 4039TIP3    H112081   6.107   5.195   1.195
 4039TIP3    H212082   6.216   5.300   1.206
 4040TIP3   OH212083   2.490   0.519   2.288
 4040TIP3    H112084   2.482   0.614   2.285
 4040TIP3    H212085   2.418   0.486   2.234
 4041TIP3   OH212086   0.064   2.540   3.362
 4041TIP3    H112087   0.102   2.578   3.441
 4041TIP3    H212088   0.122   2.466   3.341
 4042TIP3   OH212089   0.585   2.324   1.778
 4042TIP3    H112090   0.529   2.354   1.706
 4042TIP3    H212091   0.526   2.270   1.832
 4043TIP3   OH212092   5.654   4.008   1.320
 4043TIP3    H112093   5.616   4.095   1.335
 4043TIP3    H212094   5.748   4.023   1.315
 4044TIP3   OH212095   3.943   1.617   2.187
 4044TIP3    H112096   3.931   1.705   2.222
 4044TIP3    H212097   3.872   1.566   2.226
 4045TIP3   OH212098   5.148   4.027   2.580
 4045TIP3    H112099   5.219   4.068   2.531
 4045TIP3    H212100   5.188   4.005   2.664
 4046TIP3   OH212101   2.804   3.763   1.672
 4046TIP3    H112102   2.883   3.742   1.623
 4046TIP3    H212103   2.834   3.784   1.760
 4047TIP3   OH212104   7.079   2.256   3.233
 4047TIP3    H112105   7.015   2.316   3.270
 4047TIP3    H212106   7.074   2.178   3.288
 4048TIP3   OH212107   2.958   3.082   5.085
 4048TIP3    H112108   2.868   3.114   5.086
 4048TIP3    H212109   2.959   3.018   5.014
 4049TIP3   OH212110   4.961   3.645   0.551
 4049TIP3    H112111   4.876   3.642   0.507
 4049TIP3    H212112   5.025   3.644   0.481
 4050TIP3   OH212113   4.679   6.391   3.498
 4050TIP3    H112114   4.609   6.378   3.562
 4050TIP3    H212115   4.725   6.306   3.495
 4051TIP3   OH212116   4.601   6.108   1.884
 4051TIP3    H112117   4.564   6.029   1.925
 4051TIP3    H212118   4.527   6.167   1.875
 4052TIP3   OH212119   0.574   5.060   1.594
 4052TIP3    H112120   0.653   5.007   1.604
 4052TIP3    H212121   0.522   5.042   1.673
 4053TIP3   OH212122   0.922   3.323   2.567
 4053TIP3    H112123   0.839   3.279   2.587
 4053TIP3    H212124   0.897   3.398   2.514
 4054TIP3   OH212125   1.274   5.957   0.091
 4054TIP3    H112126   1.219   6.032   0.070
 4054TIP3    H212127   1.354   5.995   0.126
 4055TIP3   OH212128   4.488   1.217   3.355
 4055TIP3    H112129   4.473   1.197   3.447
 4055TIP3    H212130   4.518   1.308   3.355
 4056TIP3   OH212131   4.781   2.861   2.805
 4056TIP3    H112132   4.856   2.916   2.829
 4056TIP3    H212133   4.819   2.788   2.756
 4057TIP3   OH212134   0.356   2.171   3.467
 4057TIP3    H112135   0.356   2.163   3.562
 4057TIP3    H212136   0.347   2.265   3.451
 4058TIP3   OH212137   1.076   5.470   2.511
 4058TIP3    H112138   0.987   5.459   2.544
 4058TIP3    H212139   1.071   5.442   2.420
 4059TIP3   OH212140   3.846   2.903   2.813
 4059TIP3    H112141   3.789   2.837   2.853
 4059TIP3    H212142   3.788   2.977   2.796
 4060TIP3   OH212143   6.483   4.068   3.364
 4060TIP3    H112144   6.566   4.019   3.364
 4060TIP3    H212145   6.499   4.142   3.422
 4061TIP3   OH212146   1.303   0.049   3.362
 4061TIP3    H112147   1.358  -0.007   3.307
 4061TIP3    H212148   1.214   0.021   3.343
 4062TIP3   OH212149   7.003   4.729   0.405
 4062TIP3    H112150   7.074   4.667   0.392
 4062TIP3    H212151   6.980   4.720   0.498
 4063TIP3   OH212152   2.198   4.074   2.156
 4063TIP3    H112153   2.251   4.002   2.122
 4063TIP3    H212154   2.186   4.054   2.249
 4064TIP3   OH212155   2.140   0.389   3.125
 4064TIP3    H112156   2.101   0.476   3.111
 4064TIP3    H212157   2.209   0.382   3.060
 4065TIP3   OH212158   3.731   4.521   5.367
 4065TIP3    H112159   3.753   4.429   5.353
 4065TIP3    H212160   3.680   4.521   5.448
 4066TIP3   OH212161   0.292   0.310   2.593
 4066TIP3    H112162   0.200   0.337   2.591
 4066TIP3    H212163   0.333   0.372   2.653
 4067TIP3   OH212164   1.400   4.965   5.253
 4067TIP3    H112165   1.438   5.037   5.202
 4067TIP3    H212166   1.310   4.993   5.271
 4068TIP3   OH212167   4.498   0.791   0.050
 4068TIP3    H112168   4.559   0.865   0.056
 4068TIP3    H212169   4.511   0.756  -0.038
 4069TIP3   OH212170   1.179   2.611   1.094
 4069TIP3    H112171   1.246   2.609   1.026
 4069TIP3    H212172   1.130   2.692   1.078
 4070TIP3   OH212173   0.971   0.166   1.835
 4070TIP3    H112174   0.940   0.245   1.788
 4070TIP3    H212175   1.048   0.138   1.785
 4071TIP3   OH212176   1.152   3.458   1.213
 4071TIP3    H112177   1.108   3.535   1.175
 4071TIP3    H212178   1.145   3.472   1.308
 4072TIP3   OH212179   3.823   1.951   1.959
 4072TIP3    H112180   3.879   1.883   1.920
 4072TIP3    H212181   3.734   1.917   1.948
 4073TIP3   OH212182   3.448   2.847   2.067
 4073TIP3    H112183   3.513   2.788   2.107
 4073TIP3    H212184   3.481   2.864   1.980
 4074TIP3   OH212185   4.112   4.574   1.754
 4074TIP3    H112186   4.171   4.504   1.781
 4074TIP3    H212187   4.153   4.612   1.677
 4075TIP3   OH212188   6.141   1.207   1.647
 4075TIP3    H112189   6.083   1.236   1.717
 4075TIP3    H212190   6.218   1.264   1.655
 4076TIP3   OH212191   1.141   2.112   2.074
 4076TIP3    H112192   1.090   2.111   1.994
 4076TIP3    H212193   1.207   2.044   2.062
 4077TIP3   OH212194   1.494   0.024   1.504
 4077TIP3    H112195   1.474  -0.057   1.458
 4077TIP3    H212196   1.417   0.078   1.492
 4078TIP3   OH212197   5.462   3.229   0.467
 4078TIP3    H112198   5.414   3.311   0.458
 4078TIP3    H212199   5.553   3.255   0.480
 4079TIP3   OH212200   1.530   6.146   4.831
 4079TIP3    H112201   1.500   6.185   4.913
 4079TIP3    H212202   1.625   6.142   4.840
 4080TIP3   OH212203   0.420   4.184   1.550
 4080TIP3    H112204   0.329   4.160   1.530
 4080TIP3    H212205   0.420   4.202   1.644
 4081TIP3   OH212206   1.789   6.505   4.611
 4081TIP3    H112207   1.752   6.555   4.538
 4081TIP3    H212208   1.731   6.429   4.619
 4082TIP3   OH212209   7.137   5.860   5.435
 4082TIP3    H112210   7.102   5.875   5.523
 4082TIP3    H212211   7.162   5.768   5.435
 4083TIP3   OH212212   2.518   3.131   2.441
 4083TIP3    H112213   2.559   3.058   2.395
 4083TIP3    H212214   2.562   3.209   2.407
 4084TIP3   OH212215   4.600   4.848   0.378
 4084TIP3    H112216   4.559   4.777   0.329
 4084TIP3    H212217   4.583   4.827   0.470
 4085TIP3   OH212218   5.738   3.177   0.641
 4085TIP3    H112219   5.735   3.243   0.571
 4085TIP3    H212220   5.823   3.135   0.632
 4086TIP3   OH212221   1.308   5.668   5.494
 4086TIP3    H112222   1.401   5.687   5.506
 4086TIP3    H212223   1.263   5.749   5.521
 4087TIP3   OH212224   6.196   0.335   1.026
 4087TIP3    H112225   6.217   0.361   1.116
 4087TIP3    H212226   6.253   0.260   1.009
 4088TIP3   OH212227   1.886   3.700   2.423
 4088TIP3    H112228   1.916   3.633   2.484
 4088TIP3    H212229   1.791   3.701   2.433
 4089TIP3   OH212230   5.995   6.599   1.993
 4089TIP3    H112231   6.057   6.533   2.026
 4089TIP3    H212232   5.927   6.604   2.059
 4090TIP3   OH212233   0.385   5.928   1.417
 4090TIP3    H112234   0.480   5.925   1.405
 4090TIP3    H212235   0.365   6.021   1.423
 4091TIP3   OH212236   7.023   0.084   1.578
 4091TIP3    H112237   7.033   0.151   1.646
 4091TIP3    H212238   7.113   0.054   1.562
 4092TIP3   OH212239   3.082   1.844   0.683
 4092TIP3    H112240   3.019   1.776   0.707
 4092TIP3    H212241   3.030   1.925   0.684
 4093TIP3   OH212242   3.650   4.742   3.493
 4093TIP3    H112243   3.619   4.720   3.404
 4093TIP3    H212244   3.572   4.772   3.539
 4094TIP3   OH212245   3.696   3.738   2.806
 4094TIP3    H112246   3.776   3.703   2.767
 4094TIP3    H212247   3.667   3.670   2.866
 4095TIP3   OH212248   3.029   3.685   0.139
 4095TIP3    H112249   3.002   3.692   0.047
 4095TIP3    H212250   3.122   3.666   0.134
 4096TIP3   OH212251   3.459   4.165   2.235
 4096TIP3    H112252   3.478   4.255   2.259
 4096TIP3    H212253   3.537   4.116   2.263
 4097TIP3   OH212254   3.573   0.356   3.777
 4097TIP3    H112255   3.498   0.355   3.836
 4097TIP3    H212256   3.624   0.278   3.801
 4098TIP3   OH212257   3.253   4.180   2.582
 4098TIP3    H112258   3.285   4.090   2.582
 4098TIP3    H212259   3.330   4.233   2.601
 4099TIP3   OH212260   2.086   2.264   5.713
 4099TIP3    H112261   2.139   2.184   5.719
 4099TIP3    H212262   2.124   2.314   5.641
 4100TIP3   OH212263   4.772   1.358   0.740
 4100TIP3    H112264   4.840   1.318   0.686
 4100TIP3    H212265   4.790   1.452   0.736
 4101TIP3   OH212266   5.742   2.198   1.834
 4101TIP3    H112267   5.828   2.240   1.839
 4101TIP3    H212268   5.683   2.267   1.805
 4102TIP3   OH212269   5.041   5.103   4.041
 4102TIP3    H112270   5.049   5.007   4.045
 4102TIP3    H212271   4.952   5.121   4.072
 4103TIP3   OH212272   5.158   3.389   0.509
 4103TIP3    H112273   5.172   3.424   0.598
 4103TIP3    H212274   5.190   3.458   0.451
 4104TIP3   OH212275   4.597   0.276   4.461
 4104TIP3    H112276   4.632   0.365   4.460
 4104TIP3    H212277   4.526   0.279   4.526
 4105TIP3   OH212278   2.941   4.737   4.186
 4105TIP3    H112279   3.027   4.698   4.201
 4105TIP3    H212280   2.943   4.765   4.094
 4106TIP3   OH212281   2.705   2.945   3.952
 4106TIP3    H112282   2.710   2.983   3.864
 4106TIP3    H212283   2.678   2.854   3.937
 4107TIP3   OH212284   2.670   4.018   1.961
 4107TIP3    H112285   2.585   3.975   1.967
 4107TIP3    H212286   2.649   4.108   1.937
 4108TIP3   OH212287   0.726   3.892   4.358
 4108TIP3    H112288   0.810   3.936   4.341
 4108TIP3    H212289   0.673   3.913   4.281
 4109TIP3   OH212290   0.211   0.404   3.678
 4109TIP3    H112291   0.254   0.489   3.670
 4109TIP3    H212292   0.143   0.417   3.743
 4110TIP3   OH212293   1.041   0.607   0.756
 4110TIP3    H112294   0.947   0.598   0.743
 4110TIP3    H212295   1.052   0.602   0.851
 4111TIP3   OH212296   3.604   6.401   3.807
 4111TIP3    H112297   3.520   6.441   3.786
 4111TIP3    H212298   3.608   6.324   3.751
 4112TIP3   OH212299   4.246   6.449   4.873
 4112TIP3    H112300   4.177   6.512   4.893
 4112TIP3    H212301   4.201   6.376   4.830
 4113TIP3   OH212302   5.508   2.791   2.641
 4113TIP3    H112303   5.441   2.827   2.584
 4113TIP3    H212304   5.461   2.725   2.694
 4114TIP3   OH212305   5.580   4.872   5.818
 4114TIP3    H112306   5.621   4.883   5.733
 4114TIP3    H212307   5.509   4.809   5.803
 4115TIP3   OH212308   1.356   2.992   3.040
 4115TIP3    H112309   1.416   2.927   3.004
 4115TIP3    H212310   1.269   2.960   3.016
 4116TIP3   OH212311   2.726   0.160   1.356
 4116TIP3    H112312   2.652   0.181   1.413
 4116TIP3    H212313   2.773   0.242   1.348
 4117TIP3   OH212314   4.619   5.211   4.317
 4117TIP3    H112315   4.605   5.122   4.348
 4117TIP3    H212316   4.685   5.203   4.248
 4118TIP3   OH212317   7.042   1.014   2.719
 4118TIP3    H112318   7.131   1.041   2.744
 4118TIP3    H212319   7.043   0.919   2.726
 4119TIP3   OH212320   0.733   2.554   2.462
 4119TIP3    H112321   0.688   2.474   2.489
 4119TIP3    H212322   0.806   2.524   2.408
 4120TIP3   OH212323   5.180   0.090   5.575
 4120TIP3    H112324   5.104   0.032   5.568
 4120TIP3    H212325   5.249   0.034   5.609
 4121TIP3   OH212326   4.742   6.305   2.615
 4121TIP3    H112327   4.730   6.399   2.631
 4121TIP3    H212328   4.821   6.283   2.664
 4122TIP3   OH212329   1.184   6.165   5.547
 4122TIP3    H112330   1.147   6.203   5.468
 4122TIP3    H212331   1.277   6.190   5.545
 4123TIP3   OH212332   5.113   6.259   5.458
 4123TIP3    H112333   5.176   6.246   5.530
 4123TIP3    H212334   5.164   6.244   5.379
 4124TIP3   OH212335   5.539   4.792   3.613
 4124TIP3    H112336   5.507   4.744   3.690
 4124TIP3    H212337   5.633   4.797   3.625
 4125TIP3   OH212338   3.701   6.534   2.617
 4125TIP3    H112339   3.733   6.474   2.550
 4125TIP3    H212340   3.665   6.608   2.568
 4126TIP3   OH212341   0.412   5.585   2.651
 4126TIP3    H112342   0.378   5.582   2.561
 4126TIP3    H212343   0.345   5.631   2.701
 4127TIP3   OH212344   2.921   1.543   1.447
 4127TIP3    H112345   2.908   1.622   1.394
 4127TIP3    H212346   2.902   1.570   1.537
 4128TIP3   OH212347   4.179   0.760   3.976
 4128TIP3    H112348   4.159   0.825   4.043
 4128TIP3    H212349   4.210   0.683   4.024
 4129TIP3   OH212350   5.049   3.640   5.403
 4129TIP3    H112351   4.998   3.677   5.331
 4129TIP3    H212352   5.131   3.690   5.401
 4130TIP3   OH212353   3.942   3.840   3.407
 4130TIP3    H112354   3.908   3.832   3.318
 4130TIP3    H212355   3.868   3.817   3.464
 4131TIP3   OH212356   4.510   1.817   3.706
 4131TIP3    H112357   4.540   1.727   3.694
 4131TIP3    H212358   4.446   1.812   3.776
 4132TIP3   OH212359   3.579   0.447   0.025
 4132TIP3    H112360   3.540   0.503   0.092
 4132TIP3    H212361   3.547   0.359   0.046
 4133TIP3   OH212362   4.637   6.354   5.109
 4133TIP3    H112363   4.589   6.279   5.143
 4133TIP3    H212364   4.613   6.358   5.017
 4134TIP3   OH212365   6.005   1.975   0.859
 4134TIP3    H112366   6.091   1.948   0.827
 4134TIP3    H212367   5.960   2.008   0.782
 4135TIP3   OH212368   5.029   3.001   1.657
 4135TIP3    H112369   5.014   3.091   1.627
 4135TIP3    H212370   5.109   3.007   1.708
 4136TIP3   OH212371   2.261   1.498   4.326
 4136TIP3    H112372   2.193   1.446   4.369
 4136TIP3    H212373   2.236   1.589   4.344
 4137TIP3   OH212374   5.625   5.786   3.944
 4137TIP3    H112375   5.636   5.718   3.877
 4137TIP3    H212376   5.612   5.867   3.894
 4138TIP3   OH212377   5.812   2.984   1.413
 4138TIP3    H112378   5.840   3.074   1.432
 4138TIP3    H212379   5.869   2.956   1.342
 4139TIP3   OH212380   5.894   1.756   4.377
 4139TIP3    H112381   5.810   1.716   4.354
 4139TIP3    H212382   5.948   1.682   4.405
 4140TIP3   OH212383   1.822   3.619   4.164
 4140TIP3    H112384   1.788   3.708   4.173
 4140TIP3    H212385   1.755   3.564   4.204
 4141TIP3   OH212386   1.828   1.634   3.011
 4141TIP3    H112387   1.856   1.554   2.968
 4141TIP3    H212388   1.818   1.610   3.103
 4142TIP3   OH212389   4.596   6.052   2.946
 4142TIP3    H112390   4.645   5.976   2.913
 4142TIP3    H212391   4.638   6.074   3.028
 4143TIP3   OH212392   5.706   0.448   2.982
 4143TIP3    H112393   5.784   0.392   2.976
 4143TIP3    H212394   5.734   0.532   2.945
 4144TIP3   OH212395   6.915   6.755   5.631
 4144TIP3    H112396   6.849   6.801   5.682
 4144TIP3    H212397   6.921   6.669   5.672
 4145TIP3   OH212398   2.031   6.421   5.624
 4145TIP3    H112399   2.083   6.393   5.549
 4145TIP3    H212400   1.947   6.378   5.613
 4146TIP3   OH212401   1.663   6.057   1.408
 4146TIP3    H112402   1.712   6.026   1.483
 4146TIP3    H212403   1.581   6.090   1.445
 4147TIP3   OH212404   4.580   2.807   2.382
 4147TIP3    H112405   4.520   2.748   2.429
 4147TIP3    H212406   4.523   2.876   2.349
 4148TIP3   OH212407   0.669   5.373   3.836
 4148TIP3    H112408   0.736   5.306   3.850
 4148TIP3    H212409   0.684   5.437   3.906
 4149TIP3   OH212410   5.613   3.135   1.161
 4149TIP3    H112411   5.621   3.040   1.164
 4149TIP3    H212412   5.701   3.166   1.139
 4150TIP3   OH212413   0.391   6.073   2.625
 4150TIP3    H112414   0.399   6.078   2.529
 4150TIP3    H212415   0.465   6.019   2.652
 4151TIP3   OH212416   6.715   5.973   2.497
 4151TIP3    H112417   6.666   6.053   2.511
 4151TIP3    H212418   6.652   5.903   2.512
 4152TIP3   OH212419   0.956   1.042   0.615
 4152TIP3    H112420   1.002   1.046   0.699
 4152TIP3    H212421   1.009   1.096   0.557
 4153TIP3   OH212422   4.517   3.416   2.909
 4153TIP3    H112423   4.596   3.366   2.928
 4153TIP3    H212424   4.527   3.442   2.817
 4154TIP3   OH212425   6.112   2.886   5.354
 4154TIP3    H112426   6.027   2.928   5.371
 4154TIP3    H212427   6.098   2.794   5.375
 4155TIP3   OH212428   4.202   0.226   3.282
 4155TIP3    H112429   4.145   0.266   3.216
 4155TIP3    H212430   4.208   0.134   3.257
 4156TIP3   OH212431   6.049   2.402   1.302
 4156TIP3    H112432   5.999   2.377   1.380
 4156TIP3    H212433   6.055   2.498   1.307
 4157TIP3   OH212434   6.137   3.406   5.491
 4157TIP3    H112435   6.167   3.317   5.509
 4157TIP3    H212436   6.171   3.458   5.564
 4158TIP3   OH212437   3.427   5.692   3.805
 4158TIP3    H112438   3.480   5.706   3.726
 4158TIP3    H212439   3.484   5.716   3.877
 4159TIP3   OH212440   2.058   1.127   3.383
 4159TIP3    H112441   2.153   1.137   3.378
 4159TIP3    H212442   2.045   1.032   3.385
 4160TIP3   OH212443   7.186   0.372   0.083
 4160TIP3    H112444   7.134   0.410   0.013
 4160TIP3    H212445   7.142   0.400   0.163
 4161TIP3   OH212446   7.057   3.232   1.328
 4161TIP3    H112447   7.018   3.275   1.252
 4161TIP3    H212448   7.109   3.300   1.371
 4162TIP3   OH212449   6.645   3.201   1.711
 4162TIP3    H112450   6.661   3.184   1.804
 4162TIP3    H212451   6.573   3.142   1.687
 4163TIP3   OH212452   5.346   4.416   5.674
 4163TIP3    H112453   5.266   4.416   5.621
 4163TIP3    H212454   5.314   4.404   5.764
 4164TIP3   OH212455   6.986   3.020   2.986
 4164TIP3    H112456   7.037   2.939   2.992
 4164TIP3    H212457   7.035   3.082   3.040
 4165TIP3   OH212458   4.526   1.263   5.281
 4165TIP3    H112459   4.451   1.275   5.339
 4165TIP3    H212460   4.602   1.285   5.335
 4166TIP3   OH212461   1.331   5.294   3.000
 4166TIP3    H112462   1.269   5.361   2.971
 4166TIP3    H212463   1.289   5.211   2.977
 4167TIP3   OH212464   1.616   6.754   3.241
 4167TIP3    H112465   1.530   6.727   3.274
 4167TIP3    H212466   1.670   6.676   3.247
 4168TIP3   OH212467   3.501   4.235   3.190
 4168TIP3    H112468   3.584   4.222   3.237
 4168TIP3    H212469   3.528   4.265   3.103
 4169TIP3   OH212470   0.909   3.548   4.312
 4169TIP3    H112471   0.957   3.614   4.264
 4169TIP3    H212472   0.918   3.468   4.260
 4170TIP3   OH212473   4.452   3.750   5.324
 4170TIP3    H112474   4.401   3.708   5.254
 4170TIP3    H212475   4.428   3.702   5.403
 4171TIP3   OH212476   5.449   4.637   1.259
 4171TIP3    H112477   5.405   4.625   1.343
 4171TIP3    H212478   5.539   4.612   1.275
 4172TIP3   OH212479   1.675   1.318   2.275
 4172TIP3    H112480   1.625   1.400   2.271
 4172TIP3    H212481   1.723   1.316   2.192
 4173TIP3   OH212482   0.339   3.406   1.610
 4173TIP3    H112483   0.328   3.315   1.582
 4173TIP3    H212484   0.252   3.431   1.641
 4174TIP3   OH212485   6.763   4.308   5.613
 4174TIP3    H112486   6.802   4.227   5.580
 4174TIP3    H212487   6.670   4.299   5.593
 4175TIP3   OH212488   6.625   0.430   1.386
 4175TIP3    H112489   6.570   0.356   1.364
 4175TIP3    H212490   6.698   0.393   1.436
 4176TIP3   OH212491   1.388   4.036   2.892
 4176TIP3    H112492   1.458   4.091   2.926
 4176TIP3    H212493   1.317   4.046   2.956
 4177TIP3   OH212494   3.496   2.864   5.226
 4177TIP3    H112495   3.432   2.923   5.186
 4177TIP3    H212496   3.456   2.838   5.309
 4178TIP3   OH212497   6.037   5.690   1.086
 4178TIP3    H112498   5.970   5.622   1.085
 4178TIP3    H212499   6.021   5.739   1.167
 4179TIP3   OH212500   0.332   2.659   4.342
 4179TIP3    H112501   0.342   2.743   4.296
 4179TIP3    H212502   0.314   2.596   4.272
 4180TIP3   OH212503   4.540   2.555   0.060
 4180TIP3    H112504   4.571   2.573   0.148
 4180TIP3    H212505   4.515   2.463   0.062
 4181TIP3   OH212506   2.938   4.781   2.675
 4181TIP3    H112507   2.934   4.694   2.635
 4181TIP3    H212508   2.882   4.775   2.752
 4182TIP3   OH212509   6.147   3.812   1.525
 4182TIP3    H112510   6.185   3.844   1.444
 4182TIP3    H212511   6.110   3.889   1.567
 4183TIP3   OH212512   6.301   2.203   2.134
 4183TIP3    H112513   6.348   2.259   2.072
 4183TIP3    H212514   6.363   2.190   2.206
 4184TIP3   OH212515   3.987   2.438   2.995
 4184TIP3    H112516   3.903   2.476   3.019
 4184TIP3    H212517   4.050   2.509   3.007
 4185TIP3   OH212518   7.071   0.413   0.317
 4185TIP3    H112519   7.133   0.392   0.387
 4185TIP3    H212520   6.985   0.401   0.357
 4186TIP3   OH212521   7.109   6.640   3.171
 4186TIP3    H112522   7.050   6.705   3.134
 4186TIP3    H212523   7.196   6.668   3.143
 4187TIP3   OH212524   3.860   2.358   0.514
 4187TIP3    H112525   3.771   2.359   0.548
 4187TIP3    H212526   3.854   2.311   0.431
 4188TIP3   OH212527   6.890   6.307   3.511
 4188TIP3    H112528   6.972   6.317   3.559
 4188TIP3    H212529   6.844   6.390   3.526
 4189TIP3   OH212530   4.919   0.800   4.819
 4189TIP3    H112531   4.886   0.735   4.757
 4189TIP3    H212532   4.841   0.834   4.863
 4190TIP3   OH212533   2.347   5.723   0.334
 4190TIP3    H112534   2.334   5.795   0.272
 4190TIP3    H212535   2.349   5.766   0.420
 4191TIP3   OH212536   1.884   3.552   1.341
 4191TIP3    H112537   1.810   3.494   1.355
 4191TIP3    H212538   1.930   3.514   1.266
 4192TIP3   OH212539   1.550   4.201   1.652
 4192TIP3    H112540   1.455   4.209   1.646
 4192TIP3    H212541   1.566   4.179   1.744
 4193TIP3   OH212542   4.130   4.198   4.312
 4193TIP3    H112543   4.154   4.231   4.399
 4193TIP3    H212544   4.213   4.167   4.275
 4194TIP3   OH212545   4.746   2.071   3.494
 4194TIP3    H112546   4.816   2.108   3.549
 4194TIP3    H212547   4.747   1.977   3.513
 4195TIP3   OH212548   3.448   3.872   3.008
 4195TIP3    H112549   3.467   3.898   3.098
 4195TIP3    H212550   3.382   3.803   3.016
 4196TIP3   OH212551   2.867   0.094   1.127
 4196TIP3    H112552   2.946   0.042   1.142
 4196TIP3    H212553   2.822   0.094   1.211
 4197TIP3   OH212554   0.504   3.204   3.536
 4197TIP3    H112555   0.426   3.150   3.521
 4197TIP3    H212556   0.573   3.140   3.553
 4198TIP3   OH212557   4.442   3.563   0.914
 4198TIP3    H112558   4.502   3.500   0.953
 4198TIP3    H212559   4.400   3.515   0.843
 4199TIP3   OH212560   7.113   0.690   0.271
 4199TIP3    H112561   7.071   0.607   0.295
 4199TIP3    H212562   7.173   0.709   0.343
 4200TIP3   OH212563   4.842   6.257   1.859
 4200TIP3    H112564   4.881   6.193   1.800
 4200TIP3    H212565   4.763   6.214   1.892
 4201TIP3   OH212566   3.608   5.932   3.389
 4201TIP3    H112567   3.700   5.954   3.398
 4201TIP3    H212568   3.563   6.016   3.396
 4202TIP3   OH212569   5.067   5.256   4.870
 4202TIP3    H112570   5.153   5.276   4.833
 4202TIP3    H212571   5.080   5.262   4.964
 4203TIP3   OH212572   5.118   2.510   1.782
 4203TIP3    H112573   5.132   2.566   1.858
 4203TIP3    H212574   5.091   2.569   1.712
 4204TIP3   OH212575   5.828   5.862   4.839
 4204TIP3    H112576   5.816   5.798   4.769
 4204TIP3    H212577   5.831   5.809   4.919
 4205TIP3   OH212578   4.630   5.627   5.372
 4205TIP3    H112579   4.648   5.712   5.411
 4205TIP3    H212580   4.583   5.646   5.291
 4206TIP3   OH212581   4.843   0.342   5.240
 4206TIP3    H112582   4.769   0.315   5.186
 4206TIP3    H212583   4.804   0.366   5.324
 4207TIP3   OH212584   6.327   5.162   5.321
 4207TIP3    H112585   6.234   5.146   5.304
 4207TIP3    H212586   6.342   5.252   5.291
 4208TIP3   OH212587   5.159   2.672   1.213
 4208TIP3    H112588   5.226   2.723   1.259
 4208TIP3    H212589   5.200   2.649   1.129
 4209TIP3   OH212590   0.606   1.322   1.546
 4209TIP3    H112591   0.523   1.368   1.561
 4209TIP3    H212592   0.641   1.361   1.466
 4210TIP3   OH212593   3.891   0.760   0.278
 4210TIP3    H112594   3.950   0.699   0.235
 4210TIP3    H212595   3.865   0.822   0.209
 4211TIP3   OH212596   2.073   1.365   2.302
 4211TIP3    H112597   2.072   1.356   2.206
 4211TIP3    H212598   2.155   1.410   2.321
 4212TIP3   OH212599   6.934   6.055   3.832
 4212TIP3    H112600   6.868   6.116   3.866
 4212TIP3    H212601   6.914   6.047   3.739
 4213TIP3   OH212602   2.601   2.306   2.819
 4213TIP3    H112603   2.598   2.346   2.906
 4213TIP3    H212604   2.624   2.378   2.761
 4214TIP3   OH212605   6.613   1.523   4.251
 4214TIP3    H112606   6.665   1.593   4.290
 4214TIP3    H212607   6.554   1.495   4.321
 4215TIP3   OH212608   0.133   1.119   5.702
 4215TIP3    H112609   0.179   1.043   5.666
 4215TIP3    H212610   0.063   1.136   5.639
 4216TIP3   OH212611   6.360   5.933   3.511
 4216TIP3    H112612   6.349   6.027   3.497
 4216TIP3    H212613   6.273   5.902   3.537
 4217TIP3   OH212614   2.050   3.581   2.965
 4217TIP3    H112615   2.115   3.625   2.911
 4217TIP3    H212616   2.081   3.490   2.971
 4218TIP3   OH212617   0.113   4.508   2.404
 4218TIP3    H112618   0.026   4.542   2.426
 4218TIP3    H212619   0.143   4.464   2.484
 4219TIP3   OH212620   5.279   4.882   2.262
 4219TIP3    H112621   5.208   4.888   2.199
 4219TIP3    H212622   5.236   4.867   2.346
 4220TIP3   OH212623   7.071   6.130   5.569
 4220TIP3    H112624   7.000   6.185   5.602
 4220TIP3    H212625   7.091   6.071   5.641
 4221TIP3   OH212626   1.910   2.144   0.844
 4221TIP3    H112627   1.944   2.055   0.851
 4221TIP3    H212628   1.830   2.143   0.897
 4222TIP3   OH212629   4.503   6.043   3.794
 4222TIP3    H112630   4.431   5.986   3.821
 4222TIP3    H212631   4.582   6.001   3.828
 4223TIP3   OH212632   6.772   4.128   0.993
 4223TIP3    H112633   6.814   4.048   1.023
 4223TIP3    H212634   6.845   4.182   0.960
 4224TIP3   OH212635   4.423   1.861   5.355
 4224TIP3    H112636   4.355   1.834   5.417
 4224TIP3    H212637   4.399   1.817   5.273
 4225TIP3   OH212638   0.656   2.999   5.004
 4225TIP3    H112639   0.704   2.925   4.965
 4225TIP3    H212640   0.674   3.072   4.945
 4226TIP3   OH212641   0.327   3.123   4.501
 4226TIP3    H112642   0.422   3.127   4.488
 4226TIP3    H212643   0.314   3.159   4.589
 4227TIP3   OH212644   2.837   1.301   1.242
 4227TIP3    H112645   2.853   1.353   1.163
 4227TIP3    H212646   2.760   1.341   1.282
 4228TIP3   OH212647   5.225   3.207   3.618
 4228TIP3    H112648   5.197   3.235   3.532
 4228TIP3    H212649   5.180   3.265   3.679
 4229TIP3   OH212650   2.838   3.176   2.504
 4229TIP3    H112651   2.787   3.254   2.525
 4229TIP3    H212652   2.928   3.200   2.526
 4230TIP3   OH212653   1.884   0.144   1.818
 4230TIP3    H112654   1.821   0.093   1.768
 4230TIP3    H212655   1.917   0.209   1.757
 4231TIP3   OH212656   4.799   2.668   0.388
 4231TIP3    H112657   4.883   2.640   0.425
 4231TIP3    H212658   4.750   2.703   0.462
 4232TIP3   OH212659   3.037   1.156   0.241
 4232TIP3    H112660   3.053   1.155   0.336
 4232TIP3    H212661   3.028   1.249   0.220
 4233TIP3   OH212662   1.989   5.958   2.470
 4233TIP3    H112663   2.045   5.884   2.493
 4233TIP3    H212664   2.044   6.014   2.415
 4234TIP3   OH212665   6.938   6.747   0.558
 4234TIP3    H112666   6.996   6.750   0.483
 4234TIP3    H212667   6.858   6.790   0.529
 4235TIP3   OH212668   4.919   4.994   5.363
 4235TIP3    H112669   4.929   5.032   5.276
 4235TIP3    H212670   4.835   5.027   5.394
 4236TIP3   OH212671   1.869   4.250   0.885
 4236TIP3    H112672   1.790   4.286   0.925
 4236TIP3    H212673   1.837   4.196   0.812
 4237TIP3   OH212674   5.148   4.547   5.122
 4237TIP3    H112675   5.194   4.535   5.039
 4237TIP3    H212676   5.203   4.608   5.171
 4238TIP3   OH212677   3.661   5.705   4.120
 4238TIP3    H112678   3.679   5.716   4.213
 4238TIP3    H212679   3.636   5.613   4.111
 4239TIP3   OH212680   1.118   6.256   4.223
 4239TIP3    H112681   1.105   6.161   4.227
 4239TIP3    H212682   1.056   6.291   4.287
 4240TIP3   OH212683   5.959   4.432   2.432
 4240TIP3    H112684   6.035   4.385   2.398
 4240TIP3    H212685   5.992   4.519   2.455
 4241TIP3   OH212686   2.415   0.227   4.187
 4241TIP3    H112687   2.456   0.142   4.170
 4241TIP3    H212688   2.403   0.229   4.282
 4242TIP3   OH212689   3.091   4.221   1.947
 4242TIP3    H112690   3.144   4.172   2.010
 4242TIP3    H212691   3.021   4.161   1.923
 4243TIP3   OH212692   4.114   1.428   4.834
 4243TIP3    H112693   4.057   1.392   4.902
 4243TIP3    H212694   4.068   1.408   4.752
 4244TIP3   OH212695   1.632   5.129   0.004
 4244TIP3    H112696   1.715   5.168   0.032
 4244TIP3    H212697   1.656   5.068  -0.066
 4245TIP3   OH212698   6.467   1.754   0.921
 4245TIP3    H112699   6.523   1.686   0.960
 4245TIP3    H212700   6.405   1.777   0.991
 4246TIP3   OH212701   2.805   6.122   0.367
 4246TIP3    H112702   2.880   6.073   0.333
 4246TIP3    H212703   2.761   6.155   0.289
 4247TIP3   OH212704   6.449   4.422   5.120
 4247TIP3    H112705   6.390   4.356   5.156
 4247TIP3    H212706   6.536   4.381   5.122
 4248TIP3   OH212707   5.857   0.213   2.850
 4248TIP3    H112708   5.869   0.128   2.808
 4248TIP3    H212709   5.822   0.269   2.782
 4249TIP3   OH212710   0.980   6.484   5.236
 4249TIP3    H112711   0.952   6.530   5.157
 4249TIP3    H212712   0.931   6.525   5.307
 4250TIP3   OH212713   4.311   4.987   0.769
 4250TIP3    H112714   4.333   5.023   0.683
 4250TIP3    H212715   4.241   5.044   0.802
 4251TIP3   OH212716   1.751   2.756   4.594
 4251TIP3    H112717   1.752   2.785   4.503
 4251TIP3    H212718   1.836   2.782   4.629
 4252TIP3   OH212719   1.931   2.215   0.367
 4252TIP3    H112720   1.881   2.296   0.360
 4252TIP3    H212721   2.022   2.242   0.359
 4253TIP3   OH212722   0.497   1.648   3.406
 4253TIP3    H112723   0.433   1.717   3.390
 4253TIP3    H212724   0.556   1.652   3.330
 4254TIP3   OH212725   4.216   3.962   1.515
 4254TIP3    H112726   4.250   3.976   1.427
 4254TIP3    H212727   4.209   4.050   1.552
 4255TIP3   OH212728   3.361   6.676   4.772
 4255TIP3    H112729   3.346   6.592   4.816
 4255TIP3    H212730   3.378   6.738   4.843
 4256TIP3   OH212731   1.831   5.662   1.092
 4256TIP3    H112732   1.853   5.574   1.061
 4256TIP3    H212733   1.817   5.651   1.186
 4257TIP3   OH212734   0.999   6.084   1.237
 4257TIP3    H112735   0.938   6.018   1.204
 4257TIP3    H212736   0.967   6.105   1.325
 4258TIP3   OH212737   6.470   0.372   4.773
 4258TIP3    H112738   6.526   0.366   4.696
 4258TIP3    H212739   6.529   0.356   4.847
 4259TIP3   OH212740   2.501   2.268   0.409
 4259TIP3    H112741   2.586   2.249   0.370
 4259TIP3    H212742   2.515   2.350   0.457
 4260TIP3   OH212743   6.013   0.945   5.145
 4260TIP3    H112744   5.982   0.864   5.186
 4260TIP3    H212745   6.080   0.916   5.084
 4261TIP3   OH212746   4.880   5.601   0.397
 4261TIP3    H112747   4.918   5.671   0.345
 4261TIP3    H212748   4.872   5.637   0.485
 4262TIP3   OH212749   0.180   4.183   5.713
 4262TIP3    H112750   0.243   4.153   5.647
 4262TIP3    H212751   0.168   4.276   5.694
 4263TIP3   OH212752   5.249   5.538   2.761
 4263TIP3    H112753   5.205   5.622   2.744
 4263TIP3    H212754   5.330   5.544   2.711
 4264TIP3   OH212755   4.648   2.898   4.069
 4264TIP3    H112756   4.567   2.932   4.108
 4264TIP3    H212757   4.677   2.968   4.010
 4265TIP3   OH212758   5.662   3.823   2.303
 4265TIP3    H112759   5.740   3.845   2.253
 4265TIP3    H212760   5.618   3.907   2.317
 4266TIP3   OH212761   1.904   0.070   0.481
 4266TIP3    H112762   1.868  -0.010   0.444
 4266TIP3    H212763   1.832   0.108   0.531
 4267TIP3   OH212764   0.857   3.691   4.815
 4267TIP3    H112765   0.845   3.700   4.720
 4267TIP3    H212766   0.950   3.669   4.825
 4268TIP3   OH212767   0.902   2.285   0.841
 4268TIP3    H112768   0.887   2.219   0.909
 4268TIP3    H212769   0.867   2.366   0.878
 4269TIP3   OH212770   0.823   2.390   3.318
 4269TIP3    H112771   0.737   2.427   3.334
 4269TIP3    H212772   0.813   2.296   3.334
 4270TIP3   OH212773   4.912   2.678   2.651
 4270TIP3    H112774   4.912   2.648   2.560
 4270TIP3    H212775   4.960   2.609   2.698
 4271TIP3   OH212776   3.392   2.282   0.434
 4271TIP3    H112777   3.441   2.201   0.427
 4271TIP3    H212778   3.435   2.342   0.373
 4272TIP3   OH212779   0.654   3.895   3.863
 4272TIP3    H112780   0.627   3.813   3.823
 4272TIP3    H212781   0.576   3.928   3.907
 4273TIP3   OH212782   0.249   2.349   1.237
 4273TIP3    H112783   0.251   2.298   1.156
 4273TIP3    H212784   0.183   2.307   1.292
 4274TIP3   OH212785   0.588   3.142   4.588
 4274TIP3    H112786   0.643   3.214   4.558
 4274TIP3    H212787   0.588   3.150   4.684
 4275TIP3   OH212788   4.999   5.008   2.436
 4275TIP3    H112789   4.934   4.947   2.472
 4275TIP3    H212790   4.960   5.040   2.355
 4276TIP3   OH212791   5.576   3.516   4.865
 4276TIP3    H112792   5.529   3.584   4.817
 4276TIP3    H212793   5.588   3.445   4.802
 4277TIP3   OH212794   3.394   0.537   0.746
 4277TIP3    H112795   3.351   0.487   0.815
 4277TIP3    H212796   3.488   0.521   0.758
 4278TIP3   OH212797   5.278   2.643   5.638
 4278TIP3    H112798   5.346   2.618   5.700
 4278TIP3    H212799   5.248   2.729   5.669
 4279TIP3   OH212800   1.739   3.328   2.979
 4279TIP3    H112801   1.786   3.283   3.050
 4279TIP3    H212802   1.683   3.391   3.023
 4280TIP3   OH212803   0.287   3.889   2.701
 4280TIP3    H112804   0.355   3.824   2.718
 4280TIP3    H212805   0.205   3.841   2.709
 4281TIP3   OH212806   2.262   0.534   5.155
 4281TIP3    H112807   2.304   0.524   5.240
 4281TIP3    H212808   2.327   0.503   5.092
 4282TIP3   OH212809   3.904   1.869   3.736
 4282TIP3    H112810   3.918   1.780   3.769
 4282TIP3    H212811   3.867   1.917   3.810
 4283TIP3   OH212812   6.323   0.756   2.218
 4283TIP3    H112813   6.235   0.774   2.253
 4283TIP3    H212814   6.361   0.843   2.204
 4284TIP3   OH212815   0.779   3.363   5.335
 4284TIP3    H112816   0.795   3.385   5.427
 4284TIP3    H212817   0.838   3.422   5.286
 4285TIP3   OH212818   2.757   2.198   3.726
 4285TIP3    H112819   2.765   2.142   3.648
 4285TIP3    H212820   2.766   2.138   3.800
 4286TIP3   OH212821   4.788   2.410   0.743
 4286TIP3    H112822   4.733   2.431   0.668
 4286TIP3    H212823   4.726   2.391   0.814
 4287TIP3   OH212824   4.079   5.197   0.825
 4287TIP3    H112825   4.088   5.133   0.896
 4287TIP3    H212826   3.985   5.200   0.808
 4288TIP3   OH212827   5.927   0.937   5.494
 4288TIP3    H112828   5.932   0.848   5.530
 4288TIP3    H212829   6.005   0.945   5.440
 4289TIP3   OH212830   4.739   5.303   1.649
 4289TIP3    H112831   4.742   5.349   1.733
 4289TIP3    H212832   4.831   5.294   1.624
 4290TIP3   OH212833   2.301   4.657   5.017
 4290TIP3    H112834   2.386   4.626   4.984
 4290TIP3    H212835   2.309   4.752   5.020
 4291TIP3   OH212836   5.816   1.137   2.221
 4291TIP3    H112837   5.740   1.081   2.227
 4291TIP3    H212838   5.801   1.206   2.286
 4292TIP3   OH212839   4.493   2.865   5.531
 4292TIP3    H112840   4.481   2.833   5.442
 4292TIP3    H212841   4.418   2.923   5.546
 4293TIP3   OH212842   3.240   4.213   0.835
 4293TIP3    H112843   3.169   4.150   0.820
 4293TIP3    H212844   3.290   4.212   0.754
 4294TIP3   OH212845   4.419   2.194   3.002
 4294TIP3    H112846   4.360   2.228   2.934
 4294TIP3    H212847   4.507   2.204   2.965
 4295TIP3   OH212848   6.584   6.647   3.920
 4295TIP3    H112849   6.532   6.688   3.851
 4295TIP3    H212850   6.520   6.618   3.985
 4296TIP3   OH212851   4.766   6.799   5.305
 4296TIP3    H112852   4.745   6.892   5.301
 4296TIP3    H212853   4.741   6.772   5.394
 4297TIP3   OH212854   4.667   1.969   5.371
 4297TIP3    H112855   4.576   1.952   5.345
 4297TIP3    H212856   4.680   1.915   5.449
 4298TIP3   OH212857   3.611   4.407   1.311
 4298TIP3    H112858   3.627   4.470   1.241
 4298TIP3    H212859   3.525   4.430   1.346
 4299TIP3   OH212860   6.961   4.927   4.450
 4299TIP3    H112861   6.949   4.912   4.544
 4299TIP3    H212862   6.900   4.997   4.429
 4300TIP3   OH212863   0.023   2.894   5.402
 4300TIP3    H112864   0.082   2.820   5.412
 4300TIP3    H212865   0.070   2.954   5.344
 4301TIP3   OH212866   0.647   1.768   2.124
 4301TIP3    H112867   0.621   1.725   2.205
 4301TIP3    H212868   0.737   1.797   2.140
 4302TIP3   OH212869   0.290   6.292   2.767
 4302TIP3    H112870   0.347   6.359   2.729
 4302TIP3    H212871   0.331   6.209   2.741
 4303TIP3   OH212872   1.989   1.873   0.844
 4303TIP3    H112873   1.920   1.826   0.797
 4303TIP3    H212874   2.064   1.813   0.841
 4304TIP3   OH212875   5.430   1.019   3.993
 4304TIP3    H112876   5.347   1.032   4.038
 4304TIP3    H212877   5.483   1.094   4.020
 4305TIP3   OH212878   6.948   5.484   1.959
 4305TIP3    H112879   6.961   5.389   1.959
 4305TIP3    H212880   7.013   5.517   1.897
 4306TIP3   OH212881   4.730   0.331   1.953
 4306TIP3    H112882   4.678   0.390   1.898
 4306TIP3    H212883   4.814   0.324   1.907
 4307TIP3   OH212884   3.982   6.406   0.120
 4307TIP3    H112885   3.936   6.368   0.195
 4307TIP3    H212886   4.050   6.341   0.099
 4308TIP3   OH212887   3.253   5.643   4.037
 4308TIP3    H112888   3.211   5.729   4.037
 4308TIP3    H212889   3.339   5.658   4.077
 4309TIP3   OH212890   6.438   0.172   5.139
 4309TIP3    H112891   6.432   0.108   5.209
 4309TIP3    H212892   6.427   0.257   5.183
 4310TIP3   OH212893   6.387   3.682   4.358
 4310TIP3    H112894   6.408   3.650   4.446
 4310TIP3    H212895   6.382   3.603   4.304
 4311TIP3   OH212896   3.409   6.729   1.037
 4311TIP3    H112897   3.323   6.729   0.995
 4311TIP3    H212898   3.391   6.744   1.129
 4312TIP3   OH212899   4.167   4.196   1.153
 4312TIP3    H112900   4.073   4.193   1.169
 4312TIP3    H212901   4.177   4.260   1.082
 4313TIP3   OH212902   1.058   1.620   5.824
 4313TIP3    H112903   1.113   1.579   5.890
 4313TIP3    H212904   1.104   1.701   5.802
 4314TIP3   OH212905   3.659   6.316   0.118
 4314TIP3    H112906   3.737   6.269   0.149
 4314TIP3    H212907   3.585   6.265   0.152
 4315TIP3   OH212908   4.940   2.599   3.222
 4315TIP3    H112909   5.024   2.636   3.196
 4315TIP3    H212910   4.923   2.634   3.309
 4316TIP3   OH212911   0.567   4.713   2.614
 4316TIP3    H112912   0.547   4.787   2.557
 4316TIP3    H212913   0.536   4.740   2.700
 4317TIP3   OH212914   6.560   4.018   1.230
 4317TIP3    H112915   6.485   4.074   1.247
 4317TIP3    H212916   6.578   4.029   1.136
 4318TIP3   OH212917   6.145   3.335   4.738
 4318TIP3    H112918   6.120   3.321   4.829
 4318TIP3    H212919   6.062   3.351   4.693
 4319TIP3   OH212920   2.415   6.450   3.876
 4319TIP3    H112921   2.387   6.454   3.785
 4319TIP3    H212922   2.447   6.361   3.887
 4320TIP3   OH212923   2.757   5.973   0.899
 4320TIP3    H112924   2.803   5.918   0.836
 4320TIP3    H212925   2.685   6.012   0.849
 4321TIP3   OH212926   2.192   2.969   1.917
 4321TIP3    H112927   2.218   2.903   1.854
 4321TIP3    H212928   2.164   2.920   1.994
 4322TIP3   OH212929   3.235   2.831   0.715
 4322TIP3    H112930   3.311   2.890   0.723
 4322TIP3    H212931   3.216   2.806   0.805
 4323TIP3   OH212932   1.778   0.456   1.289
 4323TIP3    H112933   1.736   0.516   1.228
 4323TIP3    H212934   1.708   0.398   1.318
 4324TIP3   OH212935   2.586   4.465   5.737
 4324TIP3    H112936   2.677   4.485   5.717
 4324TIP3    H212937   2.590   4.422   5.823
 4325TIP3   OH212938   4.874   3.947   2.893
 4325TIP3    H112939   4.922   3.885   2.839
 4325TIP3    H212940   4.912   4.032   2.871
 4326TIP3   OH212941   0.249   1.139   2.998
 4326TIP3    H112942   0.223   1.228   3.021
 4326TIP3    H212943   0.218   1.086   3.071
 4327TIP3   OH212944   2.884   3.820   1.918
 4327TIP3    H112945   2.967   3.852   1.953
 4327TIP3    H212946   2.820   3.887   1.943
 4328TIP3   OH212947   5.755   4.845   3.808
 4328TIP3    H112948   5.785   4.759   3.838
 4328TIP3    H212949   5.831   4.884   3.767
 4329TIP3   OH212950   4.356   5.874   2.699
 4329TIP3    H112951   4.388   5.813   2.766
 4329TIP3    H212952   4.424   5.873   2.632
 4330TIP3   OH212953   6.212   5.299   2.731
 4330TIP3    H112954   6.259   5.381   2.713
 4330TIP3    H212955   6.134   5.326   2.778
 4331TIP3   OH212956   2.549   6.666   3.975
 4331TIP3    H112957   2.610   6.648   3.904
 4331TIP3    H212958   2.488   6.592   3.974
 4332TIP3   OH212959   5.066   2.304   4.384
 4332TIP3    H112960   5.075   2.238   4.452
 4332TIP3    H212961   5.058   2.255   4.302
 4333TIP3   OH212962   5.233   3.990   4.274
 4333TIP3    H112963   5.267   3.900   4.271
 4333TIP3    H212964   5.141   3.981   4.252
 4334TIP3   OH212965   1.738   5.244   4.371
 4334TIP3    H112966   1.811   5.231   4.310
 4334TIP3    H212967   1.775   5.300   4.440
 4335TIP3   OH212968   1.651   5.996   3.716
 4335TIP3    H112969   1.589   6.052   3.671
 4335TIP3    H212970   1.663   6.036   3.802
 4336TIP3   OH212971   4.749   1.619   5.401
 4336TIP3    H112972   4.768   1.528   5.421
 4336TIP3    H212973   4.825   1.649   5.350
 4337TIP3   OH212974   3.571   2.154   5.140
 4337TIP3    H112975   3.608   2.242   5.145
 4337TIP3    H212976   3.631   2.106   5.083
 4338TIP3   OH212977   3.648   0.914   0.404
 4338TIP3    H112978   3.705   0.913   0.327
 4338TIP3    H212979   3.681   0.843   0.459
 4339TIP3   OH212980   4.540   3.620   2.625
 4339TIP3    H112981   4.572   3.691   2.569
 4339TIP3    H212982   4.571   3.540   2.581
 4340TIP3   OH212983   0.154   3.991   5.314
 4340TIP3    H112984   0.226   3.928   5.323
 4340TIP3    H212985   0.188   4.056   5.253
 4341TIP3   OH212986   2.998   0.866   2.658
 4341TIP3    H112987   2.958   0.835   2.739
 4341TIP3    H212988   2.985   0.960   2.659
 4342TIP3   OH212989   6.896   4.606   2.829
 4342TIP3    H112990   6.854   4.523   2.810
 4342TIP3    H212991   6.984   4.582   2.860
 4343TIP3   OH212992   0.890   0.731   1.171
 4343TIP3    H112993   0.806   0.778   1.174
 4343TIP3    H212994   0.871   0.653   1.118
 4344TIP3   OH212995   5.424   2.942   5.583
 4344TIP3    H112996   5.456   2.853   5.594
 4344TIP3    H212997   5.328   2.934   5.587
 4345TIP3   OH212998   6.242   3.065   3.578
 4345TIP3    H112999   6.183   3.074   3.503
 4345TIP3    H213000   6.309   3.004   3.549
 4346TIP3   OH213001   2.612   1.174   3.612
 4346TIP3    H113002   2.692   1.226   3.612
 4346TIP3    H213003   2.599   1.150   3.520
 4347TIP3   OH213004   6.060   1.632   1.838
 4347TIP3    H113005   6.096   1.579   1.909
 4347TIP3    H213006   6.013   1.702   1.882
 4348TIP3   OH213007   1.115   3.560   2.231
 4348TIP3    H113008   1.170   3.530   2.159
 4348TIP3    H213009   1.045   3.495   2.237
 4349TIP3   OH213010   6.403   2.551   1.987
 4349TIP3    H113011   6.435   2.638   1.967
 4349TIP3    H213012   6.398   2.507   1.902
 4350TIP3   OH213013   6.985   6.637   2.709
 4350TIP3    H113014   7.023   6.562   2.754
 4350TIP3    H213015   7.027   6.713   2.749
 4351TIP3   OH213016   3.885   2.692   3.703
 4351TIP3    H113017   3.889   2.755   3.775
 4351TIP3    H213018   3.827   2.623   3.735
 4352TIP3   OH213019   3.695   4.545   0.259
 4352TIP3    H113020   3.741   4.472   0.300
 4352TIP3    H213021   3.722   4.543   0.167
 4353TIP3   OH213022   3.485   6.312   4.401
 4353TIP3    H113023   3.563   6.359   4.428
 4353TIP3    H213024   3.459   6.353   4.318
 4354TIP3   OH213025   3.149   5.612   1.115
 4354TIP3    H113026   3.188   5.683   1.065
 4354TIP3    H213027   3.055   5.625   1.106
 4355TIP3   OH213028   4.087   0.028   5.234
 4355TIP3    H113029   4.058  -0.036   5.300
 4355TIP3    H213030   4.013   0.035   5.173
 4356TIP3   OH213031   6.362   3.822   3.119
 4356TIP3    H113032   6.354   3.865   3.204
 4356TIP3    H213033   6.443   3.771   3.126
 4357TIP3   OH213034   6.917   5.075   0.972
 4357TIP3    H113035   6.823   5.089   0.956
 4357TIP3    H213036   6.960   5.142   0.919
 4358TIP3   OH213037   0.563   2.859   4.541
 4358TIP3    H113038   0.581   2.952   4.552
 4358TIP3    H213039   0.468   2.852   4.548
 4359TIP3   OH213040   1.038   3.366   4.787
 4359TIP3    H113041   1.113   3.402   4.833
 4359TIP3    H213042   1.049   3.395   4.697
 4360TIP3   OH213043   1.834   5.570   0.772
 4360TIP3    H113044   1.874   5.499   0.824
 4360TIP3    H213045   1.868   5.650   0.812
 4361TIP3   OH213046   2.679   2.588   0.777
 4361TIP3    H113047   2.645   2.602   0.689
 4361TIP3    H213048   2.744   2.657   0.789
 4362TIP3   OH213049   4.303   4.898   2.026
 4362TIP3    H113050   4.226   4.874   1.975
 4362TIP3    H213051   4.377   4.873   1.971
 4363TIP3   OH213052   2.446   1.042   0.725
 4363TIP3    H113053   2.412   1.056   0.637
 4363TIP3    H213054   2.370   1.049   0.782
 4364TIP3   OH213055   0.142   6.806   0.829
 4364TIP3    H113056   0.143   6.857   0.909
 4364TIP3    H213057   0.221   6.833   0.782
 4365TIP3   OH213058   0.360   5.449   4.273
 4365TIP3    H113059   0.291   5.401   4.227
 4365TIP3    H213060   0.417   5.380   4.308
 4366TIP3   OH213061   1.562   2.549   5.807
 4366TIP3    H113062   1.564   2.601   5.727
 4366TIP3    H213063   1.532   2.463   5.780
 4367TIP3   OH213064   7.048   2.879   2.373
 4367TIP3    H113065   7.001   2.943   2.426
 4367TIP3    H213066   6.994   2.800   2.378
 4368TIP3   OH213067   0.875   6.632   0.577
 4368TIP3    H113068   0.844   6.546   0.606
 4368TIP3    H213069   0.836   6.644   0.491
 4369TIP3   OH213070   1.655   5.913   0.649
 4369TIP3    H113071   1.663   5.851   0.722
 4369TIP3    H213072   1.584   5.878   0.596
 4370TIP3   OH213073   3.506   4.986   4.282
 4370TIP3    H113074   3.574   5.051   4.268
 4370TIP3    H213075   3.427   5.037   4.301
 4371TIP3   OH213076   2.719   0.072   1.704
 4371TIP3    H113077   2.807   0.093   1.735
 4371TIP3    H213078   2.697   0.144   1.644
 4372TIP3   OH213079   5.295   1.926   3.057
 4372TIP3    H113080   5.323   1.947   2.969
 4372TIP3    H213081   5.259   2.007   3.092
 4373TIP3   OH213082   1.107   0.985   3.783
 4373TIP3    H113083   1.135   1.004   3.872
 4373TIP3    H213084   1.084   1.071   3.746
 4374TIP3   OH213085   5.791   1.274   2.468
 4374TIP3    H113086   5.763   1.364   2.455
 4374TIP3    H213087   5.859   1.279   2.535
 4375TIP3   OH213088   1.038   4.523   4.102
 4375TIP3    H113089   1.088   4.479   4.033
 4375TIP3    H213090   1.071   4.613   4.101
 4376TIP3   OH213091   5.746   0.975   0.641
 4376TIP3    H113092   5.658   1.013   0.644
 4376TIP3    H213093   5.764   0.949   0.731
 4377TIP3   OH213094   1.548   4.914   3.979
 4377TIP3    H113095   1.587   4.937   4.064
 4377TIP3    H213096   1.462   4.879   4.001
 4378TIP3   OH213097   4.729   3.161   3.951
 4378TIP3    H113098   4.762   3.244   3.918
 4378TIP3    H213099   4.715   3.108   3.872
 4379TIP3   OH213100   0.320   6.177   1.758
 4379TIP3    H113101   0.343   6.252   1.702
 4379TIP3    H213102   0.224   6.178   1.759
 4380TIP3   OH213103   5.731   2.706   1.829
 4380TIP3    H113104   5.740   2.670   1.918
 4380TIP3    H213105   5.698   2.794   1.842
 4381TIP3   OH213106   4.396   2.816   4.452
 4381TIP3    H113107   4.457   2.768   4.509
 4381TIP3    H213108   4.449   2.888   4.417
 4382TIP3   OH213109   0.561   5.937   4.730
 4382TIP3    H113110   0.518   5.875   4.671
 4382TIP3    H213111   0.584   5.886   4.808
 4383TIP3   OH213112   3.573   3.540   1.774
 4383TIP3    H113113   3.626   3.508   1.701
 4383TIP3    H213114   3.570   3.635   1.760
 4384TIP3   OH213115   5.667   1.972   3.437
 4384TIP3    H113116   5.590   2.004   3.391
 4384TIP3    H213117   5.633   1.931   3.516
 4385TIP3   OH213118   2.165   3.191   5.070
 4385TIP3    H113119   2.085   3.148   5.101
 4385TIP3    H213120   2.187   3.254   5.139
 4386TIP3   OH213121   6.616   4.553   0.397
 4386TIP3    H113122   6.667   4.605   0.335
 4386TIP3    H213123   6.624   4.599   0.480
 4387TIP3   OH213124   1.194   4.846   2.996
 4387TIP3    H113125   1.139   4.768   3.001
 4387TIP3    H213126   1.135   4.915   2.965
 4388TIP3   OH213127   5.487   4.369   3.856
 4388TIP3    H113128   5.434   4.347   3.779
 4388TIP3    H213129   5.547   4.295   3.865
 4389TIP3   OH213130   2.226   5.943   5.516
 4389TIP3    H113131   2.239   5.953   5.611
 4389TIP3    H213132   2.147   5.993   5.497
 4390TIP3   OH213133   5.127   3.924   1.049
 4390TIP3    H113134   5.110   3.896   1.139
 4390TIP3    H213135   5.048   3.901   1.001
 4391TIP3   OH213136   3.961   5.882   4.623
 4391TIP3    H113137   3.883   5.899   4.677
 4391TIP3    H213138   3.939   5.804   4.573
 4392TIP3   OH213139   0.030   6.006   0.420
 4392TIP3    H113140   0.119   6.000   0.456
 4392TIP3    H213141   0.043   6.031   0.329
 4393TIP3   OH213142   5.755   5.708   1.543
 4393TIP3    H113143   5.695   5.637   1.566
 4393TIP3    H213144   5.710   5.755   1.473
 4394TIP3   OH213145   5.760   3.750   5.694
 4394TIP3    H113146   5.849   3.762   5.663
 4394TIP3    H213147   5.748   3.817   5.762
 4395TIP3   OH213148   0.093   4.339   3.012
 4395TIP3    H113149   0.153   4.352   3.085
 4395TIP3    H213150   0.088   4.244   3.002
 4396TIP3   OH213151   1.065   4.519   1.986
 4396TIP3    H113152   1.048   4.565   2.068
 4396TIP3    H213153   0.993   4.546   1.928
 4397TIP3   OH213154   2.965   4.781   1.364
 4397TIP3    H113155   3.043   4.808   1.412
 4397TIP3    H213156   2.924   4.715   1.421
 4398TIP3   OH213157   6.468   1.251   0.298
 4398TIP3    H113158   6.426   1.336   0.286
 4398TIP3    H213159   6.555   1.273   0.333
 4399TIP3   OH213160   6.441   1.480   2.643
 4399TIP3    H113161   6.463   1.444   2.728
 4399TIP3    H213162   6.506   1.443   2.583
 4400TIP3   OH213163   3.022   2.658   4.063
 4400TIP3    H113164   2.996   2.683   3.975
 4400TIP3    H213165   3.030   2.741   4.110
 4401TIP3   OH213166   5.379   5.024   3.224
 4401TIP3    H113167   5.332   5.087   3.278
 4401TIP3    H213168   5.398   4.951   3.283
 4402TIP3   OH213169   2.048   6.203   2.624
 4402TIP3    H113170   2.050   6.253   2.705
 4402TIP3    H213171   2.025   6.114   2.650
 4403TIP3   OH213172   1.670   4.350   4.557
 4403TIP3    H113173   1.721   4.275   4.587
 4403TIP3    H213174   1.593   4.312   4.515
 4404TIP3   OH213175   5.385   0.468   5.149
 4404TIP3    H113176   5.466   0.424   5.123
 4404TIP3    H213177   5.338   0.402   5.201
 4405TIP3   OH213178   4.712   6.608   5.574
 4405TIP3    H113179   4.662   6.546   5.520
 4405TIP3    H213180   4.801   6.574   5.572
 4406TIP3   OH213181   6.743   6.635   1.081
 4406TIP3    H113182   6.773   6.638   0.990
 4406TIP3    H213183   6.791   6.562   1.120
 4407TIP3   OH213184   7.036   1.642   2.533
 4407TIP3    H113185   7.042   1.649   2.437
 4407TIP3    H213186   7.127   1.641   2.562
 4408TIP3   OH213187   4.898   5.126   4.295
 4408TIP3    H113188   4.887   5.077   4.376
 4408TIP3    H213189   4.992   5.119   4.276
 4409TIP3   OH213190   6.461   5.090   4.760
 4409TIP3    H113191   6.480   5.002   4.793
 4409TIP3    H213192   6.541   5.139   4.776
 4410TIP3   OH213193   0.497   1.774   4.009
 4410TIP3    H113194   0.432   1.774   3.939
 4410TIP3    H213195   0.520   1.682   4.021
 4411TIP3   OH213196   3.439   1.813   1.150
 4411TIP3    H113197   3.459   1.892   1.200
 4411TIP3    H213198   3.348   1.824   1.122
 4412TIP3   OH213199   0.936   4.632   4.822
 4412TIP3    H113200   0.885   4.577   4.763
 4412TIP3    H213201   1.027   4.618   4.795
 4413TIP3   OH213202   3.639   5.557   2.885
 4413TIP3    H113203   3.682   5.643   2.885
 4413TIP3    H213204   3.566   5.568   2.824
 4414TIP3   OH213205   7.112   4.327   1.387
 4414TIP3    H113206   7.181   4.314   1.452
 4414TIP3    H213207   7.050   4.385   1.430
 4415TIP3   OH213208   3.789   3.818   3.707
 4415TIP3    H113209   3.790   3.893   3.766
 4415TIP3    H213210   3.744   3.850   3.629
 4416TIP3   OH213211   2.652   6.528   1.017
 4416TIP3    H113212   2.699   6.572   1.087
 4416TIP3    H213213   2.594   6.594   0.980
 4417TIP3   OH213214   6.190   2.375   2.800
 4417TIP3    H113215   6.096   2.381   2.816
 4417TIP3    H213216   6.216   2.292   2.841
 4418TIP3   OH213217   1.442   5.714   3.682
 4418TIP3    H113218   1.424   5.798   3.639
 4418TIP3    H213219   1.357   5.674   3.695
 4419TIP3   OH213220   1.638   6.323   3.772
 4419TIP3    H113221   1.619   6.417   3.762
 4419TIP3    H213222   1.553   6.280   3.766
 4420TIP3   OH213223   3.272   5.293   1.456
 4420TIP3    H113224   3.186   5.279   1.415
 4420TIP3    H213225   3.285   5.215   1.510
 4421TIP3   OH213226   0.631   3.602   4.144
 4421TIP3    H113227   0.710   3.622   4.093
 4421TIP3    H213228   0.592   3.688   4.162
 4422TIP3   OH213229   3.464   2.738   1.576
 4422TIP3    H113230   3.403   2.752   1.503
 4422TIP3    H213231   3.548   2.717   1.533
 4423TIP3   OH213232   6.748   4.804   3.405
 4423TIP3    H113233   6.792   4.725   3.372
 4423TIP3    H213234   6.729   4.785   3.496
 4424TIP3   OH213235   4.930   1.052   0.675
 4424TIP3    H113236   4.847   1.022   0.639
 4424TIP3    H213237   4.993   1.038   0.604
 4425TIP3   OH213238   2.975   2.176   2.583
 4425TIP3    H113239   2.913   2.239   2.546
 4425TIP3    H213240   3.042   2.230   2.624
 4426TIP3   OH213241   0.051   2.648   2.350
 4426TIP3    H113242   0.117   2.595   2.396
 4426TIP3    H213243   0.043   2.606   2.264
 4427TIP3   OH213244   2.386   4.155   1.556
 4427TIP3    H113245   2.352   4.244   1.550
 4427TIP3    H213246   2.474   4.160   1.519
 4428TIP3   OH213247   3.713   6.388   1.923
 4428TIP3    H113248   3.653   6.331   1.874
 4428TIP3    H213249   3.688   6.476   1.898
 4429TIP3   OH213250   2.651   2.720   4.589
 4429TIP3    H113251   2.578   2.777   4.564
 4429TIP3    H213252   2.652   2.652   4.522
 4430TIP3   OH213253   6.875   1.785   3.707
 4430TIP3    H113254   6.855   1.719   3.641
 4430TIP3    H213255   6.792   1.833   3.719
 4431TIP3   OH213256   4.336   6.518   5.129
 4431TIP3    H113257   4.319   6.430   5.163
 4431TIP3    H213258   4.321   6.511   5.035
 4432TIP3   OH213259   1.719   2.120   2.819
 4432TIP3    H113260   1.780   2.113   2.893
 4432TIP3    H213261   1.717   2.032   2.781
 4433TIP3   OH213262   1.975   6.063   5.590
 4433TIP3    H113263   1.950   6.155   5.593
 4433TIP3    H213264   1.958   6.031   5.679
 4434TIP3   OH213265   0.153   2.295   4.287
 4434TIP3    H113266   0.095   2.306   4.211
 4434TIP3    H213267   0.114   2.223   4.337
 4435TIP3   OH213268   0.602   5.503   3.013
 4435TIP3    H113269   0.567   5.430   2.962
 4435TIP3    H213270   0.543   5.509   3.088
 4436TIP3   OH213271   4.341   0.711   2.417
 4436TIP3    H113272   4.292   0.644   2.465
 4436TIP3    H213273   4.407   0.662   2.368
 4437TIP3   OH213274   3.692   1.493   5.270
 4437TIP3    H113275   3.602   1.495   5.238
 4437TIP3    H213276   3.695   1.562   5.337
 4438TIP3   OH213277   3.772   5.960   2.517
 4438TIP3    H113278   3.694   6.016   2.517
 4438TIP3    H213279   3.826   5.995   2.447
 4439TIP3   OH213280   0.722   2.874   1.638
 4439TIP3    H113281   0.795   2.821   1.606
 4439TIP3    H213282   0.704   2.840   1.726
 4440TIP3   OH213283   4.549   4.754   5.725
 4440TIP3    H113284   4.546   4.849   5.717
 4440TIP3    H213285   4.637   4.729   5.696
 4441TIP3   OH213286   5.444   6.317   0.422
 4441TIP3    H113287   5.484   6.322   0.336
 4441TIP3    H213288   5.508   6.269   0.475
 4442TIP3   OH213289   0.655   0.215   3.345
 4442TIP3    H113290   0.650   0.138   3.289
 4442TIP3    H213291   0.726   0.196   3.407
 4443TIP3   OH213292   7.047   0.315   1.727
 4443TIP3    H113293   7.060   0.280   1.815
 4443TIP3    H213294   7.112   0.385   1.719
 4444TIP3   OH213295   6.376   3.941   4.389
 4444TIP3    H113296   6.379   3.846   4.382
 4444TIP3    H213297   6.359   3.971   4.300
 4445TIP3   OH213298   4.685   0.068   2.433
 4445TIP3    H113299   4.757   0.087   2.493
 4445TIP3    H213300   4.661   0.152   2.396
 4446TIP3   OH213301   5.700   4.560   1.879
 4446TIP3    H113302   5.757   4.542   1.954
 4446TIP3    H213303   5.752   4.618   1.823
 4447TIP3   OH213304   0.422   2.028   2.959
 4447TIP3    H113305   0.351   2.029   2.895
 4447TIP3    H213306   0.502   2.020   2.906
 4448TIP3   OH213307   1.958   3.869   2.661
 4448TIP3    H113308   1.879   3.835   2.619
 4448TIP3    H213309   1.945   3.963   2.665
 4449TIP3   OH213310   6.068   1.906   3.712
 4449TIP3    H113311   6.023   1.853   3.646
 4449TIP3    H213312   6.039   1.869   3.795
 4450TIP3   OH213313   1.276   6.562   3.058
 4450TIP3    H113314   1.312   6.559   3.147
 4450TIP3    H213315   1.196   6.509   3.063
 4451TIP3   OH213316   5.099   1.733   3.077
 4451TIP3    H113317   5.166   1.801   3.083
 4451TIP3    H213318   5.039   1.763   3.009
 4452TIP3   OH213319   0.043   2.139   1.208
 4452TIP3    H113320   0.098   2.159   1.132
 4452TIP3    H213321   0.086   2.064   1.250
 4453TIP3   OH213322   0.164   5.943   5.349
 4453TIP3    H113323   0.202   5.979   5.429
 4453TIP3    H213324   0.070   5.944   5.365
 4454TIP3   OH213325   5.181   1.726   4.092
 4454TIP3    H113326   5.107   1.723   4.152
 4454TIP3    H213327   5.142   1.717   4.005
 4455TIP3   OH213328   0.833   5.914   3.410
 4455TIP3    H113329   0.894   5.917   3.484
 4455TIP3    H213330   0.811   5.821   3.401
 4456TIP3   OH213331   2.162   1.516   0.519
 4456TIP3    H113332   2.068   1.530   0.530
 4456TIP3    H213333   2.191   1.485   0.605
 4457TIP3   OH213334   5.600   6.050   2.608
 4457TIP3    H113335   5.641   6.072   2.692
 4457TIP3    H213336   5.506   6.061   2.624
 4458TIP3   OH213337   6.846   2.657   2.466
 4458TIP3    H113338   6.802   2.704   2.537
 4458TIP3    H213339   6.774   2.612   2.421
 4459TIP3   OH213340   5.447   0.420   0.322
 4459TIP3    H113341   5.448   0.435   0.227
 4459TIP3    H213342   5.385   0.484   0.356
 4460TIP3   OH213343   4.356   0.986   0.678
 4460TIP3    H113344   4.441   0.963   0.641
 4460TIP3    H213345   4.353   1.082   0.674
 4461TIP3   OH213346   4.046   5.378   5.336
 4461TIP3    H113347   4.134   5.363   5.371
 4461TIP3    H213348   3.988   5.330   5.394
 4462TIP3   OH213349   2.197   1.592   2.126
 4462TIP3    H113350   2.239   1.588   2.212
 4462TIP3    H213351   2.223   1.510   2.083
 4463TIP3   OH213352   0.160   4.663   0.582
 4463TIP3    H113353   0.248   4.633   0.560
 4463TIP3    H213354   0.172   4.754   0.609
 4464TIP3   OH213355   5.334   1.914   3.571
 4464TIP3    H113356   5.345   2.009   3.574
 4464TIP3    H213357   5.240   1.900   3.588
 4465TIP3   OH213358   2.019   5.920   2.775
 4465TIP3    H113359   1.945   5.885   2.824
 4465TIP3    H213360   1.995   5.907   2.683
 4466TIP3   OH213361   1.614   6.311   4.610
 4466TIP3    H113362   1.542   6.307   4.548
 4466TIP3    H213363   1.581   6.266   4.688
 4467TIP3   OH213364   1.490   1.076   3.014
 4467TIP3    H113365   1.487   0.985   3.043
 4467TIP3    H213366   1.398   1.100   3.003
 4468TIP3   OH213367   3.256   5.386   2.684
 4468TIP3    H113368   3.242   5.294   2.661
 4468TIP3    H213369   3.347   5.403   2.660
 4469TIP3   OH213370   3.635   1.269   4.712
 4469TIP3    H113371   3.691   1.192   4.722
 4469TIP3    H213372   3.561   1.238   4.661
 4470TIP3   OH213373   1.874   2.812   5.623
 4470TIP3    H113374   1.798   2.808   5.682
 4470TIP3    H213375   1.862   2.737   5.564
 4471TIP3   OH213376   1.316   2.912   3.554
 4471TIP3    H113377   1.278   2.853   3.489
 4471TIP3    H213378   1.403   2.877   3.571
 4472TIP3   OH213379   6.811   1.612   1.368
 4472TIP3    H113380   6.759   1.623   1.448
 4472TIP3    H213381   6.764   1.545   1.318
 4473TIP3   OH213382   5.029   0.820   0.394
 4473TIP3    H113383   5.101   0.867   0.352
 4473TIP3    H213384   4.953   0.839   0.340
 4474TIP3   OH213385   0.567   0.178   4.651
 4474TIP3    H113386   0.508   0.113   4.613
 4474TIP3    H213387   0.598   0.229   4.576
 4475TIP3   OH213388   0.312   4.491   2.903
 4475TIP3    H113389   0.313   4.578   2.943
 4475TIP3    H213390   0.240   4.446   2.946
 4476TIP3   OH213391   4.216   5.762   0.934
 4476TIP3    H113392   4.249   5.683   0.892
 4476TIP3    H213393   4.280   5.829   0.913
 4477TIP3   OH213394   3.917   6.603   5.221
 4477TIP3    H113395   3.893   6.511   5.212
 4477TIP3    H213396   3.834   6.650   5.219
 4478TIP3   OH213397   5.014   4.725   4.466
 4478TIP3    H113398   5.042   4.698   4.554
 4478TIP3    H213399   5.056   4.663   4.407
 4479TIP3   OH213400   5.708   4.947   4.787
 4479TIP3    H113401   5.688   4.861   4.824
 4479TIP3    H213402   5.747   4.996   4.859
 4480TIP3   OH213403   5.300   2.138   4.896
 4480TIP3    H113404   5.293   2.227   4.863
 4480TIP3    H213405   5.211   2.118   4.927
 4481TIP3   OH213406   1.447   6.303   1.359
 4481TIP3    H113407   1.390   6.266   1.426
 4481TIP3    H213408   1.399   6.292   1.277
 4482TIP3   OH213409   6.828   1.899   0.423
 4482TIP3    H113410   6.853   1.911   0.514
 4482TIP3    H213411   6.733   1.885   0.426
 4483TIP3   OH213412   6.569   2.210   4.392
 4483TIP3    H113413   6.487   2.256   4.407
 4483TIP3    H213414   6.618   2.221   4.473
 4484TIP3   OH213415   7.062   3.720   2.202
 4484TIP3    H113416   6.979   3.709   2.156
 4484TIP3    H213417   7.082   3.813   2.193
 4485TIP3   OH213418   3.951   2.074   5.503
 4485TIP3    H113419   4.042   2.044   5.497
 4485TIP3    H213420   3.915   2.025   5.578
 4486TIP3   OH213421   2.817   1.951   1.986
 4486TIP3    H113422   2.775   1.996   2.058
 4486TIP3    H213423   2.752   1.888   1.955
 4487TIP3   OH213424   2.487   0.501   2.615
 4487TIP3    H113425   2.496   0.589   2.579
 4487TIP3    H213426   2.422   0.458   2.559
 4488TIP3   OH213427   3.369   5.968   0.682
 4488TIP3    H113428   3.290   6.008   0.644
 4488TIP3    H213429   3.378   5.885   0.636
 4489TIP3   OH213430   2.969   3.819   0.401
 4489TIP3    H113431   2.949   3.900   0.355
 4489TIP3    H213432   3.006   3.762   0.333
 4490TIP3   OH213433   6.870   1.625   2.739
 4490TIP3    H113434   6.900   1.681   2.810
 4490TIP3    H213435   6.922   1.652   2.663
 4491TIP3   OH213436   2.594   4.373   3.467
 4491TIP3    H113437   2.573   4.345   3.556
 4491TIP3    H213438   2.606   4.468   3.473
 4492TIP3   OH213439   4.631   0.174   3.440
 4492TIP3    H113440   4.650   0.121   3.363
 4492TIP3    H213441   4.712   0.170   3.491
 4493TIP3   OH213442   3.300   2.737   3.413
 4493TIP3    H113443   3.338   2.805   3.469
 4493TIP3    H213444   3.374   2.683   3.386
 4494TIP3   OH213445   2.965   3.751   4.903
 4494TIP3    H113446   2.916   3.746   4.984
 4494TIP3    H213447   3.049   3.710   4.923
 4495TIP3   OH213448   6.489   0.005   4.091
 4495TIP3    H113449   6.542  -0.006   4.011
 4495TIP3    H213450   6.401   0.024   4.059
 4496TIP3   OH213451   3.658   6.746   2.476
 4496TIP3    H113452   3.590   6.728   2.411
 4496TIP3    H213453   3.674   6.840   2.469
 4497TIP3   OH213454   5.583   4.103   5.570
 4497TIP3    H113455   5.490   4.092   5.552
 4497TIP3    H213456   5.595   4.066   5.657
 4498TIP3   OH213457   3.484   5.468   5.681
 4498TIP3    H113458   3.404   5.455   5.733
 4498TIP3    H213459   3.500   5.562   5.687
 4499TIP3   OH213460   3.508   2.052   0.456
 4499TIP3    H113461   3.438   1.988   0.471
 4499TIP3    H213462   3.579   2.024   0.513
 4500TIP3   OH213463   0.972   5.344   5.469
 4500TIP3    H113464   1.005   5.320   5.555
 4500TIP3    H213465   0.993   5.437   5.460
 4501TIP3   OH213466   3.959   5.100   2.755
 4501TIP3    H113467   3.880   5.097   2.809
 4501TIP3    H213468   4.028   5.126   2.815
 4502TIP3   OH213469   4.015   3.741   2.899
 4502TIP3    H113470   3.994   3.834   2.882
 4502TIP3    H213471   4.073   3.743   2.974
 4503TIP3   OH213472   0.249   2.347   0.756
 4503TIP3    H113473   0.327   2.396   0.783
 4503TIP3    H213474   0.282   2.283   0.693
 4504TIP3   OH213475   0.034   6.306   2.621
 4504TIP3    H113476  -0.019   6.226   2.621
 4504TIP3    H213477   0.119   6.279   2.653
 4505TIP3   OH213478   3.630   3.745   4.619
 4505TIP3    H113479   3.709   3.730   4.671
 4505TIP3    H213480   3.654   3.718   4.530
 4506TIP3   OH213481   4.790   3.611   1.177
 4506TIP3    H113482   4.702   3.598   1.214
 4506TIP3    H213483   4.775   3.663   1.098
 4507TIP3   OH213484   5.972   0.071   3.345
 4507TIP3    H113485   5.889   0.090   3.302
 4507TIP3    H213486   5.961   0.100   3.435
 4508TIP3   OH213487   6.763   2.331   2.176
 4508TIP3    H113488   6.746   2.425   2.185
 4508TIP3    H213489   6.795   2.304   2.262
 4509TIP3   OH213490   2.708   6.536   0.346
 4509TIP3    H113491   2.643   6.578   0.402
 4509TIP3    H213492   2.689   6.568   0.258
 4510TIP3   OH213493   1.126   1.690   1.457
 4510TIP3    H113494   1.047   1.657   1.414
 4510TIP3    H213495   1.195   1.628   1.429
 4511TIP3   OH213496   4.287   2.547   2.763
 4511TIP3    H113497   4.350   2.611   2.797
 4511TIP3    H213498   4.204   2.569   2.806
 4512TIP3   OH213499   2.038   3.464   1.569
 4512TIP3    H113500   2.030   3.491   1.478
 4512TIP3    H213501   2.126   3.492   1.595
 4513TIP3   OH213502   4.192   6.098   0.895
 4513TIP3    H113503   4.161   6.143   0.974
 4513TIP3    H213504   4.285   6.086   0.910
 4514TIP3   OH213505   6.907   5.322   1.699
 4514TIP3    H113506   7.003   5.315   1.706
 4514TIP3    H213507   6.876   5.235   1.724
 4515TIP3   OH213508   4.131   6.200   3.652
 4515TIP3    H113509   4.039   6.181   3.670
 4515TIP3    H213510   4.177   6.170   3.731
 4516TIP3   OH213511   2.170   3.012   0.615
 4516TIP3    H113512   2.164   3.062   0.534
 4516TIP3    H213513   2.079   2.988   0.634
 4517TIP3   OH213514   2.769   6.436   3.882
 4517TIP3    H113515   2.715   6.362   3.908
 4517TIP3    H213516   2.849   6.426   3.933
 4518TIP3   OH213517   2.472   1.865   3.120
 4518TIP3    H113518   2.377   1.858   3.135
 4518TIP3    H213519   2.490   1.959   3.123
 4519TIP3   OH213520   3.038   5.566   5.468
 4519TIP3    H113521   3.051   5.598   5.557
 4519TIP3    H213522   3.103   5.614   5.415
 4520TIP3   OH213523   3.362   5.726   0.575
 4520TIP3    H113524   3.275   5.705   0.606
 4520TIP3    H213525   3.367   5.686   0.488
 4521TIP3   OH213526   0.999   3.319   2.249
 4521TIP3    H113527   0.921   3.295   2.200
 4521TIP3    H213528   1.032   3.237   2.283
 4522TIP3   OH213529   5.943   0.701   5.273
 4522TIP3    H113530   6.001   0.645   5.222
 4522TIP3    H213531   5.855   0.678   5.244
 4523TIP3   OH213532   1.205   3.365   3.996
 4523TIP3    H113533   1.279   3.318   4.033
 4523TIP3    H213534   1.132   3.346   4.054
 4524TIP3   OH213535   5.983   4.218   5.230
 4524TIP3    H113536   5.971   4.136   5.182
 4524TIP3    H213537   6.045   4.196   5.299
 4525TIP3   OH213538   2.163   5.546   2.084
 4525TIP3    H113539   2.132   5.469   2.132
 4525TIP3    H213540   2.216   5.594   2.148
 4526TIP3   OH213541   1.240   4.168   0.254
 4526TIP3    H113542   1.322   4.120   0.269
 4526TIP3    H213543   1.253   4.214   0.171
 4527TIP3   OH213544   3.524   6.708   4.340
 4527TIP3    H113545   3.617   6.695   4.323
 4527TIP3    H213546   3.521   6.775   4.408
 4528TIP3   OH213547   6.041   0.252   2.452
 4528TIP3    H113548   6.044   0.201   2.370
 4528TIP3    H213549   6.006   0.337   2.425
 4529TIP3   OH213550   2.903   5.507   4.431
 4529TIP3    H113551   2.852   5.531   4.353
 4529TIP3    H213552   2.931   5.417   4.414
 4530TIP3   OH213553   1.070   0.300   4.145
 4530TIP3    H113554   1.060   0.215   4.101
 4530TIP3    H213555   0.992   0.349   4.121
 4531TIP3   OH213556   0.478   0.995   5.852
 4531TIP3    H113557   0.476   1.090   5.865
 4531TIP3    H213558   0.571   0.973   5.848
 4532TIP3   OH213559   2.928   1.784   1.363
 4532TIP3    H113560   3.015   1.824   1.369
 4532TIP3    H213561   2.867   1.858   1.364
 4533TIP3   OH213562   0.099   6.240   1.595
 4533TIP3    H113563   0.022   6.193   1.628
 4533TIP3    H213564   0.065   6.326   1.571
 4534TIP3   OH213565   1.679   3.132   4.027
 4534TIP3    H113566   1.684   3.114   4.121
 4534TIP3    H213567   1.586   3.149   4.011
 4535TIP3   OH213568   6.370   4.083   2.883
 4535TIP3    H113569   6.313   4.006   2.884
 4535TIP3    H213570   6.362   4.119   2.971
 4536TIP3   OH213571   1.772   1.269   1.568
 4536TIP3    H113572   1.841   1.239   1.509
 4536TIP3    H213573   1.717   1.192   1.581
 4537TIP3   OH213574   0.996   5.027   0.142
 4537TIP3    H113575   1.066   5.055   0.201
 4537TIP3    H213576   1.039   5.020   0.056
 4538TIP3   OH213577   5.302   3.430   3.171
 4538TIP3    H113578   5.326   3.373   3.098
 4538TIP3    H213579   5.261   3.506   3.129
 4539TIP3   OH213580   6.120   5.280   3.111
 4539TIP3    H113581   6.137   5.198   3.157
 4539TIP3    H213582   6.205   5.322   3.103
 4540TIP3   OH213583   4.352   1.095   4.170
 4540TIP3    H113584   4.279   1.042   4.203
 4540TIP3    H213585   4.375   1.055   4.086
 4541TIP3   OH213586   5.391   4.657   5.828
 4541TIP3    H113587   5.352   4.591   5.771
 4541TIP3    H213588   5.324   4.673   5.895
 4542TIP3   OH213589   5.755   4.657   1.217
 4542TIP3    H113590   5.770   4.646   1.123
 4542TIP3    H213591   5.835   4.699   1.249
 4543TIP3   OH213592   1.627   2.026   1.516
 4543TIP3    H113593   1.580   2.045   1.597
 4543TIP3    H213594   1.709   1.986   1.545
 4544TIP3   OH213595   2.615   1.387   1.370
 4544TIP3    H113596   2.521   1.395   1.385
 4544TIP3    H213597   2.651   1.473   1.393
 4545TIP3   OH213598   2.274   0.109   0.743
 4545TIP3    H113599   2.337   0.038   0.757
 4545TIP3    H213600   2.228   0.084   0.662
 4546TIP3   OH213601   4.906   4.783   0.679
 4546TIP3    H113602   4.982   4.833   0.709
 4546TIP3    H213603   4.839   4.849   0.663
 4547TIP3   OH213604   3.475   2.071   0.793
 4547TIP3    H113605   3.418   1.999   0.820
 4547TIP3    H213606   3.561   2.048   0.827
 4548TIP3   OH213607   1.728   0.745   3.396
 4548TIP3    H113608   1.737   0.772   3.487
 4548TIP3    H213609   1.687   0.659   3.400
 4549TIP3   OH213610   6.966   1.755   4.866
 4549TIP3    H113611   6.980   1.745   4.960
 4549TIP3    H213612   6.871   1.766   4.858
 4550TIP3   OH213613   4.772   4.799   1.083
 4550TIP3    H113614   4.843   4.859   1.104
 4550TIP3    H213615   4.705   4.854   1.043
 4551TIP3   OH213616   5.486   5.784   2.322
 4551TIP3    H113617   5.567   5.745   2.289
 4551TIP3    H213618   5.438   5.809   2.243
 4552TIP3   OH213619   1.473   0.702   1.715
 4552TIP3    H113620   1.551   0.726   1.765
 4552TIP3    H213621   1.402   0.750   1.757
 4553TIP3   OH213622   6.573   1.312   2.821
 4553TIP3    H113623   6.565   1.291   2.914
 4553TIP3    H213624   6.647   1.260   2.790
 4554TIP3   OH213625   1.265   1.984   4.985
 4554TIP3    H113626   1.199   2.010   4.921
 4554TIP3    H213627   1.336   1.947   4.933
 4555TIP3   OH213628   6.564   1.970   0.066
 4555TIP3    H113629   6.494   1.933   0.012
 4555TIP3    H213630   6.641   1.917   0.045
 4556TIP3   OH213631   5.641   4.284   0.753
 4556TIP3    H113632   5.612   4.193   0.757
 4556TIP3    H213633   5.603   4.325   0.830
 4557TIP3   OH213634   2.925   0.034   4.241
 4557TIP3    H113635   2.857   0.062   4.302
 4557TIP3    H213636   2.931  -0.060   4.252
 4558TIP3   OH213637   0.504   5.140   3.265
 4558TIP3    H113638   0.448   5.218   3.266
 4558TIP3    H213639   0.444   5.067   3.254
 4559TIP3   OH213640   1.059   0.915   2.640
 4559TIP3    H113641   1.073   1.009   2.653
 4559TIP3    H213642   0.971   0.899   2.675
 4560TIP3   OH213643   2.190   1.741   4.172
 4560TIP3    H113644   2.188   1.646   4.157
 4560TIP3    H213645   2.266   1.771   4.122
 4561TIP3   OH213646   7.150   4.755   1.290
 4561TIP3    H113647   7.186   4.720   1.372
 4561TIP3    H213648   7.064   4.712   1.281
 4562TIP3   OH213649   4.259   1.715   2.713
 4562TIP3    H113650   4.169   1.745   2.709
 4562TIP3    H213651   4.280   1.692   2.622
 4563TIP3   OH213652   1.098   5.412   2.213
 4563TIP3    H113653   1.182   5.451   2.192
 4563TIP3    H213654   1.100   5.325   2.172
 4564TIP3   OH213655   0.448   6.493   2.614
 4564TIP3    H113656   0.439   6.499   2.519
 4564TIP3    H213657   0.534   6.455   2.628
 4565TIP3   OH213658   4.466   4.802   3.266
 4565TIP3    H113659   4.459   4.751   3.185
 4565TIP3    H213660   4.557   4.792   3.293
 4566TIP3   OH213661   7.033   0.259   5.233
 4566TIP3    H113662   7.065   0.261   5.143
 4566TIP3    H213663   6.938   0.247   5.225
 4567TIP3   OH213664   4.009   6.355   5.804
 4567TIP3    H113665   4.037   6.272   5.842
 4567TIP3    H213666   4.001   6.415   5.878
 4568TIP3   OH213667   4.567   6.701   0.514
 4568TIP3    H113668   4.597   6.657   0.593
 4568TIP3    H213669   4.484   6.742   0.539
 4569TIP3   OH213670   6.795   2.528   5.532
 4569TIP3    H113671   6.791   2.595   5.601
 4569TIP3    H213672   6.888   2.518   5.513
 4570TIP3   OH213673   3.728   3.650   4.366
 4570TIP3    H113674   3.688   3.595   4.299
 4570TIP3    H213675   3.769   3.721   4.317
 4571TIP3   OH213676   0.225   0.282   1.325
 4571TIP3    H113677   0.223   0.361   1.378
 4571TIP3    H213678   0.170   0.220   1.372
 4572TIP3   OH213679   6.737   2.982   1.404
 4572TIP3    H113680   6.790   2.994   1.482
 4572TIP3    H213681   6.791   3.016   1.333
 4573TIP3   OH213682   6.972   0.204   1.312
 4573TIP3    H113683   6.981   0.163   1.398
 4573TIP3    H213684   6.887   0.174   1.280
 4574TIP3   OH213685   3.717   5.851   4.765
 4574TIP3    H113686   3.749   5.812   4.846
 4574TIP3    H213687   3.704   5.777   4.706
 4575TIP3   OH213688   3.421   4.522   5.261
 4575TIP3    H113689   3.460   4.444   5.301
 4575TIP3    H213690   3.488   4.552   5.199
 4576TIP3   OH213691   7.038   1.931   2.316
 4576TIP3    H113692   6.945   1.911   2.321
 4576TIP3    H213693   7.043   2.026   2.310
 4577TIP3   OH213694   3.248   2.408   0.015
 4577TIP3    H113695   3.173   2.462   0.041
 4577TIP3    H213696   3.248   2.336   0.079
 4578TIP3   OH213697   5.406   5.850   2.067
 4578TIP3    H113698   5.353   5.929   2.056
 4578TIP3    H213699   5.494   5.876   2.041
 4579TIP3   OH213700   3.035   6.509   4.706
 4579TIP3    H113701   2.980   6.438   4.738
 4579TIP3    H213702   3.115   6.467   4.675
 4580TIP3   OH213703   6.058   2.614   2.894
 4580TIP3    H113704   6.131   2.559   2.866
 4580TIP3    H213705   6.033   2.578   2.980
 4581TIP3   OH213706   1.339   1.191   1.947
 4581TIP3    H113707   1.430   1.203   1.920
 4581TIP3    H213708   1.292   1.264   1.906
 4582TIP3   OH213709   6.044   5.470  -0.011
 4582TIP3    H113710   6.000   5.410   0.050
 4582TIP3    H213711   6.110   5.514   0.042
 4583TIP3   OH213712   5.413   5.594   0.139
 4583TIP3    H113713   5.494   5.614   0.092
 4583TIP3    H213714   5.437   5.527   0.202
 4584TIP3   OH213715   4.515   2.961   2.020
 4584TIP3    H113716   4.495   2.910   1.941
 4584TIP3    H213717   4.524   3.051   1.989
 4585TIP3   OH213718   1.256   1.384   0.714
 4585TIP3    H113719   1.320   1.429   0.658
 4585TIP3    H213720   1.295   1.299   0.733
 4586TIP3   OH213721   1.756   1.993   3.250
 4586TIP3    H113722   1.714   2.069   3.211
 4586TIP3    H213723   1.832   1.977   3.195
 4587TIP3   OH213724   5.315   3.730   1.428
 4587TIP3    H113725   5.373   3.719   1.503
 4587TIP3    H213726   5.373   3.720   1.352
 4588TIP3   OH213727   4.907   3.731   5.183
 4588TIP3    H113728   4.938   3.805   5.130
 4588TIP3    H213729   4.816   3.753   5.203
 4589TIP3   OH213730   1.651   2.684   2.659
 4589TIP3    H113731   1.601   2.607   2.632
 4589TIP3    H213732   1.589   2.735   2.711
 4590TIP3   OH213733   2.896   0.808   5.148
 4590TIP3    H113734   2.805   0.778   5.145
 4590TIP3    H213735   2.926   0.785   5.236
 4591TIP3   OH213736   3.761   0.855   0.719
 4591TIP3    H113737   3.781   0.845   0.812
 4591TIP3    H213738   3.666   0.847   0.714
 4592TIP3   OH213739   2.383   6.760   2.900
 4592TIP3    H113740   2.394   6.666   2.883
 4592TIP3    H213741   2.467   6.798   2.875
 4593TIP3   OH213742   6.511   2.335   4.100
 4593TIP3    H113743   6.474   2.424   4.097
 4593TIP3    H213744   6.450   2.283   4.047
 4594TIP3   OH213745   1.249   6.643   4.769
 4594TIP3    H113746   1.286   6.723   4.805
 4594TIP3    H213747   1.265   6.648   4.675
 4595TIP3   OH213748   1.382   1.828   4.207
 4595TIP3    H113749   1.418   1.825   4.118
 4595TIP3    H213750   1.453   1.861   4.261
 4596TIP3   OH213751   0.754   0.316   4.889
 4596TIP3    H113752   0.831   0.298   4.835
 4596TIP3    H213753   0.760   0.254   4.962
 4597TIP3   OH213754   3.526   2.651   4.597
 4597TIP3    H113755   3.494   2.737   4.624
 4597TIP3    H213756   3.560   2.612   4.678
 4598TIP3   OH213757   2.095   3.367   5.824
 4598TIP3    H113758   2.004   3.396   5.822
 4598TIP3    H213759   2.091   3.274   5.849
 4599TIP3   OH213760   5.059   2.356   0.712
 4599TIP3    H113761   4.964   2.373   0.710
 4599TIP3    H213762   5.066   2.261   0.707
 4600TIP3   OH213763   2.936   4.041   5.389
 4600TIP3    H113764   2.975   3.999   5.466
 4600TIP3    H213765   2.843   4.049   5.411
 4601TIP3   OH213766   2.708   6.445   5.814
 4601TIP3    H113767   2.635   6.387   5.833
 4601TIP3    H213768   2.763   6.441   5.892
 4602TIP3   OH213769   1.842   1.430   1.987
 4602TIP3    H113770   1.827   1.523   1.968
 4602TIP3    H213771   1.932   1.415   1.958
 4603TIP3   OH213772   1.412   3.056   2.056
 4603TIP3    H113773   1.405   3.072   2.150
 4603TIP3    H213774   1.505   3.063   2.038
 4604TIP3   OH213775   3.335   4.109   5.551
 4604TIP3    H113776   3.332   4.091   5.645
 4604TIP3    H213777   3.423   4.084   5.524
 4605TIP3   OH213778   5.267   6.096   0.467
 4605TIP3    H113779   5.274   6.074   0.560
 4605TIP3    H213780   5.329   6.169   0.455
 4606TIP3   OH213781   6.066   1.727   2.958
 4606TIP3    H113782   6.035   1.816   2.980
 4606TIP3    H213783   6.125   1.740   2.885
 4607TIP3   OH213784   5.692   0.348   2.398
 4607TIP3    H113785   5.693   0.442   2.418
 4607TIP3    H213786   5.632   0.341   2.324
 4608TIP3   OH213787   5.242   3.342   4.807
 4608TIP3    H113788   5.249   3.367   4.900
 4608TIP3    H213789   5.326   3.300   4.788
 4609TIP3   OH213790   6.521   3.165   5.389
 4609TIP3    H113791   6.589   3.115   5.345
 4609TIP3    H213792   6.546   3.162   5.482
 4610TIP3   OH213793   3.348   3.140   4.832
 4610TIP3    H113794   3.415   3.074   4.816
 4610TIP3    H213795   3.393   3.210   4.879
 4611TIP3   OH213796   4.511   3.168   3.627
 4611TIP3    H113797   4.585   3.116   3.658
 4611TIP3    H213798   4.529   3.182   3.534
 4612TIP3   OH213799   0.344   1.519   4.245
 4612TIP3    H113800   0.320   1.455   4.178
 4612TIP3    H213801   0.437   1.536   4.230
 4613TIP3   OH213802   3.515   4.859   0.347
 4613TIP3    H113803   3.582   4.797   0.376
 4613TIP3    H213804   3.565   4.930   0.306
 4614TIP3   OH213805   0.014   0.519   5.029
 4614TIP3    H113806  -0.046   0.445   5.030
 4614TIP3    H213807   0.100   0.480   5.018
 4615TIP3   OH213808   5.250   0.300   4.258
 4615TIP3    H113809   5.312   0.328   4.190
 4615TIP3    H213810   5.229   0.381   4.305
 4616TIP3   OH213811   4.980   2.940   3.061
 4616TIP3    H113812   5.035   2.891   3.121
 4616TIP3    H213813   4.904   2.884   3.046
 4617TIP3   OH213814   0.735   6.243   3.811
 4617TIP3    H113815   0.681   6.171   3.779
 4617TIP3    H213816   0.781   6.207   3.887
 4618TIP3   OH213817   2.771   3.079   0.061
 4618TIP3    H113818   2.739   2.989   0.052
 4618TIP3    H213819   2.812   3.099  -0.023
 4619TIP3   OH213820   6.745   4.403   2.710
 4619TIP3    H113821   6.669   4.354   2.740
 4619TIP3    H213822   6.732   4.414   2.616
 4620TIP3   OH213823   0.836   3.325   3.614
 4620TIP3    H113824   0.782   3.303   3.690
 4620TIP3    H213825   0.880   3.242   3.592
 4621TIP3   OH213826   0.054   6.139   0.685
 4621TIP3    H113827  -0.005   6.176   0.751
 4621TIP3    H213828   0.004   6.142   0.604
 4622TIP3   OH213829   2.997   6.267   3.079
 4622TIP3    H113830   3.006   6.333   3.010
 4622TIP3    H213831   3.032   6.310   3.157
 4623TIP3   OH213832   0.058   5.209   4.535
 4623TIP3    H113833   0.054   5.165   4.620
 4623TIP3    H213834   0.037   5.300   4.554
 4624TIP3   OH213835   5.530   1.714   5.541
 4624TIP3    H113836   5.610   1.668   5.514
 4624TIP3    H213837   5.554   1.806   5.541
 4625TIP3   OH213838   0.623   4.036   0.284
 4625TIP3    H113839   0.696   4.064   0.339
 4625TIP3    H213840   0.623   3.940   0.293
 4626TIP3   OH213841   0.520   6.355   1.639
 4626TIP3    H113842   0.614   6.335   1.642
 4626TIP3    H213843   0.492   6.354   1.730
 4627TIP3   OH213844   0.542   6.555   4.243
 4627TIP3    H113845   0.458   6.575   4.201
 4627TIP3    H213846   0.518   6.505   4.322
 4628TIP3   OH213847   3.010   5.714   0.245
 4628TIP3    H113848   2.955   5.662   0.303
 4628TIP3    H213849   3.061   5.649   0.197
 4629TIP3   OH213850   2.444   0.534   3.180
 4629TIP3    H113851   2.371   0.571   3.130
 4629TIP3    H213852   2.506   0.606   3.190
 4630TIP3   OH213853   0.959   4.962   1.504
 4630TIP3    H113854   1.027   4.896   1.490
 4630TIP3    H213855   0.908   4.928   1.578
 4631TIP3   OH213856   6.387   1.393   2.280
 4631TIP3    H113857   6.412   1.351   2.198
 4631TIP3    H213858   6.467   1.396   2.332
 4632TIP3   OH213859   4.387   2.177   5.120
 4632TIP3    H113860   4.426   2.262   5.141
 4632TIP3    H213861   4.455   2.132   5.070
 4633TIP3   OH213862   2.031   1.535   3.539
 4633TIP3    H113863   1.997   1.465   3.594
 4633TIP3    H213864   2.043   1.609   3.598
 4634TIP3   OH213865   1.729   3.299   1.903
 4634TIP3    H113866   1.680   3.297   1.820
 4634TIP3    H213867   1.818   3.323   1.878
 4635TIP3   OH213868   5.756   2.446   4.420
 4635TIP3    H113869   5.691   2.441   4.490
 4635TIP3    H213870   5.712   2.405   4.344
 4636TIP3   OH213871   1.965   1.601   5.327
 4636TIP3    H113872   1.947   1.611   5.233
 4636TIP3    H213873   2.050   1.643   5.339
 4637TIP3   OH213874   7.123   2.957   3.305
 4637TIP3    H113875   7.065   3.025   3.270
 4637TIP3    H213876   7.189   2.944   3.236
 4638TIP3   OH213877   0.484   3.098   5.169
 4638TIP3    H113878   0.536   3.049   5.105
 4638TIP3    H213879   0.512   3.189   5.157
 4639TIP3   OH213880   0.895   1.321   0.242
 4639TIP3    H113881   0.915   1.345   0.152
 4639TIP3    H213882   0.863   1.402   0.282
 4640TIP3   OH213883   6.031   4.600   1.770
 4640TIP3    H113884   6.022   4.692   1.747
 4640TIP3    H213885   6.100   4.599   1.836
 4641TIP3   OH213886   1.869   2.359   3.978
 4641TIP3    H113887   1.878   2.440   4.028
 4641TIP3    H213888   1.924   2.372   3.901
 4642TIP3   OH213889   4.039   0.602   5.426
 4642TIP3    H113890   4.057   0.667   5.359
 4642TIP3    H213891   4.113   0.542   5.422
 4643TIP3   OH213892   3.467   0.608   4.388
 4643TIP3    H113893   3.417   0.688   4.375
 4643TIP3    H213894   3.532   0.630   4.455
 4644TIP3   OH213895   1.986   4.827   5.461
 4644TIP3    H113896   1.996   4.911   5.504
 4644TIP3    H213897   2.020   4.763   5.524
 4645TIP3   OH213898   2.145   6.675   4.074
 4645TIP3    H113899   2.226   6.673   4.124
 4645TIP3    H213900   2.118   6.583   4.069
 4646TIP3   OH213901   0.998   1.805   1.690
 4646TIP3    H113902   1.032   1.751   1.619
 4646TIP3    H213903   1.075   1.822   1.745
 4647TIP3   OH213904   2.086   0.937   0.988
 4647TIP3    H113905   2.060   0.987   1.065
 4647TIP3    H213906   2.157   0.988   0.948
 4648TIP3   OH213907   0.893   3.769   3.575
 4648TIP3    H113908   0.808   3.784   3.615
 4648TIP3    H213909   0.938   3.853   3.584
 4649TIP3   OH213910   7.216   1.290   3.913
 4649TIP3    H113911   7.164   1.338   3.978
 4649TIP3    H213912   7.230   1.204   3.953
 4650TIP3   OH213913   1.789   0.544   4.987
 4650TIP3    H113914   1.753   0.557   5.075
 4650TIP3    H213915   1.736   0.600   4.931
 4651TIP3   OH213916   5.275   4.574   3.275
 4651TIP3    H113917   5.314   4.656   3.306
 4651TIP3    H213918   5.184   4.595   3.256
 4652TIP3   OH213919   3.209   3.849   1.412
 4652TIP3    H113920   3.124   3.828   1.450
 4652TIP3    H213921   3.211   3.945   1.410
 4653TIP3   OH213922   0.805   5.170   4.391
 4653TIP3    H113923   0.831   5.229   4.462
 4653TIP3    H213924   0.844   5.208   4.312
 4654TIP3   OH213925   5.379   4.259   0.574
 4654TIP3    H113926   5.453   4.316   0.551
 4654TIP3    H213927   5.329   4.310   0.638
 4655TIP3   OH213928   1.771   5.005   3.281
 4655TIP3    H113929   1.679   4.977   3.279
 4655TIP3    H213930   1.785   5.046   3.196
 4656TIP3   OH213931   1.941   3.639   0.117
 4656TIP3    H113932   1.998   3.660   0.190
 4656TIP3    H213933   1.942   3.543   0.112
 4657TIP3   OH213934   2.262   5.780   3.985
 4657TIP3    H113935   2.352   5.800   4.009
 4657TIP3    H213936   2.269   5.724   3.908
 4658TIP3   OH213937   4.732   1.855   0.677
 4658TIP3    H113938   4.771   1.942   0.666
 4658TIP3    H213939   4.648   1.872   0.719
 4659TIP3   OH213940   0.758   4.918   0.110
 4659TIP3    H113941   0.716   4.928   0.025
 4659TIP3    H213942   0.824   4.987   0.113
 4660TIP3   OH213943   5.918   1.306   4.844
 4660TIP3    H113944   5.996   1.314   4.789
 4660TIP3    H213945   5.851   1.268   4.787
 4661TIP3   OH213946   4.584   6.467   2.932
 4661TIP3    H113947   4.555   6.550   2.894
 4661TIP3    H213948   4.503   6.427   2.965
 4662TIP3   OH213949   4.929   5.729   2.409
 4662TIP3    H113950   4.938   5.684   2.493
 4662TIP3    H213951   4.951   5.662   2.344
 4663TIP3   OH213952   1.656   3.825   5.498
 4663TIP3    H113953   1.654   3.729   5.498
 4663TIP3    H213954   1.636   3.849   5.589
 4664TIP3   OH213955   1.442   2.228   5.788
 4664TIP3    H113956   1.445   2.231   5.883
 4664TIP3    H213957   1.354   2.197   5.767
 4665TIP3   OH213958   4.730   4.950   2.809
 4665TIP3    H113959   4.722   4.949   2.714
 4665TIP3    H213960   4.794   5.018   2.828
 4666TIP3   OH213961   0.034   6.571   2.087
 4666TIP3    H113962  -0.058   6.567   2.060
 4666TIP3    H213963   0.036   6.527   2.172
 4667TIP3   OH213964   1.622   6.490   1.230
 4667TIP3    H113965   1.542   6.461   1.274
 4667TIP3    H213966   1.652   6.413   1.182
 4668TIP3   OH213967   7.093   0.775   5.394
 4668TIP3    H113968   7.128   0.688   5.375
 4668TIP3    H213969   7.148   0.835   5.343
 4669TIP3   OH213970   0.301   6.378   5.477
 4669TIP3    H113971   0.308   6.421   5.392
 4669TIP3    H213972   0.362   6.425   5.533
 4670TIP3   OH213973   5.474   1.445   3.607
 4670TIP3    H113974   5.524   1.481   3.680
 4670TIP3    H213975   5.492   1.505   3.534
 4671TIP3   OH213976   6.697   0.111   5.406
 4671TIP3    H113977   6.650   0.053   5.346
 4671TIP3    H213978   6.714   0.057   5.483
 4672TIP3   OH213979   1.585   4.022   0.949
 4672TIP3    H113980   1.513   4.073   0.912
 4672TIP3    H213981   1.642   4.088   0.990
 4673TIP3   OH213982   7.065   4.447   3.675
 4673TIP3    H113983   7.146   4.404   3.699
 4673TIP3    H213984   7.087   4.499   3.598
 4674TIP3   OH213985   6.147   1.619   3.910
 4674TIP3    H113986   6.162   1.528   3.887
 4674TIP3    H213987   6.233   1.654   3.930
 4675TIP3   OH213988   3.663   6.266   1.555
 4675TIP3    H113989   3.597   6.236   1.616
 4675TIP3    H213990   3.714   6.187   1.534
 4676TIP3   OH213991   0.646   0.598   5.299
 4676TIP3    H113992   0.683   0.678   5.336
 4676TIP3    H213993   0.698   0.527   5.338
 4677TIP3   OH213994   4.855   1.071   3.012
 4677TIP3    H113995   4.818   1.150   3.050
 4677TIP3    H213996   4.910   1.102   2.940
 4678TIP3   OH213997   4.461   0.818   1.300
 4678TIP3    H113998   4.412   0.894   1.332
 4678TIP3    H213999   4.551   0.851   1.290
 4679TIP3   OH214000   3.315   0.877   0.033
 4679TIP3    H114001   3.356   0.912   0.112
 4679TIP3    H214002   3.275   0.952  -0.010
 4680TIP3   OH214003   6.967   2.588   2.882
 4680TIP3    H114004   6.985   2.673   2.842
 4680TIP3    H214005   7.043   2.572   2.939
 4681TIP3   OH214006   3.669   6.094   5.204
 4681TIP3    H114007   3.586   6.047   5.215
 4681TIP3    H214008   3.730   6.049   5.264
 4682TIP3   OH214009   6.702   3.206   4.647
 4682TIP3    H114010   6.713   3.216   4.552
 4682TIP3    H214011   6.651   3.282   4.673
 4683TIP3   OH214012   3.976   0.200  -0.010
 4683TIP3    H114013   4.052   0.246  -0.046
 4683TIP3    H214014   3.995   0.194   0.084
 4684TIP3   OH214015   7.007   1.858   4.507
 4684TIP3    H114016   6.925   1.851   4.556
 4684TIP3    H214017   6.984   1.904   4.427
 4685TIP3   OH214018   3.819   5.822   5.799
 4685TIP3    H114019   3.901   5.773   5.796
 4685TIP3    H214020   3.795   5.823   5.892
 4686TIP3   OH214021   4.550   3.863   3.612
 4686TIP3    H114022   4.592   3.909   3.539
 4686TIP3    H214023   4.619   3.852   3.676
 4687TIP3   OH214024   4.717   4.258   4.415
 4687TIP3    H114025   4.710   4.189   4.349
 4687TIP3    H214026   4.763   4.216   4.488
 4688TIP3   OH214027   5.616   1.289   0.501
 4688TIP3    H114028   5.671   1.263   0.575
 4688TIP3    H214029   5.541   1.331   0.542
 4689TIP3   OH214030   0.673   3.912   2.913
 4689TIP3    H114031   0.663   3.869   2.828
 4689TIP3    H214032   0.631   3.853   2.975
 4690TIP3   OH214033   1.602   2.237   5.544
 4690TIP3    H114034   1.674   2.272   5.596
 4690TIP3    H214035   1.549   2.187   5.606
 4691TIP3   OH214036   6.935   5.170   2.202
 4691TIP3    H114037   6.958   5.094   2.148
 4691TIP3    H214038   7.018   5.215   2.217
 4692TIP3   OH214039   6.816   2.925   1.741
 4692TIP3    H114040   6.891   2.887   1.788
 4692TIP3    H214041   6.851   3.006   1.704
 4693TIP3   OH214042   3.125   1.796   5.249
 4693TIP3    H114043   3.077   1.834   5.322
 4693TIP3    H214044   3.101   1.703   5.250
 4694TIP3   OH214045   4.784   2.483   1.846
 4694TIP3    H114046   4.853   2.435   1.890
 4694TIP3    H214047   4.828   2.523   1.770
 4695TIP3   OH214048   2.310   5.639   2.296
 4695TIP3    H114049   2.272   5.679   2.374
 4695TIP3    H214050   2.298   5.545   2.309
 4696TIP3   OH214051   1.153   2.634   0.770
 4696TIP3    H114052   1.153   2.554   0.822
 4696TIP3    H214053   1.161   2.603   0.679
 4697TIP3   OH214054   1.849   5.275   5.177
 4697TIP3    H114055   1.794   5.314   5.109
 4697TIP3    H214056   1.921   5.234   5.129
 4698TIP3   OH214057   6.360   5.355   4.723
 4698TIP3    H114058   6.391   5.266   4.738
 4698TIP3    H214059   6.383   5.403   4.803
 4699TIP3   OH214060   1.539   1.081   4.564
 4699TIP3    H114061   1.534   1.140   4.489
 4699TIP3    H214062   1.570   1.137   4.636
 4700TIP3   OH214063   2.386   4.812   0.715
 4700TIP3    H114064   2.457   4.750   0.701
 4700TIP3    H214065   2.308   4.768   0.681
 4701TIP3   OH214066   7.144   3.595   5.107
 4701TIP3    H114067   7.055   3.567   5.086
 4701TIP3    H214068   7.160   3.561   5.195
 4702TIP3   OH214069   0.563   1.183   4.984
 4702TIP3    H114070   0.639   1.124   4.992
 4702TIP3    H214071   0.494   1.140   5.035
 4703TIP3   OH214072   3.214   0.478   2.066
 4703TIP3    H114073   3.219   0.568   2.033
 4703TIP3    H214074   3.241   0.484   2.157
 4704TIP3   OH214075   3.811   5.216   0.203
 4704TIP3    H114076   3.839   5.200   0.294
 4704TIP3    H214077   3.795   5.310   0.199
 4705TIP3   OH214078   6.747   5.708   4.974
 4705TIP3    H114079   6.736   5.803   4.982
 4705TIP3    H214080   6.690   5.683   4.902
 4706TIP3   OH214081   0.074   3.410   0.090
 4706TIP3    H114082   0.138   3.372   0.030
 4706TIP3    H214083   0.073   3.351   0.165
 4707TIP3   OH214084   2.939   1.271   1.855
 4707TIP3    H114085   2.883   1.195   1.838
 4707TIP3    H214086   2.969   1.259   1.945
 4708TIP3   OH214087   3.539   3.745   4.998
 4708TIP3    H114088   3.503   3.803   5.066
 4708TIP3    H214089   3.464   3.693   4.969
 4709TIP3   OH214090   6.070   1.071   4.666
 4709TIP3    H114091   6.091   0.985   4.630
 4709TIP3    H214092   6.103   1.133   4.600
 4710TIP3   OH214093   2.488   4.214   0.802
 4710TIP3    H114094   2.488   4.242   0.711
 4710TIP3    H214095   2.419   4.148   0.807
 4711TIP3   OH214096   0.204   2.450   2.492
 4711TIP3    H114097   0.272   2.421   2.553
 4711TIP3    H214098   0.155   2.370   2.471
 4712TIP3   OH214099   1.755   6.688   3.605
 4712TIP3    H114100   1.740   6.600   3.570
 4712TIP3    H214101   1.675   6.736   3.585
 4713TIP3   OH214102   1.499   5.606   1.819
 4713TIP3    H114103   1.578   5.658   1.811
 4713TIP3    H214104   1.527   5.516   1.802
 4714TIP3   OH214105   2.143   2.237   4.827
 4714TIP3    H114106   2.213   2.177   4.801
 4714TIP3    H214107   2.085   2.241   4.752
 4715TIP3   OH214108   5.687   0.626   2.379
 4715TIP3    H114109   5.602   0.668   2.366
 4715TIP3    H214110   5.736   0.685   2.436
 4716TIP3   OH214111   5.216   0.830   5.787
 4716TIP3    H114112   5.297   0.878   5.804
 4716TIP3    H214113   5.240   0.738   5.793
 4717TIP3   OH214114   4.176   5.601   5.243
 4717TIP3    H114115   4.123   5.527   5.274
 4717TIP3    H214116   4.124   5.639   5.172
 4718TIP3   OH214117   1.795   6.419   2.578
 4718TIP3    H114118   1.819   6.387   2.492
 4718TIP3    H214119   1.832   6.356   2.639
 4719TIP3   OH214120   1.889   5.669   2.315
 4719TIP3    H114121   1.920   5.663   2.405
 4719TIP3    H214122   1.922   5.753   2.284
 4720TIP3   OH214123   1.790   1.745   1.904
 4720TIP3    H114124   1.796   1.710   1.815
 4720TIP3    H214125   1.877   1.779   1.922
 4721TIP3   OH214126   2.402   5.732   3.500
 4721TIP3    H114127   2.439   5.800   3.444
 4721TIP3    H214128   2.382   5.660   3.441
 4722TIP3   OH214129   3.758   0.561   1.429
 4722TIP3    H114130   3.812   0.492   1.391
 4722TIP3    H214131   3.670   0.523   1.433
 4723TIP3   OH214132   0.436   3.065   0.394
 4723TIP3    H114133   0.424   3.063   0.300
 4723TIP3    H214134   0.529   3.085   0.407
 4724TIP3   OH214135   4.249   2.698   5.156
 4724TIP3    H114136   4.261   2.736   5.069
 4724TIP3    H214137   4.223   2.608   5.139
 4725TIP3   OH214138   4.188   4.276   2.350
 4725TIP3    H114139   4.182   4.341   2.419
 4725TIP3    H214140   4.260   4.219   2.376
 4726TIP3   OH214141   7.054   2.570   5.852
 4726TIP3    H114142   7.097   2.631   5.793
 4726TIP3    H214143   7.099   2.581   5.936
 4727TIP3   OH214144   2.968   6.814   3.664
 4727TIP3    H114145   3.027   6.848   3.598
 4727TIP3    H214146   3.000   6.726   3.683
 4728TIP3   OH214147   5.070   6.564   4.471
 4728TIP3    H114148   5.037   6.474   4.477
 4728TIP3    H214149   5.154   6.555   4.426
 4729TIP3   OH214150   2.861   6.634   2.585
 4729TIP3    H114151   2.862   6.633   2.489
 4729TIP3    H214152   2.780   6.680   2.607
 4730TIP3   OH214153   5.063   5.387   2.015
 4730TIP3    H114154   5.077   5.297   1.988
 4730TIP3    H214155   5.134   5.436   1.974
 4731TIP3   OH214156   5.930   3.522   0.641
 4731TIP3    H114157   5.958   3.548   0.554
 4731TIP3    H214158   5.900   3.431   0.631
 4732TIP3   OH214159   2.573   1.104   3.250
 4732TIP3    H114160   2.618   1.188   3.239
 4732TIP3    H214161   2.643   1.039   3.257
 4733TIP3   OH214162   6.556   5.325   4.175
 4733TIP3    H114163   6.484   5.264   4.190
 4733TIP3    H214164   6.635   5.275   4.194
 4734TIP3   OH214165   5.328   5.508   1.411
 4734TIP3    H114166   5.248   5.549   1.443
 4734TIP3    H214167   5.329   5.527   1.317
 4735TIP3   OH214168   6.470   2.574   0.985
 4735TIP3    H114169   6.459   2.561   1.079
 4735TIP3    H214170   6.424   2.656   0.967
 4736TIP3   OH214171   0.889   0.687   3.787
 4736TIP3    H114172   0.880   0.782   3.780
 4736TIP3    H214173   0.980   0.670   3.765
 4737TIP3   OH214174   1.197   3.768   4.745
 4737TIP3    H114175   1.279   3.734   4.710
 4737TIP3    H214176   1.180   3.847   4.693
 4738TIP3   OH214177   6.594   1.758   0.436
 4738TIP3    H114178   6.556   1.701   0.503
 4738TIP3    H214179   6.533   1.752   0.362
 4739TIP3   OH214180   5.086   5.740   2.659
 4739TIP3    H114181   5.049   5.814   2.708
 4739TIP3    H214182   5.019   5.671   2.666
 4740TIP3   OH214183   1.661   6.459   1.982
 4740TIP3    H114184   1.623   6.371   1.984
 4740TIP3    H214185   1.734   6.451   1.920
 4741TIP3   OH214186   4.270   6.528   1.446
 4741TIP3    H114187   4.262   6.619   1.476
 4741TIP3    H214188   4.183   6.506   1.414
 4742TIP3   OH214189   5.392   3.188   5.922
 4742TIP3    H114190   5.307   3.194   5.879
 4742TIP3    H214191   5.456   3.204   5.852
 4743TIP3   OH214192   7.100   1.934   3.737
 4743TIP3    H114193   7.159   1.864   3.709
 4743TIP3    H214194   7.014   1.907   3.703
 4744TIP3   OH214195   6.409   0.798   3.032
 4744TIP3    H114196   6.479   0.746   3.072
 4744TIP3    H214197   6.398   0.872   3.092
 4745TIP3   OH214198   3.878   4.366   2.815
 4745TIP3    H114199   3.854   4.458   2.803
 4745TIP3    H214200   3.958   4.368   2.867
 4746TIP3   OH214201   6.420   2.341   3.550
 4746TIP3    H114202   6.367   2.273   3.592
 4746TIP3    H214203   6.486   2.364   3.615
 4747TIP3   OH214204   6.686   2.620   5.011
 4747TIP3    H114205   6.674   2.670   5.092
 4747TIP3    H214206   6.708   2.686   4.945
 4748TIP3   OH214207   0.312   6.716   3.013
 4748TIP3    H114208   0.301   6.642   3.073
 4748TIP3    H214209   0.246   6.779   3.041
 4749TIP3   OH214210   5.568   3.664   0.899
 4749TIP3    H114211   5.632   3.682   0.830
 4749TIP3    H214212   5.524   3.747   0.914
 4750TIP3   OH214213   6.576   0.927   1.549
 4750TIP3    H114214   6.617   0.852   1.592
 4750TIP3    H214215   6.647   0.964   1.496
 4751TIP3   OH214216   5.562   1.702   5.192
 4751TIP3    H114217   5.473   1.677   5.219
 4751TIP3    H214218   5.579   1.785   5.237
 4752TIP3   OH214219   3.271   4.041   0.479
 4752TIP3    H114220   3.231   3.965   0.521
 4752TIP3    H214221   3.361   4.013   0.459
 4753TIP3   OH214222   6.569   6.208   5.026
 4753TIP3    H114223   6.594   6.246   4.942
 4753TIP3    H214224   6.644   6.225   5.083
 4754TIP3   OH214225   3.105   0.536   3.535
 4754TIP3    H114226   3.179   0.487   3.570
 4754TIP3    H214227   3.144   0.614   3.496
 4755TIP3   OH214228   3.212   4.895   0.072
 4755TIP3    H114229   3.182   4.924  -0.014
 4755TIP3    H214230   3.197   4.800   0.073
 4756TIP3   OH214231   1.939   6.339   2.854
 4756TIP3    H114232   1.934   6.320   2.947
 4756TIP3    H214233   1.991   6.419   2.848
 4757TIP3   OH214234   0.181   5.793   1.570
 4757TIP3    H114235   0.159   5.877   1.611
 4757TIP3    H214236   0.272   5.803   1.542
 4758TIP3   OH214237   1.354   3.133   1.602
 4758TIP3    H114238   1.405   3.139   1.522
 4758TIP3    H214239   1.343   3.039   1.617
 4759TIP3   OH214240   3.429   2.061   2.021
 4759TIP3    H114241   3.432   2.099   1.933
 4759TIP3    H214242   3.485   1.984   2.016
 4760TIP3   OH214243   1.478   0.756   5.346
 4760TIP3    H114244   1.420   0.768   5.270
 4760TIP3    H214245   1.462   0.832   5.401
 4761TIP3   OH214246   5.635   0.330   5.651
 4761TIP3    H114247   5.720   0.340   5.694
 4761TIP3    H214248   5.584   0.277   5.712
 4762TIP3   OH214249   6.135   2.645   2.624
 4762TIP3    H114250   6.219   2.602   2.607
 4762TIP3    H214251   6.158   2.723   2.674
 4763TIP3   OH214252   6.082   4.268   0.253
 4763TIP3    H114253   6.173   4.293   0.265
 4763TIP3    H214254   6.080   4.175   0.278
 4764TIP3   OH214255   4.683   5.281   2.769
 4764TIP3    H114256   4.644   5.368   2.775
 4764TIP3    H214257   4.689   5.263   2.675
 4765TIP3   OH214258   6.760   0.226   5.169
 4765TIP3    H114259   6.732   0.156   5.111
 4765TIP3    H214260   6.725   0.201   5.255
 4766TIP3   OH214261   4.476   5.084   0.320
 4766TIP3    H114262   4.392   5.042   0.302
 4766TIP3    H214263   4.539   5.012   0.320
 4767TIP3   OH214264   2.491   3.496   0.836
 4767TIP3    H114265   2.471   3.588   0.815
 4767TIP3    H214266   2.585   3.488   0.819
 4768TIP3   OH214267   6.273   0.192   1.905
 4768TIP3    H114268   6.274   0.274   1.855
 4768TIP3    H214269   6.364   0.163   1.906
 4769TIP3   OH214270   6.558   5.745   4.419
 4769TIP3    H114271   6.612   5.738   4.498
 4769TIP3    H214272   6.620   5.739   4.346
 4770TIP3   OH214273   2.881   1.672   0.742
 4770TIP3    H114274   2.802   1.688   0.793
 4770TIP3    H214275   2.893   1.578   0.744
 4771TIP3   OH214276   5.768   2.768   4.592
 4771TIP3    H114277   5.774   2.828   4.518
 4771TIP3    H214278   5.675   2.746   4.597
 4772TIP3   OH214279   2.442   4.826   4.080
 4772TIP3    H114280   2.443   4.884   4.004
 4772TIP3    H214281   2.480   4.744   4.047
 4773TIP3   OH214282   1.891   0.920   0.107
 4773TIP3    H114283   1.818   0.933   0.168
 4773TIP3    H214284   1.936   0.842   0.141
 4774TIP3   OH214285   5.320   3.532   1.143
 4774TIP3    H114286   5.233   3.559   1.113
 4774TIP3    H214287   5.359   3.613   1.177
 4775TIP3   OH214288   0.499   1.742   0.902
 4775TIP3    H114289   0.526   1.760   0.812
 4775TIP3    H214290   0.555   1.670   0.930
 4776TIP3   OH214291   7.065   2.238   1.631
 4776TIP3    H114292   7.063   2.197   1.545
 4776TIP3    H214293   7.131   2.189   1.680
 4777TIP3   OH214294   2.541   3.159   3.339
 4777TIP3    H114295   2.459   3.118   3.313
 4777TIP3    H214296   2.540   3.156   3.435
 4778TIP3   OH214297   5.269   0.275   0.595
 4778TIP3    H114298   5.350   0.231   0.566
 4778TIP3    H214299   5.258   0.247   0.686
 4779TIP3   OH214300   0.184   5.854   2.640
 4779TIP3    H114301   0.236   5.934   2.650
 4779TIP3    H214302   0.133   5.869   2.561
 4780TIP3   OH214303   1.080  -0.024   5.149
 4780TIP3    H114304   1.085   0.072   5.155
 4780TIP3    H214305   1.166  -0.050   5.118
 4781TIP3   OH214306   3.689   6.784   1.405
 4781TIP3    H114307   3.718   6.790   1.314
 4781TIP3    H214308   3.770   6.774   1.455
 4782TIP3   OH214309   1.718   0.786   3.989
 4782TIP3    H114310   1.679   0.870   3.967
 4782TIP3    H214311   1.692   0.728   3.917
 4783TIP3   OH214312   6.242   3.723   2.405
 4783TIP3    H114313   6.270   3.632   2.392
 4783TIP3    H214314   6.146   3.719   2.402
 4784TIP3   OH214315   0.069   4.441   1.152
 4784TIP3    H114316   0.076   4.372   1.218
 4784TIP3    H214317  -0.011   4.488   1.176
 4785TIP3   OH214318   3.976   6.226   1.041
 4785TIP3    H114319   3.917   6.270   0.979
 4785TIP3    H214320   3.919   6.201   1.114
 4786TIP3   OH214321   2.728   6.360   0.789
 4786TIP3    H114322   2.697   6.410   0.865
 4786TIP3    H214323   2.814   6.396   0.769
 4787TIP3   OH214324   2.634   6.714   5.739
 4787TIP3    H114325   2.670   6.626   5.752
 4787TIP3    H214326   2.580   6.705   5.660
 4788TIP3   OH214327   0.097   3.756   0.725
 4788TIP3    H114328   0.096   3.834   0.670
 4788TIP3    H214329   0.005   3.738   0.742
 4789TIP3   OH214330   1.476   6.570   3.704
 4789TIP3    H114331   1.494   6.535   3.616
 4789TIP3    H214332   1.416   6.643   3.689
 4790TIP3   OH214333   4.955   1.927   5.623
 4790TIP3    H114334   5.032   1.973   5.589
 4790TIP3    H214335   4.923   1.984   5.694
 4791TIP3   OH214336   5.235   1.170   5.017
 4791TIP3    H114337   5.325   1.164   5.049
 4791TIP3    H214338   5.242   1.158   4.922
 4792TIP3   OH214339   5.742   1.352   2.999
 4792TIP3    H114340   5.833   1.378   3.012
 4792TIP3    H214341   5.694   1.434   2.992
 4793TIP3   OH214342   5.824   1.720   2.314
 4793TIP3    H114343   5.770   1.781   2.263
 4793TIP3    H214344   5.896   1.696   2.256
 4794TIP3   OH214345   2.696   5.963   2.587
 4794TIP3    H114346   2.713   6.056   2.606
 4794TIP3    H214347   2.709   5.919   2.670
 4795TIP3   OH214348   3.069   4.745   5.593
 4795TIP3    H114349   3.119   4.795   5.659
 4795TIP3    H214350   3.113   4.765   5.510
 4796TIP3   OH214351   4.969   0.382   1.373
 4796TIP3    H114352   4.988   0.296   1.410
 4796TIP3    H214353   5.054   0.417   1.349
 4797TIP3   OH214354   5.105   1.285   2.598
 4797TIP3    H114355   5.061   1.357   2.553
 4797TIP3    H214356   5.081   1.296   2.690
 4798TIP3   OH214357   0.386   0.855   1.062
 4798TIP3    H114358   0.326   0.929   1.076
 4798TIP3    H214359   0.332   0.777   1.075
 4799TIP3   OH214360   0.942   1.567   3.208
 4799TIP3    H114361   1.022   1.617   3.197
 4799TIP3    H214362   0.905   1.597   3.291
 4800TIP3   OH214363   2.888   5.056   0.127
 4800TIP3    H114364   2.895   5.030   0.219
 4800TIP3    H214365   2.827   5.130   0.128
 4801TIP3   OH214366   4.261   6.095   4.543
 4801TIP3    H114367   4.345   6.130   4.575
 4801TIP3    H214368   4.273   6.000   4.546
 4802TIP3   OH214369   4.313   0.906   4.384
 4802TIP3    H114370   4.223   0.916   4.416
 4802TIP3    H214371   4.304   0.859   4.301
 4803TIP3   OH214372   6.419   3.177   1.264
 4803TIP3    H114373   6.496   3.208   1.311
 4803TIP3    H214374   6.441   3.189   1.172
 4804TIP3   OH214375   5.135   6.139   3.584
 4804TIP3    H114376   5.154   6.124   3.677
 4804TIP3    H214377   5.169   6.227   3.567
 4805TIP3   OH214378   4.073   6.700   5.811
 4805TIP3    H114379   4.005   6.767   5.803
 4805TIP3    H214380   4.079   6.661   5.724
 4806TIP3   OH214381   6.620   6.583   1.983
 4806TIP3    H114382   6.669   6.562   2.063
 4806TIP3    H214383   6.603   6.497   1.943
 4807TIP3   OH214384   4.017   1.559   2.940
 4807TIP3    H114385   4.083   1.624   2.964
 4807TIP3    H214386   3.966   1.546   3.020
 4808TIP3   OH214387   6.005   4.221   1.440
 4808TIP3    H114388   6.029   4.249   1.352
 4808TIP3    H214389   5.922   4.265   1.458
 4809TIP3   OH214390   4.201   2.009   3.332
 4809TIP3    H114391   4.286   2.011   3.374
 4809TIP3    H214392   4.138   2.005   3.404
 4810TIP3   OH214393   3.946   6.305   4.139
 4810TIP3    H114394   4.040   6.318   4.128
 4810TIP3    H214395   3.906   6.363   4.075
 4811TIP3   OH214396   3.927   1.145   0.938
 4811TIP3    H114397   4.016   1.159   0.969
 4811TIP3    H214398   3.902   1.060   0.974
 4812TIP3   OH214399   6.705   1.527   5.353
 4812TIP3    H114400   6.700   1.432   5.369
 4812TIP3    H214401   6.763   1.559   5.422
 4813TIP3   OH214402   6.095   4.528   0.432
 4813TIP3    H114403   6.005   4.557   0.414
 4813TIP3    H214404   6.136   4.522   0.346
 4814TIP3   OH214405   0.217   5.654   2.822
 4814TIP3    H114406   0.171   5.725   2.775
 4814TIP3    H214407   0.188   5.663   2.913
 4815TIP3   OH214408   2.652   2.829   0.027
 4815TIP3    H114409   2.646   2.733   0.021
 4815TIP3    H214410   2.567   2.856   0.062
 4816TIP3   OH214411   7.031   5.535   5.680
 4816TIP3    H114412   6.980   5.486   5.745
 4816TIP3    H214413   7.116   5.548   5.721
 4817TIP3   OH214414   4.549   6.138   5.330
 4817TIP3    H114415   4.473   6.114   5.277
 4817TIP3    H214416   4.517   6.136   5.420
 4818TIP3   OH214417   6.895   5.594   1.647
 4818TIP3    H114418   6.986   5.602   1.675
 4818TIP3    H214419   6.875   5.500   1.656
 4819TIP3   OH214420   0.152   6.111   4.108
 4819TIP3    H114421   0.060   6.129   4.088
 4819TIP3    H214422   0.164   6.020   4.081
 4820TIP3   OH214423   5.530   3.801   3.899
 4820TIP3    H114424   5.526   3.787   3.993
 4820TIP3    H214425   5.469   3.873   3.883
 4821TIP3   OH214426   2.271   1.732   1.302
 4821TIP3    H114427   2.252   1.808   1.357
 4821TIP3    H214428   2.365   1.738   1.283
 4822TIP3   OH214429   3.073   3.841   2.208
 4822TIP3    H114430   3.047   3.920   2.159
 4822TIP3    H214431   3.014   3.773   2.177
 4823TIP3   OH214432   0.988   3.250   0.562
 4823TIP3    H114433   1.060   3.312   0.552
 4823TIP3    H214434   0.926   3.295   0.620
 4824TIP3   OH214435   5.953   6.319   0.803
 4824TIP3    H114436   5.894   6.258   0.845
 4824TIP3    H214437   6.038   6.305   0.846
 4825TIP3   OH214438   0.798   6.345   3.298
 4825TIP3    H114439   0.830   6.362   3.386
 4825TIP3    H214440   0.832   6.417   3.245
 4826TIP3   OH214441   3.545   1.583   1.250
 4826TIP3    H114442   3.629   1.614   1.285
 4826TIP3    H214443   3.507   1.660   1.207
 4827TIP3   OH214444   4.956   1.312   0.492
 4827TIP3    H114445   4.875   1.292   0.444
 4827TIP3    H214446   5.024   1.314   0.424
 4828TIP3   OH214447   5.119   6.191   2.473
 4828TIP3    H114448   5.056   6.189   2.400
 4828TIP3    H214449   5.064   6.190   2.551
 4829TIP3   OH214450   5.677   3.503   5.763
 4829TIP3    H114451   5.763   3.461   5.755
 4829TIP3    H214452   5.695   3.596   5.749
 4830TIP3   OH214453   1.588   3.174   4.529
 4830TIP3    H114454   1.566   3.106   4.593
 4830TIP3    H214455   1.510   3.230   4.525
 4831TIP3   OH214456   6.830   5.416   3.727
 4831TIP3    H114457   6.805   5.351   3.792
 4831TIP3    H214458   6.918   5.444   3.753
 4832TIP3   OH214459   4.701   2.346   0.196
 4832TIP3    H114460   4.631   2.282   0.180
 4832TIP3    H214461   4.774   2.293   0.228
 4833TIP3   OH214462   2.975   1.145   4.667
 4833TIP3    H114463   3.013   1.117   4.750
 4833TIP3    H214464   3.043   1.126   4.602
 4834TIP3   OH214465   6.480   2.404   5.288
 4834TIP3    H114466   6.574   2.382   5.285
 4834TIP3    H214467   6.469   2.472   5.222
 4835TIP3   OH214468   1.607   4.774   3.654
 4835TIP3    H114469   1.673   4.741   3.715
 4835TIP3    H214470   1.639   4.861   3.629
 4836TIP3   OH214471   1.604   4.210   4.991
 4836TIP3    H114472   1.692   4.235   5.018
 4836TIP3    H214473   1.601   4.115   5.004
 4837TIP3   OH214474   1.197   5.501   4.233
 4837TIP3    H114475   1.112   5.456   4.234
 4837TIP3    H214476   1.237   5.475   4.150
 4838TIP3   OH214477   2.478   0.035   1.898
 4838TIP3    H114478   2.416  -0.007   1.839
 4838TIP3    H214479   2.563   0.030   1.853
 4839TIP3   OH214480   5.754   4.062   5.349
 4839TIP3    H114481   5.796   3.976   5.352
 4839TIP3    H214482   5.719   4.075   5.437
 4840TIP3   OH214483   0.148   2.502   5.578
 4840TIP3    H114484   0.173   2.423   5.626
 4840TIP3    H214485   0.179   2.487   5.489
 4841TIP3   OH214486   5.180   1.073   0.503
 4841TIP3    H114487   5.120   1.146   0.521
 4841TIP3    H214488   5.220   1.094   0.419
 4842TIP3   OH214489   0.282   5.080   4.034
 4842TIP3    H114490   0.356   5.136   4.010
 4842TIP3    H214491   0.313   5.027   4.107
 4843TIP3   OH214492   4.162   5.719   1.734
 4843TIP3    H114493   4.159   5.791   1.798
 4843TIP3    H214494   4.077   5.723   1.690
 4844TIP3   OH214495   1.528   4.453   3.377
 4844TIP3    H114496   1.619   4.470   3.402
 4844TIP3    H214497   1.516   4.359   3.389
 4845TIP3   OH214498   0.590   4.165   0.710
 4845TIP3    H114499   0.532   4.184   0.783
 4845TIP3    H214500   0.552   4.213   0.636
 4846TIP3   OH214501   3.957   2.807   0.743
 4846TIP3    H114502   4.028   2.872   0.740
 4846TIP3    H214503   3.910   2.826   0.824
 4847TIP3   OH214504   4.947   1.029   2.162
 4847TIP3    H114505   5.028   1.008   2.209
 4847TIP3    H214506   4.897   1.083   2.223
 4848TIP3   OH214507   3.085   5.094   0.766
 4848TIP3    H114508   3.160   5.039   0.787
 4848TIP3    H214509   3.017   5.067   0.827
 4849TIP3   OH214510   1.938   3.110   5.194
 4849TIP3    H114511   1.888   3.031   5.216
 4849TIP3    H214512   1.906   3.176   5.254
 4850TIP3   OH214513   0.549   0.617   3.030
 4850TIP3    H114514   0.559   0.525   3.055
 4850TIP3    H214515   0.639   0.650   3.028
 4851TIP3   OH214516   0.799   0.698   3.058
 4851TIP3    H114517   0.817   0.756   3.133
 4851TIP3    H214518   0.866   0.630   3.063
 4852TIP3   OH214519   2.538   3.734   1.611
 4852TIP3    H114520   2.619   3.750   1.661
 4852TIP3    H214521   2.509   3.822   1.585
 4853TIP3   OH214522   3.554   3.467   5.851
 4853TIP3    H114523   3.543   3.479   5.945
 4853TIP3    H214524   3.645   3.441   5.840
 4854TIP3   OH214525   6.501   4.843   3.047
 4854TIP3    H114526   6.409   4.817   3.045
 4854TIP3    H214527   6.531   4.833   2.956
 4855TIP3   OH214528   4.007   3.535   5.146
 4855TIP3    H114529   3.914   3.541   5.170
 4855TIP3    H214530   4.006   3.497   5.058
 4856TIP3   OH214531   4.529   4.439   2.701
 4856TIP3    H114532   4.467   4.419   2.771
 4856TIP3    H214533   4.502   4.525   2.669
 4857TIP3   OH214534   1.939   3.229   3.941
 4857TIP3    H114535   1.920   3.263   3.854
 4857TIP3    H214536   1.856   3.193   3.972
 4858TIP3   OH214537   0.143   1.947   0.839
 4858TIP3    H114538   0.203   1.880   0.807
 4858TIP3    H214539   0.073   1.897   0.882
 4859TIP3   OH214540   0.069   4.529   2.133
 4859TIP3    H114541   0.105   4.487   2.211
 4859TIP3    H214542   0.143   4.575   2.094
 4860TIP3   OH214543   3.173   4.761   1.112
 4860TIP3    H114544   3.176   4.787   1.204
 4860TIP3    H214545   3.265   4.742   1.089
 4861TIP3   OH214546   5.427   2.082   2.272
 4861TIP3    H114547   5.503   2.139   2.268
 4861TIP3    H214548   5.409   2.060   2.180
 4862TIP3   OH214549   6.113   0.748   2.703
 4862TIP3    H114550   6.158   0.830   2.680
 4862TIP3    H214551   6.144   0.685   2.638
 4863TIP3   OH214552   1.193   0.969   0.464
 4863TIP3    H114553   1.129   1.010   0.406
 4863TIP3    H214554   1.264   1.033   0.470
 4864TIP3   OH214555   4.706   3.273   5.171
 4864TIP3    H114556   4.612   3.257   5.181
 4864TIP3    H214557   4.744   3.185   5.164
 4865TIP3   OH214558   6.133   5.961   4.890
 4865TIP3    H114559   6.129   5.970   4.985
 4865TIP3    H214560   6.042   5.958   4.862
 4866TIP3   OH214561   6.967   2.818   3.778
 4866TIP3    H114562   6.906   2.882   3.743
 4866TIP3    H214563   6.939   2.735   3.739
 4867TIP3   OH214564   2.815   6.046   3.079
 4867TIP3    H114565   2.882   6.113   3.065
 4867TIP3    H214566   2.739   6.094   3.111
 4868TIP3   OH214567   4.942   6.054   5.176
 4868TIP3    H114568   4.908   6.029   5.090
 4868TIP3    H214569   5.021   6.001   5.187
 4869TIP3   OH214570   1.770   6.340   0.029
 4869TIP3    H114571   1.726   6.312   0.110
 4869TIP3    H214572   1.852   6.381   0.059
 4870TIP3   OH214573   6.959   3.836   5.444
 4870TIP3    H114574   6.992   3.778   5.376
 4870TIP3    H214575   7.027   3.902   5.456
 4871TIP3   OH214576   0.066   6.088   3.721
 4871TIP3    H114577   0.148   6.125   3.754
 4871TIP3    H214578   0.021   6.162   3.679
 4872TIP3   OH214579   1.310   2.308   2.394
 4872TIP3    H114580   1.385   2.263   2.355
 4872TIP3    H214581   1.247   2.315   2.323
 4873TIP3   OH214582   2.244   2.035   0.636
 4873TIP3    H114583   2.251   1.941   0.620
 4873TIP3    H214584   2.333   2.064   0.654
 4874TIP3   OH214585   6.931   0.755   1.005
 4874TIP3    H114586   6.873   0.756   0.928
 4874TIP3    H214587   6.894   0.687   1.061
 4875TIP3   OH214588   3.493   2.280   5.661
 4875TIP3    H114589   3.544   2.277   5.580
 4875TIP3    H214590   3.513   2.197   5.705
 4876TIP3   OH214591   5.493   6.286   5.588
 4876TIP3    H114592   5.463   6.375   5.570
 4876TIP3    H214593   5.426   6.249   5.646
 4877TIP3   OH214594   3.420   4.137   3.803
 4877TIP3    H114595   3.347   4.098   3.851
 4877TIP3    H214596   3.421   4.229   3.830
 4878TIP3   OH214597   3.066   5.656   5.720
 4878TIP3    H114598   3.139   5.716   5.735
 4878TIP3    H214599   3.035   5.633   5.808
 4879TIP3   OH214600   0.088   4.960   3.285
 4879TIP3    H114601   0.044   4.928   3.207
 4879TIP3    H214602   0.179   4.929   3.276
 4880TIP3   OH214603   0.595   1.016   4.670
 4880TIP3    H114604   0.634   0.963   4.739
 4880TIP3    H214605   0.515   1.052   4.709
 4881TIP3   OH214606   5.732   1.465   4.436
 4881TIP3    H114607   5.693   1.516   4.365
 4881TIP3    H214608   5.703   1.375   4.419
 4882TIP3   OH214609   3.223   2.326   4.063
 4882TIP3    H114610   3.137   2.313   4.103
 4882TIP3    H214611   3.224   2.266   3.988
 4883TIP3   OH214612   6.489   6.721   3.117
 4883TIP3    H114613   6.409   6.762   3.083
 4883TIP3    H214614   6.548   6.718   3.042
 4884TIP3   OH214615   2.690   1.327   5.483
 4884TIP3    H114616   2.658   1.411   5.517
 4884TIP3    H214617   2.710   1.276   5.561
 4885TIP3   OH214618   5.037   4.874   0.059
 4885TIP3    H114619   4.997   4.960   0.045
 4885TIP3    H214620   4.982   4.832   0.125
 4886TIP3   OH214621   2.821   2.058   3.939
 4886TIP3    H114622   2.917   2.057   3.928
 4886TIP3    H214623   2.804   1.996   4.010
 4887TIP3   OH214624   2.756   2.842   2.285
 4887TIP3    H114625   2.741   2.825   2.378
 4887TIP3    H214626   2.673   2.878   2.253
 4888TIP3   OH214627   2.609   2.300   5.198
 4888TIP3    H114628   2.681   2.350   5.237
 4888TIP3    H214629   2.645   2.268   5.115
 4889TIP3   OH214630   3.402   0.287   5.595
 4889TIP3    H114631   3.471   0.351   5.578
 4889TIP3    H214632   3.324   0.340   5.612
 4890TIP3   OH214633   2.217   5.692   4.272
 4890TIP3    H114634   2.312   5.691   4.276
 4890TIP3    H214635   2.195   5.628   4.204
 4891TIP3   OH214636   4.051   2.770   5.747
 4891TIP3    H114637   3.994   2.724   5.686
 4891TIP3    H214638   4.139   2.738   5.728
 4892TIP3   OH214639   2.101   6.151   5.226
 4892TIP3    H114640   2.137   6.215   5.164
 4892TIP3    H214641   2.145   6.069   5.203
 4893TIP3   OH214642   2.886   5.387   5.630
 4893TIP3    H114643   2.919   5.306   5.591
 4893TIP3    H214644   2.909   5.455   5.566
 4894TIP3   OH214645   5.574   1.844   4.952
 4894TIP3    H114646   5.645   1.796   4.909
 4894TIP3    H214647   5.543   1.784   5.021
 4895TIP3   OH214648   0.095   0.064   0.775
 4895TIP3    H114649   0.119   0.009   0.849
 4895TIP3    H214650   0.166   0.128   0.768
 4896TIP3   OH214651   3.218   5.926   0.143
 4896TIP3    H114652   3.184   5.988   0.079
 4896TIP3    H214653   3.142   5.903   0.197
 4897TIP3   OH214654   4.370   1.937   0.338
 4897TIP3    H114655   4.459   1.913   0.311
 4897TIP3    H214656   4.313   1.873   0.295
 4898TIP3   OH214657   5.770   0.066   1.727
 4898TIP3    H114658   5.847   0.076   1.783
 4898TIP3    H214659   5.786   0.125   1.653
 4899TIP3   OH214660   6.793   6.062   0.057
 4899TIP3    H114661   6.747   6.113   0.124
 4899TIP3    H214662   6.827   5.986   0.103
 4900TIP3   OH214663   1.893   4.926   0.126
 4900TIP3    H114664   1.917   4.979   0.202
 4900TIP3    H214665   1.858   4.845   0.164
 4901TIP3   OH214666   4.505   1.636   3.964
 4901TIP3    H114667   4.546   1.686   4.035
 4901TIP3    H214668   4.411   1.643   3.980
 4902TIP3   OH214669   5.540   5.266   3.927
 4902TIP3    H114670   5.564   5.174   3.916
 4902TIP3    H214671   5.456   5.262   3.974
 4903TIP3   OH214672   4.024   2.882   5.403
 4903TIP3    H114673   3.979   2.798   5.395
 4903TIP3    H214674   4.063   2.897   5.317
 4904TIP3   OH214675   6.575   3.348   2.863
 4904TIP3    H114676   6.597   3.440   2.848
 4904TIP3    H214677   6.483   3.350   2.890
 4905TIP3   OH214678   2.894   0.199   3.327
 4905TIP3    H114679   2.964   0.260   3.303
 4905TIP3    H214680   2.838   0.249   3.386
 4906TIP3   OH214681   0.470   2.608   2.912
 4906TIP3    H114682   0.550   2.658   2.925
 4906TIP3    H214683   0.408   2.643   2.976
 4907TIP3   OH214684   6.479   1.716   3.836
 4907TIP3    H114685   6.519   1.630   3.822
 4907TIP3    H214686   6.481   1.729   3.931
 4908TIP3   OH214687   4.501   4.738   3.886
 4908TIP3    H114688   4.418   4.783   3.901
 4908TIP3    H214689   4.517   4.747   3.792
 4909TIP3   OH214690   3.983   5.121   1.414
 4909TIP3    H114691   3.998   5.131   1.508
 4909TIP3    H214692   4.029   5.040   1.390
 4910TIP3   OH214693   1.537   1.136   1.406
 4910TIP3    H114694   1.472   1.103   1.344
 4910TIP3    H214695   1.551   1.227   1.381
 4911TIP3   OH214696   5.655   3.008   2.573
 4911TIP3    H114697   5.620   2.935   2.624
 4911TIP3    H214698   5.675   2.970   2.488
 4912TIP3   OH214699   1.448   3.473   4.284
 4912TIP3    H114700   1.539   3.446   4.272
 4912TIP3    H214701   1.400   3.391   4.295
 4913TIP3   OH214702   0.985   6.111   3.689
 4913TIP3    H114703   0.930   6.057   3.746
 4913TIP3    H214704   1.034   6.048   3.636
 4914TIP3   OH214705   2.446   4.746   2.787
 4914TIP3    H114706   2.428   4.835   2.755
 4914TIP3    H214707   2.406   4.688   2.723
 4915TIP3   OH214708   5.709   1.192   3.694
 4915TIP3    H114709   5.691   1.125   3.759
 4915TIP3    H214710   5.659   1.164   3.617
 4916TIP3   OH214711   5.595   5.700   2.845
 4916TIP3    H114712   5.601   5.606   2.828
 4916TIP3    H214713   5.581   5.738   2.758
 4917TIP3   OH214714   2.549   5.308   3.185
 4917TIP3    H114715   2.571   5.218   3.208
 4917TIP3    H214716   2.519   5.302   3.094
 4918TIP3   OH214717   4.405   1.202   5.041
 4918TIP3    H114718   4.398   1.108   5.024
 4918TIP3    H214719   4.446   1.209   5.127
 4919TIP3   OH214720   0.103   1.330   1.196
 4919TIP3    H114721   0.140   1.271   1.263
 4919TIP3    H214722   0.012   1.302   1.187
 4920TIP3   OH214723   0.606   3.962   1.688
 4920TIP3    H114724   0.646   4.008   1.613
 4920TIP3    H214725   0.564   3.886   1.649
 4921TIP3   OH214726   4.288   0.089   3.742
 4921TIP3    H114727   4.320   0.091   3.652
 4921TIP3    H214728   4.247   0.003   3.752
 4922TIP3   OH214729   1.983   4.810   2.268
 4922TIP3    H114730   2.015   4.721   2.283
 4922TIP3    H214731   1.934   4.832   2.347
 4923TIP3   OH214732   5.502   1.958   1.545
 4923TIP3    H114733   5.426   1.968   1.603
 4923TIP3    H214734   5.575   1.942   1.605
 4924TIP3   OH214735   3.847   4.220   3.807
 4924TIP3    H114736   3.793   4.299   3.801
 4924TIP3    H214737   3.790   4.149   3.780
 4925TIP3   OH214738   4.021   2.135   0.867
 4925TIP3    H114739   4.021   2.039   0.868
 4925TIP3    H214740   4.084   2.158   0.799
 4926TIP3   OH214741   1.101   1.224   5.100
 4926TIP3    H114742   1.021   1.178   5.076
 4926TIP3    H214743   1.154   1.223   5.020
 4927TIP3   OH214744   5.660   5.410   2.896
 4927TIP3    H114745   5.754   5.392   2.888
 4927TIP3    H214746   5.638   5.386   2.987
 4928TIP3   OH214747   7.069   2.566   5.000
 4928TIP3    H114748   7.034   2.544   4.914
 4928TIP3    H214749   7.079   2.661   4.999
 4929TIP3   OH214750   0.659   0.458   3.605
 4929TIP3    H114751   0.685   0.489   3.692
 4929TIP3    H214752   0.713   0.509   3.545
 4930TIP3   OH214753   7.072   4.870   3.542
 4930TIP3    H114754   7.146   4.930   3.547
 4930TIP3    H214755   7.097   4.807   3.475
 4931TIP3   OH214756   2.032   4.723   2.948
 4931TIP3    H114757   1.953   4.712   3.000
 4931TIP3    H214758   2.041   4.817   2.936
 4932TIP3   OH214759   2.342   0.420   2.925
 4932TIP3    H114760   2.437   0.419   2.930
 4932TIP3    H214761   2.322   0.376   2.842
 4933TIP3   OH214762   1.208   1.357   5.301
 4933TIP3    H114763   1.301   1.343   5.283
 4933TIP3    H214764   1.163   1.295   5.243
 4934TIP3   OH214765   0.219   5.824   2.340
 4934TIP3    H114766   0.294   5.882   2.354
 4934TIP3    H214767   0.251   5.737   2.363
 4935TIP3   OH214768   5.914   3.741   3.663
 4935TIP3    H114769   5.931   3.827   3.624
 4935TIP3    H214770   5.943   3.750   3.754
 4936TIP3   OH214771   3.672   0.563   4.979
 4936TIP3    H114772   3.634   0.529   5.061
 4936TIP3    H214773   3.669   0.658   4.989
 4937TIP3   OH214774   3.779   2.147   3.558
 4937TIP3    H114775   3.749   2.071   3.508
 4937TIP3    H214776   3.735   2.140   3.642
 4938TIP3   OH214777   5.007   2.198   4.147
 4938TIP3    H114778   4.959   2.121   4.177
 4938TIP3    H214779   5.045   2.171   4.063
 4939TIP3   OH214780   6.920   6.389   1.252
 4939TIP3    H114781   7.001   6.348   1.221
 4939TIP3    H214782   6.854   6.320   1.245
 4940TIP3   OH214783   6.897   0.339   4.770
 4940TIP3    H114784   6.838   0.319   4.697
 4940TIP3    H214785   6.947   0.416   4.740
 4941TIP3   OH214786   0.064   6.405   2.279
 4941TIP3    H114787   0.104   6.437   2.360
 4941TIP3    H214788   0.093   6.314   2.272
 4942TIP3   OH214789   0.089   5.233   5.599
 4942TIP3    H114790   0.127   5.290   5.532
 4942TIP3    H214791   0.162   5.211   5.656
 4943TIP3   OH214792   2.849   5.337   3.640
 4943TIP3    H114793   2.817   5.314   3.552
 4943TIP3    H214794   2.770   5.355   3.690
 4944TIP3   OH214795   5.799   2.529   5.831
 4944TIP3    H114796   5.875   2.577   5.797
 4944TIP3    H214797   5.749   2.506   5.753
 4945TIP3   OH214798   1.432   3.763   3.209
 4945TIP3    H114799   1.404   3.784   3.120
 4945TIP3    H214800   1.355   3.782   3.263
 4946TIP3   OH214801   1.552   6.150   1.918
 4946TIP3    H114802   1.593   6.171   1.834
 4946TIP3    H214803   1.624   6.122   1.974
 4947TIP3   OH214804   5.690   5.770   3.576
 4947TIP3    H114805   5.704   5.776   3.481
 4947TIP3    H214806   5.595   5.766   3.586
 4948TIP3   OH214807   3.979   1.940   4.642
 4948TIP3    H114808   3.954   1.959   4.733
 4948TIP3    H214809   3.947   1.851   4.627
 4949TIP3   OH214810   3.102   1.443   2.194
 4949TIP3    H114811   3.066   1.527   2.166
 4949TIP3    H214812   3.062   1.379   2.135
 4950TIP3   OH214813   5.388   2.284   1.519
 4950TIP3    H114814   5.344   2.285   1.434
 4950TIP3    H214815   5.463   2.226   1.507
 4951TIP3   OH214816   0.290   3.455   5.839
 4951TIP3    H114817   0.257   3.544   5.827
 4951TIP3    H214818   0.343   3.438   5.760
 4952TIP3   OH214819   4.274   3.137   0.263
 4952TIP3    H114820   4.233   3.154   0.178
 4952TIP3    H214821   4.365   3.165   0.252
 4953TIP3   OH214822   5.900   3.349   5.718
 4953TIP3    H114823   5.965   3.420   5.722
 4953TIP3    H214824   5.949   3.273   5.688
 4954TIP3   OH214825   4.664   0.419   5.429
 4954TIP3    H114826   4.661   0.499   5.482
 4954TIP3    H214827   4.593   0.365   5.464
 4955TIP3   OH214828   6.760   1.021   1.363
 4955TIP3    H114829   6.793   0.987   1.280
 4955TIP3    H214830   6.837   1.054   1.408
 4956TIP3   OH214831   1.114   1.500   2.519
 4956TIP3    H114832   1.177   1.533   2.583
 4956TIP3    H214833   1.107   1.570   2.453
 4957TIP3   OH214834   5.265   6.722   1.296
 4957TIP3    H114835   5.170   6.733   1.294
 4957TIP3    H214836   5.294   6.746   1.207
 4958TIP3   OH214837   2.068   6.148   4.618
 4958TIP3    H114838   2.161   6.161   4.636
 4958TIP3    H214839   2.045   6.217   4.556
 4959TIP3   OH214840   5.132   6.788   0.546
 4959TIP3    H114841   5.135   6.764   0.453
 4959TIP3    H214842   5.071   6.861   0.550
 4960TIP3   OH214843   3.400   3.402   5.620
 4960TIP3    H114844   3.439   3.439   5.540
 4960TIP3    H214845   3.467   3.413   5.687
 4961TIP3   OH214846   6.896   3.578   5.289
 4961TIP3    H114847   6.816   3.567   5.341
 4961TIP3    H214848   6.864   3.600   5.201
 4962TIP3   OH214849   4.830   4.349   4.035
 4962TIP3    H114850   4.782   4.295   3.972
 4962TIP3    H214851   4.905   4.295   4.060
 4963TIP3   OH214852   6.685   6.547   0.744
 4963TIP3    H114853   6.767   6.592   0.725
 4963TIP3    H214854   6.681   6.476   0.680
 4964TIP3   OH214855   5.089   4.668   0.993
 4964TIP3    H114856   5.082   4.763   1.009
 4964TIP3    H214857   5.015   4.649   0.936
 4965TIP3   OH214858   3.785   1.595   1.373
 4965TIP3    H114859   3.772   1.655   1.446
 4965TIP3    H214860   3.858   1.539   1.400
 4966TIP3   OH214861   1.425   0.256   5.320
 4966TIP3    H114862   1.367   0.323   5.285
 4966TIP3    H214863   1.385   0.231   5.403
 4967TIP3   OH214864   5.467   2.648   3.125
 4967TIP3    H114865   5.495   2.657   3.216
 4967TIP3    H214866   5.534   2.593   3.085
 4968TIP3   OH214867   1.686   6.289   1.729
 4968TIP3    H114868   1.629   6.351   1.683
 4968TIP3    H214869   1.771   6.333   1.733
 4969TIP3   OH214870   4.865   5.332   0.222
 4969TIP3    H114871   4.785   5.308   0.269
 4969TIP3    H214872   4.856   5.425   0.203
 4970TIP3   OH214873   0.581   3.485   2.609
 4970TIP3    H114874   0.536   3.403   2.589
 4970TIP3    H214875   0.596   3.526   2.524
 4971TIP3   OH214876   6.577   4.288   1.766
 4971TIP3    H114877   6.672   4.283   1.775
 4971TIP3    H214878   6.543   4.255   1.850
 4972TIP3   OH214879   2.391   3.831   4.311
 4972TIP3    H114880   2.427   3.915   4.339
 4972TIP3    H214881   2.356   3.848   4.224
 4973TIP3   OH214882   3.811   2.770   4.597
 4973TIP3    H114883   3.724   2.737   4.573
 4973TIP3    H214884   3.867   2.750   4.522
 4974TIP3   OH214885   5.653   0.739   2.778
 4974TIP3    H114886   5.747   0.746   2.794
 4974TIP3    H214887   5.638   0.791   2.699
 4975TIP3   OH214888   4.177   3.339   1.474
 4975TIP3    H114889   4.258   3.331   1.424
 4975TIP3    H214890   4.195   3.409   1.537
 4976TIP3   OH214891   5.498   2.691   4.626
 4976TIP3    H114892   5.447   2.705   4.546
 4976TIP3    H214893   5.518   2.597   4.626
 4977TIP3   OH214894   5.033   2.122   2.877
 4977TIP3    H114895   5.119   2.089   2.851
 4977TIP3    H214896   5.052   2.199   2.930
 4978TIP3   OH214897   4.205   3.402   1.934
 4978TIP3    H114898   4.137   3.360   1.987
 4978TIP3    H214899   4.279   3.411   1.994
 4979TIP3   OH214900   1.578   3.153   3.601
 4979TIP3    H114901   1.523   3.155   3.523
 4979TIP3    H214902   1.616   3.065   3.602
 4980TIP3   OH214903   6.884   6.277   5.395
 4980TIP3    H114904   6.905   6.184   5.403
 4980TIP3    H214905   6.876   6.291   5.301
 4981TIP3   OH214906   3.295   0.884   4.295
 4981TIP3    H114907   3.218   0.902   4.349
 4981TIP3    H214908   3.270   0.914   4.207
 4982TIP3   OH214909   5.146   0.166   4.027
 4982TIP3    H114910   5.175   0.242   4.078
 4982TIP3    H214911   5.053   0.156   4.049
 4983TIP3   OH214912   4.136   6.726   0.316
 4983TIP3    H114913   4.118   6.718   0.222
 4983TIP3    H214914   4.112   6.641   0.353
 4984TIP3   OH214915   6.810   4.294   4.053
 4984TIP3    H114916   6.803   4.389   4.047
 4984TIP3    H214917   6.775   4.273   4.140
 4985TIP3   OH214918   1.634   0.908   5.141
 4985TIP3    H114919   1.600   0.973   5.079
 4985TIP3    H214920   1.576   0.833   5.130
 4986TIP3   OH214921   6.636   3.339   4.914
 4986TIP3    H114922   6.596   3.374   4.834
 4986TIP3    H214923   6.702   3.403   4.938
 4987TIP3   OH214924   1.068   5.587   0.453
 4987TIP3    H114925   1.161   5.597   0.473
 4987TIP3    H214926   1.042   5.670   0.413
 4988TIP3   OH214927   3.187   1.093   4.825
 4988TIP3    H114928   3.208   1.017   4.771
 4988TIP3    H214929   3.273   1.130   4.848
 4989TIP3   OH214930   0.178   4.863   0.908
 4989TIP3    H114931   0.240   4.832   0.974
 4989TIP3    H214932   0.094   4.864   0.954
 4990TIP3   OH214933   3.786   5.503   3.799
 4990TIP3    H114934   3.777   5.578   3.741
 4990TIP3    H214935   3.819   5.539   3.881
 4991TIP3   OH214936   0.580   6.319   0.270
 4991TIP3    H114937   0.521   6.251   0.236
 4991TIP3    H214938   0.609   6.285   0.355
 4992TIP3   OH214939   0.457   4.440   4.608
 4992TIP3    H114940   0.475   4.432   4.514
 4992TIP3    H214941   0.365   4.462   4.613
 4993TIP3   OH214942   2.132   2.493   0.608
 4993TIP3    H114943   2.179   2.470   0.528
 4993TIP3    H214944   2.135   2.414   0.662
 4994TIP3   OH214945   5.528   5.653   4.709
 4994TIP3    H114946   5.587   5.587   4.674
 4994TIP3    H214947   5.547   5.732   4.658
 4995TIP3   OH214948   1.286   3.186   5.658
 4995TIP3    H114949   1.235   3.105   5.651
 4995TIP3    H214950   1.307   3.194   5.750
 4996TIP3   OH214951   4.045   6.766   5.532
 4996TIP3    H114952   4.052   6.673   5.509
 4996TIP3    H214953   4.111   6.808   5.477
 4997TIP3   OH214954   0.072   3.846   2.037
 4997TIP3    H114955   0.095   3.911   2.103
 4997TIP3    H214956   0.040   3.897   1.963
 4998TIP3   OH214957   6.039   1.115   3.683
 4998TIP3    H114958   5.953   1.140   3.649
 4998TIP3    H214959   6.041   1.019   3.676
 4999TIP3   OH214960   1.471   2.284   2.823
 4999TIP3    H114961   1.553   2.235   2.831
 4999TIP3    H214962   1.404   2.223   2.852
 5000TIP3   OH214963   6.502   2.943   4.218
 5000TIP3    H114964   6.534   2.867   4.168
 5000TIP3    H214965   6.535   3.019   4.170
 5001TIP3   OH214966   6.178   0.617   5.546
 5001TIP3    H114967   6.256   0.638   5.495
 5001TIP3    H214968   6.174   0.686   5.613
 5002TIP3   OH214969   4.098   0.962   0.536
 5002TIP3    H114970   4.099   1.041   0.483
 5002TIP3    H214971   4.189   0.949   0.563
 5003TIP3   OH214972   5.180   3.897   3.646
 5003TIP3    H114973   5.104   3.928   3.596
 5003TIP3    H214974   5.145   3.827   3.702
 5004TIP3   OH214975   1.815   5.648   4.014
 5004TIP3    H114976   1.871   5.726   4.013
 5004TIP3    H214977   1.862   5.585   4.068
 5005TIP3   OH214978   1.599   2.754   1.867
 5005TIP3    H114979   1.681   2.735   1.821
 5005TIP3    H214980   1.618   2.833   1.918
 5006TIP3   OH214981   3.773   6.207   3.112
 5006TIP3    H114982   3.837   6.238   3.048
 5006TIP3    H214983   3.702   6.272   3.109
 5007TIP3   OH214984   5.424   2.436  -0.021
 5007TIP3    H114985   5.370   2.360   0.004
 5007TIP3    H214986   5.505   2.425   0.029
 5008TIP3   OH214987   5.897   5.842   2.473
 5008TIP3    H114988   5.962   5.906   2.502
 5008TIP3    H214989   5.930   5.758   2.508
 5009TIP3   OH214990   1.427   1.423   2.472
 5009TIP3    H114991   1.491   1.437   2.542
 5009TIP3    H214992   1.394   1.334   2.486
 5010TIP3   OH214993   1.398   6.520   5.051
 5010TIP3    H114994   1.354   6.544   5.133
 5010TIP3    H214995   1.455   6.594   5.031
 5011TIP3   OH214996   1.754   5.702   1.860
 5011TIP3    H114997   1.841   5.679   1.827
 5011TIP3    H214998   1.748   5.659   1.945
 5012TIP3   OH214999   3.020   5.293   0.197
 5012TIP3    H115000   3.005   5.219   0.138
 5012TIP3    H215001   2.937   5.303   0.244
 5013TIP3   OH215002   6.788   4.531   3.693
 5013TIP3    H115003   6.873   4.574   3.707
 5013TIP3    H215004   6.787   4.513   3.598
 5014TIP3   OH215005   0.686   3.565   5.829
 5014TIP3    H115006   0.696   3.567   5.734
 5014TIP3    H215007   0.618   3.500   5.846
 5015TIP3   OH215008   0.372   2.655   1.550
 5015TIP3    H115009   0.458   2.634   1.586
 5015TIP3    H215010   0.330   2.708   1.619
 5016TIP3   OH215011   5.341   0.292   5.797
 5016TIP3    H115012   5.269   0.239   5.760
 5016TIP3    H215013   5.419   0.237   5.785
 5017TIP3   OH215014   0.188   3.639   2.864
 5017TIP3    H115015   0.212   3.566   2.921
 5017TIP3    H215016   0.261   3.648   2.803
 5018TIP3   OH215017   6.528   5.808   3.698
 5018TIP3    H115018   6.499   5.854   3.619
 5018TIP3    H215019   6.562   5.724   3.666
 5019TIP3   OH215020   1.216   2.367   0.848
 5019TIP3    H115021   1.197   2.293   0.791
 5019TIP3    H215022   1.205   2.332   0.937
 5020TIP3   OH215023   0.121   2.542   2.771
 5020TIP3    H115024   0.193   2.605   2.761
 5020TIP3    H215025   0.096   2.519   2.682
 5021TIP3   OH215026   2.045   3.482   4.534
 5021TIP3    H115027   2.113   3.545   4.557
 5021TIP3    H215028   2.071   3.401   4.580
 5022TIP3   OH215029   7.021   6.227   5.902
 5022TIP3    H115030   7.002   6.136   5.927
 5022TIP3    H215031   6.940   6.257   5.860
 5023TIP3   OH215032   1.989   5.668   0.551
 5023TIP3    H115033   2.024   5.617   0.624
 5023TIP3    H215034   1.913   5.713   0.589
 5024TIP3   OH215035   5.509   1.378   2.123
 5024TIP3    H115036   5.502   1.363   2.217
 5024TIP3    H215037   5.426   1.347   2.087
 5025TIP3   OH215038   7.016   5.657   4.973
 5025TIP3    H115039   7.009   5.567   5.003
 5025TIP3    H215040   6.926   5.690   4.978
 5026TIP3   OH215041   5.042   6.298   2.076
 5026TIP3    H115042   4.980   6.255   2.017
 5026TIP3    H215043   4.996   6.302   2.160
 5027TIP3   OH215044   2.452   3.738   0.051
 5027TIP3    H115045   2.535   3.780   0.031
 5027TIP3    H215046   2.402   3.744  -0.031
 5028TIP3   OH215047   4.273   0.202   4.842
 5028TIP3    H115048   4.270   0.157   4.926
 5028TIP3    H215049   4.299   0.135   4.779
 5029TIP3   OH215050   2.907   1.594   3.292
 5029TIP3    H115051   2.861   1.677   3.282
 5029TIP3    H215052   2.953   1.602   3.376
 5030TIP3   OH215053   5.873   0.881   0.894
 5030TIP3    H115054   5.804   0.842   0.947
 5030TIP3    H215055   5.930   0.925   0.957
 5031TIP3   OH215056   1.734   4.178   3.895
 5031TIP3    H115057   1.738   4.272   3.876
 5031TIP3    H215058   1.703   4.138   3.813
 5032TIP3   OH215059   4.210   5.049   2.604
 5032TIP3    H115060   4.211   5.095   2.519
 5032TIP3    H215061   4.120   5.058   2.635
 5033TIP3   OH215062   3.246   5.855   5.713
 5033TIP3    H115063   3.239   5.917   5.785
 5033TIP3    H215064   3.328   5.808   5.730
 5034TIP3   OH215065   2.342   6.594   0.556
 5034TIP3    H115066   2.283   6.669   0.563
 5034TIP3    H215067   2.418   6.627   0.508
 5035TIP3   OH215068   2.577   6.763   0.761
 5035TIP3    H115069   2.566   6.802   0.847
 5035TIP3    H215070   2.516   6.689   0.760
 5036TIP3   OH215071   6.233   4.551   1.077
 5036TIP3    H115072   6.161   4.611   1.092
 5036TIP3    H215073   6.308   4.607   1.058
 5037TIP3   OH215074   5.173   1.788   0.494
 5037TIP3    H115075   5.179   1.883   0.500
 5037TIP3    H215076   5.260   1.757   0.521
 5038TIP3   OH215077   0.658   5.275   1.319
 5038TIP3    H115078   0.594   5.329   1.273
 5038TIP3    H215079   0.738   5.328   1.321
 5039TIP3   OH215080   5.905   4.288   1.772
 5039TIP3    H115081   5.819   4.262   1.738
 5039TIP3    H215082   5.906   4.383   1.766
 5040TIP3   OH215083   2.665   6.201   0.145
 5040TIP3    H115084   2.629   6.140   0.081
 5040TIP3    H215085   2.727   6.255   0.095
 5041TIP3   OH215086   6.938   6.516   5.751
 5041TIP3    H115087   6.960   6.522   5.844
 5041TIP3    H215088   6.895   6.431   5.742
 5042TIP3   OH215089   2.547   2.528   4.427
 5042TIP3    H115090   2.489   2.599   4.402
 5042TIP3    H215091   2.505   2.488   4.503
 5043TIP3   OH215092   4.291   6.441   3.834
 5043TIP3    H115093   4.232   6.490   3.891
 5043TIP3    H215094   4.377   6.479   3.849
 5044TIP3   OH215095   0.943   6.782   5.811
 5044TIP3    H115096   0.883   6.812   5.743
 5044TIP3    H215097   0.966   6.693   5.785
 5045TIP3   OH215098   5.030   5.917   2.904
 5045TIP3    H115099   5.100   5.954   2.958
 5045TIP3    H215100   5.009   5.986   2.841
 5046TIP3   OH215101   1.407   0.729   1.351
 5046TIP3    H115102   1.396   0.749   1.258
 5046TIP3    H215103   1.358   0.798   1.396
 5047TIP3   OH215104   4.403   1.592   2.413
 5047TIP3    H115105   4.326   1.581   2.357
 5047TIP3    H215106   4.446   1.671   2.379
 5048TIP3   OH215107   5.797   4.062   0.104
 5048TIP3    H115108   5.814   4.073   0.198
 5048TIP3    H215109   5.702   4.072   0.096
 5049TIP3   OH215110   1.664   4.308   2.474
 5049TIP3    H115111   1.740   4.293   2.418
 5049TIP3    H215112   1.628   4.392   2.444
 5050TIP3   OH215113   3.049   0.708   3.193
 5050TIP3    H115114   3.090   0.787   3.158
 5050TIP3    H215115   3.072   0.709   3.286
 5051TIP3   OH215116   3.882   2.372   0.950
 5051TIP3    H115117   3.914   2.419   0.872
 5051TIP3    H215118   3.929   2.289   0.949
 5052TIP3   OH215119   2.227   4.103   4.582
 5052TIP3    H115120   2.166   4.076   4.513
 5052TIP3    H215121   2.269   4.021   4.610
 5053TIP3   OH215122   2.975   0.903   0.666
 5053TIP3    H115123   2.887   0.917   0.630
 5053TIP3    H215124   3.015   0.990   0.663
 5054TIP3   OH215125   2.343   4.256   2.003
 5054TIP3    H115126   2.286   4.204   2.060
 5054TIP3    H215127   2.390   4.313   2.063
 5055TIP3   OH215128   6.601   1.970   5.272
 5055TIP3    H115129   6.676   1.989   5.329
 5055TIP3    H215130   6.610   2.033   5.201
 5056TIP3   OH215131   7.112   6.172   1.170
 5056TIP3    H115132   7.140   6.090   1.131
 5056TIP3    H215133   7.036   6.149   1.223
 5057TIP3   OH215134   3.729   2.876   2.410
 5057TIP3    H115135   3.766   2.959   2.439
 5057TIP3    H215136   3.637   2.896   2.391
 5058TIP3   OH215137   1.992   6.082   2.158
 5058TIP3    H115138   2.005   5.993   2.127
 5058TIP3    H215139   2.061   6.095   2.223
 5059TIP3   OH215140   3.468   3.499   4.432
 5059TIP3    H115141   3.423   3.446   4.366
 5059TIP3    H215142   3.514   3.566   4.381
 5060TIP3   OH215143   5.302   6.340   4.987
 5060TIP3    H115144   5.397   6.350   4.992
 5060TIP3    H215145   5.270   6.423   4.953
 5061TIP3   OH215146   5.365   5.287   0.533
 5061TIP3    H115147   5.270   5.292   0.522
 5061TIP3    H215148   5.388   5.199   0.503
 5062TIP3   OH215149   6.930   2.892   0.831
 5062TIP3    H115150   6.923   2.984   0.855
 5062TIP3    H215151   6.957   2.848   0.912
 5063TIP3   OH215152   7.192   0.499   5.342
 5063TIP3    H115153   7.248   0.422   5.346
 5063TIP3    H215154   7.151   0.494   5.256
 5064TIP3   OH215155   4.896   0.231   3.532
 5064TIP3    H115156   4.934   0.308   3.576
 5064TIP3    H215157   4.971   0.187   3.493
 5065TIP3   OH215158   2.807   3.444   4.885
 5065TIP3    H115159   2.727   3.487   4.854
 5065TIP3    H215160   2.792   3.351   4.866
 5066TIP3   OH215161   3.910   5.735   1.650
 5066TIP3    H115162   3.857   5.709   1.726
 5066TIP3    H215163   3.889   5.670   1.583
 5067TIP3   OH215164   0.553   6.573   0.301
 5067TIP3    H115165   0.547   6.603   0.211
 5067TIP3    H215166   0.567   6.478   0.294
 5068TIP3   OH215167   3.326   2.592   4.403
 5068TIP3    H115168   3.392   2.623   4.465
 5068TIP3    H215169   3.309   2.667   4.347
 5069TIP3   OH215170   4.480   1.092   4.600
 5069TIP3    H115171   4.435   1.040   4.534
 5069TIP3    H215172   4.498   1.030   4.671
 5070TIP3   OH215173   0.601   0.878   1.540
 5070TIP3    H115174   0.595   0.792   1.499
 5070TIP3    H215175   0.616   0.860   1.632
 5071TIP3   OH215176   3.444   6.820   0.628
 5071TIP3    H115177   3.465   6.771   0.548
 5071TIP3    H215178   3.369   6.774   0.666
 5072TIP3   OH215179   4.957   1.281   2.881
 5072TIP3    H115180   4.872   1.308   2.847
 5072TIP3    H215181   4.992   1.359   2.924
 5073TIP3   OH215182   0.710   0.277   0.388
 5073TIP3    H115183   0.655   0.226   0.328
 5073TIP3    H215184   0.738   0.352   0.335
 5074TIP3   OH215185   2.747   4.921   2.504
 5074TIP3    H115186   2.782   4.864   2.436
 5074TIP3    H215187   2.726   4.862   2.576
 5075TIP3   OH215188   0.055   0.786   1.590
 5075TIP3    H115189   0.093   0.771   1.503
 5075TIP3    H215190   0.130   0.789   1.649
 5076TIP3   OH215191   1.702   0.543   0.296
 5076TIP3    H115192   1.735   0.465   0.340
 5076TIP3    H215193   1.666   0.512   0.213
 5077TIP3   OH215194   3.437   6.431   3.416
 5077TIP3    H115195   3.375   6.501   3.394
 5077TIP3    H215196   3.507   6.476   3.465
 5078TIP3   OH215197   0.172   0.980   3.212
 5078TIP3    H115198   0.236   0.913   3.190
 5078TIP3    H215199   0.209   1.024   3.288
 5079TIP3   OH215200   2.639   4.666   5.225
 5079TIP3    H115201   2.734   4.671   5.228
 5079TIP3    H215202   2.618   4.643   5.135
 5080TIP3   OH215203   6.262   5.702   4.815
 5080TIP3    H115204   6.278   5.692   4.721
 5080TIP3    H215205   6.216   5.786   4.823
 5081TIP3   OH215206   6.089   0.190   0.328
 5081TIP3    H115207   6.078   0.152   0.241
 5081TIP3    H215208   6.112   0.116   0.384
 5082TIP3   OH215209   3.091   1.589   4.626
 5082TIP3    H115210   3.146   1.532   4.679
 5082TIP3    H215211   3.125   1.579   4.537
 5083TIP3   OH215212   3.534   2.089   0.181
 5083TIP3    H115213   3.542   2.183   0.193
 5083TIP3    H215214   3.547   2.052   0.269
 5084TIP3   OH215215   5.026   6.714   1.620
 5084TIP3    H115216   5.101   6.655   1.618
 5084TIP3    H215217   5.017   6.739   1.712
 5085TIP3   OH215218   6.833   4.232   4.721
 5085TIP3    H115219   6.774   4.199   4.789
 5085TIP3    H215220   6.882   4.156   4.693
 5086TIP3   OH215221   2.748   1.120   0.272
 5086TIP3    H115222   2.763   1.118   0.367
 5086TIP3    H215223   2.673   1.178   0.260
 5087TIP3   OH215224   1.198   4.778   1.108
 5087TIP3    H115225   1.196   4.713   1.178
 5087TIP3    H215226   1.122   4.834   1.125
 5088TIP3   OH215227   5.612   1.427   5.719
 5088TIP3    H115228   5.541   1.465   5.667
 5088TIP3    H215229   5.596   1.332   5.716
 5089TIP3   OH215230   1.445   6.565   3.974
 5089TIP3    H115231   1.395   6.484   3.962
 5089TIP3    H215232   1.461   6.598   3.886
 5090TIP3   OH215233   6.573   4.365   3.741
 5090TIP3    H115234   6.658   4.407   3.725
 5090TIP3    H215235   6.517   4.396   3.669
 5091TIP3   OH215236   2.373   1.187   5.065
 5091TIP3    H115237   2.314   1.203   4.991
 5091TIP3    H215238   2.423   1.268   5.073
 5092TIP3   OH215239   0.624   4.453   0.003
 5092TIP3    H115240   0.672   4.535   0.007
 5092TIP3    H215241   0.660   4.400   0.074
 5093TIP3   OH215242   5.999   3.168   4.269
 5093TIP3    H115243   5.971   3.256   4.243
 5093TIP3    H215244   6.042   3.133   4.192
 5094TIP3   OH215245   3.431   3.024   1.074
 5094TIP3    H115246   3.367   3.090   1.049
 5094TIP3    H215247   3.515   3.061   1.047
 5095TIP3   OH215248   4.413   3.032   5.847
 5095TIP3    H115249   4.399   3.034   5.941
 5095TIP3    H215250   4.464   3.111   5.828
 5096TIP3   OH215251   6.574   5.469   0.622
 5096TIP3    H115252   6.571   5.373   0.618
 5096TIP3    H215253   6.587   5.496   0.531
 5097TIP3   OH215254   0.299   1.609   1.921
 5097TIP3    H115255   0.318   1.534   1.864
 5097TIP3    H215256   0.340   1.587   2.004
 5098TIP3   OH215257   0.753   4.132   2.726
 5098TIP3    H115258   0.838   4.095   2.703
 5098TIP3    H215259   0.729   4.088   2.807
 5099TIP3   OH215260   5.966   0.401   1.429
 5099TIP3    H115261   6.039   0.362   1.381
 5099TIP3    H215262   5.953   0.486   1.387
 5100TIP3   OH215263   3.515   5.715   3.525
 5100TIP3    H115264   3.595   5.754   3.490
 5100TIP3    H215265   3.446   5.775   3.497
 5101TIP3   OH215266   3.568   4.929   3.101
 5101TIP3    H115267   3.621   4.867   3.152
 5101TIP3    H215268   3.630   4.996   3.072
 5102TIP3   OH215269   4.297   2.874   4.952
 5102TIP3    H115270   4.248   2.833   4.880
 5102TIP3    H215271   4.389   2.863   4.927
 5103TIP3   OH215272   6.125   6.111   2.399
 5103TIP3    H115273   6.192   6.172   2.368
 5103TIP3    H215274   6.158   6.080   2.484
 5104TIP3   OH215275   1.674   0.600   5.231
 5104TIP3    H115276   1.585   0.569   5.212
 5104TIP3    H215277   1.661   0.677   5.287
 5105TIP3   OH215278   2.127   1.891   0.411
 5105TIP3    H115279   2.082   1.927   0.487
 5105TIP3    H215280   2.112   1.797   0.416
 5106TIP3   OH215281   6.100   2.875   5.752
 5106TIP3    H115282   6.153   2.933   5.806
 5106TIP3    H215283   6.160   2.804   5.728
 5107TIP3   OH215284   4.789   0.622   4.683
 5107TIP3    H115285   4.833   0.593   4.603
 5107TIP3    H215286   4.730   0.550   4.704
 5108TIP3   OH215287   5.767   4.776   1.705
 5108TIP3    H115288   5.679   4.783   1.743
 5108TIP3    H215289   5.804   4.864   1.711
 5109TIP3   OH215290   4.513   6.064   0.627
 5109TIP3    H115291   4.503   6.026   0.715
 5109TIP3    H215292   4.450   6.136   0.625
 5110TIP3   OH215293   2.541   0.290   2.059
 5110TIP3    H115294   2.544   0.384   2.072
 5110TIP3    H215295   2.589   0.275   1.978
 5111TIP3   OH215296   3.476   3.394   4.947
 5111TIP3    H115297   3.415   3.426   5.014
 5111TIP3    H215298   3.466   3.456   4.874
 5112TIP3   OH215299   5.731   4.986   0.801
 5112TIP3    H115300   5.712   4.892   0.802
 5112TIP3    H215301   5.645   5.028   0.800
 5113TIP3   OH215302   3.267   2.595   3.956
 5113TIP3    H115303   3.246   2.502   3.959
 5113TIP3    H215304   3.203   2.636   4.013
 5114TIP3   OH215305   0.207   2.877   4.486
 5114TIP3    H115306   0.242   2.962   4.461
 5114TIP3    H215307   0.265   2.846   4.555
 5115TIP3   OH215308   0.125   5.537   1.297
 5115TIP3    H115309   0.135   5.630   1.319
 5115TIP3    H215310   0.187   5.492   1.354
 5116TIP3   OH215311   0.859   5.235   0.442
 5116TIP3    H115312   0.906   5.264   0.364
 5116TIP3    H215313   0.889   5.292   0.511
 5117TIP3   OH215314   0.654   1.282   4.535
 5117TIP3    H115315   0.650   1.207   4.595
 5117TIP3    H215316   0.618   1.355   4.586
 5118TIP3   OH215317   2.608   0.956   1.349
 5118TIP3    H115318   2.702   0.961   1.331
 5118TIP3    H215319   2.596   0.869   1.388
 5119TIP3   OH215320   6.066   3.278   3.000
 5119TIP3    H115321   6.084   3.331   3.078
 5119TIP3    H215322   6.131   3.308   2.936
 5120TIP3   OH215323   5.609   5.530   3.840
 5120TIP3    H115324   5.570   5.444   3.854
 5120TIP3    H215325   5.631   5.531   3.746
 5121TIP3   OH215326   0.856   0.084   5.579
 5121TIP3    H115327   0.902   0.034   5.511
 5121TIP3    H215328   0.764   0.065   5.565
 5122TIP3   OH215329   0.207   3.065   3.158
 5122TIP3    H115330   0.286   3.119   3.162
 5122TIP3    H215331   0.210   3.014   3.239
 5123TIP3   OH215332   2.657   5.722   1.617
 5123TIP3    H115333   2.703   5.682   1.691
 5123TIP3    H215334   2.705   5.802   1.598
 5124TIP3   OH215335   6.585   5.547   3.667
 5124TIP3    H115336   6.672   5.507   3.664
 5124TIP3    H215337   6.557   5.539   3.758
 5125TIP3   OH215338   2.018   0.380   4.241
 5125TIP3    H115339   2.111   0.389   4.217
 5125TIP3    H215340   1.971   0.422   4.169
 5126TIP3   OH215341   0.296   3.584   0.290
 5126TIP3    H115342   0.284   3.530   0.212
 5126TIP3    H215343   0.377   3.632   0.274
 5127TIP3   OH215344   7.021   3.741   4.747
 5127TIP3    H115345   6.983   3.693   4.821
 5127TIP3    H215346   7.113   3.752   4.770
 5128TIP3   OH215347   1.620   6.606   5.398
 5128TIP3    H115348   1.561   6.582   5.469
 5128TIP3    H215349   1.661   6.524   5.371
 5129TIP3   OH215350   2.985   0.146   1.741
 5129TIP3    H115351   2.990   0.138   1.646
 5129TIP3    H215352   3.071   0.116   1.772
 5130TIP3   OH215353   5.809   2.737   0.558
 5130TIP3    H115354   5.832   2.729   0.650
 5130TIP3    H215355   5.876   2.793   0.520
 5131TIP3   OH215356   4.334   5.722   1.514
 5131TIP3    H115357   4.314   5.710   1.607
 5131TIP3    H215358   4.297   5.808   1.493
 5132TIP3   OH215359   4.930   3.419   4.422
 5132TIP3    H115360   4.836   3.416   4.406
 5132TIP3    H215361   4.938   3.425   4.517
 5133TIP3   OH215362   0.587   5.135   2.650
 5133TIP3    H115363   0.532   5.071   2.603
 5133TIP3    H215364   0.549   5.220   2.627
 5134TIP3   OH215365   4.827   1.418   2.282
 5134TIP3    H115366   4.919   1.445   2.273
 5134TIP3    H215367   4.802   1.449   2.369
 5135TIP3   OH215368   5.337   5.868   3.976
 5135TIP3    H115369   5.326   5.879   4.071
 5135TIP3    H215370   5.355   5.774   3.965
 5136TIP3   OH215371   1.913   6.559   5.393
 5136TIP3    H115372   1.915   6.484   5.452
 5136TIP3    H215373   1.856   6.622   5.437
 5137TIP3   OH215374   2.824   2.008   5.268
 5137TIP3    H115375   2.792   2.089   5.309
 5137TIP3    H215376   2.905   1.988   5.314
 5138TIP3   OH215377   1.193   1.818   0.627
 5138TIP3    H115378   1.273   1.849   0.585
 5138TIP3    H215379   1.179   1.878   0.700
 5139TIP3   OH215380   3.740   1.238   5.814
 5139TIP3    H115381   3.719   1.316   5.763
 5139TIP3    H215382   3.803   1.190   5.760
 5140TIP3   OH215383   5.493   4.504   1.655
 5140TIP3    H115384   5.545   4.532   1.579
 5140TIP3    H215385   5.554   4.505   1.728
 5141TIP3   OH215386   0.074   6.125   4.606
 5141TIP3    H115387   0.069   6.041   4.651
 5141TIP3    H215388   0.150   6.117   4.549
 5142TIP3   OH215389   1.690   6.086   3.023
 5142TIP3    H115390   1.687   6.181   3.011
 5142TIP3    H215391   1.759   6.072   3.088
 5143TIP3   OH215392   3.236   1.832   4.190
 5143TIP3    H115393   3.310   1.872   4.144
 5143TIP3    H215394   3.181   1.906   4.216
 5144TIP3   OH215395   0.285   0.696   4.456
 5144TIP3    H115396   0.257   0.638   4.385
 5144TIP3    H215397   0.346   0.757   4.414
 5145TIP3   OH215398   3.167   5.417   2.123
 5145TIP3    H115399   3.094   5.364   2.157
 5145TIP3    H215400   3.155   5.503   2.163
 5146TIP3   OH215401   3.067   1.590   4.185
 5146TIP3    H115402   3.094   1.674   4.148
 5146TIP3    H215403   3.041   1.537   4.110
 5147TIP3   OH215404   1.194   1.972   1.523
 5147TIP3    H115405   1.165   1.881   1.525
 5147TIP3    H215406   1.250   1.981   1.601
 5148TIP3   OH215407   1.007   5.858   2.212
 5148TIP3    H115408   0.930   5.881   2.160
 5148TIP3    H215409   0.986   5.772   2.248
 5149TIP3   OH215410   0.027   3.806   1.076
 5149TIP3    H115411   0.080   3.835   1.149
 5149TIP3    H215412   0.079   3.826   0.998
 5150TIP3   OH215413   6.692   2.597   2.230
 5150TIP3    H115414   6.743   2.652   2.170
 5150TIP3    H215415   6.629   2.657   2.270
 5151TIP3   OH215416   5.062   0.345   5.649
 5151TIP3    H115417   5.082   0.417   5.588
 5151TIP3    H215418   5.102   0.268   5.609
 5152TIP3   OH215419   4.981   3.895   0.005
 5152TIP3    H115420   5.005   3.983  -0.023
 5152TIP3    H215421   5.044   3.873   0.073
 5153TIP3   OH215422   4.698   4.255  -0.025
 5153TIP3    H115423   4.718   4.341  -0.064
 5153TIP3    H215424   4.724   4.264   0.067
 5154TIP3   OH215425   3.229   4.224   3.213
 5154TIP3    H115426   3.186   4.201   3.295
 5154TIP3    H215427   3.319   4.195   3.224
 5155TIP3   OH215428   5.699   3.895   0.485
 5155TIP3    H115429   5.773   3.928   0.434
 5155TIP3    H215430   5.628   3.957   0.467
 5156TIP3   OH215431   2.062   6.479   2.252
 5156TIP3    H115432   2.060   6.561   2.300
 5156TIP3    H215433   1.989   6.428   2.289
 5157TIP3   OH215434   0.440   2.956   4.203
 5157TIP3    H115435   0.533   2.961   4.227
 5157TIP3    H215436   0.411   3.047   4.197
 5158TIP3   OH215437   0.870   1.274   4.809
 5158TIP3    H115438   0.903   1.209   4.746
 5158TIP3    H215439   0.862   1.225   4.891
 5159TIP3   OH215440   3.412   3.917   3.304
 5159TIP3    H115441   3.327   3.888   3.335
 5159TIP3    H215442   3.426   4.002   3.347
 5160TIP3   OH215443   5.010   0.228   3.139
 5160TIP3    H115444   5.055   0.312   3.147
 5160TIP3    H215445   5.046   0.174   3.210
 5161TIP3   OH215446   7.155   1.005   0.963
 5161TIP3    H115447   7.094   0.974   1.030
 5161TIP3    H215448   7.146   0.941   0.892
 5162TIP3   OH215449   4.849   5.863   1.372
 5162TIP3    H115450   4.754   5.874   1.385
 5162TIP3    H215451   4.889   5.929   1.429
 5163TIP3   OH215452   7.124   5.032   2.619
 5163TIP3    H115453   7.109   4.939   2.629
 5163TIP3    H215454   7.101   5.070   2.704
 5164TIP3   OH215455   3.240   1.937   1.331
 5164TIP3    H115456   3.294   2.008   1.295
 5164TIP3    H215457   3.173   1.982   1.381
 5165TIP3   OH215458   1.884   1.245   4.486
 5165TIP3    H115459   1.903   1.175   4.548
 5165TIP3    H215460   1.959   1.304   4.491
 5166TIP3   OH215461   5.921   1.270   5.868
 5166TIP3    H115462   5.827   1.258   5.879
 5166TIP3    H215463   5.952   1.188   5.830
 5167TIP3   OH215464   5.054   3.658   1.097
 5167TIP3    H115465   4.979   3.608   1.130
 5167TIP3    H215466   5.048   3.651   1.002
 5168TIP3   OH215467   6.041   5.356   2.305
 5168TIP3    H115468   6.122   5.369   2.255
 5168TIP3    H215469   5.972   5.357   2.239
 5169TIP3   OH215470   2.541   6.730   0.442
 5169TIP3    H115471   2.554   6.743   0.348
 5169TIP3    H215472   2.512   6.816   0.474
 5170TIP3   OH215473   6.038   4.562   5.184
 5170TIP3    H115474   5.947   4.562   5.212
 5170TIP3    H215475   6.087   4.531   5.260
 5171TIP3   OH215476   5.509   5.379   0.284
 5171TIP3    H115477   5.577   5.369   0.351
 5171TIP3    H215478   5.434   5.330   0.318
 5172TIP3   OH215479   2.217   0.267   5.677
 5172TIP3    H115480   2.292   0.263   5.736
 5172TIP3    H215481   2.203   0.176   5.650
 5173TIP3   OH215482   6.478   3.489   1.161
 5173TIP3    H115483   6.545   3.421   1.152
 5173TIP3    H215484   6.527   3.570   1.177
 5174TIP3   OH215485   0.660   5.178   0.787
 5174TIP3    H115486   0.630   5.146   0.702
 5174TIP3    H215487   0.648   5.273   0.783
 5175TIP3   OH215488   1.199   5.419   1.641
 5175TIP3    H115489   1.142   5.381   1.574
 5175TIP3    H215490   1.287   5.416   1.603
 5176TIP3   OH215491   4.058   0.100   4.200
 5176TIP3    H115492   4.102   0.153   4.267
 5176TIP3    H215493   4.130   0.067   4.146
 5177TIP3   OH215494   3.673   5.137   5.269
 5177TIP3    H115495   3.595   5.097   5.231
 5177TIP3    H215496   3.646   5.224   5.294
 5178TIP3   OH215497   6.829   2.539   0.333
 5178TIP3    H115498   6.789   2.459   0.367
 5178TIP3    H215499   6.919   2.513   0.312
 5179TIP3   OH215500   7.021   3.374   3.420
 5179TIP3    H115501   7.039   3.394   3.328
 5179TIP3    H215502   7.095   3.412   3.467
 5180TIP3   OH215503   5.658   5.938   2.027
 5180TIP3    H115504   5.690   5.952   2.116
 5180TIP3    H215505   5.721   5.877   1.989
 5181TIP3   OH215506   0.051   4.864   4.581
 5181TIP3    H115507   0.070   4.789   4.637
 5181TIP3    H215508  -0.025   4.836   4.529
 5182TIP3   OH215509   1.677   0.728   1.884
 5182TIP3    H115510   1.771   0.719   1.869
 5182TIP3    H215511   1.668   0.734   1.979
 5183TIP3   OH215512   0.678   3.858   5.303
 5183TIP3    H115513   0.730   3.844   5.224
 5183TIP3    H215514   0.723   3.929   5.349
 5184TIP3   OH215515   0.148   3.369   5.545
 5184TIP3    H115516   0.060   3.331   5.549
 5184TIP3    H215517   0.135   3.453   5.501
 5185TIP3   OH215518   1.576   2.497   2.179
 5185TIP3    H115519   1.589   2.588   2.205
 5185TIP3    H215520   1.526   2.502   2.097
 5186TIP3   OH215521   3.903   2.556   2.712
 5186TIP3    H115522   3.962   2.607   2.769
 5186TIP3    H215523   3.824   2.544   2.765
 5187TIP3   OH215524   0.588   5.078   4.028
 5187TIP3    H115525   0.614   5.164   4.061
 5187TIP3    H215526   0.531   5.098   3.953
 5188TIP3   OH215527   1.103   4.051   0.567
 5188TIP3    H115528   1.131   4.105   0.641
 5188TIP3    H215529   1.023   4.093   0.535
 5189TIP3   OH215530   3.802   5.875   5.398
 5189TIP3    H115531   3.875   5.842   5.346
 5189TIP3    H215532   3.842   5.906   5.479
 5190TIP3   OH215533   3.436   4.936   1.108
 5190TIP3    H115534   3.487   4.905   1.182
 5190TIP3    H215535   3.438   4.863   1.045
 5191TIP3   OH215536   4.710   4.458   5.817
 5191TIP3    H115537   4.695   4.375   5.770
 5191TIP3    H215538   4.787   4.496   5.775
 5192TIP3   OH215539   2.163   4.206   1.220
 5192TIP3    H115540   2.136   4.134   1.164
 5192TIP3    H215541   2.222   4.258   1.166
 5193TIP3   OH215542   2.097   5.294   2.167
 5193TIP3    H115543   2.008   5.261   2.180
 5193TIP3    H215544   2.116   5.276   2.075
 5194TIP3   OH215545   0.627   3.955   2.173
 5194TIP3    H115546   0.696   3.999   2.122
 5194TIP3    H215547   0.670   3.931   2.255
 5195TIP3   OH215548   5.337   0.199   1.954
 5195TIP3    H115549   5.355   0.160   2.040
 5195TIP3    H215550   5.402   0.161   1.896
 5196TIP3   OH215551   4.075   3.318   5.590
 5196TIP3    H115552   4.072   3.228   5.622
 5196TIP3    H215553   4.102   3.310   5.498
 5197TIP3   OH215554   0.060   4.016   0.639
 5197TIP3    H115555  -0.014   4.045   0.693
 5197TIP3    H215556   0.129   4.079   0.658
 5198TIP3   OH215557   6.886   1.639   3.024
 5198TIP3    H115558   6.799   1.618   2.991
 5198TIP3    H215559   6.875   1.721   3.072
 5199TIP3   OH215560   7.101   1.907   4.032
 5199TIP3    H115561   7.119   1.905   3.938
 5199TIP3    H215562   7.178   1.951   4.070
 5200TIP3   OH215563   6.126   2.974   4.819
 5200TIP3    H115564   6.030   2.969   4.821
 5200TIP3    H215565   6.148   2.970   4.726
 5201TIP3   OH215566   5.970   5.056   2.786
 5201TIP3    H115567   5.940   4.992   2.722
 5201TIP3    H215568   5.946   5.018   2.871
 5202TIP3   OH215569   5.098   3.414  -0.026
 5202TIP3    H115570   5.066   3.409   0.064
 5202TIP3    H215571   5.182   3.460  -0.019
 5203TIP3   OH215572   4.671   0.652   5.103
 5203TIP3    H115573   4.747   0.594   5.099
 5203TIP3    H215574   4.632   0.645   5.015
 5204TIP3   OH215575   3.562   3.678   3.210
 5204TIP3    H115576   3.500   3.725   3.265
 5204TIP3    H215577   3.632   3.651   3.269
 5205TIP3   OH215578   3.877   2.907   1.594
 5205TIP3    H115579   3.887   2.925   1.688
 5205TIP3    H215580   3.932   2.973   1.551
 5206TIP3   OH215581   6.509   5.424   1.241
 5206TIP3    H115582   6.560   5.412   1.321
 5206TIP3    H215583   6.486   5.335   1.214
 5207TIP3   OH215584   1.222   0.119   5.487
 5207TIP3    H115585   1.157   0.123   5.417
 5207TIP3    H215586   1.219   0.028   5.517
 5208TIP3   OH215587   2.577   2.133   3.130
 5208TIP3    H115588   2.634   2.122   3.054
 5208TIP3    H215589   2.613   2.210   3.175
 5209TIP3   OH215590   3.584   1.353   1.417
 5209TIP3    H115591   3.625   1.291   1.356
 5209TIP3    H215592   3.608   1.439   1.384
 5210TIP3   OH215593   6.200   4.783   4.591
 5210TIP3    H115594   6.250   4.753   4.667
 5210TIP3    H215595   6.149   4.857   4.623
 5211TIP3   OH215596   3.691   1.652   0.959
 5211TIP3    H115597   3.664   1.701   1.037
 5211TIP3    H215598   3.758   1.592   0.990
 5212TIP3   OH215599   2.175   6.629   1.638
 5212TIP3    H115600   2.119   6.664   1.708
 5212TIP3    H215601   2.234   6.568   1.683
 5213TIP3   OH215602   0.609   0.757   0.278
 5213TIP3    H115603   0.535   0.709   0.316
 5213TIP3    H215604   0.570   0.832   0.235
 5214TIP3   OH215605   1.274   1.202   2.927
 5214TIP3    H115606   1.218   1.197   2.850
 5214TIP3    H215607   1.298   1.294   2.934
 5215TIP3   OH215608   3.616   0.716   4.114
 5215TIP3    H115609   3.555   0.643   4.127
 5215TIP3    H215610   3.655   0.731   4.200
 5216TIP3   OH215611   4.427   4.897   5.275
 5216TIP3    H115612   4.397   4.823   5.221
 5216TIP3    H215613   4.347   4.948   5.291
 5217TIP3   OH215614   2.155   3.218   1.807
 5217TIP3    H115615   2.103   3.275   1.864
 5217TIP3    H215616   2.165   3.137   1.856
 5218TIP3   OH215617   2.067   5.348   4.377
 5218TIP3    H115618   2.097   5.263   4.346
 5218TIP3    H215619   2.016   5.329   4.455
 5219TIP3   OH215620   5.996   1.982   2.943
 5219TIP3    H115621   5.949   2.039   3.005
 5219TIP3    H215622   6.068   2.036   2.911
 5220TIP3   OH215623   1.940   6.325   2.011
 5220TIP3    H115624   1.956   6.237   2.043
 5220TIP3    H215625   1.992   6.382   2.068
 5221TIP3   OH215626   2.915   2.980   5.550
 5221TIP3    H115627   2.956   3.065   5.535
 5221TIP3    H215628   2.912   2.939   5.463
 5222TIP3   OH215629   4.887   2.569   1.597
 5222TIP3    H115630   4.839   2.527   1.527
 5222TIP3    H215631   4.923   2.649   1.557
 5223TIP3   OH215632   1.461   2.847   1.629
 5223TIP3    H115633   1.495   2.852   1.719
 5223TIP3    H215634   1.529   2.888   1.576
 5224TIP3   OH215635   6.899   0.394   4.203
 5224TIP3    H115636   6.854   0.473   4.174
 5224TIP3    H215637   6.829   0.331   4.222
 5225TIP3   OH215638   3.732   3.315   2.713
 5225TIP3    H115639   3.682   3.260   2.773
 5225TIP3    H215640   3.801   3.353   2.767
 5226TIP3   OH215641   5.017   4.811   4.113
 5226TIP3    H115642   4.965   4.770   4.043
 5226TIP3    H215643   5.007   4.752   4.187
 5227TIP3   OH215644   6.364   6.757   4.391
 5227TIP3    H115645   6.312   6.773   4.312
 5227TIP3    H215646   6.307   6.781   4.463
 5228TIP3   OH215647   3.278   3.629   4.936
 5228TIP3    H115648   3.294   3.592   4.849
 5228TIP3    H215649   3.198   3.585   4.966
 5229TIP3   OH215650   3.189   2.961   0.058
 5229TIP3    H115651   3.230   2.998  -0.020
 5229TIP3    H215652   3.251   2.980   0.129
 5230TIP3   OH215653   4.933   3.365   3.242
 5230TIP3    H115654   4.847   3.330   3.219
 5230TIP3    H215655   4.984   3.357   3.161
 5231TIP3   OH215656   0.266   4.310   2.266
 5231TIP3    H115657   0.221   4.360   2.334
 5231TIP3    H215658   0.320   4.375   2.220
 5232TIP3   OH215659   3.174   4.896   5.807
 5232TIP3    H115660   3.268   4.883   5.815
 5232TIP3    H215661   3.148   4.931   5.893
 5233TIP3   OH215662   5.405   6.460   3.898
 5233TIP3    H115663   5.477   6.400   3.915
 5233TIP3    H215664   5.419   6.489   3.807
 5234TIP3   OH215665   2.599   1.829   1.840
 5234TIP3    H115666   2.563   1.894   1.779
 5234TIP3    H215667   2.525   1.806   1.897
 5235TIP3   OH215668   7.148   0.475   2.243
 5235TIP3    H115669   7.170   0.442   2.156
 5235TIP3    H215670   7.228   0.462   2.295
 5236TIP3   OH215671   6.617   4.498   4.230
 5236TIP3    H115672   6.626   4.583   4.273
 5236TIP3    H215673   6.684   4.443   4.270
 5237TIP3   OH215674   5.578   0.679   5.767
 5237TIP3    H115675   5.612   0.724   5.690
 5237TIP3    H215676   5.550   0.749   5.825
 5238TIP3   OH215677   1.012   0.286   4.754
 5238TIP3    H115678   1.062   0.263   4.676
 5238TIP3    H215679   1.052   0.236   4.824
 5239TIP3   OH215680   2.084   0.050   1.285
 5239TIP3    H115681   2.076   0.146   1.282
 5239TIP3    H215682   2.058   0.022   1.197
 5240TIP3   OH215683   6.393   1.968   5.489
 5240TIP3    H115684   6.480   1.983   5.525
 5240TIP3    H215685   6.344   1.929   5.560
 5241TIP3   OH215686   0.465   3.324   2.946
 5241TIP3    H115687   0.386   3.297   2.901
 5241TIP3    H215688   0.465   3.275   3.028
 5242TIP3   OH215689   6.258   3.406   3.448
 5242TIP3    H115690   6.307   3.456   3.383
 5242TIP3    H215691   6.215   3.473   3.502
 5243TIP3   OH215692   6.535   4.808   0.553
 5243TIP3    H115693   6.522   4.773   0.641
 5243TIP3    H215694   6.451   4.795   0.509
 5244TIP3   OH215695   0.064   1.713   5.006
 5244TIP3    H115696   0.159   1.714   5.021
 5244TIP3    H215697   0.055   1.701   4.911
 5245TIP3   OH215698   4.793   1.636   3.074
 5245TIP3    H115699   4.793   1.731   3.061
 5245TIP3    H215700   4.749   1.623   3.158
 5246TIP3   OH215701   1.244   6.372   3.591
 5246TIP3    H115702   1.222   6.384   3.499
 5246TIP3    H215703   1.186   6.433   3.637
 5247TIP3   OH215704   4.260   1.969   4.322
 5247TIP3    H115705   4.291   1.899   4.379
 5247TIP3    H215706   4.165   1.964   4.325
 5248TIP3   OH215707   0.843   1.122   4.102
 5248TIP3    H115708   0.809   1.197   4.054
 5248TIP3    H215709   0.841   1.151   4.194
 5249TIP3   OH215710   0.545   0.236   5.744
 5249TIP3    H115711   0.578   0.325   5.735
 5249TIP3    H215712   0.562   0.195   5.659
 5250TIP3   OH215713   0.010   1.548   3.472
 5250TIP3    H115714   0.007   1.504   3.558
 5250TIP3    H215715   0.093   1.520   3.434
 5251TIP3   OH215716   4.020   5.108   0.027
 5251TIP3    H115717   3.974   5.025   0.029
 5251TIP3    H215718   3.965   5.168   0.078
 5252TIP3   OH215719   5.972   5.684   5.645
 5252TIP3    H115720   5.944   5.768   5.681
 5252TIP3    H215721   6.050   5.660   5.696
 5253TIP3   OH215722   7.058   6.153   2.907
 5253TIP3    H115723   7.143   6.112   2.925
 5253TIP3    H215724   7.066   6.241   2.945
 5254TIP3   OH215725   0.974   3.685   0.162
 5254TIP3    H115726   0.957   3.632   0.084
 5254TIP3    H215727   1.069   3.701   0.159
 5255TIP3   OH215728   5.925   3.047   0.167
 5255TIP3    H115729   5.965   3.074   0.084
 5255TIP3    H215730   5.901   2.955   0.153
 5256TIP3   OH215731   6.713   4.853   3.951
 5256TIP3    H115732   6.632   4.889   3.987
 5256TIP3    H215733   6.719   4.890   3.863
 5257TIP3   OH215734   1.901   5.330   3.382
 5257TIP3    H115735   1.886   5.312   3.289
 5257TIP3    H215736   1.980   5.383   3.384
 5258TIP3   OH215737   0.758   4.393   5.854
 5258TIP3    H115738   0.708   4.311   5.850
 5258TIP3    H215739   0.700   4.455   5.899
 5259TIP3   OH215740   5.150   5.853   5.238
 5259TIP3    H115741   5.132   5.791   5.167
 5259TIP3    H215742   5.243   5.874   5.229
 5260TIP3   OH215743   6.044   1.098   3.141
 5260TIP3    H115744   6.024   1.035   3.210
 5260TIP3    H215745   5.972   1.088   3.078
 5261TIP3   OH215746   6.637   3.336   2.223
 5261TIP3    H115747   6.717   3.344   2.275
 5261TIP3    H215748   6.664   3.355   2.134
 5262TIP3   OH215749   5.558   6.701   0.652
 5262TIP3    H115750   5.652   6.689   0.638
 5262TIP3    H215751   5.518   6.660   0.575
 5263TIP3   OH215752   5.209   4.626   4.289
 5263TIP3    H115753   5.238   4.560   4.227
 5263TIP3    H215754   5.290   4.655   4.333
 5264TIP3   OH215755   3.382   5.556   1.983
 5264TIP3    H115756   3.330   5.524   2.057
 5264TIP3    H215757   3.382   5.651   1.994
 5265TIP3   OH215758   5.822   2.729   5.368
 5265TIP3    H115759   5.744   2.692   5.327
 5265TIP3    H215760   5.822   2.821   5.341
 5266TIP3   OH215761   0.893   2.973   4.691
 5266TIP3    H115762   0.987   2.984   4.707
 5266TIP3    H215763   0.860   3.062   4.677
 5267TIP3   OH215764   5.185   3.450   5.079
 5267TIP3    H115765   5.095   3.483   5.085
 5267TIP3    H215766   5.186   3.374   5.138
 5268TIP3   OH215767   3.659   1.969   3.352
 5268TIP3    H115768   3.662   1.942   3.260
 5268TIP3    H215769   3.650   1.887   3.401
 5269TIP3   OH215770   1.622   6.848   4.537
 5269TIP3    H115771   1.620   6.811   4.626
 5269TIP3    H215772   1.610   6.773   4.479
 5270TIP3   OH215773   4.653   4.030   0.903
 5270TIP3    H115774   4.559   4.020   0.895
 5270TIP3    H215775   4.667   4.123   0.921
 5271TIP3   OH215776   6.501   6.388   0.057
 5271TIP3    H115777   6.550   6.350   0.129
 5271TIP3    H215778   6.520   6.331  -0.018
 5272TIP3   OH215779   3.873   3.495   4.084
 5272TIP3    H115780   3.783   3.500   4.116
 5272TIP3    H215781   3.867   3.443   4.004
 5273TIP3   OH215782   0.511   6.588   3.493
 5273TIP3    H115783   0.596   6.615   3.528
 5273TIP3    H215784   0.472   6.670   3.460
 5274TIP3   OH215785   0.363   2.240   0.255
 5274TIP3    H115786   0.353   2.319   0.308
 5274TIP3    H215787   0.282   2.235   0.204
 5275TIP3   OH215788   4.310   0.807   1.960
 5275TIP3    H115789   4.365   0.867   2.011
 5275TIP3    H215790   4.221   0.826   1.989
 5276TIP3   OH215791   1.012   1.454   4.141
 5276TIP3    H115792   1.049   1.402   4.212
 5276TIP3    H215793   0.927   1.484   4.175
 5277TIP3   OH215794   1.450   2.125   0.060
 5277TIP3    H115795   1.356   2.136   0.073
 5277TIP3    H215796   1.488   2.211   0.079
 5278TIP3   OH215797   3.036   5.990   1.404
 5278TIP3    H115798   2.964   6.045   1.374
 5278TIP3    H215799   3.078   6.041   1.474
 5279TIP3   OH215800   1.557   0.313   1.408
 5279TIP3    H115801   1.550   0.250   1.480
 5279TIP3    H215802   1.524   0.395   1.444
 5280TIP3   OH215803   2.628   6.291   5.394
 5280TIP3    H115804   2.651   6.224   5.330
 5280TIP3    H215805   2.567   6.247   5.453
 5281TIP3   OH215806   6.638   4.026   5.745
 5281TIP3    H115807   6.640   4.061   5.656
 5281TIP3    H215808   6.730   4.018   5.770
 5282TIP3   OH215809   6.582   3.593   2.792
 5282TIP3    H115810   6.612   3.588   2.701
 5282TIP3    H215811   6.512   3.659   2.791
 5283TIP3   OH215812   3.344   4.929   0.675
 5283TIP3    H115813   3.294   4.856   0.712
 5283TIP3    H215814   3.432   4.918   0.709
 5284TIP3   OH215815   6.279   5.409   4.155
 5284TIP3    H115816   6.208   5.450   4.205
 5284TIP3    H215817   6.357   5.425   4.208
 5285TIP3   OH215818   2.657   6.709   2.276
 5285TIP3    H115819   2.642   6.705   2.181
 5285TIP3    H215820   2.710   6.632   2.295
 5286TIP3   OH215821   4.838   4.957   4.490
 5286TIP3    H115822   4.905   4.891   4.506
 5286TIP3    H215823   4.760   4.907   4.467
 5287TIP3   OH215824   3.709   0.156   4.069
 5287TIP3    H115825   3.770   0.213   4.116
 5287TIP3    H215826   3.742   0.152   3.980
 5288TIP3   OH215827   6.872   4.651   5.689
 5288TIP3    H115828   6.901   4.593   5.618
 5288TIP3    H215829   6.939   4.719   5.694
 5289TIP3   OH215830   2.145   3.826   0.891
 5289TIP3    H115831   2.060   3.822   0.935
 5289TIP3    H215832   2.135   3.770   0.814
 5290TIP3   OH215833   2.754   2.226   4.547
 5290TIP3    H115834   2.821   2.291   4.569
 5290TIP3    H215835   2.680   2.248   4.604
 5291TIP3   OH215836   3.095   2.074   4.249
 5291TIP3    H115837   3.029   2.127   4.205
 5291TIP3    H215838   3.147   2.137   4.299
 5292TIP3   OH215839   4.340   4.168   3.626
 5292TIP3    H115840   4.408   4.216   3.672
 5292TIP3    H215841   4.278   4.142   3.694
 5293TIP3   OH215842   3.210   4.121   1.351
 5293TIP3    H115843   3.249   4.120   1.264
 5293TIP3    H215844   3.118   4.141   1.336
 5294TIP3   OH215845   0.982   4.284   0.249
 5294TIP3    H115846   1.043   4.345   0.290
 5294TIP3    H215847   1.033   4.204   0.235
 5295TIP3   OH215848   4.297   6.547   2.227
 5295TIP3    H115849   4.219   6.503   2.193
 5295TIP3    H215850   4.274   6.572   2.317
 5296TIP3   OH215851   4.783   1.613   1.952
 5296TIP3    H115852   4.795   1.518   1.944
 5296TIP3    H215853   4.856   1.650   1.903
 5297TIP3   OH215854   2.306   0.494   3.423
 5297TIP3    H115855   2.247   0.558   3.464
 5297TIP3    H215856   2.329   0.533   3.339
 5298TIP3   OH215857   0.764   2.136   1.450
 5298TIP3    H115858   0.673   2.145   1.421
 5298TIP3    H215859   0.815   2.179   1.382
 5299TIP3   OH215860   5.549   2.417   4.603
 5299TIP3    H115861   5.600   2.340   4.625
 5299TIP3    H215862   5.461   2.384   4.586
 5300TIP3   OH215863   3.266   2.873   5.729
 5300TIP3    H115864   3.350   2.849   5.769
 5300TIP3    H215865   3.228   2.789   5.701
 5301TIP3   OH215866   6.329   5.808   5.537
 5301TIP3    H115867   6.243   5.803   5.493
 5301TIP3    H215868   6.370   5.886   5.499
 5302TIP3   OH215869   1.966   2.615   3.347
 5302TIP3    H115870   1.951   2.709   3.336
 5302TIP3    H215871   1.883   2.581   3.380
 5303TIP3   OH215872   4.237   0.908   0.173
 5303TIP3    H115873   4.166   0.854   0.140
 5303TIP3    H215874   4.315   0.875   0.127
 5304TIP3   OH215875   0.573   5.929   3.449
 5304TIP3    H115876   0.667   5.934   3.430
 5304TIP3    H215877   0.532   5.908   3.365
 5305TIP3   OH215878   2.139   5.270   5.526
 5305TIP3    H115879   2.194   5.348   5.531
 5305TIP3    H215880   2.059   5.300   5.481
 5306TIP3   OH215881   0.263   1.458   3.413
 5306TIP3    H115882   0.312   1.506   3.480
 5306TIP3    H215883   0.330   1.428   3.351
 5307TIP3   OH215884   6.632   3.551   5.400
 5307TIP3    H115885   6.566   3.498   5.356
 5307TIP3    H215886   6.599   3.641   5.393
 5308TIP3   OH215887   1.077   4.335   1.568
 5308TIP3    H115888   1.006   4.372   1.515
 5308TIP3    H215889   1.071   4.241   1.553
 5309TIP3   OH215890   0.986   5.745   4.057
 5309TIP3    H115891   0.902   5.788   4.045
 5309TIP3    H215892   0.965   5.654   4.076
 5310TIP3   OH215893   3.861   5.929   3.846
 5310TIP3    H115894   3.841   5.928   3.940
 5310TIP3    H215895   3.842   6.019   3.819
 5311TIP3   OH215896   0.747   3.073   2.976
 5311TIP3    H115897   0.805   3.146   2.955
 5311TIP3    H215898   0.731   3.081   3.070
 5312TIP3   OH215899   1.701   5.575   2.679
 5312TIP3    H115900   1.676   5.638   2.611
 5312TIP3    H215901   1.664   5.611   2.760
 5313TIP3   OH215902   1.115   1.606   0.912
 5313TIP3    H115903   1.129   1.653   0.994
 5313TIP3    H215904   1.203   1.592   0.877
 5314TIP3   OH215905  -0.006   0.363   2.615
 5314TIP3    H115906  -0.057   0.368   2.696
 5314TIP3    H215907   0.008   0.455   2.590
 5315TIP3   OH215908   6.798   5.546   2.216
 5315TIP3    H115909   6.741   5.621   2.196
 5315TIP3    H215910   6.847   5.532   2.136
 5316TIP3   OH215911   6.488   4.522   1.865
 5316TIP3    H115912   6.552   4.468   1.818
 5316TIP3    H215913   6.489   4.487   1.955
 5317TIP3   OH215914   0.127   1.559   1.451
 5317TIP3    H115915   0.036   1.527   1.447
 5317TIP3    H215916   0.175   1.499   1.394
 5318TIP3   OH215917   6.181   6.032   1.262
 5318TIP3    H115918   6.238   6.016   1.187
 5318TIP3    H215919   6.144   6.119   1.246
 5319TIP3   OH215920   1.745   4.108   4.684
 5319TIP3    H115921   1.822   4.094   4.738
 5319TIP3    H215922   1.671   4.098   4.744
 5320TIP3   OH215923   6.693   4.267   5.144
 5320TIP3    H115924   6.696   4.213   5.065
 5320TIP3    H215925   6.777   4.251   5.187
 5321TIP3   OH215926   5.214   6.389   3.596
 5321TIP3    H115927   5.143   6.447   3.625
 5321TIP3    H215928   5.234   6.419   3.507
 5322TIP3   OH215929   2.627   1.507   3.552
 5322TIP3    H115930   2.560   1.488   3.485
 5322TIP3    H215931   2.601   1.590   3.589
 5323TIP3   OH215932   6.149   5.635   3.245
 5323TIP3    H115933   6.088   5.604   3.312
 5323TIP3    H215934   6.233   5.641   3.291
 5324TIP3   OH215935   4.576   2.180   1.664
 5324TIP3    H115936   4.549   2.175   1.756
 5324TIP3    H215937   4.671   2.187   1.667
 5325TIP3   OH215938   2.784   5.588   1.832
 5325TIP3    H115939   2.810   5.611   1.922
 5325TIP3    H215940   2.849   5.524   1.804
 5326TIP3   OH215941   1.322   1.043   1.257
 5326TIP3    H115942   1.233   1.076   1.246
 5326TIP3    H215943   1.332   0.979   1.186
 5327TIP3   OH215944   3.968   6.777   2.837
 5327TIP3    H115945   4.011   6.705   2.882
 5327TIP3    H215946   3.965   6.749   2.745
 5328TIP3   OH215947   6.497   4.283   2.760
 5328TIP3    H115948   6.484   4.217   2.828
 5328TIP3    H215949   6.424   4.269   2.699
 5329TIP3   OH215950   3.724   3.274   4.971
 5329TIP3    H115951   3.656   3.322   4.922
 5329TIP3    H215952   3.676   3.202   5.014
 5330TIP3   OH215953   2.486   3.048   0.433
 5330TIP3    H115954   2.405   3.064   0.384
 5330TIP3    H215955   2.550   3.107   0.394
 5331TIP3   OH215956   0.148   0.165   0.433
 5331TIP3    H115957   0.056   0.148   0.413
 5331TIP3    H215958   0.196   0.105   0.377
 5332TIP3   OH215959   1.342   1.089   5.303
 5332TIP3    H115960   1.349   1.138   5.385
 5332TIP3    H215961   1.412   1.126   5.248
 5333TIP3   OH215962   3.568   6.729   3.937
 5333TIP3    H115963   3.510   6.684   3.876
 5333TIP3    H215964   3.510   6.758   4.008
 5334TIP3   OH215965   1.514   2.799   2.904
 5334TIP3    H115966   1.590   2.776   2.958
 5334TIP3    H215967   1.454   2.725   2.914
 5335TIP3   OH215968   1.070   1.985   0.820
 5335TIP3    H115969   1.000   2.024   0.872
 5335TIP3    H215970   1.151   2.013   0.863
 5336TIP3   OH215971   5.980   2.916   0.420
 5336TIP3    H115972   6.063   2.881   0.386
 5336TIP3    H215973   5.947   2.971   0.349
 5337TIP3   OH215974   0.898   4.711   2.159
 5337TIP3    H115975   0.803   4.722   2.151
 5337TIP3    H215976   0.910   4.643   2.225
 5338TIP3   OH215977   1.782   2.483   0.001
 5338TIP3    H115978   1.871   2.509   0.023
 5338TIP3    H215979   1.789   2.392  -0.028
 5339TIP3   OH215980   6.355   4.389   4.359
 5339TIP3    H115981   6.409   4.400   4.437
 5339TIP3    H215982   6.413   4.412   4.286
 5340TIP3   OH215983   0.183   3.462   1.163
 5340TIP3    H115984   0.171   3.495   1.252
 5340TIP3    H215985   0.115   3.506   1.112
 5341TIP3   OH215986   5.484   3.070   2.220
 5341TIP3    H115987   5.517   3.158   2.207
 5341TIP3    H215988   5.561   3.013   2.215
 5342TIP3   OH215989   1.074   3.700   1.082
 5342TIP3    H115990   1.048   3.792   1.078
 5342TIP3    H215991   1.012   3.655   1.024
 5343TIP3   OH215992   0.522   6.325   2.979
 5343TIP3    H115993   0.545   6.412   2.947
 5343TIP3    H215994   0.594   6.269   2.951
 5344TIP3   OH215995   5.625   0.152   4.322
 5344TIP3    H115996   5.695   0.212   4.348
 5344TIP3    H215997   5.583   0.127   4.404
 5345TIP3   OH215998   6.745   6.466   4.550
 5345TIP3    H115999   6.680   6.416   4.500
 5345TIP3    H216000   6.828   6.420   4.533
 5346TIP3   OH216001   3.590   5.551   3.229
 5346TIP3    H116002   3.642   5.579   3.153
 5346TIP3    H216003   3.506   5.595   3.218
 5347TIP3   OH216004   6.030   6.261   1.131
 5347TIP3    H116005   6.005   6.326   1.197
 5347TIP3    H216006   5.948   6.236   1.090
 5348TIP3   OH216007   3.389   5.357   5.037
 5348TIP3    H116008   3.320   5.362   5.103
 5348TIP3    H216009   3.467   5.390   5.082
 5349TIP3   OH216010   2.242   5.338   2.408
 5349TIP3    H116011   2.158   5.313   2.369
 5349TIP3    H216012   2.227   5.333   2.503
 5350TIP3   OH216013   0.484   0.746   4.644
 5350TIP3    H116014   0.397   0.755   4.604
 5350TIP3    H216015   0.473   0.784   4.732
 5351TIP3   OH216016   4.004   2.275   2.060
 5351TIP3    H116017   4.006   2.302   2.152
 5351TIP3    H216018   3.915   2.294   2.031
 5352TIP3   OH216019   1.762   0.114   2.560
 5352TIP3    H116020   1.835   0.175   2.572
 5352TIP3    H216021   1.792   0.033   2.601
 5353TIP3   OH216022   6.925   5.427   4.240
 5353TIP3    H116023   6.893   5.425   4.330
 5353TIP3    H216024   7.019   5.443   4.248
 5354TIP3   OH216025   6.681   2.114   4.719
 5354TIP3    H116026   6.588   2.113   4.742
 5354TIP3    H216027   6.723   2.164   4.789
 5355TIP3   OH216028   6.613   2.750   0.247
 5355TIP3    H116029   6.619   2.804   0.168
 5355TIP3    H216030   6.688   2.691   0.242
 5356TIP3   OH216031   5.816   2.717   2.795
 5356TIP3    H116032   5.886   2.682   2.851
 5356TIP3    H216033   5.845   2.699   2.706
 5357TIP3   OH216034   5.746   0.006   4.104
 5357TIP3    H116035   5.723   0.027   4.195
 5357TIP3    H216036   5.765   0.091   4.065
 5358TIP3   OH216037   6.952   0.728   3.968
 5358TIP3    H116038   6.999   0.663   4.020
 5358TIP3    H216039   6.860   0.712   3.988
 5359TIP3   OH216040   6.064   2.565   0.987
 5359TIP3    H116041   6.116   2.488   1.010
 5359TIP3    H216042   6.088   2.584   0.896
 5360TIP3   OH216043   7.016   2.764   1.088
 5360TIP3    H116044   7.074   2.840   1.087
 5360TIP3    H216045   7.073   2.690   1.065
 5361TIP3   OH216046   4.444   5.167   2.716
 5361TIP3    H116047   4.413   5.088   2.671
 5361TIP3    H216048   4.491   5.134   2.792
 5362TIP3   OH216049   3.506   4.645   3.005
 5362TIP3    H116050   3.586   4.649   3.058
 5362TIP3    H216051   3.470   4.733   3.009
 5363TIP3   OH216052   3.789   1.679   4.365
 5363TIP3    H116053   3.855   1.710   4.303
 5363TIP3    H216054   3.774   1.753   4.424
 5364TIP3   OH216055   2.288   4.254   3.010
 5364TIP3    H116056   2.341   4.283   3.084
 5364TIP3    H216057   2.331   4.290   2.933
 5365TIP3   OH216058   4.811   6.103   1.192
 5365TIP3    H116059   4.726   6.074   1.226
 5365TIP3    H216060   4.864   6.116   1.271
 5366TIP3   OH216061   3.651   0.438   2.378
 5366TIP3    H116062   3.693   0.450   2.293
 5366TIP3    H216063   3.717   0.392   2.430
 5367TIP3   OH216064   6.404   2.837   0.857
 5367TIP3    H116065   6.385   2.814   0.766
 5367TIP3    H216066   6.320   2.830   0.902
 5368TIP3   OH216067   1.163   0.372   3.745
 5368TIP3    H116068   1.099   0.392   3.677
 5368TIP3    H216069   1.111   0.368   3.826
 5369TIP3   OH216070   6.412   1.473   4.669
 5369TIP3    H116071   6.372   1.421   4.739
 5369TIP3    H216072   6.506   1.466   4.686
 5370TIP3   OH216073   2.048   1.803   2.019
 5370TIP3    H116074   2.112   1.841   1.959
 5370TIP3    H216075   2.097   1.735   2.066
 5371TIP3   OH216076   4.808   6.183   5.381
 5371TIP3    H116077   4.864   6.143   5.315
 5371TIP3    H216078   4.720   6.184   5.342
 5372TIP3   OH216079   3.918   4.280   2.164
 5372TIP3    H116080   4.001   4.292   2.210
 5372TIP3    H216081   3.921   4.189   2.133
 5373TIP3   OH216082   4.152   3.036   3.571
 5373TIP3    H116083   4.217   2.968   3.589
 5373TIP3    H216084   4.121   3.017   3.482
 5374TIP3   OH216085   5.156   3.524   1.537
 5374TIP3    H116086   5.198   3.603   1.503
 5374TIP3    H216087   5.076   3.514   1.485
 5375TIP3   OH216088   0.051   4.071   2.960
 5375TIP3    H116089  -0.024   4.048   3.016
 5375TIP3    H216090   0.091   3.986   2.939
 5376TIP3   OH216091   0.024   4.623   0.301
 5376TIP3    H116092   0.052   4.661   0.218
 5376TIP3    H216093   0.096   4.639   0.361
 5377TIP3   OH216094   6.407   1.301   5.409
 5377TIP3    H116095   6.349   1.293   5.484
 5377TIP3    H216096   6.494   1.281   5.444
 5378TIP3   OH216097   6.470   3.547   2.360
 5378TIP3    H116098   6.529   3.480   2.327
 5378TIP3    H216099   6.458   3.526   2.453
 5379TIP3   OH216100   3.233   0.487   1.284
 5379TIP3    H116101   3.305   0.538   1.321
 5379TIP3    H216102   3.275   0.412   1.242
 5380TIP3   OH216103   1.625   1.534   3.581
 5380TIP3    H116104   1.540   1.520   3.622
 5380TIP3    H216105   1.626   1.473   3.507
 5381TIP3   OH216106   1.643   0.044   4.770
 5381TIP3    H116107   1.713   0.050   4.705
 5381TIP3    H216108   1.640   0.131   4.810
 5382TIP3   OH216109   6.974   3.996   2.423
 5382TIP3    H116110   6.990   4.091   2.423
 5382TIP3    H216111   7.060   3.956   2.427
 5383TIP3   OH216112   6.567   2.060   0.314
 5383TIP3    H116113   6.570   2.018   0.228
 5383TIP3    H216114   6.512   2.137   0.301
 5384TIP3   OH216115   6.139   2.420   0.307
 5384TIP3    H116116   6.220   2.454   0.269
 5384TIP3    H216117   6.157   2.412   0.400
 5385TIP3   OH216118   0.363   1.726   3.038
 5385TIP3    H116119   0.363   1.727   2.942
 5385TIP3    H216120   0.326   1.810   3.063
 5386TIP3   OH216121   5.584   4.146   2.266
 5386TIP3    H116122   5.641   4.130   2.190
 5386TIP3    H216123   5.613   4.230   2.299
 5387TIP3   OH216124   6.069   2.456   5.711
 5387TIP3    H116125   6.140   2.392   5.712
 5387TIP3    H216126   6.073   2.498   5.797
 5388TIP3   OH216127   1.088   3.114   3.845
 5388TIP3    H116128   1.095   3.019   3.835
 5388TIP3    H216129   1.079   3.146   3.755
 5389TIP3   OH216130   1.743   5.588   3.022
 5389TIP3    H116131   1.703   5.505   3.047
 5389TIP3    H216132   1.719   5.648   3.092
 5390TIP3   OH216133   2.211   2.438   5.503
 5390TIP3    H116134   2.303   2.456   5.483
 5390TIP3    H216135   2.173   2.410   5.420
 5391TIP3   OH216136   0.173   5.101   2.442
 5391TIP3    H116137   0.091   5.060   2.471
 5391TIP3    H216138   0.242   5.045   2.479
 5392TIP3   OH216139   3.783   0.837   2.210
 5392TIP3    H116140   3.751   0.926   2.225
 5392TIP3    H216141   3.713   0.780   2.242
 5393TIP3   OH216142   3.610   5.770   5.238
 5393TIP3    H116143   3.681   5.799   5.296
 5393TIP3    H216144   3.530   5.789   5.287
 5394TIP3   OH216145   5.597   2.742   5.545
 5394TIP3    H116146   5.666   2.755   5.609
 5394TIP3    H216147   5.596   2.648   5.528
 5395TIP3   OH216148   1.816   2.493   5.534
 5395TIP3    H116149   1.852   2.450   5.456
 5395TIP3    H216150   1.838   2.434   5.606
 5396TIP3   OH216151   1.438   4.930   3.031
 5396TIP3    H116152   1.465   4.932   3.122
 5396TIP3    H216153   1.347   4.900   3.033
 5397TIP3   OH216154   5.092   3.019   4.248
 5397TIP3    H116155   5.115   2.928   4.230
 5397TIP3    H216156   5.076   3.058   4.162
 5398TIP3   OH216157   5.037   4.966   2.088
 5398TIP3    H116158   4.966   4.991   2.147
 5398TIP3    H216159   4.997   4.901   2.029
 5399TIP3   OH216160   5.141   3.023   2.074
 5399TIP3    H116161   5.173   3.098   2.124
 5399TIP3    H216162   5.217   2.994   2.023
 5400TIP3   OH216163   0.827   0.423   4.146
 5400TIP3    H116164   0.838   0.500   4.200
 5400TIP3    H216165   0.742   0.387   4.171
 5401TIP3   OH216166   0.408   3.865   0.733
 5401TIP3    H116167   0.386   3.937   0.674
 5401TIP3    H216168   0.442   3.797   0.676
 5402TIP3   OH216169   5.458   2.641   5.072
 5402TIP3    H116170   5.449   2.673   5.162
 5402TIP3    H216171   5.502   2.557   5.081
 5403TIP3   OH216172   5.078   1.715   3.839
 5403TIP3    H116173   5.046   1.802   3.817
 5403TIP3    H216174   5.171   1.716   3.817
 5404TIP3   OH216175   6.966   5.866   4.561
 5404TIP3    H116176   6.967   5.881   4.466
 5404TIP3    H216177   6.885   5.818   4.577
 5405TIP3   OH216178   7.033   2.334   0.407
 5405TIP3    H116179   7.110   2.278   0.397
 5405TIP3    H216180   6.961   2.282   0.372
 5406TIP3   OH216181   4.242   2.308   4.097
 5406TIP3    H116182   4.261   2.310   4.191
 5406TIP3    H216183   4.190   2.386   4.082
 5407TIP3   OH216184   3.397   0.018   2.732
 5407TIP3    H116185   3.390  -0.043   2.805
 5407TIP3    H216186   3.349  -0.024   2.660
 5408TIP3   OH216187   4.466   5.575   4.631
 5408TIP3    H116188   4.381   5.608   4.603
 5408TIP3    H216189   4.498   5.525   4.556
 5409TIP3   OH216190   0.907   2.238   5.611
 5409TIP3    H116191   0.920   2.306   5.544
 5409TIP3    H216192   0.858   2.170   5.566
 5410TIP3   OH216193   1.220   6.629   2.543
 5410TIP3    H116194   1.242   6.535   2.540
 5410TIP3    H216195   1.145   6.638   2.485
 5411TIP3   OH216196   4.587   2.603   1.985
 5411TIP3    H116197   4.666   2.638   2.025
 5411TIP3    H216198   4.616   2.524   1.938
 5412TIP3   OH216199   1.483   0.375   4.097
 5412TIP3    H116200   1.453   0.363   4.007
 5412TIP3    H216201   1.409   0.349   4.151
 5413TIP3   OH216202   2.096   1.481   1.859
 5413TIP3    H116203   2.122   1.395   1.826
 5413TIP3    H216204   2.110   1.540   1.785
 5414TIP3   OH216205   5.038   0.948   1.458
 5414TIP3    H116206   5.016   0.969   1.367
 5414TIP3    H216207   5.012   0.856   1.468
 5415TIP3   OH216208   6.762   1.754   5.801
 5415TIP3    H116209   6.829   1.798   5.855
 5415TIP3    H216210   6.739   1.676   5.851
 5416TIP3   OH216211   6.057   5.750   0.776
 5416TIP3    H116212   6.140   5.792   0.752
 5416TIP3    H216213   6.082   5.679   0.835
 5417TIP3   OH216214   4.071   3.973   0.535
 5417TIP3    H116215   4.079   3.943   0.444
 5417TIP3    H216216   3.980   3.957   0.558
 5418TIP3   OH216217   6.229   1.702   4.286
 5418TIP3    H116218   6.156   1.657   4.243
 5418TIP3    H216219   6.192   1.785   4.315
 5419TIP3   OH216220   7.071   5.118   3.256
 5419TIP3    H116221   7.140   5.053   3.270
 5419TIP3    H216222   7.020   5.115   3.337
 5420TIP3   OH216223   4.687   4.222   2.697
 5420TIP3    H116224   4.642   4.302   2.721
 5420TIP3    H216225   4.735   4.244   2.617
 5421TIP3   OH216226   2.916   3.980   4.773
 5421TIP3    H116227   2.944   3.901   4.819
 5421TIP3    H216228   2.832   4.003   4.814
 5422TIP3   OH216229   0.204   3.338   2.838
 5422TIP3    H116230   0.120   3.292   2.842
 5422TIP3    H216231   0.206   3.376   2.750
 5423TIP3   OH216232   1.645   0.548   4.221
 5423TIP3    H116233   1.595   0.492   4.162
 5423TIP3    H216234   1.587   0.622   4.239
 5424TIP3   OH216235   3.967   1.883   2.528
 5424TIP3    H116236   4.039   1.871   2.466
 5424TIP3    H216237   4.009   1.885   2.614
 5425TIP3   OH216238   2.256   3.682   5.355
 5425TIP3    H116239   2.213   3.605   5.394
 5425TIP3    H216240   2.222   3.687   5.266
 5426TIP3   OH216241   6.072   3.400   5.204
 5426TIP3    H116242   5.996   3.357   5.164
 5426TIP3    H216243   6.051   3.404   5.297
 5427TIP3   OH216244   0.928   5.654   0.135
 5427TIP3    H116245   1.017   5.663   0.101
 5427TIP3    H216246   0.912   5.735   0.183
 5428TIP3   OH216247   4.640   4.053   2.178
 5428TIP3    H116248   4.723   4.018   2.146
 5428TIP3    H216249   4.649   4.055   2.273
 5429TIP3   OH216250   1.048   2.858   1.050
 5429TIP3    H116251   0.975   2.845   1.111
 5429TIP3    H216252   1.109   2.913   1.099
 5430TIP3   OH216253   5.475   4.623   4.414
 5430TIP3    H116254   5.425   4.555   4.461
 5430TIP3    H216255   5.487   4.692   4.479
 5431TIP3   OH216256   4.369   2.471   3.698
 5431TIP3    H116257   4.307   2.508   3.760
 5431TIP3    H216258   4.341   2.505   3.613
 5432TIP3   OH216259   0.229   5.438   0.301
 5432TIP3    H116260   0.151   5.385   0.314
 5432TIP3    H216261   0.195   5.522   0.268
 5433TIP3   OH216262   4.980   0.098   0.999
 5433TIP3    H116263   4.910   0.162   0.986
 5433TIP3    H216264   4.961   0.060   1.085
 5434TIP3   OH216265   4.125   5.969   3.859
 5434TIP3    H116266   4.034   5.940   3.864
 5434TIP3    H216267   4.172   5.894   3.823
 5435TIP3   OH216268   2.282   2.064   5.676
 5435TIP3    H116269   2.378   2.064   5.681
 5435TIP3    H216270   2.256   1.983   5.720
 5436TIP3   OH216271   5.333   4.171   0.917
 5436TIP3    H116272   5.339   4.266   0.917
 5436TIP3    H216273   5.250   4.152   0.872
 5437TIP3   OH216274   5.187   5.701   1.550
 5437TIP3    H116275   5.219   5.771   1.493
 5437TIP3    H216276   5.103   5.734   1.584
 5438TIP3   OH216277   4.604   6.714   4.346
 5438TIP3    H116278   4.684   6.684   4.389
 5438TIP3    H216279   4.569   6.780   4.405
 5439TIP3   OH216280   5.711   0.698   3.228
 5439TIP3    H116281   5.700   0.766   3.293
 5439TIP3    H216282   5.633   0.642   3.238
 5440TIP3   OH216283   5.245   4.257   1.298
 5440TIP3    H116284   5.175   4.224   1.241
 5440TIP3    H216285   5.274   4.338   1.256
 5441TIP3   OH216286   1.863   1.405   2.490
 5441TIP3    H116287   1.944   1.412   2.440
 5441TIP3    H216288   1.798   1.378   2.425
 5442TIP3   OH216289   6.057   4.395   5.649
 5442TIP3    H116290   6.147   4.429   5.645
 5442TIP3    H216291   6.052   4.353   5.735
 5443TIP3   OH216292   2.162   1.941   2.831
 5443TIP3    H116293   2.130   1.869   2.776
 5443TIP3    H216294   2.189   1.899   2.912
 5444TIP3   OH216295   3.364   4.500   4.609
 5444TIP3    H116296   3.399   4.530   4.693
 5444TIP3    H216297   3.321   4.417   4.629
 5445TIP3   OH216298   3.720   4.063   3.247
 5445TIP3    H116299   3.696   4.032   3.159
 5445TIP3    H216300   3.789   4.127   3.232
 5446TIP3   OH216301   6.292   5.928   0.730
 5446TIP3    H116302   6.328   5.872   0.799
 5446TIP3    H216303   6.337   5.900   0.650
 5447TIP3   OH216304   2.743   1.288   5.761
 5447TIP3    H116305   2.836   1.312   5.759
 5447TIP3    H216306   2.702   1.355   5.816
 5448TIP3   OH216307   4.627   3.813   1.849
 5448TIP3    H116308   4.548   3.821   1.902
 5448TIP3    H216309   4.614   3.875   1.777
 5449TIP3   OH216310   0.934   4.754   4.242
 5449TIP3    H116311   0.936   4.664   4.210
 5449TIP3    H216312   0.926   4.808   4.164
 5450TIP3   OH216313   4.578   1.847   0.193
 5450TIP3    H116314   4.543   1.760   0.212
 5450TIP3    H216315   4.644   1.834   0.126
 5451TIP3   OH216316   0.240   2.017   2.736
 5451TIP3    H116317   0.167   2.076   2.755
 5451TIP3    H216318   0.237   2.004   2.641
 5452TIP3   OH216319   1.528   2.649   5.538
 5452TIP3    H116320   1.578   2.579   5.496
 5452TIP3    H216321   1.522   2.717   5.472
 5453TIP3   OH216322   2.694   0.209   2.670
 5453TIP3    H116323   2.715   0.119   2.693
 5453TIP3    H216324   2.764   0.235   2.610
 5454TIP3   OH216325   4.717   0.611   5.620
 5454TIP3    H116326   4.799   0.654   5.594
 5454TIP3    H216327   4.710   0.628   5.714
 5455TIP3   OH216328   1.245   0.345   3.324
 5455TIP3    H116329   1.330   0.331   3.282
 5455TIP3    H216330   1.181   0.322   3.256
 5456TIP3   OH216331   3.954   5.016   3.250
 5456TIP3    H116332   3.977   5.074   3.177
 5456TIP3    H216333   4.003   5.051   3.324
 5457TIP3   OH216334   5.114   6.292   1.709
 5457TIP3    H116335   5.193   6.324   1.752
 5457TIP3    H216336   5.100   6.352   1.636
 5458TIP3   OH216337   1.867   3.285   3.671
 5458TIP3    H116338   1.835   3.199   3.645
 5458TIP3    H216339   1.789   3.341   3.672
 5459TIP3   OH216340   6.017   3.108   5.627
 5459TIP3    H116341   6.019   3.020   5.666
 5459TIP3    H216342   6.102   3.116   5.583
 5460TIP3   OH216343   0.320   3.308   4.713
 5460TIP3    H116344   0.402   3.353   4.692
 5460TIP3    H216345   0.291   3.349   4.794
 5461TIP3   OH216346   6.913   3.732   3.618
 5461TIP3    H116347   6.829   3.695   3.646
 5461TIP3    H216348   6.911   3.823   3.648
 5462TIP3   OH216349   4.697   2.057   1.042
 5462TIP3    H116350   4.660   1.986   0.989
 5462TIP3    H216351   4.778   2.020   1.077
 5463TIP3   OH216352   7.226   2.158   2.791
 5463TIP3    H116353   7.159   2.089   2.791
 5463TIP3    H216354   7.180   2.235   2.758
 5464TIP3   OH216355   6.904   5.889   3.080
 5464TIP3    H116356   6.952   5.887   3.163
 5464TIP3    H216357   6.813   5.871   3.105
 5465TIP3   OH216358   3.585   0.067   5.273
 5465TIP3    H116359   3.504   0.074   5.324
 5465TIP3    H216360   3.655   0.079   5.337
 5466TIP3   OH216361   0.678   0.343   4.458
 5466TIP3    H116362   0.664   0.311   4.368
 5466TIP3    H216363   0.589   0.363   4.489
 5467TIP3   OH216364   0.127   0.197   4.671
 5467TIP3    H116365   0.032   0.180   4.671
 5467TIP3    H216366   0.158   0.157   4.753
 5468TIP3   OH216367   4.509   6.532   0.287
 5468TIP3    H116368   4.590   6.546   0.239
 5468TIP3    H216369   4.515   6.589   0.363
 5469TIP3   OH216370   4.747   2.784   3.100
 5469TIP3    H116371   4.685   2.730   3.051
 5469TIP3    H216372   4.820   2.724   3.120
 5470TIP3   OH216373   2.674   0.344   1.566
 5470TIP3    H116374   2.618   0.401   1.620
 5470TIP3    H216375   2.757   0.391   1.561
 5471TIP3   OH216376   6.336   0.162   0.055
 5471TIP3    H116377   6.242   0.154   0.038
 5471TIP3    H216378   6.367   0.072   0.065
 5472TIP3   OH216379   5.448   4.961   2.969
 5472TIP3    H116380   5.388   4.887   2.978
 5472TIP3    H216381   5.456   4.995   3.058
 5473TIP3   OH216382   2.555   4.810   3.728
 5473TIP3    H116383   2.581   4.827   3.638
 5473TIP3    H216384   2.510   4.726   3.725
 5474TIP3   OH216385   2.274   1.302   2.099
 5474TIP3    H116386   2.311   1.224   2.139
 5474TIP3    H216387   2.261   1.279   2.007
 5475TIP3   OH216388   2.001   1.279   3.694
 5475TIP3    H116389   2.059   1.209   3.723
 5475TIP3    H216390   1.968   1.250   3.609
 5476TIP3   OH216391   4.877   2.110   3.253
 5476TIP3    H116392   4.816   2.147   3.318
 5476TIP3    H216393   4.880   2.176   3.184
 5477TIP3   OH216394   7.055   2.193   3.860
 5477TIP3    H116395   7.027   2.122   3.802
 5477TIP3    H216396   7.127   2.235   3.814
 5478TIP3   OH216397   2.916   5.728   1.355
 5478TIP3    H116398   2.931   5.703   1.264
 5478TIP3    H216399   2.970   5.806   1.367
 5479TIP3   OH216400   1.157   6.477   3.323
 5479TIP3    H116401   1.074   6.513   3.292
 5479TIP3    H216402   1.160   6.389   3.284
 5480TIP3   OH216403   6.458   1.730   3.556
 5480TIP3    H116404   6.442   1.737   3.650
 5480TIP3    H216405   6.514   1.653   3.546
 5481TIP3   OH216406   1.041   1.658   2.319
 5481TIP3    H116407   0.970   1.692   2.265
 5481TIP3    H216408   1.093   1.604   2.260
 5482TIP3   OH216409   2.525   4.268   4.278
 5482TIP3    H116410   2.621   4.270   4.282
 5482TIP3    H216411   2.499   4.208   4.348
 5483TIP3   OH216412   3.939   1.308   4.612
 5483TIP3    H116413   3.958   1.364   4.537
 5483TIP3    H216414   3.850   1.276   4.596
 5484TIP3   OH216415   5.430   0.637   3.199
 5484TIP3    H116416   5.391   0.722   3.180
 5484TIP3    H216417   5.413   0.584   3.121
 5485TIP3   OH216418   5.762   4.510   5.194
 5485TIP3    H116419   5.736   4.589   5.242
 5485TIP3    H216420   5.741   4.529   5.102
 5486TIP3   OH216421   6.481   1.781   5.061
 5486TIP3    H116422   6.565   1.820   5.037
 5486TIP3    H216423   6.474   1.703   5.006
 5487TIP3   OH216424   4.686   5.390   5.803
 5487TIP3    H116425   4.778   5.402   5.827
 5487TIP3    H216426   4.637   5.416   5.881
 5488TIP3   OH216427   1.167   5.038   3.415
 5488TIP3    H116428   1.251   5.048   3.461
 5488TIP3    H216429   1.164   4.946   3.391
 5489TIP3   OH216430   5.904   0.904   0.394
 5489TIP3    H116431   5.826   0.937   0.349
 5489TIP3    H216432   5.873   0.881   0.481
 5490TIP3   OH216433   5.385   1.674   5.786
 5490TIP3    H116434   5.446   1.691   5.714
 5490TIP3    H216435   5.327   1.750   5.787
 5491TIP3   OH216436   0.237   6.443   1.268
 5491TIP3    H116437   0.306   6.440   1.201
 5491TIP3    H216438   0.191   6.525   1.251
 5492TIP3   OH216439   2.417   2.937   0.125
 5492TIP3    H116440   2.362   2.912   0.200
 5492TIP3    H216441   2.379   3.020   0.094
 5493TIP3   OH216442   6.470   3.054   4.659
 5493TIP3    H116443   6.490   3.024   4.748
 5493TIP3    H216444   6.541   3.115   4.638
 5494TIP3   OH216445   3.398   1.894   4.844
 5494TIP3    H116446   3.304   1.890   4.858
 5494TIP3    H216447   3.437   1.869   4.927
 5495TIP3   OH216448   4.653   4.637   1.485
 5495TIP3    H116449   4.606   4.559   1.517
 5495TIP3    H216450   4.729   4.601   1.440
 5496TIP3   OH216451   0.494   4.184   3.315
 5496TIP3    H116452   0.412   4.142   3.290
 5496TIP3    H216453   0.558   4.155   3.250
 5497TIP3   OH216454   5.939   5.635   5.162
 5497TIP3    H116455   5.919   5.557   5.214
 5497TIP3    H216456   5.965   5.600   5.076
 5498TIP3   OH216457   1.303   1.892   2.071
 5498TIP3    H116458   1.312   1.887   2.166
 5498TIP3    H216459   1.384   1.855   2.036
 5499TIP3   OH216460   5.798   6.578   1.202
 5499TIP3    H116461   5.715   6.615   1.172
 5499TIP3    H216462   5.847   6.559   1.122
 5500TIP3   OH216463   6.273   6.316   5.235
 5500TIP3    H116464   6.178   6.325   5.233
 5500TIP3    H216465   6.290   6.236   5.185
 5501TIP3   OH216466   6.144   6.164   5.742
 5501TIP3    H116467   6.081   6.194   5.807
 5501TIP3    H216468   6.166   6.075   5.768
 5502TIP3   OH216469   6.893   5.934   0.530
 5502TIP3    H116470   6.942   6.007   0.568
 5502TIP3    H216471   6.819   5.921   0.588
 5503TIP3   OH216472   2.746   0.931   0.498
 5503TIP3    H116473   2.800   0.902   0.424
 5503TIP3    H216474   2.687   0.858   0.515
 5504TIP3   OH216475   0.018   6.251   5.359
 5504TIP3    H116476  -0.042   6.195   5.408
 5504TIP3    H216477   0.005   6.338   5.397
 5505TIP3   OH216478   3.405   2.706   0.270
 5505TIP3    H116479   3.403   2.663   0.185
 5505TIP3    H216480   3.491   2.685   0.306
 5506TIP3   OH216481   1.150   0.664   2.784
 5506TIP3    H116482   1.129   0.753   2.756
 5506TIP3    H216483   1.216   0.635   2.722
 5507TIP3   OH216484   7.144   5.937   3.490
 5507TIP3    H116485   7.178   6.018   3.451
 5507TIP3    H216486   7.201   5.921   3.565
 5508TIP3   OH216487   0.597   2.350   3.472
 5508TIP3    H116488   0.547   2.431   3.460
 5508TIP3    H216489   0.631   2.356   3.561
 5509TIP3   OH216490   5.607   2.280   2.296
 5509TIP3    H116491   5.595   2.360   2.347
 5509TIP3    H216492   5.701   2.279   2.275
 5510TIP3   OH216493   0.521   3.367   5.676
 5510TIP3    H116494   0.585   3.319   5.730
 5510TIP3    H216495   0.573   3.403   5.604
 5511TIP3   OH216496   4.827   2.440   3.587
 5511TIP3    H116497   4.784   2.429   3.502
 5511TIP3    H216498   4.801   2.363   3.637
 5512TIP3   OH216499   5.184   2.121   3.251
 5512TIP3    H116500   5.201   2.202   3.203
 5512TIP3    H216501   5.089   2.114   3.254
 5513TIP3   OH216502   2.929   5.978   2.010
 5513TIP3    H116503   2.836   5.971   2.035
 5513TIP3    H216504   2.932   5.942   1.921
 5514TIP3   OH216505   0.624   0.178   3.919
 5514TIP3    H116506   0.588   0.241   3.982
 5514TIP3    H216507   0.602   0.214   3.833
 5515TIP3   OH216508   0.565   2.773   5.573
 5515TIP3    H116509   0.478   2.744   5.599
 5515TIP3    H216510   0.551   2.857   5.531
 5516TIP3   OH216511   1.315   1.552   2.283
 5516TIP3    H116512   1.378   1.624   2.277
 5516TIP3    H216513   1.352   1.492   2.348
 5517TIP3   OH216514   3.174   4.669   4.753
 5517TIP3    H116515   3.242   4.681   4.819
 5517TIP3    H216516   3.178   4.577   4.729
 5518TIP3   OH216517   3.288   4.008   5.797
 5518TIP3    H116518   3.329   3.924   5.822
 5518TIP3    H216519   3.254   4.043   5.879
 5519TIP3   OH216520   3.262   3.534   0.740
 5519TIP3    H116521   3.262   3.438   0.732
 5519TIP3    H216522   3.233   3.551   0.829
 5520TIP3   OH216523   1.066   0.526   4.907
 5520TIP3    H116524   1.141   0.561   4.859
 5520TIP3    H216525   1.065   0.433   4.884
 5521TIP3   OH216526   0.124   6.739   4.944
 5521TIP3    H116527   0.141   6.821   4.897
 5521TIP3    H216528   0.099   6.677   4.875
 5522TIP3   OH216529   6.383   6.041   3.128
 5522TIP3    H116530   6.476   6.052   3.107
 5522TIP3    H216531   6.379   6.043   3.223
 5523TIP3   OH216532   1.541   2.227   4.952
 5523TIP3    H116533   1.485   2.252   5.025
 5523TIP3    H216534   1.492   2.159   4.906
 5524TIP3   OH216535   4.466   5.597   3.493
 5524TIP3    H116536   4.488   5.677   3.542
 5524TIP3    H216537   4.388   5.620   3.443
 5525TIP3   OH216538   1.672   1.425   4.320
 5525TIP3    H116539   1.731   1.491   4.284
 5525TIP3    H216540   1.730   1.361   4.362
 5526TIP3   OH216541   6.644   2.904   0.020
 5526TIP3    H116542   6.624   2.992   0.051
 5526TIP3    H216543   6.565   2.875  -0.026
 5527TIP3   OH216544   4.031   2.479   1.268
 5527TIP3    H116545   4.103   2.432   1.224
 5527TIP3    H216546   3.965   2.411   1.285
 5528TIP3   OH216547   6.436   6.166   1.193
 5528TIP3    H116548   6.529   6.146   1.181
 5528TIP3    H216549   6.418   6.235   1.130
 5529TIP3   OH216550   0.352   3.622   2.438
 5529TIP3    H116551   0.287   3.650   2.373
 5529TIP3    H216552   0.408   3.699   2.450
 5530TIP3   OH216553   5.007   5.354   1.365
 5530TIP3    H116554   5.010   5.324   1.456
 5530TIP3    H216555   4.943   5.424   1.364
 5531TIP3   OH216556   2.281   5.921   4.621
 5531TIP3    H116557   2.236   5.919   4.537
 5531TIP3    H216558   2.228   5.865   4.678
 5532TIP3   OH216559   4.607   5.419   3.644
 5532TIP3    H116560   4.621   5.344   3.586
 5532TIP3    H216561   4.539   5.470   3.600
 5533TIP3   OH216562   5.954   0.529   2.353
 5533TIP3    H116563   5.867   0.546   2.317
 5533TIP3    H216564   5.981   0.612   2.391
 5534TIP3   OH216565   5.275   2.233   1.272
 5534TIP3    H116566   5.198   2.231   1.215
 5534TIP3    H216567   5.311   2.144   1.266
 5535TIP3   OH216568   4.900   1.974   1.208
 5535TIP3    H116569   4.842   1.925   1.266
 5535TIP3    H216570   4.933   2.046   1.263
 5536TIP3   OH216571   0.578   4.456   2.858
 5536TIP3    H116572   0.563   4.361   2.857
 5536TIP3    H216573   0.492   4.494   2.841
 5537TIP3   OH216574   5.545   6.762   4.016
 5537TIP3    H116575   5.490   6.733   4.088
 5537TIP3    H216576   5.502   6.842   3.984
 5538TIP3   OH216577   5.646   5.860   1.308
 5538TIP3    H116578   5.568   5.898   1.269
 5538TIP3    H216579   5.697   5.935   1.339
 5539TIP3   OH216580   4.443   6.270   0.010
 5539TIP3    H116581   4.377   6.211   0.046
 5539TIP3    H216582   4.526   6.229   0.032
 5540TIP3   OH216583   5.289   0.709   5.226
 5540TIP3    H116584   5.358   0.730   5.289
 5540TIP3    H216585   5.322   0.634   5.178
 5541TIP3   OH216586   2.137   4.277   3.911
 5541TIP3    H116587   2.070   4.339   3.940
 5541TIP3    H216588   2.191   4.262   3.989
 5542TIP3   OH216589   1.282   5.439   3.975
 5542TIP3    H116590   1.322   5.360   4.010
 5542TIP3    H216591   1.209   5.408   3.922
 5543TIP3   OH216592   5.707   3.208   2.325
 5543TIP3    H116593   5.631   3.198   2.382
 5543TIP3    H216594   5.761   3.131   2.343
 5544TIP3   OH216595   6.828   2.973   3.591
 5544TIP3    H116596   6.858   3.049   3.540
 5544TIP3    H216597   6.781   2.919   3.527
 5545TIP3   OH216598   5.797   6.750   4.854
 5545TIP3    H116599   5.775   6.730   4.945
 5545TIP3    H216600   5.712   6.765   4.812
 5546TIP3   OH216601   3.518   4.261   0.693
 5546TIP3    H116602   3.535   4.201   0.765
 5546TIP3    H216603   3.461   4.328   0.731
 5547TIP3   OH216604   0.541   5.603   2.135
 5547TIP3    H116605   0.607   5.673   2.136
 5547TIP3    H216606   0.591   5.523   2.122
 5548TIP3   OH216607   4.440   2.103   4.708
 5548TIP3    H116608   4.510   2.117   4.644
 5548TIP3    H216609   4.385   2.036   4.669
 5549TIP3   OH216610   3.498   4.725   2.580
 5549TIP3    H116611   3.487   4.670   2.657
 5549TIP3    H216612   3.419   4.711   2.528
 5550TIP3   OH216613   0.596   0.500   5.799
 5550TIP3    H116614   0.564   0.563   5.863
 5550TIP3    H216615   0.683   0.532   5.774
 5551TIP3   OH216616   2.581   1.467   3.949
 5551TIP3    H116617   2.566   1.509   4.033
 5551TIP3    H216618   2.503   1.413   3.936
 5552TIP3   OH216619   1.992   5.886   4.041
 5552TIP3    H116620   2.077   5.859   4.007
 5552TIP3    H216621   1.980   5.974   4.006
 5553TIP3   OH216622   5.695   5.329   0.496
 5553TIP3    H116623   5.621   5.356   0.551
 5553TIP3    H216624   5.750   5.276   0.554
 5554TIP3   OH216625   3.337   6.558   3.764
 5554TIP3    H116626   3.358   6.611   3.687
 5554TIP3    H216627   3.243   6.567   3.775
 5555TIP3   OH216628   3.156   0.214   5.053
 5555TIP3    H116629   3.148   0.133   5.003
 5555TIP3    H216630   3.092   0.204   5.124
 5556TIP3   OH216631   4.770   0.222   0.891
 5556TIP3    H116632   4.710   0.263   0.953
 5556TIP3    H216633   4.724   0.144   0.861
 5557TIP3   OH216634   4.042   4.057   2.860
 5557TIP3    H116635   4.090   4.083   2.938
 5557TIP3    H216636   4.093   4.092   2.787
 5558TIP3   OH216637   4.581   5.709   0.471
 5558TIP3    H116638   4.647   5.683   0.535
 5558TIP3    H216639   4.606   5.798   0.446
 5559TIP3   OH216640   4.775   3.409   0.830
 5559TIP3    H116641   4.745   3.386   0.918
 5559TIP3    H216642   4.697   3.398   0.775
 5560TIP3   OH216643   2.730   6.757   5.005
 5560TIP3    H116644   2.686   6.732   5.087
 5560TIP3    H216645   2.752   6.849   5.017
 5561TIP3   OH216646   4.069   2.321   5.331
 5561TIP3    H116647   4.135   2.256   5.351
 5561TIP3    H216648   4.047   2.360   5.416
 5562TIP3   OH216649   5.851   0.865   3.034
 5562TIP3    H116650   5.815   0.804   3.097
 5562TIP3    H216651   5.944   0.842   3.029
 5563TIP3   OH216652   4.867   6.299   0.280
 5563TIP3    H116653   4.907   6.380   0.248
 5563TIP3    H216654   4.935   6.233   0.267
 5564TIP3   OH216655   3.727   5.621   1.853
 5564TIP3    H116656   3.759   5.566   1.925
 5564TIP3    H216657   3.641   5.585   1.833
 5565TIP3   OH216658   4.996   6.202   4.000
 5565TIP3    H116659   4.991   6.288   4.041
 5565TIP3    H216660   5.049   6.149   4.060
 5566TIP3   OH216661   6.751   0.588   4.620
 5566TIP3    H116662   6.755   0.509   4.565
 5566TIP3    H216663   6.682   0.569   4.684
 5567TIP3   OH216664   0.763   4.715   2.885
 5567TIP3    H116665   0.668   4.720   2.891
 5567TIP3    H216666   0.792   4.806   2.889
 5568TIP3   OH216667   5.953   6.033   0.773
 5568TIP3    H116668   5.858   6.026   0.765
 5568TIP3    H216669   5.985   5.946   0.748
 5569TIP3   OH216670   4.211   1.607   2.206
 5569TIP3    H116671   4.117   1.599   2.191
 5569TIP3    H216672   4.234   1.694   2.172
 5570TIP3   OH216673   2.292   1.122   2.634
 5570TIP3    H116674   2.231   1.131   2.561
 5570TIP3    H216675   2.271   1.037   2.672
 5571TIP3   OH216676   2.395   2.983   1.347
 5571TIP3    H116677   2.419   3.048   1.281
 5571TIP3    H216678   2.461   2.915   1.339
 5572TIP3   OH216679   0.914   5.632   5.845
 5572TIP3    H116680   0.968   5.555   5.830
 5572TIP3    H216681   0.909   5.676   5.761
 5573TIP3   OH216682   5.831   0.127   2.280
 5573TIP3    H116683   5.788   0.206   2.315
 5573TIP3    H216684   5.845   0.147   2.187
 5574TIP3   OH216685   3.512   1.980   5.362
 5574TIP3    H116686   3.516   2.006   5.270
 5574TIP3    H216687   3.429   1.933   5.370
 5575TIP3   OH216688   1.714   5.805   5.563
 5575TIP3    H116689   1.766   5.808   5.482
 5575TIP3    H216690   1.720   5.713   5.591
 5576TIP3   OH216691   2.296   3.456   4.888
 5576TIP3    H116692   2.300   3.367   4.854
 5576TIP3    H216693   2.332   3.450   4.976
 5577TIP3   OH216694   6.625   5.562   5.197
 5577TIP3    H116695   6.592   5.635   5.249
 5577TIP3    H216696   6.678   5.603   5.129
 5578TIP3   OH216697   6.416   0.954   5.577
 5578TIP3    H116698   6.361   0.948   5.655
 5578TIP3    H216699   6.499   0.915   5.604
 5579TIP3   OH216700   2.501   2.908   2.231
 5579TIP3    H116701   2.432   2.973   2.246
 5579TIP3    H216702   2.454   2.826   2.218
 5580TIP3   OH216703   1.705   1.110   4.289
 5580TIP3    H116704   1.750   1.146   4.365
 5580TIP3    H216705   1.751   1.028   4.271
 5581TIP3   OH216706   2.620   1.469   2.343
 5581TIP3    H116707   2.697   1.488   2.395
 5581TIP3    H216708   2.603   1.376   2.358
 5582TIP3   OH216709   6.160   4.419   1.611
 5582TIP3    H116710   6.088   4.464   1.654
 5582TIP3    H216711   6.129   4.329   1.601
 5583TIP3   OH216712   2.298   2.701   2.257
 5583TIP3    H116713   2.282   2.654   2.175
 5583TIP3    H216714   2.212   2.735   2.283
 5584TIP3   OH216715   5.577   1.831   4.044
 5584TIP3    H116716   5.630   1.903   4.010
 5584TIP3    H216717   5.609   1.754   3.996
 5585TIP3   OH216718   6.546   6.321   4.435
 5585TIP3    H116719   6.520   6.312   4.344
 5585TIP3    H216720   6.519   6.239   4.476
 5586TIP3   OH216721   0.165   5.379   5.403
 5586TIP3    H116722   0.256   5.375   5.433
 5586TIP3    H216723   0.134   5.465   5.430
 5587TIP3   OH216724   1.805   1.277   5.040
 5587TIP3    H116725   1.869   1.337   5.002
 5587TIP3    H216726   1.831   1.191   5.008
 5588TIP3   OH216727   2.683   0.778   5.384
 5588TIP3    H116728   2.677   0.866   5.347
 5588TIP3    H216729   2.621   0.778   5.457
 5589TIP3   OH216730   2.021   5.270   2.919
 5589TIP3    H116731   2.036   5.340   2.983
 5589TIP3    H216732   2.095   5.275   2.859
 5590TIP3   OH216733   2.978   5.910   4.271
 5590TIP3    H116734   3.023   5.923   4.355
 5590TIP3    H216735   2.904   5.971   4.274
 5591TIP3   OH216736   1.785   4.082   3.478
 5591TIP3    H116737   1.735   4.163   3.489
 5591TIP3    H216738   1.719   4.013   3.475
 5592TIP3   OH216739   2.963   5.395   1.798
 5592TIP3    H116740   2.941   5.317   1.849
 5592TIP3    H216741   3.057   5.407   1.812
 5593TIP3   OH216742   6.649   5.374   0.349
 5593TIP3    H116743   6.592   5.410   0.281
 5593TIP3    H216744   6.723   5.338   0.301
 5594TIP3   OH216745   6.676   0.387   4.956
 5594TIP3    H116746   6.753   0.373   4.901
 5594TIP3    H216747   6.701   0.354   5.042
 5595TIP3   OH216748   0.830   1.699   5.687
 5595TIP3    H116749   0.914   1.666   5.718
 5595TIP3    H216750   0.764   1.651   5.736
 5596TIP3   OH216751   1.558   5.501   0.933
 5596TIP3    H116752   1.593   5.417   0.902
 5596TIP3    H216753   1.478   5.479   0.979
 5597TIP3   OH216754   2.079   5.033   5.617
 5597TIP3    H116755   2.136   5.023   5.692
 5597TIP3    H216756   2.104   5.117   5.578
 5598TIP3   OH216757   6.304   3.230   4.530
 5598TIP3    H116758   6.238   3.265   4.589
 5598TIP3    H216759   6.341   3.155   4.576
 5599TIP3   OH216760   2.833   6.774   1.473
 5599TIP3    H116761   2.927   6.758   1.484
 5599TIP3    H216762   2.791   6.694   1.505
 5600TIP3   OH216763   2.930   2.397   0.864
 5600TIP3    H116764   2.907   2.430   0.951
 5600TIP3    H216765   2.989   2.463   0.828
 5601TIP3   OH216766   5.604   1.358   3.281
 5601TIP3    H116767   5.676   1.309   3.240
 5601TIP3    H216768   5.634   1.449   3.282
 5602TIP3   OH216769   3.418   0.520   1.540
 5602TIP3    H116770   3.364   0.599   1.537
 5602TIP3    H216771   3.475   0.532   1.617
 5603TIP3   OH216772   4.629   4.704   5.220
 5603TIP3    H116773   4.618   4.778   5.280
 5603TIP3    H216774   4.579   4.633   5.258
 5604TIP3   OH216775   1.870   5.880   1.507
 5604TIP3    H116776   1.896   5.792   1.534
 5604TIP3    H216777   1.869   5.930   1.589
 5605TIP3   OH216778   0.425   4.882   5.616
 5605TIP3    H116779   0.390   4.905   5.529
 5605TIP3    H216780   0.464   4.795   5.603
 5606TIP3   OH216781   7.093   5.884   5.724
 5606TIP3    H116782   7.164   5.819   5.726
 5606TIP3    H216783   7.061   5.888   5.813
 5607TIP3   OH216784   5.775   3.348   2.782
 5607TIP3    H116785   5.808   3.433   2.810
 5607TIP3    H216786   5.696   3.334   2.835
 5608TIP3   OH216787   3.452   5.810   5.454
 5608TIP3    H116788   3.426   5.902   5.467
 5608TIP3    H216789   3.482   5.782   5.541
 5609TIP3   OH216790   5.742   3.715   0.685
 5609TIP3    H116791   5.824   3.668   0.673
 5609TIP3    H216792   5.726   3.758   0.601
 5610TIP3   OH216793   2.807   0.579   3.301
 5610TIP3    H116794   2.806   0.633   3.222
 5610TIP3    H216795   2.865   0.625   3.361
 5611TIP3   OH216796   5.328   5.765   5.907
 5611TIP3    H116797   5.317   5.676   5.873
 5611TIP3    H216798   5.326   5.821   5.829
 5612TIP3   OH216799   2.494   0.452   4.979
 5612TIP3    H116800   2.454   0.495   4.904
 5612TIP3    H216801   2.579   0.495   4.988
 5613TIP3   OH216802   2.817   0.979   0.039
 5613TIP3    H116803   2.732   0.938   0.020
 5613TIP3    H216804   2.796   1.050   0.100
 5614TIP3   OH216805   1.120   1.468   1.694
 5614TIP3    H116806   1.034   1.502   1.669
 5614TIP3    H216807   1.106   1.375   1.710
 5615TIP3   OH216808   4.969   3.598   0.818
 5615TIP3    H116809   4.990   3.619   0.727
 5615TIP3    H216810   4.898   3.534   0.812
 5616TIP3   OH216811   2.605   1.416   4.562
 5616TIP3    H116812   2.679   1.399   4.620
 5616TIP3    H216813   2.530   1.422   4.621
 5617TIP3   OH216814   6.251   0.407   1.278
 5617TIP3    H116815   6.310   0.392   1.352
 5617TIP3    H216816   6.227   0.499   1.284
 5618TIP3   OH216817   5.872   3.393   0.192
 5618TIP3    H116818   5.848   3.368   0.103
 5618TIP3    H216819   5.880   3.489   0.189
 5619TIP3   OH216820   2.678   5.032   3.004
 5619TIP3    H116821   2.772   5.049   2.995
 5619TIP3    H216822   2.637   5.108   2.963
 5620TIP3   OH216823   0.292   6.284   0.769
 5620TIP3    H116824   0.272   6.338   0.846
 5620TIP3    H216825   0.214   6.228   0.759
 5621TIP3   OH216826   1.604   0.077   5.748
 5621TIP3    H116827   1.530   0.137   5.731
 5621TIP3    H216828   1.572  -0.008   5.719
 5622TIP3   OH216829   0.103   4.160   1.591
 5622TIP3    H116830   0.036   4.111   1.545
 5622TIP3    H216831   0.124   4.107   1.668
 5623TIP3   OH216832   0.450   3.654   1.225
 5623TIP3    H116833   0.532   3.614   1.255
 5623TIP3    H216834   0.463   3.748   1.239
 5624TIP3   OH216835   3.105   0.505   0.824
 5624TIP3    H116836   3.165   0.487   0.751
 5624TIP3    H216837   3.040   0.435   0.819
 5625TIP3   OH216838   4.498   0.293   2.604
 5625TIP3    H116839   4.410   0.261   2.586
 5625TIP3    H216840   4.541   0.221   2.649
 5626TIP3   OH216841   4.661   6.313   3.892
 5626TIP3    H116842   4.695   6.227   3.918
 5626TIP3    H216843   4.711   6.335   3.813
 5627TIP3   OH216844   5.005   4.997   3.332
 5627TIP3    H116845   5.050   5.081   3.321
 5627TIP3    H216846   5.072   4.939   3.367
 5628TIP3   OH216847   5.128   4.928   0.718
 5628TIP3    H116848   5.168   4.906   0.634
 5628TIP3    H216849   5.194   4.907   0.783
 5629TIP3   OH216850   4.682   2.434   2.721
 5629TIP3    H116851   4.739   2.359   2.703
 5629TIP3    H216852   4.731   2.510   2.690
 5630TIP3   OH216853   4.374   3.993   0.968
 5630TIP3    H116854   4.341   4.082   0.955
 5630TIP3    H216855   4.321   3.939   0.909
 5631TIP3   OH216856   0.234   3.647   3.932
 5631TIP3    H116857   0.289   3.621   4.006
 5631TIP3    H216858   0.172   3.575   3.922
 5632TIP3   OH216859   3.750   5.160   4.421
 5632TIP3    H116860   3.699   5.081   4.439
 5632TIP3    H216861   3.813   5.134   4.354
 5633TIP3   OH216862   5.710   2.459   3.609
 5633TIP3    H116863   5.645   2.511   3.562
 5633TIP3    H216864   5.782   2.450   3.547
 5634TIP3   OH216865   1.114   5.301   3.791
 5634TIP3    H116866   1.075   5.214   3.799
 5634TIP3    H216867   1.093   5.329   3.702
 5635TIP3   OH216868   4.962   6.552   3.219
 5635TIP3    H116869   4.938   6.586   3.305
 5635TIP3    H216870   5.018   6.620   3.182
 5636TIP3   OH216871   5.275   4.301   0.031
 5636TIP3    H116872   5.224   4.237  -0.019
 5636TIP3    H216873   5.233   4.303   0.117
 5637TIP3   OH216874   0.731   6.519   2.023
 5637TIP3    H116875   0.785   6.465   2.080
 5637TIP3    H216876   0.793   6.583   1.986
 5638TIP3   OH216877   0.544   6.643   5.837
 5638TIP3    H116878   0.585   6.697   5.905
 5638TIP3    H216879   0.503   6.706   5.778
 5639TIP3   OH216880   2.588   3.162   2.725
 5639TIP3    H116881   2.553   3.139   2.639
 5639TIP3    H216882   2.530   3.118   2.787
 5640TIP3   OH216883   1.029   6.566   4.303
 5640TIP3    H116884   1.115   6.548   4.263
 5640TIP3    H216885   1.050   6.608   4.386
 5641TIP3   OH216886   1.098   0.346   2.104
 5641TIP3    H116887   1.066   0.358   2.193
 5641TIP3    H216888   1.193   0.334   2.114
 5642TIP3   OH216889   5.907   6.193   3.705
 5642TIP3    H116890   5.836   6.154   3.756
 5642TIP3    H216891   5.888   6.169   3.614
 5643TIP3   OH216892   1.560   2.354   0.151
 5643TIP3    H116893   1.649   2.384   0.129
 5643TIP3    H216894   1.529   2.419   0.214
 5644TIP3   OH216895   0.622   2.429   0.234
 5644TIP3    H116896   0.583   2.504   0.191
 5644TIP3    H216897   0.578   2.424   0.319
 5645TIP3   OH216898   3.910   0.305   2.490
 5645TIP3    H116899   3.877   0.227   2.535
 5645TIP3    H216900   4.002   0.286   2.474
 5646TIP3   OH216901   7.174   4.751   1.992
 5646TIP3    H116902   7.082   4.773   2.006
 5646TIP3    H216903   7.183   4.663   2.030
 5647TIP3   OH216904   3.002   4.822   5.018
 5647TIP3    H116905   3.077   4.782   4.974
 5647TIP3    H216906   2.952   4.864   4.948
 5648TIP3   OH216907   6.528   0.566   5.158
 5648TIP3    H116908   6.507   0.659   5.152
 5648TIP3    H216909   6.621   0.562   5.135
 5649TIP3   OH216910   0.992   2.425   5.418
 5649TIP3    H116911   0.934   2.500   5.410
 5649TIP3    H216912   1.080   2.461   5.403
 5650TIP3   OH216913   6.507   4.832   0.833
 5650TIP3    H116914   6.569   4.905   0.824
 5650TIP3    H216915   6.421   4.871   0.819
 5651TIP3   OH216916   4.831   5.448   1.863
 5651TIP3    H116917   4.907   5.436   1.919
 5651TIP3    H216918   4.811   5.542   1.870
 5652TIP3   OH216919   3.161   0.551   2.944
 5652TIP3    H116920   3.235   0.600   2.980
 5652TIP3    H216921   3.197   0.464   2.925
 5653TIP3   OH216922   5.847   5.599   2.610
 5653TIP3    H116923   5.780   5.664   2.591
 5653TIP3    H216924   5.820   5.522   2.560
 5654TIP3   OH216925   1.758   2.838   4.324
 5654TIP3    H116926   1.719   2.769   4.271
 5654TIP3    H216927   1.711   2.917   4.298
 5655TIP3   OH216928   6.328   1.133   1.950
 5655TIP3    H116929   6.248   1.150   1.999
 5655TIP3    H216930   6.398   1.144   2.014
 5656TIP3   OH216931   3.387   2.906   5.454
 5656TIP3    H116932   3.314   2.878   5.509
 5656TIP3    H216933   3.428   2.977   5.504
 5657TIP3   OH216934   1.619   3.165   0.152
 5657TIP3    H116935   1.646   3.215   0.076
 5657TIP3    H216936   1.566   3.226   0.203
 5658TIP3   OH216937   1.830   1.024   2.231
 5658TIP3    H116938   1.849   0.930   2.237
 5658TIP3    H216939   1.859   1.060   2.315
 5659TIP3   OH216940   6.981   3.671   4.485
 5659TIP3    H116941   6.990   3.683   4.579
 5659TIP3    H216942   7.025   3.588   4.466
 5660TIP3   OH216943   1.491   3.380   0.790
 5660TIP3    H116944   1.504   3.448   0.724
 5660TIP3    H216945   1.418   3.411   0.842
 5661TIP3   OH216946   0.676   1.455   3.502
 5661TIP3    H116947   0.710   1.403   3.429
 5661TIP3    H216948   0.594   1.491   3.470
 5662TIP3   OH216949   5.378   2.401   1.957
 5662TIP3    H116950   5.309   2.352   2.002
 5662TIP3    H216951   5.332   2.450   1.889
 5663TIP3   OH216952   0.281   6.253   0.127
 5663TIP3    H116953   0.274   6.329   0.070
 5663TIP3    H216954   0.358   6.206   0.094
 5664TIP3   OH216955   6.899   2.883   4.069
 5664TIP3    H116956   6.914   2.868   3.975
 5664TIP3    H216957   6.805   2.873   4.080
 5665TIP3   OH216958   6.795   2.729   1.261
 5665TIP3    H116959   6.867   2.734   1.197
 5665TIP3    H216960   6.752   2.814   1.256
 5666TIP3   OH216961   0.318   3.169   5.660
 5666TIP3    H116962   0.395   3.223   5.671
 5666TIP3    H216963   0.256   3.224   5.611
 5667TIP3   OH216964   4.701   1.821   5.137
 5667TIP3    H116965   4.747   1.739   5.156
 5667TIP3    H216966   4.674   1.854   5.223
 5668TIP3   OH216967   2.835   1.749   3.616
 5668TIP3    H116968   2.776   1.752   3.692
 5668TIP3    H216969   2.847   1.656   3.600
 5669TIP3   OH216970   1.452   0.709   4.327
 5669TIP3    H116971   1.451   0.719   4.422
 5669TIP3    H216972   1.391   0.637   4.309
 5670TIP3   OH216973   6.918   1.897   3.132
 5670TIP3    H116974   6.976   1.969   3.104
 5670TIP3    H216975   6.967   1.852   3.200
 5671TIP3   OH216976   1.845   1.378   4.020
 5671TIP3    H116977   1.864   1.419   3.935
 5671TIP3    H216978   1.851   1.449   4.083
 5672TIP3   OH216979   1.002   4.962   1.124
 5672TIP3    H116980   0.989   5.010   1.042
 5672TIP3    H216981   0.929   4.990   1.179
 5673TIP3   OH216982   4.955   3.409   2.602
 5673TIP3    H116983   5.004   3.398   2.683
 5673TIP3    H216984   5.006   3.361   2.536
 5674TIP3   OH216985   6.694   6.156   3.913
 5674TIP3    H116986   6.621   6.186   3.859
 5674TIP3    H216987   6.666   6.070   3.945
 5675TIP3   OH216988   6.751   3.981   2.643
 5675TIP3    H116989   6.813   4.010   2.576
 5675TIP3    H216990   6.789   3.900   2.677
 5676TIP3   OH216991   5.366   1.950   3.920
 5676TIP3    H116992   5.341   1.893   3.847
 5676TIP3    H216993   5.441   1.905   3.961
 5677TIP3   OH216994   6.108   6.174   4.627
 5677TIP3    H116995   6.075   6.205   4.711
 5677TIP3    H216996   6.197   6.145   4.646
 5678TIP3   OH216997   2.598   0.840   1.026
 5678TIP3    H116998   2.579   0.823   0.934
 5678TIP3    H216999   2.656   0.768   1.052
 5679TIP3   OH217000   2.323   2.374   5.011
 5679TIP3    H117001   2.415   2.399   5.019
 5679TIP3    H217002   2.311   2.356   4.918
 5680TIP3   OH217003   4.676   4.115   0.555
 5680TIP3    H117004   4.655   4.129   0.463
 5680TIP3    H217005   4.641   4.191   0.600
 5681TIP3   OH217006   6.542   1.946   0.722
 5681TIP3    H117007   6.526   1.886   0.795
 5681TIP3    H217008   6.560   1.888   0.647
 5682TIP3   OH217009   3.322   5.535   5.456
 5682TIP3    H117010   3.396   5.488   5.493
 5682TIP3    H217011   3.357   5.620   5.429
 5683TIP3   OH217012   3.425   1.569   1.992
 5683TIP3    H117013   3.438   1.485   1.947
 5683TIP3    H217014   3.336   1.596   1.966
 5684TIP3   OH217015   2.278   0.393   2.465
 5684TIP3    H117016   2.197   0.387   2.415
 5684TIP3    H217017   2.262   0.343   2.545
 5685TIP3   OH217018   4.992   5.605   0.078
 5685TIP3    H117019   5.004   5.683   0.133
 5685TIP3    H217020   4.903   5.611   0.046
 5686TIP3   OH217021   6.116   5.565   4.364
 5686TIP3    H117022   6.022   5.583   4.361
 5686TIP3    H217023   6.152   5.616   4.292
 5687TIP3   OH217024   3.788   6.100   4.602
 5687TIP3    H117025   3.737   6.054   4.537
 5687TIP3    H217026   3.826   6.175   4.555
 5688TIP3   OH217027   5.167   1.528   2.829
 5688TIP3    H117028   5.111   1.516   2.906
 5688TIP3    H217029   5.248   1.564   2.864
 5689TIP3   OH217030   5.625   2.117   3.054
 5689TIP3    H117031   5.614   2.030   3.016
 5689TIP3    H217032   5.587   2.110   3.142
 5690TIP3   OH217033   1.623   2.153   4.675
 5690TIP3    H117034   1.673   2.074   4.697
 5690TIP3    H217035   1.662   2.222   4.730
 5691TIP3   OH217036   0.442   4.689   5.041
 5691TIP3    H117037   0.390   4.608   5.039
 5691TIP3    H217038   0.401   4.745   4.975
 5692TIP3   OH217039   1.762   0.349   3.891
 5692TIP3    H117040   1.669   0.371   3.903
 5692TIP3    H217041   1.763   0.296   3.812
 5693TIP3   OH217042   1.130   2.161   0.072
 5693TIP3    H117043   1.120   2.073   0.036
 5693TIP3    H217044   1.071   2.164   0.147
 5694TIP3   OH217045   3.467   6.527   5.775
 5694TIP3    H117046   3.553   6.548   5.810
 5694TIP3    H217047   3.474   6.436   5.746
 5695TIP3   OH217048   6.302   2.774   4.912
 5695TIP3    H117049   6.219   2.817   4.893
 5695TIP3    H217050   6.367   2.845   4.909
 5696TIP3   OH217051   1.813   6.171   4.857
 5696TIP3    H117052   1.883   6.236   4.848
 5696TIP3    H217053   1.817   6.119   4.777
 5697TIP3   OH217054   5.466   4.998   4.316
 5697TIP3    H117055   5.501   5.082   4.287
 5697TIP3    H217056   5.487   4.937   4.246
 5698TIP3   OH217057   3.065   5.838   5.331
 5698TIP3    H117058   2.977   5.874   5.327
 5698TIP3    H217059   3.087   5.817   5.240
 5699TIP3   OH217060   3.797   6.523   1.639
 5699TIP3    H117061   3.750   6.466   1.579
 5699TIP3    H217062   3.729   6.567   1.690
 5700TIP3   OH217063   6.071   0.062   0.060
 5700TIP3    H117064   6.075  -0.034   0.053
 5700TIP3    H217065   5.978   0.082   0.052
 5701TIP3   OH217066   2.350   6.326   0.616
 5701TIP3    H117067   2.350   6.420   0.598
 5701TIP3    H217068   2.432   6.294   0.579
 5702TIP3   OH217069   1.879   1.892   1.561
 5702TIP3    H117070   1.828   1.812   1.575
 5702TIP3    H217071   1.964   1.861   1.530
 5703TIP3   OH217072   3.489   4.702   2.048
 5703TIP3    H117073   3.477   4.796   2.037
 5703TIP3    H217074   3.445   4.663   1.972
 5704TIP3   OH217075   4.295   0.003   5.846
 5704TIP3    H117076   4.369   0.055   5.876
 5704TIP3    H217077   4.293  -0.073   5.904
 5705TIP3   OH217078   7.095   5.182   2.852
 5705TIP3    H117079   7.084   5.261   2.801
 5705TIP3    H217080   7.169   5.201   2.911
 5706TIP3   OH217081   6.968   1.336   3.763
 5706TIP3    H117082   6.914   1.261   3.790
 5706TIP3    H217083   7.053   1.320   3.803
 5707TIP3   OH217084   1.164   5.388   1.908
 5707TIP3    H117085   1.145   5.399   1.815
 5707TIP3    H217086   1.093   5.332   1.940
 5708TIP3   OH217087   6.035   6.063   3.321
 5708TIP3    H117088   6.007   5.983   3.277
 5708TIP3    H217089   5.957   6.092   3.368
 5709TIP3   OH217090   0.581   2.230   3.176
 5709TIP3    H117091   0.649   2.192   3.120
 5709TIP3    H217092   0.520   2.272   3.115
 5710TIP3   OH217093   5.467   4.560   2.904
 5710TIP3    H117094   5.410   4.631   2.934
 5710TIP3    H217095   5.501   4.590   2.820
 5711TIP3   OH217096   2.379   6.326   2.388
 5711TIP3    H117097   2.465   6.349   2.353
 5711TIP3    H217098   2.330   6.408   2.388
 5712TIP3   OH217099   4.813   5.773   0.639
 5712TIP3    H117100   4.867   5.838   0.594
 5712TIP3    H217101   4.802   5.809   0.727
 5713TIP3   OH217102   4.367   5.180   2.193
 5713TIP3    H117103   4.367   5.107   2.131
 5713TIP3    H217104   4.378   5.258   2.138
 5714TIP3   OH217105   1.504   5.043   0.949
 5714TIP3    H117106   1.574   4.984   0.977
 5714TIP3    H217107   1.493   5.104   1.022
 5715TIP3   OH217108   4.658   5.540   2.227
 5715TIP3    H117109   4.645   5.455   2.184
 5715TIP3    H217110   4.712   5.590   2.165
 5716TIP3   OH217111   4.790   1.078   0.994
 5716TIP3    H117112   4.720   1.106   0.935
 5716TIP3    H217113   4.822   0.996   0.956
 5717TIP3   OH217114   4.210   4.702   5.820
 5717TIP3    H117115   4.246   4.758   5.889
 5717TIP3    H217116   4.257   4.620   5.829
 5718TIP3   OH217117   0.607   3.314   5.106
 5718TIP3    H117118   0.655   3.335   5.186
 5718TIP3    H217119   0.645   3.370   5.039
 5719TIP3   OH217120   4.506   4.557   1.075
 5719TIP3    H117121   4.468   4.579   0.990
 5719TIP3    H217122   4.433   4.564   1.136
 5720TIP3   OH217123   4.497   4.067   0.180
 5720TIP3    H117124   4.570   4.027   0.134
 5720TIP3    H217125   4.490   4.154   0.143
 5721TIP3   OH217126   7.149   1.029   1.442
 5721TIP3    H117127   7.088   0.978   1.389
 5721TIP3    H217128   7.137   0.998   1.531
 5722TIP3   OH217129   2.629   1.123   2.840
 5722TIP3    H117130   2.583   1.056   2.890
 5722TIP3    H217131   2.605   1.106   2.749
 5723TIP3   OH217132   3.741   3.431   2.422
 5723TIP3    H117133   3.741   3.525   2.437
 5723TIP3    H217134   3.649   3.405   2.428
 5724TIP3   OH217135   6.024   1.339   5.286
 5724TIP3    H117136   5.989   1.350   5.374
 5724TIP3    H217137   5.957   1.290   5.238
 5725TIP3   OH217138   4.064   1.430   3.952
 5725TIP3    H117139   4.138   1.464   3.902
 5725TIP3    H217140   4.091   1.340   3.975
 5726TIP3   OH217141   2.152   4.328   2.276
 5726TIP3    H117142   2.209   4.269   2.325
 5726TIP3    H217143   2.143   4.286   2.190
 5727TIP3   OH217144   2.156   6.223   0.421
 5727TIP3    H117145   2.155   6.187   0.509
 5727TIP3    H217146   2.234   6.279   0.419
 5728TIP3   OH217147   5.791   3.598   2.859
 5728TIP3    H117148   5.756   3.614   2.771
 5728TIP3    H217149   5.744   3.660   2.915
 5729TIP3   OH217150   1.505   1.680   2.578
 5729TIP3    H117151   1.507   1.760   2.630
 5729TIP3    H217152   1.427   1.633   2.608
 5730TIP3   OH217153   2.897   6.370   1.220
 5730TIP3    H117154   2.982   6.328   1.231
 5730TIP3    H217155   2.859   6.327   1.143
 5731TIP3   OH217156   4.432   5.681   2.851
 5731TIP3    H117157   4.389   5.615   2.796
 5731TIP3    H217158   4.509   5.636   2.886
 5732TIP3   OH217159   6.227   0.561   2.522
 5732TIP3    H117160   6.312   0.523   2.499
 5732TIP3    H217161   6.185   0.580   2.438
 5733TIP3   OH217162   0.064   4.732   5.247
 5733TIP3    H117163   0.077   4.667   5.177
 5733TIP3    H217164   0.051   4.679   5.326
 5734TIP3   OH217165   2.020   4.764   4.030
 5734TIP3    H117166   1.932   4.752   3.994
 5734TIP3    H217167   2.060   4.832   3.976
 5735TIP3   OH217168   0.792   0.252   2.091
 5735TIP3    H117169   0.846   0.307   2.034
 5735TIP3    H217170   0.719   0.309   2.116
 5736TIP3   OH217171   1.581   4.567   4.355
 5736TIP3    H117172   1.624   4.542   4.436
 5736TIP3    H217173   1.514   4.500   4.341
 5737TIP3   OH217174   2.524   5.974   1.389
 5737TIP3    H117175   2.535   6.002   1.299
 5737TIP3    H217176   2.609   5.988   1.430
 5738TIP3   OH217177   6.327   6.592   5.567
 5738TIP3    H117178   6.369   6.646   5.501
 5738TIP3    H217179   6.400   6.548   5.611
 5739TIP3   OH217180   4.337   0.078   1.241
 5739TIP3    H117181   4.254   0.101   1.283
 5739TIP3    H217182   4.403   0.126   1.291
 5740TIP3   OH217183   5.648   0.933   3.804
 5740TIP3    H117184   5.572   0.938   3.861
 5740TIP3    H217185   5.680   0.844   3.814
 5741TIP3   OH217186   5.894   3.021   3.608
 5741TIP3    H117187   5.879   2.935   3.649
 5741TIP3    H217188   5.957   3.064   3.665
 5742TIP3   OH217189   1.661   0.382   4.596
 5742TIP3    H117190   1.748   0.422   4.601
 5742TIP3    H217191   1.669   0.317   4.526
 5743TIP3   OH217192   3.434   1.066   3.480
 5743TIP3    H117193   3.456   1.153   3.514
 5743TIP3    H217194   3.438   1.076   3.385
 5744TIP3   OH217195   5.169   2.901   2.527
 5744TIP3    H117196   5.117   2.973   2.565
 5744TIP3    H217197   5.106   2.850   2.476
 5745TIP3   OH217198   0.263   4.171   5.105
 5745TIP3    H117199   0.319   4.240   5.069
 5745TIP3    H217200   0.269   4.100   5.042
 5746TIP3   OH217201   3.841   0.822   1.391
 5746TIP3    H117202   3.775   0.753   1.386
 5746TIP3    H217203   3.915   0.788   1.342
 5747TIP3   OH217204   0.329   0.882   3.894
 5747TIP3    H117205   0.280   0.951   3.938
 5747TIP3    H217206   0.415   0.883   3.935
 5748TIP3   OH217207   5.566   0.786   0.239
 5748TIP3    H117208   5.501   0.774   0.309
 5748TIP3    H217209   5.517   0.771   0.158
 5749TIP3   OH217210   6.569   2.402   1.394
 5749TIP3    H117211   6.515   2.466   1.348
 5749TIP3    H217212   6.652   2.401   1.347
 5750TIP3   OH217213   6.019   6.667   1.363
 5750TIP3    H117214   6.080   6.595   1.379
 5750TIP3    H217215   5.954   6.632   1.303
 5751TIP3   OH217216   0.402   0.744   5.554
 5751TIP3    H117217   0.313   0.770   5.574
 5751TIP3    H217218   0.393   0.662   5.506
 5752TIP3   OH217219   4.291   6.532   0.610
 5752TIP3    H117220   4.339   6.609   0.579
 5752TIP3    H217221   4.201   6.546   0.580
 5753TIP3   OH217222   5.177   3.286   2.173
 5753TIP3    H117223   5.143   3.306   2.086
 5753TIP3    H217224   5.272   3.290   2.164
 5754TIP3   OH217225   5.693   4.027   5.844
 5754TIP3    H117226   5.617   3.991   5.889
 5754TIP3    H217227   5.703   4.115   5.879
 5755TIP3   OH217228   1.477   3.926   2.059
 5755TIP3    H117229   1.421   3.902   2.133
 5755TIP3    H217230   1.566   3.912   2.091
 5756TIP3   OH217231   5.864   3.248   5.073
 5756TIP3    H117232   5.809   3.172   5.054
 5756TIP3    H217233   5.802   3.318   5.096
 5757TIP3   OH217234   0.735   4.843   1.648
 5757TIP3    H117235   0.785   4.800   1.718
 5757TIP3    H217236   0.672   4.778   1.620
 5758TIP3   OH217237   3.913   0.365   4.091
 5758TIP3    H117238   3.877   0.410   4.168
 5758TIP3    H217239   3.972   0.300   4.128
 5759TIP3   OH217240   3.014   3.329   0.023
 5759TIP3    H117241   3.106   3.332  -0.002
 5759TIP3    H217242   2.972   3.279  -0.046
 5760TIP3   OH217243   4.655   5.963   0.421
 5760TIP3    H117244   4.743   5.975   0.458
 5760TIP3    H217245   4.597   6.005   0.485
 5761TIP3   OH217246   6.292   4.879   3.607
 5761TIP3    H117247   6.227   4.897   3.539
 5761TIP3    H217248   6.247   4.897   3.689
 5762TIP3   OH217249   5.458   5.947   1.109
 5762TIP3    H117250   5.387   6.002   1.076
 5762TIP3    H217251   5.465   5.876   1.045
 5763TIP3   OH217252   6.134   3.459   2.344
 5763TIP3    H117253   6.189   3.406   2.286
 5763TIP3    H217254   6.130   3.410   2.426
 5764TIP3   OH217255   2.454   5.911   3.745
 5764TIP3    H117256   2.475   5.866   3.827
 5764TIP3    H217257   2.517   5.876   3.682
 5765TIP3   OH217258   5.608   2.514   3.883
 5765TIP3    H117259   5.537   2.567   3.846
 5765TIP3    H217260   5.619   2.548   3.972
 5766TIP3   OH217261   1.904   2.693   5.264
 5766TIP3    H117262   1.861   2.611   5.243
 5766TIP3    H217263   1.997   2.676   5.247
 5767TIP3   OH217264   4.764   1.881   3.961
 5767TIP3    H117265   4.681   1.878   3.914
 5767TIP3    H217266   4.783   1.975   3.970
 5768TIP3   OH217267   6.367   6.500   4.554
 5768TIP3    H117268   6.453   6.456   4.549
 5768TIP3    H217269   6.371   6.567   4.486
 5769TIP3   OH217270   3.448   2.925   4.498
 5769TIP3    H117271   3.392   2.978   4.442
 5769TIP3    H217272   3.520   2.897   4.441
 5770TIP3   OH217273   6.016   3.904   0.291
 5770TIP3    H117274   5.947   3.959   0.253
 5770TIP3    H217275   6.088   3.910   0.229
 5771TIP3   OH217276   2.988   0.461   4.817
 5771TIP3    H117277   3.009   0.523   4.748
 5771TIP3    H217278   2.971   0.516   4.894
 5772TIP3   OH217279   1.429   3.533   2.822
 5772TIP3    H117280   1.340   3.562   2.844
 5772TIP3    H217281   1.481   3.553   2.900
 5773TIP3   OH217282   3.438   6.511   0.143
 5773TIP3    H117283   3.468   6.421   0.141
 5773TIP3    H217284   3.371   6.513   0.211
 5774TIP3   OH217285   2.234   1.541   2.663
 5774TIP3    H117286   2.286   1.554   2.584
 5774TIP3    H217287   2.178   1.618   2.668
 5775TIP3   OH217288   4.330   0.654   1.120
 5775TIP3    H117289   4.275   0.615   1.187
 5775TIP3    H217290   4.396   0.703   1.169
 5776TIP3   OH217291   3.456   3.125   5.579
 5776TIP3    H117292   3.410   3.179   5.644
 5776TIP3    H217293   3.451   3.175   5.498
 5777TIP3   OH217294   7.166   4.542   2.893
 5777TIP3    H117295   7.186   4.562   2.984
 5777TIP3    H217296   7.221   4.467   2.872
 5778TIP3   OH217297   1.499   4.712   2.879
 5778TIP3    H117298   1.499   4.792   2.931
 5778TIP3    H217299   1.433   4.657   2.919
 5779TIP3   OH217300   3.726   4.689   3.184
 5779TIP3    H117301   3.806   4.741   3.192
 5779TIP3    H217302   3.755   4.599   3.198
 5780TIP3   OH217303   4.186   2.016   1.136
 5780TIP3    H117304   4.090   2.011   1.139
 5780TIP3    H217305   4.213   1.992   1.225
 5781TIP3   OH217306   7.016   4.292   2.350
 5781TIP3    H117307   7.103   4.265   2.381
 5781TIP3    H217308   7.014   4.386   2.363
 5782TIP3   OH217309   3.075   4.390   2.432
 5782TIP3    H117310   3.124   4.308   2.431
 5782TIP3    H217311   3.030   4.393   2.348
 5783TIP3   OH217312   0.422   0.554   0.352
 5783TIP3    H117313   0.375   0.512   0.280
 5783TIP3    H217314   0.390   0.510   0.431
 5784TIP3   OH217315   4.957   0.405   0.790
 5784TIP3    H117316   4.919   0.454   0.717
 5784TIP3    H217317   4.899   0.330   0.801
 5785TIP3   OH217318   1.120   1.119   0.887
 5785TIP3    H117319   1.084   1.206   0.897
 5785TIP3    H217320   1.065   1.063   0.940
 5786TIP3   OH217321   5.728   3.810   3.441
 5786TIP3    H117322   5.798   3.774   3.494
 5786TIP3    H217323   5.741   3.772   3.354
 5787TIP3   OH217324   6.582   3.103   3.606
 5787TIP3    H117325   6.634   3.085   3.685
 5787TIP3    H217326   6.533   3.022   3.591
 5788TIP3   OH217327   0.661   1.726   3.177
 5788TIP3    H117328   0.748   1.763   3.188
 5788TIP3    H217329   0.643   1.735   3.083
 5789TIP3   OH217330   6.859   1.470   2.030
 5789TIP3    H117331   6.949   1.478   1.999
 5789TIP3    H217332   6.842   1.375   2.030
 5790TIP3   OH217333   5.152   5.742   4.399
 5790TIP3    H117334   5.236   5.759   4.357
 5790TIP3    H217335   5.134   5.650   4.380
 5791TIP3   OH217336   1.329   4.514   0.952
 5791TIP3    H117337   1.299   4.577   0.887
 5791TIP3    H217338   1.366   4.567   1.023
 5792TIP3   OH217339   1.769   4.754   3.930
 5792TIP3    H117340   1.729   4.680   3.975
 5792TIP3    H217341   1.703   4.824   3.937
 5793TIP3   OH217342   0.210   6.606   4.639
 5793TIP3    H117343   0.127   6.628   4.682
 5793TIP3    H217344   0.232   6.519   4.672
 5794TIP3   OH217345   4.832   0.218   5.561
 5794TIP3    H117346   4.799   0.288   5.505
 5794TIP3    H217347   4.917   0.250   5.591
 5795TIP3   OH217348   2.032   4.761   3.395
 5795TIP3    H117349   2.021   4.843   3.444
 5795TIP3    H217350   2.110   4.777   3.341
 5796TIP3   OH217351   7.154   5.246   0.912
 5796TIP3    H117352   7.226   5.239   0.850
 5796TIP3    H217353   7.188   5.207   0.993
 5797TIP3   OH217354   1.986   3.092   5.639
 5797TIP3    H117355   1.965   3.126   5.725
 5797TIP3    H217356   1.914   3.122   5.583
 5798TIP3   OH217357   3.891   5.940   3.488
 5798TIP3    H117358   3.847   6.005   3.541
 5798TIP3    H217359   3.969   5.985   3.455
 5799TIP3   OH217360   6.248   1.894   4.886
 5799TIP3    H117361   6.226   1.811   4.843
 5799TIP3    H217362   6.269   1.869   4.976
 5800TIP3   OH217363   5.463   4.047   0.432
 5800TIP3    H117364   5.433   4.100   0.505
 5800TIP3    H217365   5.396   4.058   0.365
 5801TIP3   OH217366   5.577   0.259   5.115
 5801TIP3    H117367   5.663   0.238   5.152
 5801TIP3    H217368   5.541   0.174   5.089
 5802TIP3   OH217369   4.131   5.395   4.786
 5802TIP3    H117370   4.226   5.405   4.784
 5802TIP3    H217371   4.117   5.301   4.796
 5803TIP3   OH217372   4.406   0.547   1.442
 5803TIP3    H117373   4.439   0.636   1.426
 5803TIP3    H217374   4.484   0.492   1.437
 5804TIP3   OH217375   6.810   6.767   1.995
 5804TIP3    H117376   6.781   6.834   1.934
 5804TIP3    H217377   6.732   6.715   2.013
 5805TIP3   OH217378   2.434   6.071   4.379
 5805TIP3    H117379   2.364   6.010   4.402
 5805TIP3    H217380   2.407   6.154   4.418
 5806TIP3   OH217381   3.501   2.345   3.162
 5806TIP3    H117382   3.473   2.295   3.238
 5806TIP3    H217383   3.425   2.342   3.103
 5807TIP3   OH217384   7.075   5.508   3.809
 5807TIP3    H117385   7.128   5.481   3.734
 5807TIP3    H217386   7.102   5.598   3.826
 5808TIP3   OH217387   3.118   2.508   2.740
 5808TIP3    H117388   3.176   2.575   2.775
 5808TIP3    H217389   3.167   2.469   2.668
 5809TIP3   OH217390   0.645   5.493   0.805
 5809TIP3    H117391   0.563   5.539   0.789
 5809TIP3    H217392   0.700   5.516   0.730
 5810TIP3   OH217393   5.328   2.597   1.027
 5810TIP3    H117394   5.400   2.648   0.990
 5810TIP3    H217395   5.369   2.537   1.088
 5811TIP3   OH217396   2.432   4.312   2.783
 5811TIP3    H117397   2.407   4.262   2.705
 5811TIP3    H217398   2.526   4.328   2.773
 5812TIP3   OH217399   5.627   6.220   2.871
 5812TIP3    H117400   5.623   6.293   2.933
 5812TIP3    H217401   5.718   6.191   2.875
 5813TIP3   OH217402   1.545   2.217   2.287
 5813TIP3    H117403   1.599   2.187   2.360
 5813TIP3    H217404   1.586   2.299   2.259
 5814TIP3   OH217405   3.945   6.530   1.980
 5814TIP3    H117406   3.862   6.482   1.974
 5814TIP3    H217407   3.936   6.583   2.059
 5815TIP3   OH217408   6.816   6.437   0.247
 5815TIP3    H117409   6.820   6.345   0.271
 5815TIP3    H217410   6.776   6.480   0.322
 5816TIP3   OH217411   7.029   1.370   5.575
 5816TIP3    H117412   7.116   1.409   5.573
 5816TIP3    H217413   6.970   1.443   5.553
 5817TIP3   OH217414   0.445   1.343   3.248
 5817TIP3    H117415   0.521   1.284   3.245
 5817TIP3    H217416   0.412   1.345   3.159
 5818TIP3   OH217417   5.787   3.883   4.487
 5818TIP3    H117418   5.807   3.975   4.468
 5818TIP3    H217419   5.720   3.887   4.555
 5819TIP3   OH217420   2.408   0.255   5.864
 5819TIP3    H117421   2.471   0.327   5.869
 5819TIP3    H217422   2.455   0.180   5.899
 5820TIP3   OH217423   5.059   5.305   3.258
 5820TIP3    H117424   5.131   5.298   3.196
 5820TIP3    H217425   4.984   5.267   3.212
 5821TIP3   OH217426   3.434   0.649   5.559
 5821TIP3    H117427   3.450   0.737   5.524
 5821TIP3    H217428   3.501   0.594   5.518
 5822TIP3   OH217429   1.495   6.067   1.054
 5822TIP3    H117430   1.550   5.989   1.063
 5822TIP3    H217431   1.427   6.056   1.121
 5823TIP3   OH217432   4.514   6.745   4.900
 5823TIP3    H117433   4.548   6.703   4.979
 5823TIP3    H217434   4.439   6.796   4.931
 5824TIP3   OH217435   6.842   3.757   3.933
 5824TIP3    H117436   6.764   3.712   3.902
 5824TIP3    H217437   6.817   3.849   3.939
 5825TIP3   OH217438   4.139   4.642   0.106
 5825TIP3    H117439   4.123   4.552   0.136
 5825TIP3    H217440   4.218   4.636   0.053
 5826TIP3   OH217441   6.179   3.647   3.559
 5826TIP3    H117442   6.197   3.625   3.650
 5826TIP3    H217443   6.095   3.693   3.561
 5827TIP3   OH217444   5.707   6.105   1.431
 5827TIP3    H117445   5.701   6.189   1.385
 5827TIP3    H217446   5.756   6.125   1.511
 5828TIP3   OH217447   1.666   0.461   2.429
 5828TIP3    H117448   1.608   0.535   2.411
 5828TIP3    H217449   1.607   0.385   2.436
 5829TIP3   OH217450   6.011   4.187   3.601
 5829TIP3    H117451   6.096   4.211   3.638
 5829TIP3    H217452   5.966   4.270   3.588
 5830TIP3   OH217453   6.858   3.696   5.883
 5830TIP3    H117454   6.833   3.688   5.791
 5830TIP3    H217455   6.948   3.664   5.886
 5831TIP3   OH217456   5.579   4.410   0.465
 5831TIP3    H117457   5.541   4.486   0.509
 5831TIP3    H217458   5.647   4.379   0.525
 5832TIP3   OH217459   5.873   3.733   0.985
 5832TIP3    H117460   5.894   3.711   1.076
 5832TIP3    H217461   5.818   3.660   0.955
 5833TIP3   OH217462   4.352   3.125   3.843
 5833TIP3    H117463   4.369   3.033   3.863
 5833TIP3    H217464   4.401   3.141   3.762
 5834TIP3   OH217465   3.522   3.929   2.379
 5834TIP3    H117466   3.436   3.903   2.347
 5834TIP3    H217467   3.572   3.950   2.299
 5835TIP3   OH217468   1.606   1.193   0.791
 5835TIP3    H117469   1.579   1.233   0.874
 5835TIP3    H217470   1.543   1.123   0.777
 5836TIP3   OH217471   1.243   3.838   0.436
 5836TIP3    H117472   1.200   3.908   0.485
 5836TIP3    H217473   1.336   3.846   0.459
 5837TIP3   OH217474   5.517   5.155   0.866
 5837TIP3    H117475   5.523   5.166   0.961
 5837TIP3    H217476   5.491   5.242   0.834
 5838TIP3   OH217477   0.160   0.858   4.657
 5838TIP3    H117478   0.069   0.883   4.674
 5838TIP3    H217479   0.155   0.798   4.582
 5839TIP3   OH217480   3.849   6.285   5.565
 5839TIP3    H117481   3.766   6.332   5.574
 5839TIP3    H217482   3.908   6.329   5.626
 5840TIP3   OH217483   0.670   4.497   0.384
 5840TIP3    H117484   0.595   4.449   0.351
 5840TIP3    H217485   0.653   4.588   0.362
 5841TIP3   OH217486   4.001   0.559   3.503
 5841TIP3    H117487   4.048   0.594   3.579
 5841TIP3    H217488   4.045   0.599   3.427
 5842TIP3   OH217489   5.504   1.187   3.504
 5842TIP3    H117490   5.465   1.252   3.563
 5842TIP3    H217491   5.545   1.238   3.435
 5843TIP3   OH217492   6.473   1.979   2.307
 5843TIP3    H117493   6.484   2.053   2.367
 5843TIP3    H217494   6.504   1.903   2.356
 5844TIP3   OH217495   4.784   0.636   0.729
 5844TIP3    H117496   4.760   0.608   0.817
 5844TIP3    H217497   4.704   0.675   0.693
 5845TIP3   OH217498   0.174   0.009   2.885
 5845TIP3    H117499   0.093  -0.017   2.842
 5845TIP3    H217500   0.148   0.075   2.949
 5846TIP3   OH217501   4.366   2.965   2.250
 5846TIP3    H117502   4.402   3.049   2.279
 5846TIP3    H217503   4.421   2.939   2.176
 5847TIP3   OH217504   2.007   3.307   3.400
 5847TIP3    H117505   1.951   3.301   3.478
 5847TIP3    H217506   2.015   3.401   3.384
 5848TIP3   OH217507   0.035   2.590   3.798
 5848TIP3    H117508   0.080   2.623   3.876
 5848TIP3    H217509   0.033   2.495   3.811
 5849TIP3   OH217510   1.202   4.700   2.271
 5849TIP3    H117511   1.119   4.719   2.228
 5849TIP3    H217512   1.178   4.642   2.344
 5850TIP3   OH217513   2.245   3.970   4.894
 5850TIP3    H117514   2.214   3.896   4.947
 5850TIP3    H217515   2.167   4.022   4.878
 5851TIP3   OH217516   3.323   3.016   3.532
 5851TIP3    H117517   3.251   3.057   3.580
 5851TIP3    H217518   3.377   3.088   3.501
 5852TIP3   OH217519   1.470   1.988   2.650
 5852TIP3    H117520   1.444   2.056   2.712
 5852TIP3    H217521   1.390   1.966   2.603
 5853TIP3   OH217522   5.331   6.153   0.740
 5853TIP3    H117523   5.303   6.142   0.831
 5853TIP3    H217524   5.367   6.242   0.737
 5854TIP3   OH217525   6.375   6.309   0.702
 5854TIP3    H117526   6.324   6.256   0.763
 5854TIP3    H217527   6.334   6.396   0.706
 5855TIP3   OH217528   2.144   0.074   4.153
 5855TIP3    H117529   2.111   0.149   4.202
 5855TIP3    H217530   2.067   0.021   4.135
 5856TIP3   OH217531   3.820   6.389   3.555
 5856TIP3    H117532   3.884   6.405   3.624
 5856TIP3    H217533   3.774   6.473   3.545
 5857TIP3   OH217534   0.629   2.578   1.559
 5857TIP3    H117535   0.682   2.581   1.480
 5857TIP3    H217536   0.690   2.553   1.629
 5858TIP3   OH217537   2.815   2.934   3.376
 5858TIP3    H117538   2.756   2.872   3.419
 5858TIP3    H217539   2.901   2.891   3.379
 5859TIP3   OH217540   1.915   3.477   5.585
 5859TIP3    H117541   1.928   3.473   5.490
 5859TIP3    H217542   1.933   3.568   5.608
 5860TIP3   OH217543   3.218   2.200   4.731
 5860TIP3    H117544   3.207   2.137   4.660
 5860TIP3    H217545   3.230   2.284   4.687
 5861TIP3   OH217546   3.802   2.267   1.209
 5861TIP3    H117547   3.804   2.326   1.134
 5861TIP3    H217548   3.735   2.304   1.267
 5862TIP3   OH217549   2.823   1.866   4.168
 5862TIP3    H117550   2.772   1.798   4.211
 5862TIP3    H217551   2.905   1.870   4.218
 5863TIP3   OH217552   4.968   6.400   4.181
 5863TIP3    H117553   4.998   6.323   4.229
 5863TIP3    H217554   4.884   6.422   4.220
 5864TIP3   OH217555   3.851   1.107   4.313
 5864TIP3    H117556   3.894   1.034   4.358
 5864TIP3    H217557   3.757   1.086   4.317
 5865TIP3   OH217558   4.903   1.372   4.716
 5865TIP3    H117559   4.840   1.300   4.715
 5865TIP3    H217560   4.954   1.361   4.636
 5866TIP3   OH217561   6.599   1.960   5.685
 5866TIP3    H117562   6.632   2.003   5.764
 5866TIP3    H217563   6.631   1.870   5.691
 5867TIP3   OH217564   5.066   2.105   4.572
 5867TIP3    H117565   5.007   2.117   4.646
 5867TIP3    H217566   5.145   2.066   4.609
 5868TIP3   OH217567   4.354   0.334   2.231
 5868TIP3    H117568   4.379   0.422   2.258
 5868TIP3    H217569   4.311   0.296   2.308
 5869TIP3   OH217570   6.522   6.375   1.509
 5869TIP3    H117571   6.552   6.402   1.422
 5869TIP3    H217572   6.569   6.433   1.569
 5870TIP3   OH217573   5.834   5.306   3.810
 5870TIP3    H117574   5.844   5.358   3.890
 5870TIP3    H217575   5.874   5.221   3.831
 5871TIP3   OH217576   5.808   6.308   1.958
 5871TIP3    H117577   5.843   6.387   1.916
 5871TIP3    H217578   5.883   6.271   2.004
 5872TIP3   OH217579   0.434   4.785   0.994
 5872TIP3    H117580   0.515   4.811   0.950
 5872TIP3    H217581   0.463   4.754   1.080
 5873TIP3   OH217582   1.962   5.057   0.369
 5873TIP3    H117583   2.047   5.054   0.413
 5873TIP3    H217584   1.921   5.137   0.402
 5874TIP3   OH217585   5.791   5.351   1.790
 5874TIP3    H117586   5.851   5.419   1.818
 5874TIP3    H217587   5.704   5.388   1.804
 5875TIP3   OH217588   2.368   2.504   4.745
 5875TIP3    H117589   2.359   2.599   4.747
 5875TIP3    H217590   2.311   2.477   4.673
 5876TIP3   OH217591   3.834   5.731   3.671
 5876TIP3    H117592   3.832   5.791   3.746
 5876TIP3    H217593   3.840   5.788   3.595
 5877TIP3   OH217594   0.357   4.687   1.244
 5877TIP3    H117595   0.332   4.779   1.244
 5877TIP3    H217596   0.301   4.647   1.177
 5878TIP3   OH217597   6.491   0.890   1.256
 5878TIP3    H117598   6.540   0.931   1.327
 5878TIP3    H217599   6.438   0.961   1.219
 5879TIP3   OH217600   3.344   5.808   1.686
 5879TIP3    H117601   3.304   5.838   1.768
 5879TIP3    H217602   3.281   5.746   1.650
 5880TIP3   OH217603   4.961   2.463   2.095
 5880TIP3    H117604   4.992   2.553   2.085
 5880TIP3    H217605   5.041   2.410   2.100
 5881TIP3   OH217606   2.656   2.644   1.060
 5881TIP3    H117607   2.667   2.602   0.975
 5881TIP3    H217608   2.643   2.737   1.040
 5882TIP3   OH217609   7.128   3.606   0.195
 5882TIP3    H117610   7.147   3.699   0.181
 5882TIP3    H217611   7.201   3.561   0.152
 5883TIP3   OH217612   4.611   5.896   5.156
 5883TIP3    H117613   4.639   5.921   5.244
 5883TIP3    H217614   4.515   5.895   5.162
 5884TIP3   OH217615   4.284   3.520   1.670
 5884TIP3    H117616   4.238   3.604   1.670
 5884TIP3    H217617   4.268   3.484   1.757
 5885TIP3   OH217618   3.752   6.747   0.456
 5885TIP3    H117619   3.768   6.655   0.475
 5885TIP3    H217620   3.679   6.748   0.395
 5886TIP3   OH217621   3.049   1.772   3.092
 5886TIP3    H117622   2.980   1.729   3.141
 5886TIP3    H217623   3.130   1.747   3.137
 5887TIP3   OH217624   0.894   5.526   4.205
 5887TIP3    H117625   0.888   5.437   4.171
 5887TIP3    H217626   0.839   5.526   4.283
 5888TIP3   OH217627   3.327   6.110   1.883
 5888TIP3    H117628   3.310   6.159   1.963
 5888TIP3    H217629   3.296   6.022   1.902
 5889TIP3   OH217630   6.312   1.353   3.546
 5889TIP3    H117631   6.284   1.324   3.459
 5889TIP3    H217632   6.277   1.287   3.606
 5890TIP3   OH217633   4.477   3.746   0.707
 5890TIP3    H117634   4.405   3.804   0.683
 5890TIP3    H217635   4.439   3.686   0.771
 5891TIP3   OH217636   6.072   1.864   0.488
 5891TIP3    H117637   6.143   1.818   0.534
 5891TIP3    H217638   6.117   1.924   0.429
 5892TIP3   OH217639   1.313   1.523   2.008
 5892TIP3    H117640   1.405   1.500   1.993
 5892TIP3    H217641   1.313   1.566   2.094
 5893TIP3   OH217642   1.126   2.147   3.073
 5893TIP3    H117643   1.076   2.065   3.080
 5893TIP3    H217644   1.065   2.214   3.103
 5894TIP3   OH217645   1.335   0.166   1.764
 5894TIP3    H117646   1.324   0.152   1.858
 5894TIP3    H217647   1.389   0.093   1.735
 5895TIP3   OH217648   5.313   3.832   2.291
 5895TIP3    H117649   5.218   3.848   2.290
 5895TIP3    H217650   5.323   3.751   2.341
 5896TIP3   OH217651   0.447   0.257   3.666
 5896TIP3    H117652   0.361   0.298   3.662
 5896TIP3    H217653   0.505   0.318   3.622
 5897TIP3   OH217654   5.934   2.821   5.091
 5897TIP3    H117655   5.924   2.729   5.118
 5897TIP3    H217656   6.028   2.836   5.096
 5898TIP3   OH217657   6.601   6.171   3.012
 5898TIP3    H117658   6.547   6.182   2.933
 5898TIP3    H217659   6.589   6.253   3.060
 5899TIP3   OH217660   5.623   1.518   1.691
 5899TIP3    H117661   5.579   1.436   1.669
 5899TIP3    H217662   5.569   1.586   1.651
 5900TIP3   OH217663   6.829   6.619   3.471
 5900TIP3    H117664   6.796   6.586   3.555
 5900TIP3    H217665   6.757   6.672   3.437
 5901TIP3   OH217666   2.856   2.919   4.866
 5901TIP3    H117667   2.825   2.844   4.918
 5901TIP3    H217668   2.836   2.894   4.776
 5902TIP3   OH217669   2.648   5.257   5.668
 5902TIP3    H117670   2.742   5.239   5.670
 5902TIP3    H217671   2.635   5.310   5.589
 5903TIP3   OH217672   1.119   2.962   1.329
 5903TIP3    H117673   1.139   2.946   1.422
 5903TIP3    H217674   1.194   2.925   1.283
 5904TIP3   OH217675   5.634   6.075   4.899
 5904TIP3    H117676   5.678   6.160   4.888
 5904TIP3    H217677   5.705   6.011   4.895
 5905TIP3   OH217678   5.084   5.517   0.686
 5905TIP3    H117679   5.005   5.507   0.739
 5905TIP3    H217680   5.078   5.447   0.621
 5906TIP3   OH217681   4.159   4.977   2.933
 5906TIP3    H117682   4.218   4.974   2.858
 5906TIP3    H217683   4.217   4.969   3.009
 5907TIP3   OH217684   4.565   3.180   3.357
 5907TIP3    H117685   4.604   3.265   3.337
 5907TIP3    H217686   4.481   3.180   3.310
 5908TIP3   OH217687   1.716   4.888   1.022
 5908TIP3    H117688   1.746   4.815   0.967
 5908TIP3    H217689   1.777   4.889   1.096
 5909TIP3   OH217690   1.207   5.740   3.854
 5909TIP3    H117691   1.224   5.834   3.862
 5909TIP3    H217692   1.115   5.730   3.876
 5910TIP3   OH217693   7.117   6.172   4.007
 5910TIP3    H117694   7.066   6.186   4.088
 5910TIP3    H217695   7.055   6.129   3.948
 5911TIP3   OH217696   3.577   3.125   5.831
 5911TIP3    H117697   3.670   3.132   5.851
 5911TIP3    H217698   3.575   3.108   5.737
 5912TIP3   OH217699   6.024   5.435   0.493
 5912TIP3    H117700   5.960   5.432   0.563
 5912TIP3    H217701   6.076   5.514   0.511
 5913TIP3   OH217702   5.934   4.641   4.475
 5913TIP3    H117703   5.853   4.668   4.519
 5913TIP3    H217704   6.001   4.700   4.511
 5914TIP3   OH217705   5.360   2.184   0.077
 5914TIP3    H117706   5.291   2.127   0.109
 5914TIP3    H217707   5.435   2.166   0.132
 5915TIP3   OH217708   0.604   2.315   2.473
 5915TIP3    H117709   0.636   2.238   2.425
 5915TIP3    H217710   0.571   2.279   2.555
 5916TIP3   OH217711   6.771   1.882   2.568
 5916TIP3    H117712   6.717   1.902   2.645
 5916TIP3    H217713   6.792   1.789   2.577
 5917TIP3   OH217714   6.368   1.593   3.030
 5917TIP3    H117715   6.321   1.621   2.952
 5917TIP3    H217716   6.339   1.653   3.099
 5918TIP3   OH217717   4.607   2.647   3.430
 5918TIP3    H117718   4.586   2.732   3.392
 5918TIP3    H217719   4.600   2.585   3.357
 5919TIP3   OH217720   0.863   1.673   4.257
 5919TIP3    H117721   0.957   1.689   4.248
 5919TIP3    H217722   0.840   1.709   4.342
 5920TIP3   OH217723   0.815   6.112   0.383
 5920TIP3    H117724   0.756   6.119   0.458
 5920TIP3    H217725   0.870   6.190   0.388
 5921TIP3   OH217726   4.241   1.131   1.101
 5921TIP3    H117727   4.318   1.090   1.061
 5921TIP3    H217728   4.229   1.084   1.183
 5922TIP3   OH217729   3.995   2.516   0.721
 5922TIP3    H117730   3.950   2.488   0.642
 5922TIP3    H217731   4.022   2.606   0.703
 5923TIP3   OH217732   0.547   5.396   2.523
 5923TIP3    H117733   0.531   5.456   2.596
 5923TIP3    H217734   0.535   5.449   2.444
 5924TIP3   OH217735   1.664   0.743   0.476
 5924TIP3    H117736   1.575   0.772   0.457
 5924TIP3    H217737   1.680   0.672   0.415
 5925TIP3   OH217738   0.029   3.753   2.626
 5925TIP3    H117739   0.065   3.698   2.695
 5925TIP3    H217740  -0.007   3.692   2.562
 5926TIP3   OH217741   6.306   6.359   1.016
 5926TIP3    H117742   6.227   6.305   1.007
 5926TIP3    H217743   6.273   6.449   1.018
 5927TIP3   OH217744   6.754   0.662   0.224
 5927TIP3    H117745   6.777   0.576   0.258
 5927TIP3    H217746   6.660   0.671   0.241
 5928TIP3   OH217747   4.970   2.988   1.185
 5928TIP3    H117748   5.031   2.922   1.150
 5928TIP3    H217749   4.976   2.978   1.280
 5929TIP3   OH217750   4.489   3.320   4.020
 5929TIP3    H117751   4.580   3.306   3.992
 5929TIP3    H217752   4.437   3.301   3.942
 5930TIP3   OH217753   1.534   2.455   2.478
 5930TIP3    H117754   1.453   2.405   2.475
 5930TIP3    H217755   1.531   2.512   2.401
 5931TIP3   OH217756   4.728   5.218   0.438
 5931TIP3    H117757   4.721   5.284   0.506
 5931TIP3    H217758   4.642   5.217   0.395
 5932TIP3   OH217759   1.335   0.709   3.947
 5932TIP3    H117760   1.408   0.651   3.967
 5932TIP3    H217761   1.299   0.734   4.032
 5933TIP3   OH217762   0.024   6.523   5.378
 5933TIP3    H117763   0.099   6.532   5.437
 5933TIP3    H217764  -0.048   6.567   5.424
 5934TIP3   OH217765   6.789   0.212   0.311
 5934TIP3    H117766   6.869   0.182   0.268
 5934TIP3    H217767   6.718   0.178   0.257
 5935TIP3   OH217768   0.460   6.501   3.899
 5935TIP3    H117769   0.544   6.510   3.855
 5935TIP3    H217770   0.423   6.589   3.899
 5936TIP3   OH217771   1.253   3.797   3.396
 5936TIP3    H117772   1.185   3.860   3.373
 5936TIP3    H217773   1.222   3.759   3.479
 5937TIP3   OH217774   6.266   0.686   1.358
 5937TIP3    H117775   6.322   0.763   1.346
 5937TIP3    H217776   6.212   0.706   1.434
 5938TIP3   OH217777   7.170   3.986   3.540
 5938TIP3    H117778   7.079   3.976   3.567
 5938TIP3    H217779   7.216   4.008   3.621
 5939TIP3   OH217780   0.280   4.479   1.866
 5939TIP3    H117781   0.341   4.429   1.812
 5939TIP3    H217782   0.329   4.499   1.946
 5940TIP3   OH217783   4.098   2.293   2.757
 5940TIP3    H117784   4.038   2.320   2.826
 5940TIP3    H217785   4.151   2.371   2.740
 5941TIP3   OH217786   6.632   1.909   3.731
 5941TIP3    H117787   6.578   1.839   3.766
 5941TIP3    H217788   6.623   1.981   3.794
 5942TIP3   OH217789   3.662   2.284   2.410
 5942TIP3    H117790   3.728   2.246   2.469
 5942TIP3    H217791   3.654   2.375   2.439
 5943TIP3   OH217792   5.633   2.463   5.631
 5943TIP3    H117793   5.659   2.404   5.560
 5943TIP3    H217794   5.577   2.410   5.687
 5944TIP3   OH217795   3.075   3.436   5.861
 5944TIP3    H117796   3.116   3.352   5.843
 5944TIP3    H217797   3.100   3.491   5.786
 5945TIP3   OH217798   5.316   4.657   4.692
 5945TIP3    H117799   5.222   4.666   4.675
 5945TIP3    H217800   5.356   4.729   4.643
 5946TIP3   OH217801   0.821   5.625   0.592
 5946TIP3    H117802   0.906   5.595   0.559
 5946TIP3    H217803   0.819   5.718   0.573
 5947TIP3   OH217804   6.824   2.552   0.673
 5947TIP3    H117805   6.902   2.582   0.718
 5947TIP3    H217806   6.855   2.482   0.615
 5948TIP3   OH217807   2.986   3.137   0.540
 5948TIP3    H117808   3.028   3.064   0.494
 5948TIP3    H217809   2.933   3.180   0.473
 5949TIP3   OH217810   2.543   5.127   4.150
 5949TIP3    H117811   2.493   5.093   4.224
 5949TIP3    H217812   2.481   5.124   4.076
 5950TIP3   OH217813   0.778   4.440   4.267
 5950TIP3    H117814   0.683   4.432   4.277
 5950TIP3    H217815   0.792   4.447   4.173
 5951TIP3   OH217816   2.901   4.067   2.103
 5951TIP3    H117817   2.869   4.114   2.180
 5951TIP3    H217818   2.826   4.063   2.044
 5952TIP3   OH217819   4.799   4.068   4.229
 5952TIP3    H117820   4.865   4.074   4.160
 5952TIP3    H217821   4.808   3.979   4.264
 5953TIP3   OH217822   2.936   2.313   2.928
 5953TIP3    H117823   2.923   2.246   2.995
 5953TIP3    H217824   3.031   2.327   2.925
 5954TIP3   OH217825   4.994   2.575   2.377
 5954TIP3    H117826   5.048   2.632   2.322
 5954TIP3    H217827   4.912   2.565   2.327
 5955TIP3   OH217828   6.200   1.170   0.749
 5955TIP3    H117829   6.117   1.141   0.710
 5955TIP3    H217830   6.174   1.234   0.815
 5956TIP3   OH217831   0.177   5.299   2.956
 5956TIP3    H117832   0.140   5.348   3.030
 5956TIP3    H217833   0.266   5.278   2.984
 5957TIP3   OH217834   4.581   0.944   2.450
 5957TIP3    H117835   4.504   1.001   2.447
 5957TIP3    H217836   4.607   0.934   2.358
 5958TIP3   OH217837   2.791   0.496   4.243
 5958TIP3    H117838   2.721   0.464   4.185
 5958TIP3    H217839   2.850   0.422   4.252
 5959TIP3   OH217840   6.009   0.751   1.499
 5959TIP3    H117841   5.946   0.823   1.500
 5959TIP3    H217842   5.987   0.702   1.419
 5960TIP3   OH217843   2.467   4.569   1.568
 5960TIP3    H117844   2.482   4.592   1.660
 5960TIP3    H217845   2.391   4.510   1.571
 5961TIP3   OH217846   1.944   4.707   4.598
 5961TIP3    H117847   1.991   4.645   4.543
 5961TIP3    H217848   1.878   4.654   4.643
 5962TIP3   OH217849   1.212   5.641   3.237
 5962TIP3    H117850   1.299   5.651   3.277
 5962TIP3    H217851   1.158   5.605   3.308
 5963TIP3   OH217852   5.719   0.673   3.752
 5963TIP3    H117853   5.648   0.712   3.701
 5963TIP3    H217854   5.773   0.627   3.688
 5964TIP3   OH217855   5.584   3.242   0.846
 5964TIP3    H117856   5.599   3.175   0.779
 5964TIP3    H217857   5.672   3.264   0.878
 5965TIP3   OH217858   2.981   3.876   2.474
 5965TIP3    H117859   3.029   3.868   2.392
 5965TIP3    H217860   2.929   3.956   2.465
 5966TIP3   OH217861   0.774   5.617   2.775
 5966TIP3    H117862   0.839   5.551   2.797
 5966TIP3    H217863   0.698   5.594   2.829
 5967TIP3   OH217864   2.823   3.114   1.314
 5967TIP3    H117865   2.876   3.049   1.360
 5967TIP3    H217866   2.746   3.128   1.370
 5968TIP3   OH217867   6.257   4.969   3.883
 5968TIP3    H117868   6.242   5.059   3.914
 5968TIP3    H217869   6.202   4.915   3.939
 5969TIP3   OH217870   3.594   4.658   5.123
 5969TIP3    H117871   3.684   4.677   5.150
 5969TIP3    H217872   3.581   4.712   5.045
 5970TIP3   OH217873   6.322   4.168   0.430
 5970TIP3    H117874   6.408   4.142   0.462
 5970TIP3    H217875   6.260   4.118   0.484
 5971TIP3   OH217876   3.106   2.468   1.309
 5971TIP3    H117877   3.187   2.505   1.273
 5971TIP3    H217878   3.037   2.505   1.254
 5972TIP3   OH217879   0.423   2.359   1.503
 5972TIP3    H117880   0.503   2.407   1.481
 5972TIP3    H217881   0.353   2.423   1.491
 5973TIP3   OH217882   0.467   3.802   3.497
 5973TIP3    H117883   0.427   3.730   3.545
 5973TIP3    H217884   0.496   3.863   3.564
 5974TIP3   OH217885   4.939   2.496   1.202
 5974TIP3    H117886   5.006   2.562   1.218
 5974TIP3    H217887   4.953   2.467   1.112
 5975TIP3   OH217888   0.812   1.456   2.974
 5975TIP3    H117889   0.861   1.521   3.023
 5975TIP3    H217890   0.723   1.492   2.967
 5976TIP3   OH217891   2.529   3.802   5.487
 5976TIP3    H117892   2.449   3.756   5.461
 5976TIP3    H217893   2.533   3.878   5.430
 5977TIP3   OH217894   2.050   4.989   2.858
 5977TIP3    H117895   2.146   4.995   2.861
 5977TIP3    H217896   2.019   5.077   2.879
 5978TIP3   OH217897   6.868   3.333   2.359
 5978TIP3    H117898   6.895   3.270   2.425
 5978TIP3    H217899   6.939   3.333   2.295
 5979TIP3   OH217900   5.942   0.266   3.130
 5979TIP3    H117901   5.887   0.248   3.054
 5979TIP3    H217902   6.026   0.225   3.109
 5980TIP3   OH217903   6.571   2.642   0.704
 5980TIP3    H117904   6.573   2.701   0.779
 5980TIP3    H217905   6.662   2.613   0.693
 5981TIP3   OH217906   5.598   5.768   0.652
 5981TIP3    H117907   5.609   5.863   0.663
 5981TIP3    H217908   5.647   5.747   0.573
 5982TIP3   OH217909   3.182   6.360   2.641
 5982TIP3    H117910   3.177   6.283   2.698
 5982TIP3    H217911   3.275   6.382   2.638
 5983TIP3   OH217912   2.799   6.595   0.080
 5983TIP3    H117913   2.791   6.683   0.042
 5983TIP3    H217914   2.770   6.536   0.011
 5984TIP3   OH217915   3.988   4.333   4.856
 5984TIP3    H117916   4.010   4.426   4.860
 5984TIP3    H217917   3.895   4.329   4.876
 5985TIP3   OH217918   0.085   0.633   2.623
 5985TIP3    H117919   0.080   0.594   2.711
 5985TIP3    H217920   0.132   0.715   2.636
 5986TIP3   OH217921   1.697   5.685   4.827
 5986TIP3    H117922   1.605   5.697   4.806
 5986TIP3    H217923   1.741   5.759   4.784
 5987TIP3   OH217924   4.995   0.104   1.441
 5987TIP3    H117925   5.088   0.087   1.452
 5987TIP3    H217926   4.953   0.044   1.503
 5988TIP3   OH217927   7.067   6.422   4.886
 5988TIP3    H117928   7.083   6.333   4.854
 5988TIP3    H217929   7.080   6.417   4.980
 5989TIP3   OH217930   1.526   6.140   0.771
 5989TIP3    H117931   1.575   6.067   0.732
 5989TIP3    H217932   1.520   6.117   0.864
 5990TIP3   OH217933   4.078   4.855   3.656
 5990TIP3    H117934   4.161   4.837   3.611
 5990TIP3    H217935   4.041   4.930   3.609
 5991TIP3   OH217936   3.570   5.958   4.067
 5991TIP3    H117937   3.600   5.868   4.081
 5991TIP3    H217938   3.650   6.006   4.044
 5992TIP3   OH217939   0.446   1.224   0.989
 5992TIP3    H117940   0.404   1.144   1.023
 5992TIP3    H217941   0.530   1.226   1.034
 5993TIP3   OH217942   5.892   3.103   2.691
 5993TIP3    H117943   5.862   3.179   2.740
 5993TIP3    H217944   5.815   3.074   2.641
 5994TIP3   OH217945   5.102   0.835   5.047
 5994TIP3    H117946   5.087   0.808   4.957
 5994TIP3    H217947   5.187   0.795   5.070
 5995TIP3   OH217948   4.456   2.485   3.998
 5995TIP3    H117949   4.448   2.456   3.907
 5995TIP3    H217950   4.508   2.418   4.041
 5996TIP3   OH217951   6.641   3.294   4.263
 5996TIP3    H117952   6.560   3.327   4.303
 5996TIP3    H217953   6.696   3.372   4.254
 5997TIP3   OH217954   1.016   1.510   0.008
 5997TIP3    H117955   1.104   1.477  -0.010
 5997TIP3    H217956   1.030   1.597   0.046
 5998TIP3   OH217957   6.286   5.694   1.350
 5998TIP3    H117958   6.325   5.750   1.283
 5998TIP3    H217959   6.198   5.675   1.317
 5999TIP3   OH217960   2.263   0.970   5.537
 5999TIP3    H117961   2.179   0.970   5.583
 5999TIP3    H217962   2.254   1.038   5.471
 6000TIP3   OH217963   3.124   4.380   3.953
 6000TIP3    H117964   3.097   4.439   4.023
 6000TIP3    H217965   3.219   4.387   3.949
 6001TIP3   OH217966   6.909   1.888   2.869
 6001TIP3    H117967   6.871   1.974   2.851
 6001TIP3    H217968   6.910   1.881   2.964
 6002TIP3   OH217969   3.212   6.615   1.698
 6002TIP3    H117970   3.253   6.702   1.689
 6002TIP3    H217971   3.139   6.630   1.758
 6003TIP3   OH217972   1.464   1.321   5.395
 6003TIP3    H117973   1.429   1.391   5.451
 6003TIP3    H217974   1.559   1.326   5.407
 6004TIP3   OH217975   5.633   0.930   2.368
 6004TIP3    H117976   5.656   0.936   2.461
 6004TIP3    H217977   5.543   0.964   2.364
 6005TIP3   OH217978   0.658   1.710   5.452
 6005TIP3    H117979   0.741   1.669   5.480
 6005TIP3    H217980   0.613   1.730   5.533
 6006TIP3   OH217981   4.419   2.876   0.789
 6006TIP3    H117982   4.445   2.876   0.697
 6006TIP3    H217983   4.502   2.872   0.836
 6007TIP3   OH217984   1.590   6.056   5.264
 6007TIP3    H117985   1.671   6.088   5.225
 6007TIP3    H217986   1.580   5.967   5.230
 6008TIP3   OH217987   2.657   2.750   5.620
 6008TIP3    H117988   2.656   2.658   5.648
 6008TIP3    H217989   2.598   2.753   5.545
 6009TIP3   OH217990   1.075   2.955   3.320
 6009TIP3    H117991   1.083   3.034   3.267
 6009TIP3    H217992   1.000   2.972   3.377
 6010TIP3   OH217993   5.012   5.925   1.649
 6010TIP3    H117994   5.054   5.973   1.720
 6010TIP3    H217995   4.918   5.939   1.661
 6011TIP3   OH217996   2.458   3.984   3.655
 6011TIP3    H117997   2.434   3.900   3.615
 6011TIP3    H217998   2.374   4.026   3.673
 6012TIP3   OH217999   4.578   2.529   0.331
 6012TIP3    H118000   4.641   2.461   0.305
 6012TIP3    H218001   4.630   2.609   0.338
 6013TIP3   OH218002   0.197   5.293   1.620
 6013TIP3    H118003   0.228   5.382   1.600
 6013TIP3    H218004   0.245   5.238   1.558
 6014TIP3   OH218005   7.109   0.627   4.250
 6014TIP3    H118006   7.130   0.624   4.344
 6014TIP3    H218007   7.040   0.562   4.239
 6015TIP3   OH218008   6.633   4.546   3.221
 6015TIP3    H118009   6.583   4.494   3.158
 6015TIP3    H218010   6.693   4.598   3.168
 6016TIP3   OH218011   2.996   0.468   1.587
 6016TIP3    H118012   3.058   0.411   1.632
 6016TIP3    H218013   3.013   0.555   1.624
 6017TIP3   OH218014   5.722   3.609   2.571
 6017TIP3    H118015   5.713   3.705   2.567
 6017TIP3    H218016   5.764   3.586   2.488
 6018TIP3   OH218017   2.507   6.700   5.503
 6018TIP3    H118018   2.462   6.765   5.449
 6018TIP3    H218019   2.469   6.617   5.477
 6019TIP3   OH218020   4.093   2.942   3.045
 6019TIP3    H118021   4.113   2.956   2.953
 6019TIP3    H218022   4.024   3.004   3.065
 6020TIP3   OH218023   5.029   4.975   1.730
 6020TIP3    H118024   5.077   4.922   1.794
 6020TIP3    H218025   4.965   4.916   1.693
 6021TIP3   OH218026   3.873   3.432   0.898
 6021TIP3    H118027   3.934   3.483   0.846
 6021TIP3    H218028   3.912   3.429   0.985
 6022TIP3   OH218029   3.852   5.758   5.005
 6022TIP3    H118030   3.941   5.760   4.971
 6022TIP3    H218031   3.852   5.822   5.076
 6023TIP3   OH218032   4.303   1.712   3.398
 6023TIP3    H118033   4.208   1.724   3.402
 6023TIP3    H218034   4.316   1.625   3.361
 6024TIP3   OH218035   1.584   1.833   4.022
 6024TIP3    H118036   1.656   1.771   4.009
 6024TIP3    H218037   1.617   1.915   3.986
 6025TIP3   OH218038   2.935   1.277   5.388
 6025TIP3    H118039   2.954   1.191   5.428
 6025TIP3    H218040   2.844   1.294   5.412
 6026TIP3   OH218041   0.670   3.968   0.937
 6026TIP3    H118042   0.747   3.953   0.992
 6026TIP3    H218043   0.704   4.015   0.861
 6027TIP3   OH218044   3.417   5.574   2.339
 6027TIP3    H118045   3.477   5.647   2.350
 6027TIP3    H218046   3.354   5.604   2.274
 6028TIP3   OH218047   4.939   2.200   0.229
 6028TIP3    H118048   4.989   2.132   0.184
 6028TIP3    H218049   5.001   2.273   0.239
 6029TIP3   OH218050   5.177   5.148   1.940
 6029TIP3    H118051   5.187   5.116   1.850
 6029TIP3    H218052   5.139   5.074   1.988
 6030TIP3   OH218053   6.808   2.213   3.992
 6030TIP3    H118054   6.898   2.216   3.961
 6030TIP3    H218055   6.815   2.199   4.087
 6031TIP3   OH218056   5.098   3.180   3.059
 6031TIP3    H118057   5.030   3.115   3.077
 6031TIP3    H218058   5.175   3.147   3.105
 6032TIP3   OH218059   5.415   5.180   1.309
 6032TIP3    H118060   5.400   5.138   1.394
 6032TIP3    H218061   5.328   5.195   1.274
 6033TIP3   OH218062   5.245   1.845   5.461
 6033TIP3    H118063   5.254   1.864   5.555
 6033TIP3    H218064   5.263   1.928   5.418
 6034TIP3   OH218065   1.240   1.742   3.552
 6034TIP3    H118066   1.321   1.780   3.516
 6034TIP3    H218067   1.170   1.781   3.500
 6035TIP3   OH218068   4.575   6.731   3.551
 6035TIP3    H118069   4.512   6.675   3.506
 6035TIP3    H218070   4.539   6.742   3.639
 6036TIP3   OH218071   0.422   3.001   0.838
 6036TIP3    H118072   0.497   3.038   0.791
 6036TIP3    H218073   0.444   3.013   0.931
 6037TIP3   OH218074   6.509   2.814   1.858
 6037TIP3    H118075   6.530   2.741   1.800
 6037TIP3    H218076   6.521   2.892   1.804
 6038TIP3   OH218077   4.067   2.005   3.579
 6038TIP3    H118078   4.140   2.022   3.639
 6038TIP3    H218079   3.990   2.000   3.635
 6039TIP3   OH218080   2.204   3.403   3.796
 6039TIP3    H118081   2.160   3.463   3.857
 6039TIP3    H218082   2.208   3.320   3.843
 6040TIP3   OH218083   5.631   6.054   0.691
 6040TIP3    H118084   5.653   6.106   0.614
 6040TIP3    H218085   5.592   6.117   0.752
 6041TIP3   OH218086   4.584   6.499   1.673
 6041TIP3    H118087   4.505   6.503   1.727
 6041TIP3    H218088   4.655   6.516   1.735
 6042TIP3   OH218089   0.491   5.194   4.364
 6042TIP3    H118090   0.565   5.173   4.420
 6042TIP3    H218091   0.432   5.119   4.372
 6043TIP3   OH218092   2.933   1.239   3.702
 6043TIP3    H118093   3.025   1.210   3.705
 6043TIP3    H218094   2.892   1.194   3.775
 6044TIP3   OH218095   0.048   4.529   0.844
 6044TIP3    H118096   0.036   4.492   0.931
 6044TIP3    H218097   0.019   4.620   0.852
 6045TIP3   OH218098   4.318   0.038   4.124
 6045TIP3    H118099   4.384  -0.031   4.126
 6045TIP3    H218100   4.369   0.119   4.113
 6046TIP3   OH218101   3.496   1.481   0.859
 6046TIP3    H118102   3.558   1.550   0.881
 6046TIP3    H218103   3.538   1.400   0.890
 6047TIP3   OH218104   6.480   5.201   2.356
 6047TIP3    H118105   6.568   5.230   2.331
 6047TIP3    H218106   6.484   5.193   2.451
 6048TIP3   OH218107   5.236   3.301   4.016
 6048TIP3    H118108   5.184   3.223   4.001
 6048TIP3    H218109   5.225   3.353   3.936
 6049TIP3   OH218110   3.756   3.857   4.137
 6049TIP3    H118111   3.716   3.815   4.061
 6049TIP3    H218112   3.690   3.919   4.168
 6050TIP3   OH218113   1.435   6.452   0.101
 6050TIP3    H118114   1.484   6.530   0.076
 6050TIP3    H218115   1.463   6.433   0.190
 6051TIP3   OH218116   3.069   1.921   3.657
 6051TIP3    H118117   3.095   1.942   3.746
 6051TIP3    H218118   2.988   1.871   3.667
 6052TIP3   OH218119   2.133   1.359   4.524
 6052TIP3    H118120   2.138   1.423   4.595
 6052TIP3    H218121   2.143   1.274   4.567
 6053TIP3   OH218122   4.367   4.381   2.912
 6053TIP3    H118123   4.341   4.304   2.963
 6053TIP3    H218124   4.419   4.434   2.973
 6054TIP3   OH218125   5.117   1.362   1.138
 6054TIP3    H118126   5.032   1.358   1.096
 6054TIP3    H218127   5.126   1.278   1.183
 6055TIP3   OH218128   0.559   0.207   0.172
 6055TIP3    H118129   0.524   0.237   0.088
 6055TIP3    H218130   0.615   0.132   0.149
 6056TIP3   OH218131   2.793   3.739   5.431
 6056TIP3    H118132   2.709   3.761   5.471
 6056TIP3    H218133   2.833   3.677   5.493
 6057TIP3   OH218134   5.370   6.363   1.842
 6057TIP3    H118135   5.385   6.270   1.857
 6057TIP3    H218136   5.418   6.407   1.912
 6058TIP3   OH218137   5.538   3.740   1.622
 6058TIP3    H118138   5.467   3.773   1.678
 6058TIP3    H218139   5.588   3.682   1.679
 6059TIP3   OH218140   5.572   2.897   1.554
 6059TIP3    H118141   5.549   2.952   1.629
 6059TIP3    H218142   5.632   2.950   1.502
 6060TIP3   OH218143   2.907   0.167   5.867
 6060TIP3    H118144   2.972   0.203   5.807
 6060TIP3    H218145   2.923   0.213   5.950
 6061TIP3   OH218146   5.756   4.350   1.445
 6061TIP3    H118147   5.692   4.319   1.381
 6061TIP3    H218148   5.739   4.444   1.452
 6062TIP3   OH218149   2.670   2.780   5.271
 6062TIP3    H118150   2.615   2.839   5.323
 6062TIP3    H218151   2.610   2.742   5.207
 6063TIP3   OH218152   2.217   3.677   1.151
 6063TIP3    H118153   2.183   3.589   1.134
 6063TIP3    H218154   2.206   3.724   1.069
 6064TIP3   OH218155   4.343   5.233   1.780
 6064TIP3    H118156   4.280   5.165   1.762
 6064TIP3    H218157   4.330   5.298   1.711
 6065TIP3   OH218158   5.706   4.712   4.577
 6065TIP3    H118159   5.654   4.792   4.569
 6065TIP3    H218160   5.711   4.696   4.671
 6066TIP3   OH218161   5.634   4.815   5.169
 6066TIP3    H118162   5.679   4.777   5.093
 6066TIP3    H218163   5.548   4.839   5.137
 6067TIP3   OH218164   0.210   0.076   4.887
 6067TIP3    H118165   0.260   0.002   4.851
 6067TIP3    H218166   0.217   0.066   4.982
 6068TIP3   OH218167   2.258   2.374   3.985
 6068TIP3    H118168   2.349   2.394   3.962
 6068TIP3    H218169   2.207   2.441   3.939
 6069TIP3   OH218170   3.005   0.206   3.998
 6069TIP3    H118171   2.997   0.187   3.905
 6069TIP3    H218172   2.927   0.168   4.038
 6070TIP3   OH218173   6.412   2.452   1.718
 6070TIP3    H118174   6.487   2.399   1.693
 6070TIP3    H218175   6.340   2.391   1.724
 6071TIP3   OH218176   5.514   5.952   4.661
 6071TIP3    H118177   5.536   6.006   4.738
 6071TIP3    H218178   5.422   5.928   4.675
 6072TIP3   OH218179   0.554   2.701   4.105
 6072TIP3    H118180   0.579   2.698   4.198
 6072TIP3    H218181   0.511   2.786   4.095
 6073TIP3   OH218182   4.838   6.055   3.095
 6073TIP3    H118183   4.857   6.144   3.067
 6073TIP3    H218184   4.894   5.999   3.041
 6074TIP3   OH218185   0.543   4.970   1.890
 6074TIP3    H118186   0.450   4.953   1.877
 6074TIP3    H218187   0.578   4.887   1.922
 6075TIP3   OH218188   3.953   2.199   3.335
 6075TIP3    H118189   4.030   2.182   3.389
 6075TIP3    H218190   3.883   2.216   3.397
 6076TIP3   OH218191   5.546   6.348   2.334
 6076TIP3    H118192   5.506   6.422   2.380
 6076TIP3    H218193   5.629   6.333   2.381
 6077TIP3   OH218194   5.744   2.811   4.025
 6077TIP3    H118195   5.828   2.781   4.061
 6077TIP3    H218196   5.678   2.764   4.077
 6078TIP3   OH218197   4.212   3.096   1.836
 6078TIP3    H118198   4.133   3.136   1.800
 6078TIP3    H218199   4.252   3.051   1.761
 6079TIP3   OH218200   2.302   2.091   3.415
 6079TIP3    H118201   2.299   1.996   3.430
 6079TIP3    H218202   2.217   2.122   3.444
 6080TIP3   OH218203   6.844   4.529   3.413
 6080TIP3    H118204   6.779   4.511   3.344
 6080TIP3    H218205   6.928   4.511   3.372
 6081TIP3   OH218206   5.319   2.261   4.555
 6081TIP3    H118207   5.326   2.174   4.596
 6081TIP3    H218208   5.251   2.305   4.605
 6082TIP3   OH218209   6.576   0.542   0.693
 6082TIP3    H118210   6.510   0.520   0.758
 6082TIP3    H218211   6.588   0.463   0.641
 6083TIP3   OH218212   0.326   6.482   0.601
 6083TIP3    H118213   0.281   6.474   0.517
 6083TIP3    H218214   0.308   6.399   0.646
 6084TIP3   OH218215   5.840   0.096   4.611
 6084TIP3    H118216   5.789   0.019   4.637
 6084TIP3    H218217   5.896   0.115   4.686
 6085TIP3   OH218218   1.301   0.502   0.952
 6085TIP3    H118219   1.242   0.565   0.994
 6085TIP3    H218220   1.357   0.556   0.895
 6086TIP3   OH218221   3.961   0.445   4.944
 6086TIP3    H118222   3.892   0.465   5.007
 6086TIP3    H218223   3.999   0.529   4.921
 6087TIP3   OH218224   4.388   5.157   1.116
 6087TIP3    H118225   4.389   5.233   1.057
 6087TIP3    H218226   4.466   5.168   1.170
 6088TIP3   OH218227   4.557   1.438   1.242
 6088TIP3    H118228   4.613   1.454   1.318
 6088TIP3    H218229   4.589   1.498   1.175
 6089TIP3   OH218230   5.802   5.065   1.785
 6089TIP3    H118231   5.897   5.064   1.771
 6089TIP3    H218232   5.780   5.157   1.795
 6090TIP3   OH218233   3.592   6.718   3.123
 6090TIP3    H118234   3.638   6.772   3.059
 6090TIP3    H218235   3.583   6.774   3.200
 6091TIP3   OH218236   3.750   0.173   5.708
 6091TIP3    H118237   3.771   0.266   5.712
 6091TIP3    H218238   3.766   0.148   5.618
 6092TIP3   OH218239   0.731   2.260   5.299
 6092TIP3    H118240   0.669   2.235   5.231
 6092TIP3    H218241   0.752   2.352   5.280
 6093TIP3   OH218242   5.830   5.022   0.277
 6093TIP3    H118243   5.830   5.103   0.329
 6093TIP3    H218244   5.921   4.994   0.277
 6094TIP3   OH218245   2.029   4.525   3.241
 6094TIP3    H118246   2.118   4.541   3.272
 6094TIP3    H218247   1.992   4.613   3.228
 6095TIP3   OH218248   6.867   0.520   1.178
 6095TIP3    H118249   6.831   0.450   1.125
 6095TIP3    H218250   6.795   0.548   1.234
 6096TIP3   OH218251   1.565   0.995   1.722
 6096TIP3    H118252   1.535   0.944   1.797
 6096TIP3    H218253   1.660   0.981   1.719
 6097TIP3   OH218254   0.518   6.109   3.716
 6097TIP3    H118255   0.540   6.016   3.714
 6097TIP3    H218256   0.485   6.128   3.627
 6098TIP3   OH218257   3.578   1.701   2.971
 6098TIP3    H118258   3.490   1.734   2.953
 6098TIP3    H218259   3.570   1.606   2.962
 6099TIP3   OH218260   0.998   5.374   0.244
 6099TIP3    H118261   1.086   5.381   0.282
 6099TIP3    H218262   0.967   5.464   0.241
 6100TIP3   OH218263   1.757   6.649   2.125
 6100TIP3    H118264   1.846   6.662   2.093
 6100TIP3    H218265   1.717   6.589   2.061
 6101TIP3   OH218266   3.434   2.327   1.567
 6101TIP3    H118267   3.526   2.354   1.573
 6101TIP3    H218268   3.387   2.407   1.544
 6102TIP3   OH218269   3.860   4.581   3.869
 6102TIP3    H118270   3.779   4.529   3.867
 6102TIP3    H218271   3.831   4.671   3.854
 6103TIP3   OH218272   0.896   3.552   2.442
 6103TIP3    H118273   0.945   3.628   2.473
 6103TIP3    H218274   0.809   3.586   2.420
 6104TIP3   OH218275   5.300   0.322   3.345
 6104TIP3    H118276   5.253   0.367   3.275
 6104TIP3    H218277   5.392   0.337   3.326
 6105TIP3   OH218278   4.530   0.287   4.103
 6105TIP3    H118279   4.585   0.365   4.107
 6105TIP3    H218280   4.477   0.289   4.182
 6106TIP3   OH218281   1.317   3.255   3.007
 6106TIP3    H118282   1.341   3.163   3.018
 6106TIP3    H218283   1.373   3.286   2.935
 6107TIP3   OH218284   6.191   4.436   3.916
 6107TIP3    H118285   6.132   4.399   3.981
 6107TIP3    H218286   6.278   4.411   3.946
 6108TIP3   OH218287   3.537   5.755   4.981
 6108TIP3    H118288   3.574   5.761   5.069
 6108TIP3    H218289   3.589   5.687   4.938
 6109TIP3   OH218290   1.528   4.628   1.922
 6109TIP3    H118291   1.532   4.669   2.008
 6109TIP3    H218292   1.611   4.651   1.880
 6110TIP3   OH218293   2.604   4.639   3.965
 6110TIP3    H118294   2.596   4.677   3.877
 6110TIP3    H218295   2.597   4.545   3.952
 6111TIP3   OH218296   1.606   6.773   1.214
 6111TIP3    H118297   1.642   6.794   1.128
 6111TIP3    H218298   1.604   6.677   1.217
 6112TIP3   OH218299   2.584   0.972   4.980
 6112TIP3    H118300   2.634   0.982   4.898
 6112TIP3    H218301   2.517   1.040   4.975
 6113TIP3   OH218302   0.413   5.024   0.361
 6113TIP3    H118303   0.386   5.008   0.271
 6113TIP3    H218304   0.347   5.083   0.397
 6114TIP3   OH218305   1.237   4.727   0.717
 6114TIP3    H118306   1.156   4.675   0.717
 6114TIP3    H218307   1.214   4.807   0.765
 6115TIP3   OH218308   2.127   1.789   0.079
 6115TIP3    H118309   2.132   1.880   0.108
 6115TIP3    H218310   2.184   1.742   0.140
 6116TIP3   OH218311   6.736   3.819   4.759
 6116TIP3    H118312   6.806   3.884   4.751
 6116TIP3    H218313   6.779   3.742   4.796
 6117TIP3   OH218314   2.241   1.301   0.099
 6117TIP3    H118315   2.190   1.221   0.112
 6117TIP3    H218316   2.266   1.299   0.006
 6118TIP3   OH218317   1.780   2.443   3.475
 6118TIP3    H118318   1.737   2.377   3.529
 6118TIP3    H218319   1.785   2.403   3.388
 6119TIP3   OH218320   1.597   3.723   2.370
 6119TIP3    H118321   1.589   3.667   2.447
 6119TIP3    H218322   1.506   3.745   2.348
 6120TIP3   OH218323   6.005   4.607   3.656
 6120TIP3    H118324   6.006   4.622   3.751
 6120TIP3    H218325   6.098   4.597   3.633
 6121TIP3   OH218326   6.303   2.185   4.021
 6121TIP3    H118327   6.337   2.110   4.071
 6121TIP3    H218328   6.212   2.193   4.049
 6122TIP3   OH218329   4.601   2.545   4.850
 6122TIP3    H118330   4.523   2.490   4.854
 6122TIP3    H218331   4.644   2.531   4.934
 6123TIP3   OH218332   2.857   0.393   1.339
 6123TIP3    H118333   2.897   0.406   1.253
 6123TIP3    H218334   2.921   0.429   1.400
 6124TIP3   OH218335   2.399   3.868   2.052
 6124TIP3    H118336   2.433   3.821   2.128
 6124TIP3    H218337   2.403   3.804   1.981
 6125TIP3   OH218338   1.382   0.546   2.666
 6125TIP3    H118339   1.378   0.605   2.590
 6125TIP3    H218340   1.472   0.555   2.698
 6126TIP3   OH218341   2.802   0.018   5.572
 6126TIP3    H118342   2.828   0.110   5.572
 6126TIP3    H218343   2.724   0.015   5.628
 6127TIP3   OH218344   3.186   0.733   2.500
 6127TIP3    H118345   3.134   0.800   2.545
 6127TIP3    H218346   3.270   0.776   2.481
 6128TIP3   OH218347   5.644   1.459   4.767
 6128TIP3    H118348   5.586   1.408   4.824
 6128TIP3    H218349   5.693   1.393   4.718
 6129TIP3   OH218350   4.940   5.750   3.595
 6129TIP3    H118351   5.013   5.746   3.656
 6129TIP3    H218352   4.980   5.738   3.509
 6130TIP3   OH218353   6.422   1.678   4.085
 6130TIP3    H118354   6.370   1.704   4.161
 6130TIP3    H218355   6.493   1.625   4.122
 6131TIP3   OH218356   6.991   1.672   5.132
 6131TIP3    H118357   7.038   1.589   5.125
 6131TIP3    H218358   6.990   1.692   5.226
 6132TIP3   OH218359   3.932   5.079   4.230
 6132TIP3    H118360   3.976   5.007   4.185
 6132TIP3    H218361   4.003   5.137   4.259
 6133TIP3   OH218362   6.000   2.230   4.767
 6133TIP3    H118363   6.024   2.301   4.826
 6133TIP3    H218364   5.928   2.265   4.714
 6134TIP3   OH218365   1.814   0.950   3.001
 6134TIP3    H118366   1.859   0.876   2.961
 6134TIP3    H218367   1.758   0.911   3.068
 6135TIP3   OH218368   6.884   1.604   1.752
 6135TIP3    H118369   6.909   1.689   1.715
 6135TIP3    H218370   6.896   1.615   1.846
 6136TIP3   OH218371   6.474   4.732   3.377
 6136TIP3    H118372   6.487   4.790   3.451
 6136TIP3    H218373   6.545   4.753   3.316
 6137TIP3   OH218374   5.899   1.792   1.037
 6137TIP3    H118375   5.949   1.850   0.979
 6137TIP3    H218376   5.960   1.770   1.107
 6138TIP3   OH218377   1.190   2.341   2.653
 6138TIP3    H118378   1.227   2.270   2.705
 6138TIP3    H218379   1.217   2.322   2.563
 6139TIP3   OH218380   3.422   6.266   5.036
 6139TIP3    H118381   3.483   6.279   4.963
 6139TIP3    H218382   3.459   6.194   5.086
 6140TIP3   OH218383   4.543   3.527   1.279
 6140TIP3    H118384   4.479   3.582   1.325
 6140TIP3    H218385   4.551   3.449   1.334
 6141TIP3   OH218386   2.573   5.685   0.586
 6141TIP3    H118387   2.499   5.743   0.572
 6141TIP3    H218388   2.568   5.661   0.679
 6142TIP3   OH218389   4.165   6.015   5.661
 6142TIP3    H118390   4.180   5.987   5.752
 6142TIP3    H218391   4.070   6.007   5.649
 6143TIP3   OH218392   4.482   2.357   2.335
 6143TIP3    H118393   4.457   2.349   2.427
 6143TIP3    H218394   4.413   2.313   2.286
 6144TIP3   OH218395   6.910   0.910   5.206
 6144TIP3    H118396   6.946   0.965   5.136
 6144TIP3    H218397   6.933   0.821   5.179
 6145TIP3   OH218398   2.448   0.106   3.633
 6145TIP3    H118399   2.423   0.125   3.543
 6145TIP3    H218400   2.418   0.183   3.683
 6146TIP3   OH218401   6.623   6.435   5.573
 6146TIP3    H118402   6.626   6.508   5.511
 6146TIP3    H218403   6.603   6.359   5.520
 6147TIP3   OH218404   4.281   0.529   4.062
 6147TIP3    H118405   4.293   0.488   4.148
 6147TIP3    H218406   4.247   0.459   4.007
 6148TIP3   OH218407   1.426   4.237   0.893
 6148TIP3    H118408   1.351   4.291   0.868
 6148TIP3    H218409   1.502   4.292   0.873
 6149TIP3   OH218410   3.454   5.075   1.764
 6149TIP3    H118411   3.495   5.096   1.848
 6149TIP3    H218412   3.387   5.010   1.786
 6150TIP3   OH218413   5.308   3.712   4.267
 6150TIP3    H118414   5.339   3.720   4.358
 6150TIP3    H218415   5.213   3.706   4.275
 6151TIP3   OH218416   6.547   4.053   5.320
 6151TIP3    H118417   6.624   4.065   5.265
 6151TIP3    H218418   6.477   4.099   5.275
 6152TIP3   OH218419   1.667   1.366   1.069
 6152TIP3    H118420   1.654   1.359   1.163
 6152TIP3    H218421   1.689   1.458   1.054
 6153TIP3   OH218422   3.702   0.696   3.328
 6153TIP3    H118423   3.708   0.616   3.381
 6153TIP3    H218424   3.612   0.726   3.340
 6154TIP3   OH218425   0.818   0.899   2.735
 6154TIP3    H118426   0.750   0.942   2.684
 6154TIP3    H218427   0.772   0.863   2.811
 6155TIP3   OH218428   5.900   0.659   5.534
 6155TIP3    H118429   5.994   0.638   5.540
 6155TIP3    H218430   5.884   0.669   5.441
 6156TIP3   OH218431   3.667   3.088   5.267
 6156TIP3    H118432   3.730   3.050   5.206
 6156TIP3    H218433   3.603   3.019   5.282
 6157TIP3   OH218434   6.650   5.901   3.958
 6157TIP3    H118435   6.603   5.827   3.996
 6157TIP3    H218436   6.653   5.882   3.864
 6158TIP3   OH218437   3.035   5.653   1.626
 6158TIP3    H118438   2.959   5.614   1.584
 6158TIP3    H218439   3.110   5.612   1.582
 6159TIP3   OH218440   3.206   3.981   3.869
 6159TIP3    H118441   3.196   3.922   3.795
 6159TIP3    H218442   3.137   3.953   3.930
 6160TIP3   OH218443   5.860   5.595   4.332
 6160TIP3    H118444   5.813   5.678   4.333
 6160TIP3    H218445   5.817   5.544   4.263
 6161TIP3   OH218446   4.060   6.088   3.352
 6161TIP3    H118447   4.023   6.175   3.344
 6161TIP3    H218448   4.100   6.070   3.267
 6162TIP3   OH218449   6.977   4.298   1.760
 6162TIP3    H118450   6.952   4.214   1.723
 6162TIP3    H218451   6.913   4.315   1.829
 6163TIP3   OH218452   6.497   0.785   0.282
 6163TIP3    H118453   6.470   0.862   0.333
 6163TIP3    H218454   6.501   0.816   0.192
 6164TIP3   OH218455   6.659   1.268   5.458
 6164TIP3    H118456   6.676   1.184   5.414
 6164TIP3    H218457   6.659   1.247   5.551
 6165TIP3   OH218458   1.872   3.734   4.817
 6165TIP3    H118459   1.826   3.669   4.870
 6165TIP3    H218460   1.836   3.723   4.729
 6166TIP3   OH218461   0.045   5.176   1.157
 6166TIP3    H118462   0.138   5.197   1.162
 6166TIP3    H218463   0.002   5.246   1.206
 6167TIP3   OH218464   6.568   4.258   0.002
 6167TIP3    H118465   6.601   4.178  -0.039
 6167TIP3    H218466   6.636   4.323  -0.014
 6168TIP3   OH218467   4.381   3.362   2.550
 6168TIP3    H118468   4.387   3.416   2.629
 6168TIP3    H218469   4.382   3.424   2.478
 6169TIP3   OH218470   5.919   4.765   0.403
 6169TIP3    H118471   5.988   4.749   0.339
 6169TIP3    H218472   5.840   4.778   0.351
 6170TIP3   OH218473   6.031   3.749   5.634
 6170TIP3    H118474   6.039   3.813   5.705
 6170TIP3    H218475   6.063   3.667   5.672
 6171TIP3   OH218476   6.273   6.166   3.420
 6171TIP3    H118477   6.201   6.140   3.364
 6171TIP3    H218478   6.240   6.242   3.468
 6172TIP3   OH218479   0.878   0.980   1.713
 6172TIP3    H118480   0.786   0.955   1.702
 6172TIP3    H218481   0.876   1.053   1.775
 6173TIP3   OH218482   0.794   3.299   4.053
 6173TIP3    H118483   0.791   3.222   3.996
 6173TIP3    H218484   0.820   3.371   3.996
 6174TIP3   OH218485   3.522   6.089   2.952
 6174TIP3    H118486   3.467   6.068   3.028
 6174TIP3    H218487   3.611   6.075   2.983
 6175TIP3   OH218488   1.781   6.143   2.761
 6175TIP3    H118489   1.823   6.222   2.792
 6175TIP3    H218490   1.755   6.096   2.841
 6176TIP3   OH218491   2.964   0.779   2.901
 6176TIP3    H118492   3.054   0.767   2.871
 6176TIP3    H218493   2.968   0.769   2.996
 6177TIP3   OH218494   0.104   4.397   4.268
 6177TIP3    H118495   0.152   4.438   4.340
 6177TIP3    H218496   0.129   4.447   4.190
 6178TIP3   OH218497   4.164   3.233   5.307
 6178TIP3    H118498   4.150   3.139   5.301
 6178TIP3    H218499   4.082   3.272   5.275
 6179TIP3   OH218500   1.984   1.545   5.899
 6179TIP3    H118501   1.956   1.455   5.915
 6179TIP3    H218502   1.982   1.554   5.804
 6180TIP3   OH218503   4.596   2.025   4.978
 6180TIP3    H118504   4.557   2.001   4.895
 6180TIP3    H218505   4.605   1.943   5.026
 6181TIP3   OH218506   7.106   1.246   4.658
 6181TIP3    H118507   7.053   1.319   4.690
 6181TIP3    H218508   7.107   1.257   4.562
 6182TIP3   OH218509   6.769   4.720   0.266
 6182TIP3    H118510   6.852   4.729   0.314
 6182TIP3    H218511   6.731   4.808   0.268
 6183TIP3   OH218512   4.039   1.869   2.787
 6183TIP3    H118513   3.971   1.867   2.855
 6183TIP3    H218514   4.115   1.908   2.830
 6184TIP3   OH218515   2.869   4.761   3.836
 6184TIP3    H118516   2.783   4.743   3.875
 6184TIP3    H218517   2.895   4.846   3.872
 6185TIP3   OH218518   1.351   5.602   1.482
 6185TIP3    H118519   1.422   5.666   1.485
 6185TIP3    H218520   1.331   5.584   1.574
 6186TIP3   OH218521   7.111   3.096   4.085
 6186TIP3    H118522   7.166   3.102   4.164
 6186TIP3    H218523   7.031   3.054   4.115
 6187TIP3   OH218524   3.787   5.075   2.378
 6187TIP3    H118525   3.768   5.166   2.400
 6187TIP3    H218526   3.750   5.025   2.451
 6188TIP3   OH218527   6.827   5.727   2.521
 6188TIP3    H118528   6.812   5.822   2.520
 6188TIP3    H218529   6.843   5.706   2.613
 6189TIP3   OH218530   6.322   4.147   3.147
 6189TIP3    H118531   6.234   4.114   3.168
 6189TIP3    H218532   6.376   4.123   3.222
 6190TIP3   OH218533   5.111   3.413   1.918
 6190TIP3    H118534   5.085   3.357   1.845
 6190TIP3    H218535   5.075   3.499   1.897
 6191TIP3   OH218536   2.041   0.652   3.834
 6191TIP3    H118537   2.095   0.573   3.834
 6191TIP3    H218538   1.965   0.629   3.887
 6192TIP3   OH218539   6.058   4.913   3.435
 6192TIP3    H118540   6.003   4.859   3.379
 6192TIP3    H218541   6.063   4.997   3.390
 6193TIP3   OH218542   5.920   4.796   1.408
 6193TIP3    H118543   5.916   4.889   1.386
 6193TIP3    H218544   5.958   4.793   1.495
 6194TIP3   OH218545   5.952   6.335   0.269
 6194TIP3    H118546   5.869   6.295   0.244
 6194TIP3    H218547   5.982   6.285   0.344
 6195TIP3   OH218548   3.020   5.913   3.543
 6195TIP3    H118549   3.069   5.869   3.612
 6195TIP3    H218550   2.935   5.933   3.584
 6196TIP3   OH218551   3.505   6.290   1.791
 6196TIP3    H118552   3.455   6.213   1.819
 6196TIP3    H218553   3.446   6.337   1.732
 6197TIP3   OH218554   3.447   4.100   3.535
 6197TIP3    H118555   3.457   4.193   3.512
 6197TIP3    H218556   3.430   4.100   3.629
 6198TIP3   OH218557   4.489   2.802   1.806
 6198TIP3    H118558   4.511   2.721   1.852
 6198TIP3    H218559   4.570   2.828   1.762
 6199TIP3   OH218560   1.295   5.708   0.460
 6199TIP3    H118561   1.352   5.765   0.409
 6199TIP3    H218562   1.245   5.767   0.516
 6200TIP3   OH218563   5.191   1.500   1.768
 6200TIP3    H118564   5.103   1.522   1.737
 6200TIP3    H218565   5.194   1.405   1.767
 6201TIP3   OH218566   5.809   3.168   3.075
 6201TIP3    H118567   5.897   3.206   3.081
 6201TIP3    H218568   5.752   3.232   3.118
 6202TIP3   OH218569   1.583   5.741   1.520
 6202TIP3    H118570   1.614   5.652   1.537
 6202TIP3    H218571   1.656   5.797   1.547
 6203TIP3   OH218572   5.976   1.155   0.591
 6203TIP3    H118573   6.007   1.171   0.502
 6203TIP3    H218574   5.919   1.078   0.583
 6204TIP3   OH218575   5.038   5.892   4.036
 6204TIP3    H118576   5.074   5.851   3.958
 6204TIP3    H218577   5.112   5.940   4.074
 6205TIP3   OH218578   2.999   3.348   3.091
 6205TIP3    H118579   3.027   3.422   3.037
 6205TIP3    H218580   3.023   3.270   3.041
 6206TIP3   OH218581   7.175   5.622   0.961
 6206TIP3    H118582   7.256   5.573   0.970
 6206TIP3    H218583   7.107   5.556   0.953
 6207TIP3   OH218584   2.522   3.656   4.502
 6207TIP3    H118585   2.612   3.688   4.494
 6207TIP3    H218586   2.475   3.699   4.430
 6208TIP3   OH218587   6.463   4.670   4.546
 6208TIP3    H118588   6.488   4.578   4.540
 6208TIP3    H218589   6.372   4.672   4.516
 6209TIP3   OH218590   6.668   5.247   5.159
 6209TIP3    H118591   6.650   5.339   5.175
 6209TIP3    H218592   6.644   5.203   5.240
 6210TIP3   OH218593   1.291   3.762   2.960
 6210TIP3    H118594   1.199   3.735   2.951
 6210TIP3    H218595   1.307   3.816   2.882
 6211TIP3   OH218596   6.683   1.060   5.049
 6211TIP3    H118597   6.691   1.026   5.139
 6211TIP3    H218598   6.750   1.127   5.042
 6212TIP3   OH218599   1.736   6.708   1.775
 6212TIP3    H118600   1.826   6.680   1.789
 6212TIP3    H218601   1.709   6.662   1.695
 6213TIP3   OH218602   3.675   0.517   0.752
 6213TIP3    H118603   3.691   0.558   0.667
 6213TIP3    H218604   3.756   0.528   0.801
 6214TIP3   OH218605   1.164   3.702   1.870
 6214TIP3    H118606   1.078   3.664   1.849
 6214TIP3    H218607   1.199   3.645   1.938
 6215TIP3   OH218608   1.881   2.890   3.039
 6215TIP3    H118609   1.863   2.959   3.104
 6215TIP3    H218610   1.975   2.875   3.047
 6216TIP3   OH218611   1.291   5.872   2.268
 6216TIP3    H118612   1.364   5.815   2.244
 6216TIP3    H218613   1.213   5.822   2.246
 6217TIP3   OH218614   2.418   1.991   0.368
 6217TIP3    H118615   2.348   1.984   0.432
 6217TIP3    H218616   2.428   2.085   0.353
 6218TIP3   OH218617   5.616   3.077   5.732
 6218TIP3    H118618   5.563   3.015   5.682
 6218TIP3    H218619   5.635   3.031   5.814
 6219TIP3   OH218620   6.912   6.541   5.428
 6219TIP3    H118621   6.948   6.576   5.510
 6219TIP3    H218622   6.900   6.448   5.445
 6220TIP3   OH218623   4.465   6.666   3.148
 6220TIP3    H118624   4.379   6.636   3.119
 6220TIP3    H218625   4.453   6.690   3.239
 6221TIP3   OH218626   6.432   6.209   2.766
 6221TIP3    H118627   6.366   6.277   2.783
 6221TIP3    H218628   6.389   6.148   2.706
 6222TIP3   OH218629   3.121   1.226   2.975
 6222TIP3    H118630   3.054   1.193   3.036
 6222TIP3    H218631   3.071   1.252   2.898
 6223TIP3   OH218632   1.596   2.690   0.056
 6223TIP3    H118633   1.594   2.704   0.151
 6223TIP3    H218634   1.653   2.614   0.044
 6224TIP3   OH218635   0.383   1.685   2.774
 6224TIP3    H118636   0.393   1.754   2.708
 6224TIP3    H218637   0.461   1.630   2.764
 6225TIP3   OH218638   6.186   5.703   1.998
 6225TIP3    H118639   6.272   5.678   2.032
 6225TIP3    H218640   6.135   5.723   2.076
 6226TIP3   OH218641   2.782   0.528   0.474
 6226TIP3    H118642   2.869   0.563   0.456
 6226TIP3    H218643   2.792   0.484   0.558
 6227TIP3   OH218644   3.426   0.650   3.420
 6227TIP3    H118645   3.465   0.638   3.507
 6227TIP3    H218646   3.374   0.730   3.428
 6228TIP3   OH218647   3.558   1.541   2.665
 6228TIP3    H118648   3.573   1.506   2.753
 6228TIP3    H218649   3.470   1.511   2.642
 6229TIP3   OH218650   6.079   1.126   2.082
 6229TIP3    H118651   6.007   1.156   2.137
 6229TIP3    H218652   6.065   1.031   2.075
 6230TIP3   OH218653   1.882   6.149   0.581
 6230TIP3    H118654   1.929   6.164   0.663
 6230TIP3    H218655   1.823   6.076   0.599
 6231TIP3   OH218656   1.944   4.586   3.612
 6231TIP3    H118657   1.977   4.632   3.536
 6231TIP3    H218658   2.021   4.545   3.651
 6232TIP3   OH218659   5.407   4.066   1.609
 6232TIP3    H118660   5.369   4.036   1.526
 6232TIP3    H218661   5.387   3.997   1.671
 6233TIP3   OH218662   0.695   2.826   4.817
 6233TIP3    H118663   0.753   2.884   4.769
 6233TIP3    H218664   0.642   2.784   4.749
 6234TIP3   OH218665   7.224   5.256   0.362
 6234TIP3    H118666   7.197   5.169   0.334
 6234TIP3    H218667   7.193   5.264   0.452
 6235TIP3   OH218668   1.063   1.551   5.137
 6235TIP3    H118669   1.089   1.636   5.174
 6235TIP3    H218670   1.093   1.487   5.201
 6236TIP3   OH218671   3.193   1.945   2.357
 6236TIP3    H118672   3.159   1.871   2.409
 6236TIP3    H218673   3.116   2.000   2.340
 6237TIP3   OH218674   5.725   1.553   5.439
 6237TIP3    H118675   5.738   1.549   5.345
 6237TIP3    H218676   5.758   1.470   5.472
 6238TIP3   OH218677   3.699   1.099   5.111
 6238TIP3    H118678   3.697   1.154   5.189
 6238TIP3    H218679   3.607   1.091   5.085
 6239TIP3   OH218680   1.138   4.762   3.469
 6239TIP3    H118681   1.230   4.744   3.487
 6239TIP3    H218682   1.108   4.686   3.419
 6240TIP3   OH218683   0.576   6.756   1.355
 6240TIP3    H118684   0.605   6.843   1.382
 6240TIP3    H218685   0.504   6.735   1.415
 6241TIP3   OH218686   1.801   6.667   0.263
 6241TIP3    H118687   1.856   6.589   0.259
 6241TIP3    H218688   1.856   6.734   0.301
 6242TIP3   OH218689   5.250   5.016   5.206
 6242TIP3    H118690   5.326   4.983   5.159
 6242TIP3    H218691   5.288   5.063   5.281
 6243TIP3   OH218692   5.011   4.119   1.464
 6243TIP3    H118693   4.981   4.149   1.378
 6243TIP3    H218694   5.034   4.027   1.450
 6244TIP3   OH218695   3.959   1.980   4.303
 6244TIP3    H118696   3.908   1.958   4.381
 6244TIP3    H218697   3.928   2.067   4.278
 6245TIP3   OH218698   3.238   5.664   4.367
 6245TIP3    H118699   3.146   5.689   4.380
 6245TIP3    H218700   3.285   5.747   4.360
 6246TIP3   OH218701   2.410   3.801   2.910
 6246TIP3    H118702   2.327   3.782   2.867
 6246TIP3    H218703   2.386   3.824   3.000
 6247TIP3   OH218704   2.116   3.689   0.664
 6247TIP3    H118705   2.113   3.599   0.631
 6247TIP3    H218706   2.186   3.731   0.613
 6248TIP3   OH218707   3.482   0.924   5.664
 6248TIP3    H118708   3.490   0.913   5.759
 6248TIP3    H218709   3.425   1.000   5.653
 6249TIP3   OH218710   5.326   4.111   5.578
 6249TIP3    H118711   5.269   4.184   5.555
 6249TIP3    H218712   5.278   4.033   5.549
 6250TIP3   OH218713   0.610   4.043   4.904
 6250TIP3    H118714   0.705   4.041   4.889
 6250TIP3    H218715   0.600   4.087   4.988
 6251TIP3   OH218716   0.299   3.795   0.989
 6251TIP3    H118717   0.318   3.876   1.037
 6251TIP3    H218718   0.320   3.815   0.898
 6252TIP3   OH218719   1.235   0.116   3.639
 6252TIP3    H118720   1.263   0.116   3.548
 6252TIP3    H218721   1.142   0.137   3.636
 6253TIP3   OH218722   1.491   5.478   2.398
 6253TIP3    H118723   1.453   5.489   2.310
 6253TIP3    H218724   1.469   5.558   2.444
 6254TIP3   OH218725   4.369   3.327   5.067
 6254TIP3    H118726   4.325   3.298   5.147
 6254TIP3    H218727   4.341   3.418   5.056
 6255TIP3   OH218728   6.188   5.252   0.576
 6255TIP3    H118729   6.140   5.170   0.572
 6255TIP3    H218730   6.132   5.315   0.531
 6256TIP3   OH218731   3.414   4.368   3.419
 6256TIP3    H118732   3.393   4.461   3.406
 6256TIP3    H218733   3.436   4.336   3.331
 6257TIP3   OH218734   6.224   0.731   0.177
 6257TIP3    H118735   6.293   0.730   0.111
 6257TIP3    H218736   6.261   0.686   0.252
 6258TIP3   OH218737   4.712   6.572   0.865
 6258TIP3    H118738   4.639   6.540   0.813
 6258TIP3    H218739   4.754   6.493   0.900
 6259TIP3   OH218740   5.165   0.524   4.878
 6259TIP3    H118741   5.110   0.472   4.819
 6259TIP3    H218742   5.150   0.486   4.965
 6260TIP3   OH218743   1.421   2.730   4.748
 6260TIP3    H118744   1.368   2.707   4.824
 6260TIP3    H218745   1.359   2.728   4.675
 6261TIP3   OH218746   3.079   0.970   1.043
 6261TIP3    H118747   3.046   0.905   0.981
 6261TIP3    H218748   3.096   1.047   0.989
 6262TIP3   OH218749   5.386   5.140   5.423
 6262TIP3    H118750   5.426   5.056   5.446
 6262TIP3    H218751   5.416   5.199   5.493
 6263TIP3   OH218752   5.193   1.087   1.657
 6263TIP3    H118753   5.286   1.089   1.631
 6263TIP3    H218754   5.151   1.034   1.590
 6264TIP3   OH218755   1.041   1.544   3.646
 6264TIP3    H118756   1.010   1.588   3.725
 6264TIP3    H218757   1.106   1.604   3.609
 6265TIP3   OH218758   1.055   6.654   0.784
 6265TIP3    H118759   1.012   6.650   0.699
 6265TIP3    H218760   1.057   6.564   0.815
 6266TIP3   OH218761   0.321   4.479   0.036
 6266TIP3    H118762   0.327   4.496   0.130
 6266TIP3    H218763   0.408   4.497   0.002
 6267TIP3   OH218764   3.972   5.529   4.532
 6267TIP3    H118765   4.017   5.451   4.565
 6267TIP3    H218766   3.900   5.543   4.594
 6268TIP3   OH218767   1.419   5.469   1.252
 6268TIP3    H118768   1.379   5.504   1.173
 6268TIP3    H218769   1.386   5.525   1.322
 6269TIP3   OH218770   0.729   0.117   2.322
 6269TIP3    H118771   0.741   0.152   2.234
 6269TIP3    H218772   0.791   0.045   2.329
 6270TIP3   OH218773   4.117   1.151   5.235
 6270TIP3    H118774   4.051   1.205   5.192
 6270TIP3    H218775   4.199   1.198   5.221
 6271TIP3   OH218776   3.079   1.442   0.931
 6271TIP3    H118777   3.145   1.477   0.871
 6271TIP3    H218778   3.104   1.478   1.017
 6272TIP3   OH218779   3.256   0.430   4.711
 6272TIP3    H118780   3.168   0.392   4.713
 6272TIP3    H218781   3.306   0.370   4.655
 6273TIP3   OH218782   0.760   0.875   4.044
 6273TIP3    H118783   0.768   0.815   4.118
 6273TIP3    H218784   0.776   0.962   4.081
 6274TIP3   OH218785   1.654   3.275   1.624
 6274TIP3    H118786   1.601   3.213   1.575
 6274TIP3    H218787   1.744   3.258   1.594
 6275TIP3   OH218788   6.354   2.601   3.543
 6275TIP3    H118789   6.307   2.618   3.461
 6275TIP3    H218790   6.384   2.510   3.535
 6276TIP3   OH218791   6.606   1.045   0.154
 6276TIP3    H118792   6.693   1.020   0.186
 6276TIP3    H218793   6.570   1.102   0.222
 6277TIP3   OH218794   4.068   4.390   0.111
 6277TIP3    H118795   4.058   4.353   0.198
 6277TIP3    H218796   4.125   4.329   0.065
 6278TIP3   OH218797   4.301   2.368   3.241
 6278TIP3    H118798   4.349   2.303   3.292
 6278TIP3    H218799   4.216   2.327   3.223
 6279TIP3   OH218800   2.340   6.128   4.102
 6279TIP3    H118801   2.272   6.060   4.094
 6279TIP3    H218802   2.379   6.112   4.188
 6280TIP3   OH218803   4.143   4.578   3.905
 6280TIP3    H118804   4.172   4.599   3.994
 6280TIP3    H218805   4.052   4.609   3.901
 6281TIP3   OH218806   4.185   6.406   3.452
 6281TIP3    H118807   4.098   6.403   3.412
 6281TIP3    H218808   4.197   6.319   3.489
 6282TIP3   OH218809   6.658   5.819   1.875
 6282TIP3    H118810   6.632   5.847   1.963
 6282TIP3    H218811   6.671   5.724   1.883
 6283TIP3   OH218812   4.868   6.315   5.661
 6283TIP3    H118813   4.947   6.280   5.703
 6283TIP3    H218814   4.885   6.307   5.567
 6284TIP3   OH218815   1.418   5.170   0.669
 6284TIP3    H118816   1.457   5.189   0.754
 6284TIP3    H218817   1.375   5.252   0.643
 6285TIP3   OH218818   4.528   0.312   4.880
 6285TIP3    H118819   4.436   0.297   4.862
 6285TIP3    H218820   4.540   0.287   4.972
 6286TIP3   OH218821   4.849   4.337   1.318
 6286TIP3    H118822   4.900   4.292   1.251
 6286TIP3    H218823   4.817   4.416   1.275
 6287TIP3   OH218824   6.746   1.072   0.613
 6287TIP3    H118825   6.656   1.049   0.589
 6287TIP3    H218826   6.801   1.009   0.568
 6288TIP3   OH218827   7.208   6.729   4.172
 6288TIP3    H118828   7.183   6.691   4.256
 6288TIP3    H218829   7.133   6.783   4.147
 6289TIP3   OH218830   0.592   6.388   5.312
 6289TIP3    H118831   0.583   6.470   5.361
 6289TIP3    H218832   0.503   6.365   5.288
 6290TIP3   OH218833   3.183   3.142   5.772
 6290TIP3    H118834   3.197   3.047   5.781
 6290TIP3    H218835   3.156   3.153   5.681
 6291TIP3   OH218836   5.278   4.766   5.481
 6291TIP3    H118837   5.278   4.794   5.390
 6291TIP3    H218838   5.355   4.808   5.520
 6292TIP3   OH218839   6.661   5.402   2.618
 6292TIP3    H118840   6.678   5.336   2.550
 6292TIP3    H218841   6.713   5.478   2.592
 6293TIP3   OH218842   1.877   0.187   0.786
 6293TIP3    H118843   1.786   0.207   0.764
 6293TIP3    H218844   1.873   0.102   0.829
 6294TIP3   OH218845   2.870   3.805   3.022
 6294TIP3    H118846   2.785   3.772   2.990
 6294TIP3    H218847   2.929   3.795   2.947
 6295TIP3   OH218848   6.333   1.326   4.886
 6295TIP3    H118849   6.364   1.341   4.976
 6295TIP3    H218850   6.248   1.283   4.898
 6296TIP3   OH218851   0.158   6.341   3.017
 6296TIP3    H118852   0.193   6.265   3.062
 6296TIP3    H218853   0.192   6.334   2.928
 6297TIP3   OH218854   4.639   3.720   2.896
 6297TIP3    H118855   4.696   3.644   2.884
 6297TIP3    H218856   4.583   3.720   2.819
 6298TIP3   OH218857   5.175   2.764   2.801
 6298TIP3    H118858   5.229   2.840   2.823
 6298TIP3    H218859   5.111   2.797   2.738
 6299TIP3   OH218860   1.033   1.047   1.207
 6299TIP3    H118861   0.987   1.013   1.131
 6299TIP3    H218862   0.983   1.015   1.282
 6300TIP3   OH218863   3.916   1.429   2.435
 6300TIP3    H118864   3.850   1.362   2.454
 6300TIP3    H218865   3.888   1.505   2.486
 6301TIP3   OH218866   5.754   5.783   3.050
 6301TIP3    H118867   5.709   5.764   3.133
 6301TIP3    H218868   5.708   5.729   2.985
 6302TIP3   OH218869   4.738   5.550   5.090
 6302TIP3    H118870   4.663   5.608   5.104
 6302TIP3    H218871   4.797   5.569   5.162
 6303TIP3   OH218872   2.403   0.742   1.218
 6303TIP3    H118873   2.474   0.799   1.189
 6303TIP3    H218874   2.360   0.712   1.138
 6304TIP3   OH218875   2.637   1.032   5.253
 6304TIP3    H118876   2.652   1.126   5.249
 6304TIP3    H218877   2.615   1.007   5.164
 6305TIP3   OH218878   1.913   0.083   5.806
 6305TIP3    H118879   1.902   0.130   5.724
 6305TIP3    H218880   1.915   0.152   5.873
 6306TIP3   OH218881   3.254   4.763   0.454
 6306TIP3    H118882   3.326   4.706   0.481
 6306TIP3    H218883   3.191   4.705   0.413
 6307TIP3   OH218884   0.850   5.095   3.588
 6307TIP3    H118885   0.764   5.101   3.546
 6307TIP3    H218886   0.913   5.107   3.517
 6308TIP3   OH218887   2.493   0.799   2.318
 6308TIP3    H118888   2.432   0.842   2.378
 6308TIP3    H218889   2.580   0.827   2.348
 6309TIP3   OH218890   3.837   1.638   5.060
 6309TIP3    H118891   3.821   1.593   4.978
 6309TIP3    H218892   3.775   1.598   5.122
 6310TIP3   OH218893   5.858   5.283   4.666
 6310TIP3    H118894   5.941   5.329   4.650
 6310TIP3    H218895   5.879   5.216   4.731
 6311TIP3   OH218896   4.914   5.472   4.786
 6311TIP3    H118897   4.935   5.379   4.782
 6311TIP3    H218898   4.909   5.491   4.880
 6312TIP3   OH218899   6.813   6.098   2.803
 6312TIP3    H118900   6.903   6.109   2.833
 6312TIP3    H218901   6.759   6.109   2.881
 6313TIP3   OH218902   3.196   1.714   3.529
 6313TIP3    H118903   3.208   1.662   3.608
 6313TIP3    H218904   3.149   1.792   3.560
 6314TIP3   OH218905   0.574   0.331   3.074
 6314TIP3    H118906   0.489   0.290   3.057
 6314TIP3    H218907   0.627   0.262   3.113
 6315TIP3   OH218908   5.356   0.911   3.740
 6315TIP3    H118909   5.261   0.908   3.748
 6315TIP3    H218910   5.387   0.913   3.831
 6316TIP3   OH218911   4.501   4.639   2.540
 6316TIP3    H118912   4.438   4.621   2.471
 6316TIP3    H218913   4.459   4.705   2.595
 6317TIP3   OH218914   0.570   1.173   1.258
 6317TIP3    H118915   0.648   1.199   1.208
 6317TIP3    H218916   0.565   1.236   1.330
 6318TIP3   OH218917   2.062   3.232   2.651
 6318TIP3    H118918   2.145   3.267   2.619
 6318TIP3    H218919   2.035   3.169   2.584
 6319TIP3   OH218920   6.568   4.775   3.648
 6319TIP3    H118921   6.603   4.688   3.668
 6319TIP3    H218922   6.475   4.769   3.669
 6320TIP3   OH218923   5.141   6.363   3.136
 6320TIP3    H118924   5.056   6.408   3.142
 6320TIP3    H218925   5.164   6.369   3.043
 6321TIP3   OH218926   4.783   3.656   3.537
 6321TIP3    H118927   4.749   3.603   3.609
 6321TIP3    H218928   4.786   3.745   3.573
 6322TIP3   OH218929   2.555   1.136   4.729
 6322TIP3    H118930   2.605   1.126   4.648
 6322TIP3    H218931   2.479   1.079   4.718
 6323TIP3   OH218932   1.608   3.394   1.143
 6323TIP3    H118933   1.573   3.431   1.224
 6323TIP3    H218934   1.536   3.404   1.080
 6324TIP3   OH218935   6.274   3.760   0.445
 6324TIP3    H118936   6.236   3.681   0.407
 6324TIP3    H218937   6.267   3.747   0.539
 6325TIP3   OH218938   5.756   1.364   1.998
 6325TIP3    H118939   5.806   1.322   2.067
 6325TIP3    H218940   5.668   1.374   2.035
 6326TIP3   OH218941   2.638   2.457   1.946
 6326TIP3    H118942   2.704   2.418   1.889
 6326TIP3    H218943   2.577   2.500   1.886
 6327TIP3   OH218944   6.453   5.422   4.978
 6327TIP3    H118945   6.363   5.423   5.010
 6327TIP3    H218946   6.506   5.441   5.056
 6328TIP3   OH218947   6.246   2.860   0.412
 6328TIP3    H118948   6.323   2.805   0.401
 6328TIP3    H218949   6.281   2.946   0.434
 6329TIP3   OH218950   7.157   4.592   3.443
 6329TIP3    H118951   7.136   4.524   3.378
 6329TIP3    H218952   7.253   4.596   3.443
 6330TIP3   OH218953   5.420   5.706   3.605
 6330TIP3    H118954   5.385   5.619   3.584
 6330TIP3    H218955   5.378   5.765   3.543
 6331TIP3   OH218956   4.467   4.969   2.905
 6331TIP3    H118957   4.553   4.938   2.878
 6331TIP3    H218958   4.485   5.044   2.962
 6332TIP3   OH218959   4.096   4.448   2.566
 6332TIP3    H118960   4.099   4.524   2.625
 6332TIP3    H218961   4.004   4.439   2.543
 6333TIP3   OH218962   1.678   0.191   4.107
 6333TIP3    H118963   1.598   0.242   4.099
 6333TIP3    H218964   1.737   0.228   4.042
 6334TIP3   OH218965   5.551   2.385   3.006
 6334TIP3    H118966   5.571   2.291   3.000
 6334TIP3    H218967   5.616   2.419   3.068
 6335TIP3   OH218968   3.881   3.915   5.461
 6335TIP3    H118969   3.905   3.973   5.389
 6335TIP3    H218970   3.939   3.840   5.451
 6336TIP3   OH218971   6.951   0.829   1.394
 6336TIP3    H118972   6.862   0.848   1.366
 6336TIP3    H218973   6.941   0.757   1.456
 6337TIP3   OH218974   2.780   3.451   0.849
 6337TIP3    H118975   2.799   3.379   0.909
 6337TIP3    H218976   2.863   3.470   0.807
 6338TIP3   OH218977   5.487   1.057   2.978
 6338TIP3    H118978   5.463   1.149   2.970
 6338TIP3    H218979   5.571   1.050   2.932
 6339TIP3   OH218980   2.692   4.785   5.582
 6339TIP3    H118981   2.745   4.705   5.574
 6339TIP3    H218982   2.709   4.834   5.502
 6340TIP3   OH218983   4.055   3.117   1.103
 6340TIP3    H118984   3.982   3.083   1.051
 6340TIP3    H218985   4.089   3.041   1.149
 6341TIP3   OH218986   3.527   0.059   1.229
 6341TIP3    H118987   3.440   0.048   1.267
 6341TIP3    H218988   3.529   0.148   1.196
 6342TIP3   OH218989   4.661   3.893   5.239
 6342TIP3    H118990   4.633   3.962   5.180
 6342TIP3    H218991   4.580   3.858   5.275
 6343TIP3   OH218992   6.718   3.882   4.445
 6343TIP3    H118993   6.790   3.882   4.508
 6343TIP3    H218994   6.677   3.797   4.455
 6344TIP3   OH218995   6.258   4.322   3.692
 6344TIP3    H118996   6.233   4.344   3.781
 6344TIP3    H218997   6.283   4.406   3.652
 6345TIP3   OH218998   5.247   2.321   3.457
 6345TIP3    H118999   5.193   2.261   3.404
 6345TIP3    H219000   5.186   2.386   3.491
 6346TIP3   OH219001   2.276   3.120   2.173
 6346TIP3    H119002   2.201   3.069   2.140
 6346TIP3    H219003   2.342   3.113   2.103
 6347TIP3   OH219004   6.726   1.653   2.171
 6347TIP3    H119005   6.772   1.576   2.139
 6347TIP3    H219006   6.762   1.726   2.120
 6348TIP3   OH219007   0.669   6.682   1.680
 6348TIP3    H119008   0.689   6.591   1.660
 6348TIP3    H219009   0.574   6.684   1.690
 6349TIP3   OH219010   2.764   5.884   3.604
 6349TIP3    H119011   2.699   5.921   3.543
 6349TIP3    H219012   2.789   5.801   3.564
 6350TIP3   OH219013   5.404   1.759   2.223
 6350TIP3    H119014   5.498   1.772   2.211
 6350TIP3    H219015   5.379   1.699   2.154
 6351TIP3   OH219016   3.223   0.165   1.949
 6351TIP3    H119017   3.242   0.071   1.942
 6351TIP3    H219018   3.306   0.208   1.931
 6352TIP3   OH219019   4.769   0.854   0.271
 6352TIP3    H119020   4.723   0.880   0.351
 6352TIP3    H219021   4.748   0.924   0.208
 6353TIP3   OH219022   1.795   3.748   1.609
 6353TIP3    H119023   1.865   3.717   1.552
 6353TIP3    H219024   1.765   3.829   1.569
 6354TIP3   OH219025   4.602   1.126   0.790
 6354TIP3    H119026   4.599   1.089   0.702
 6354TIP3    H219027   4.633   1.216   0.777
 6355TIP3   OH219028   4.973   0.715   5.628
 6355TIP3    H119029   5.040   0.693   5.693
 6355TIP3    H219030   5.023   0.754   5.555
 6356TIP3   OH219031   6.139   1.182   4.973
 6356TIP3    H119032   6.138   1.091   4.941
 6356TIP3    H219033   6.048   1.211   4.966
 6357TIP3   OH219034   5.283   1.931   5.734
 6357TIP3    H119035   5.224   1.965   5.802
 6357TIP3    H219036   5.287   2.001   5.668
 6358TIP3   OH219037   3.813   5.910   3.098
 6358TIP3    H119038   3.731   5.860   3.095
 6358TIP3    H219039   3.788   5.993   3.139
 6359TIP3   OH219040   5.108   1.471   2.238
 6359TIP3    H119041   5.102   1.532   2.312
 6359TIP3    H219042   5.138   1.525   2.165
 6360TIP3   OH219043   5.151   0.583   2.377
 6360TIP3    H119044   5.131   0.672   2.406
 6360TIP3    H219045   5.067   0.537   2.382
 6361TIP3   OH219046   3.177   3.914   3.433
 6361TIP3    H119047   3.166   4.005   3.459
 6361TIP3    H219048   3.102   3.895   3.377
 6362TIP3   OH219049   5.013   6.739   5.738
 6362TIP3    H119050   5.064   6.793   5.797
 6362TIP3    H219051   4.934   6.790   5.720
 6363TIP3   OH219052   3.596   0.941   4.787
 6363TIP3    H119053   3.548   0.987   4.719
 6363TIP3    H219054   3.687   0.971   4.776
 6364TIP3   OH219055   2.175   3.913   4.121
 6364TIP3    H119056   2.099   3.924   4.064
 6364TIP3    H219057   2.138   3.896   4.208
 6365TIP3   OH219058   7.180   2.311   4.074
 6365TIP3    H119059   7.107   2.368   4.099
 6365TIP3    H219060   7.144   2.253   4.007
 6366TIP3   OH219061   1.192   4.583   4.769
 6366TIP3    H119062   1.260   4.535   4.816
 6366TIP3    H219063   1.238   4.654   4.725
 6367TIP3   OH219064   6.448   0.742   4.848
 6367TIP3    H119065   6.393   0.692   4.787
 6367TIP3    H219066   6.393   0.755   4.925
 6368TIP3   OH219067   5.613   6.717   5.073
 6368TIP3    H119068   5.559   6.794   5.091
 6368TIP3    H219069   5.700   6.741   5.106
 6369TIP3   OH219070   0.105   2.290   3.792
 6369TIP3    H119071   0.078   2.242   3.713
 6369TIP3    H219072   0.186   2.333   3.767
 6370TIP3   OH219073   2.060   0.459   1.636
 6370TIP3    H119074   1.976   0.477   1.677
 6370TIP3    H219075   2.090   0.544   1.603
 6371TIP3   OH219076   0.310   2.878   5.538
 6371TIP3    H119077   0.225   2.911   5.566
 6371TIP3    H219078   0.369   2.953   5.545
 6372TIP3   OH219079   5.629   2.853   4.328
 6372TIP3    H119080   5.582   2.928   4.292
 6372TIP3    H219081   5.561   2.789   4.349
 6373TIP3   OH219082   3.542   5.568   0.718
 6373TIP3    H119083   3.518   5.610   0.801
 6373TIP3    H219084   3.501   5.623   0.651
 6374TIP3   OH219085   3.050   0.728   1.675
 6374TIP3    H119086   2.962   0.765   1.672
 6374TIP3    H219087   3.099   0.787   1.732
 6375TIP3   OH219088   2.247   5.452   0.285
 6375TIP3    H119089   2.249   5.541   0.320
 6375TIP3    H219090   2.299   5.401   0.347
 6376TIP3   OH219091   2.402   5.718   3.194
 6376TIP3    H119092   2.390   5.643   3.136
 6376TIP3    H219093   2.375   5.793   3.142
 6377TIP3   OH219094   3.436   0.802   3.896
 6377TIP3    H119095   3.486   0.751   3.960
 6377TIP3    H219096   3.498   0.867   3.863
 6378TIP3   OH219097   5.310   1.003   4.372
 6378TIP3    H119098   5.292   1.003   4.278
 6378TIP3    H219099   5.226   0.978   4.413
 6379TIP3   OH219100   2.139   6.059   2.986
 6379TIP3    H119101   2.084   6.129   3.022
 6379TIP3    H219102   2.094   6.031   2.907
 6380TIP3   OH219103   4.235   1.130   5.664
 6380TIP3    H119104   4.273   1.089   5.742
 6380TIP3    H219105   4.294   1.106   5.593
 6381TIP3   OH219106   4.277   5.422   3.209
 6381TIP3    H119107   4.272   5.517   3.220
 6381TIP3    H219108   4.247   5.408   3.119
 6382TIP3   OH219109   6.802   5.143   4.449
 6382TIP3    H119110   6.721   5.099   4.476
 6382TIP3    H219111   6.805   5.223   4.502
 6383TIP3   OH219112   5.074   3.711   1.988
 6383TIP3    H119113   5.025   3.723   2.069
 6383TIP3    H219114   5.008   3.724   1.919
 6384TIP3   OH219115   0.896   0.797   0.459
 6384TIP3    H119116   0.816   0.821   0.411
 6384TIP3    H219117   0.909   0.870   0.520
 6385TIP3   OH219118   3.571   6.498   5.446
 6385TIP3    H119119   3.618   6.558   5.387
 6385TIP3    H219120   3.587   6.533   5.534
 6386TIP3   OH219121   1.199   1.652   3.101
 6386TIP3    H119122   1.151   1.686   3.025
 6386TIP3    H219123   1.285   1.693   3.095
 6387TIP3   OH219124   5.272   0.546   0.644
 6387TIP3    H119125   5.189   0.593   0.630
 6387TIP3    H219126   5.248   0.454   0.635
 6388TIP3   OH219127   6.733   1.010   5.396
 6388TIP3    H119128   6.806   0.992   5.337
 6388TIP3    H219129   6.741   0.945   5.465
 6389TIP3   OH219130   4.194   4.448   3.534
 6389TIP3    H119131   4.116   4.481   3.579
 6389TIP3    H219132   4.242   4.400   3.602
 6390TIP3   OH219133   6.663   3.659   3.672
 6390TIP3    H119134   6.637   3.578   3.630
 6390TIP3    H219135   6.650   3.643   3.765
 6391TIP3   OH219136   0.332   1.757   4.618
 6391TIP3    H119137   0.360   1.673   4.655
 6391TIP3    H219138   0.385   1.768   4.539
 6392TIP3   OH219139   1.292   4.524   1.814
 6392TIP3    H119140   1.363   4.583   1.840
 6392TIP3    H219141   1.229   4.530   1.885
 6393TIP3   OH219142   5.326   4.630   1.492
 6393TIP3    H119143   5.335   4.569   1.566
 6393TIP3    H219144   5.342   4.716   1.530
 6394TIP3   OH219145   3.865   4.596   4.199
 6394TIP3    H119146   3.831   4.665   4.141
 6394TIP3    H219147   3.896   4.528   4.139
 6395TIP3   OH219148   0.428   5.654   3.762
 6395TIP3    H119149   0.408   5.742   3.728
 6395TIP3    H219150   0.392   5.655   3.850
 6396TIP3   OH219151   3.197   1.626   3.279
 6396TIP3    H119152   3.180   1.683   3.354
 6396TIP3    H219153   3.162   1.541   3.306
 6397TIP3   OH219154   6.146   6.768   0.200
 6397TIP3    H119155   6.120   6.696   0.258
 6397TIP3    H219156   6.076   6.832   0.209
 6398TIP3   OH219157   0.450   0.637   1.619
 6398TIP3    H119158   0.482   0.579   1.689
 6398TIP3    H219159   0.520   0.638   1.555
 6399TIP3   OH219160   4.056   6.689   0.060
 6399TIP3    H119161   4.086   6.694  -0.031
 6399TIP3    H219162   4.023   6.599   0.069
 6400TIP3   OH219163   3.455   2.632   0.663
 6400TIP3    H119164   3.512   2.572   0.712
 6400TIP3    H219165   3.470   2.717   0.703
 6401TIP3   OH219166   5.857   4.101   2.382
 6401TIP3    H119167   5.776   4.114   2.431
 6401TIP3    H219168   5.916   4.058   2.445
 6402TIP3   OH219169   6.052   4.549   2.822
 6402TIP3    H119170   6.082   4.458   2.821
 6402TIP3    H219171   5.958   4.543   2.841
 6403TIP3   OH219172   1.236   4.911   4.956
 6403TIP3    H119173   1.184   4.847   5.003
 6403TIP3    H219174   1.176   4.947   4.890
 6404TIP3   OH219175   0.780   1.637   0.160
 6404TIP3    H119176   0.748   1.702   0.098
 6404TIP3    H219177   0.840   1.686   0.217
 6405TIP3   OH219178   6.374   4.749   4.836
 6405TIP3    H119179   6.466   4.741   4.864
 6405TIP3    H219180   6.324   4.706   4.906
 6406TIP3   OH219181   5.597   2.030   1.976
 6406TIP3    H119182   5.513   2.013   1.932
 6406TIP3    H219183   5.643   2.091   1.917
 6407TIP3   OH219184   3.223   5.839   1.929
 6407TIP3    H119185   3.138   5.796   1.931
 6407TIP3    H219186   3.241   5.863   2.020
 6408TIP3   OH219187   2.536   0.585   3.572
 6408TIP3    H119188   2.508   0.667   3.613
 6408TIP3    H219189   2.457   0.549   3.533
 6409TIP3   OH219190   2.716   1.298   0.002
 6409TIP3    H119191   2.657   1.322   0.073
 6409TIP3    H219192   2.726   1.379  -0.049
 6410TIP3   OH219193   3.672   0.179   3.461
 6410TIP3    H119194   3.647   0.152   3.373
 6410TIP3    H219195   3.606   0.138   3.518
 6411TIP3   OH219196   6.539   4.882   1.308
 6411TIP3    H119197   6.621   4.908   1.349
 6411TIP3    H219198   6.493   4.964   1.292
 6412TIP3   OH219199   4.227   2.968   1.591
 6412TIP3    H119200   4.241   2.913   1.514
 6412TIP3    H219201   4.162   3.032   1.563
 6413TIP3   OH219202   6.705   6.667   2.675
 6413TIP3    H119203   6.671   6.595   2.729
 6413TIP3    H219204   6.799   6.663   2.686
 6414TIP3   OH219205   3.902   2.633   1.843
 6414TIP3    H119206   3.933   2.583   1.919
 6414TIP3    H219207   3.977   2.632   1.782
 6415TIP3   OH219208   0.067   5.990   2.896
 6415TIP3    H119209   0.129   5.923   2.868
 6415TIP3    H219210   0.074   5.992   2.991
 6416TIP3   OH219211   4.872   4.762   1.938
 6416TIP3    H119212   4.796   4.806   1.900
 6416TIP3    H219213   4.888   4.687   1.881
 6417TIP3   OH219214   4.964   0.522   4.487
 6417TIP3    H119215   4.990   0.455   4.551
 6417TIP3    H219216   5.046   0.561   4.457
 6418TIP3   OH219217   2.890   2.651   3.131
 6418TIP3    H119218   2.978   2.688   3.131
 6418TIP3    H219219   2.887   2.595   3.053
 6419TIP3   OH219220   4.359   6.779   1.583
 6419TIP3    H119221   4.450   6.802   1.564
 6419TIP3    H219222   4.334   6.839   1.654
 6420TIP3   OH219223   4.629   2.260   5.347
 6420TIP3    H119224   4.704   2.283   5.401
 6420TIP3    H219225   4.642   2.168   5.325
 6421TIP3   OH219226   4.616   3.375   1.889
 6421TIP3    H119227   4.692   3.410   1.936
 6421TIP3    H219228   4.588   3.447   1.833
 6422TIP3   OH219229   0.737   2.205   0.137
 6422TIP3    H119230   0.715   2.295   0.162
 6422TIP3    H219231   0.677   2.151   0.188
 6423TIP3   OH219232   2.995   1.037   5.607
 6423TIP3    H119233   2.934   0.965   5.595
 6423TIP3    H219234   2.971   1.074   5.692
 6424TIP3   OH219235   1.499   1.075   2.167
 6424TIP3    H119236   1.591   1.101   2.176
 6424TIP3    H219237   1.463   1.135   2.102
 6425TIP3   OH219238   6.304   3.485   1.386
 6425TIP3    H119239   6.345   3.498   1.300
 6425TIP3    H219240   6.231   3.426   1.368
 6426TIP3   OH219241   3.360   0.736   2.751
 6426TIP3    H119242   3.386   0.787   2.674
 6426TIP3    H219243   3.286   0.683   2.720
 6427TIP3   OH219244   3.187   1.120   0.023
 6427TIP3    H119245   3.157   1.109   0.113
 6427TIP3    H219246   3.116   1.168  -0.020
 6428TIP3   OH219247   0.629   5.794   4.962
 6428TIP3    H119248   0.691   5.784   5.034
 6428TIP3    H219249   0.542   5.789   5.004
 6429TIP3   OH219250   5.691   5.639   2.220
 6429TIP3    H119251   5.741   5.558   2.227
 6429TIP3    H219252   5.682   5.654   2.126
 6430TIP3   OH219253   5.821   1.779   0.627
 6430TIP3    H119254   5.915   1.764   0.615
 6430TIP3    H219255   5.801   1.854   0.571
 6431TIP3   OH219256   4.481   5.564   4.899
 6431TIP3    H119257   4.503   5.477   4.932
 6431TIP3    H219258   4.469   5.552   4.805
 6432TIP3   OH219259   4.225   1.759   0.180
 6432TIP3    H119260   4.255   1.681   0.226
 6432TIP3    H219261   4.131   1.761   0.195
 6433TIP3   OH219262   0.599   1.560   5.792
 6433TIP3    H119263   0.548   1.593   5.866
 6433TIP3    H219264   0.540   1.567   5.717
 6434TIP3   OH219265   0.797   3.367   0.719
 6434TIP3    H119266   0.743   3.443   0.696
 6434TIP3    H219267   0.753   3.329   0.795
 6435TIP3   OH219268   4.414   4.330   0.094
 6435TIP3    H119269   4.448   4.343   0.183
 6435TIP3    H219270   4.428   4.414   0.051
 6436TIP3   OH219271   3.234   4.726   2.108
 6436TIP3    H119272   3.328   4.706   2.111
 6436TIP3    H219273   3.197   4.657   2.053
 6437TIP3   OH219274   3.659   2.507   3.715
 6437TIP3    H119275   3.569   2.540   3.713
 6437TIP3    H219276   3.678   2.484   3.625
 6438TIP3   OH219277   1.826   6.540   5.000
 6438TIP3    H119278   1.883   6.497   4.936
 6438TIP3    H219279   1.857   6.508   5.085
 6439TIP3   OH219280   4.236   0.867   3.398
 6439TIP3    H119281   4.146   0.895   3.378
 6439TIP3    H219282   4.252   0.793   3.339
 6440TIP3   OH219283   0.201   0.445   2.339
 6440TIP3    H119284   0.241   0.506   2.401
 6440TIP3    H219285   0.272   0.387   2.313
 6441TIP3   OH219286   1.837   1.813   3.716
 6441TIP3    H119287   1.926   1.845   3.734
 6441TIP3    H219288   1.805   1.869   3.645
 6442TIP3   OH219289   4.107   5.331   2.042
 6442TIP3    H119290   4.114   5.407   1.985
 6442TIP3    H219291   4.100   5.367   2.130
 6443TIP3   OH219292   2.810   0.640   2.611
 6443TIP3    H119293   2.892   0.687   2.598
 6443TIP3    H219294   2.832   0.569   2.671
 6444TIP3   OH219295   2.620   0.211   1.022
 6444TIP3    H119296   2.704   0.224   1.067
 6444TIP3    H219297   2.594   0.300   0.996
 6445TIP3   OH219298   1.811   5.492   3.783
 6445TIP3    H119299   1.806   5.534   3.868
 6445TIP3    H219300   1.776   5.557   3.721
 6446TIP3   OH219301   5.943   6.530   0.964
 6446TIP3    H119302   6.038   6.539   0.974
 6446TIP3    H219303   5.932   6.469   0.891
 6447TIP3   OH219304   6.004   5.457   4.015
 6447TIP3    H119305   5.976   5.411   4.094
 6447TIP3    H219306   5.991   5.549   4.035
 6448TIP3   OH219307   7.003   1.639   4.198
 6448TIP3    H119308   7.038   1.666   4.283
 6448TIP3    H219309   7.043   1.700   4.136
 6449TIP3   OH219310   2.001   6.486   0.138
 6449TIP3    H119311   2.029   6.488   0.046
 6449TIP3    H219312   2.079   6.457   0.186
 6450TIP3   OH219313   5.552   4.047   3.463
 6450TIP3    H119314   5.600   4.127   3.441
 6450TIP3    H219315   5.617   3.977   3.455
 6451TIP3   OH219316   5.840   1.906   5.494
 6451TIP3    H119317   5.922   1.895   5.445
 6451TIP3    H219318   5.837   1.999   5.514
 6452TIP3   OH219319   3.130   1.208   0.486
 6452TIP3    H119320   3.076   1.229   0.562
 6452TIP3    H219321   3.203   1.269   0.491
 6453TIP3   OH219322   6.657   6.404   0.483
 6453TIP3    H119323   6.612   6.320   0.484
 6453TIP3    H219324   6.736   6.390   0.535
 6454TIP3   OH219325   1.883   4.409   0.208
 6454TIP3    H119326   1.913   4.330   0.164
 6454TIP3    H219327   1.791   4.391   0.229
 6455TIP3   OH219328   2.367   2.836   0.643
 6455TIP3    H119329   2.290   2.893   0.637
 6455TIP3    H219330   2.428   2.872   0.579
 6456TIP3   OH219331   6.400   5.315   3.060
 6456TIP3    H119332   6.429   5.303   2.969
 6456TIP3    H219333   6.477   5.296   3.113
 6457TIP3   OH219334   2.711   3.423   0.526
 6457TIP3    H119335   2.705   3.460   0.438
 6457TIP3    H219336   2.793   3.457   0.561
 6458TIP3   OH219337   6.519   4.937   0.127
 6458TIP3    H119338   6.593   4.937   0.188
 6458TIP3    H219339   6.476   4.853   0.140
 6459TIP3   OH219340   4.733   3.147   1.794
 6459TIP3    H119341   4.685   3.222   1.830
 6459TIP3    H219342   4.805   3.132   1.855
 6460TIP3   OH219343   5.289   1.706   5.190
 6460TIP3    H119344   5.247   1.771   5.246
 6460TIP3    H219345   5.270   1.622   5.233
 6461TIP3   OH219346   6.621   0.060   2.641
 6461TIP3    H119347   6.527   0.046   2.652
 6461TIP3    H219348   6.633   0.154   2.656
 6462TIP3   OH219349   0.554   4.343   0.895
 6462TIP3    H119350   0.498   4.390   0.957
 6462TIP3    H219351   0.632   4.320   0.946
 6463TIP3   OH219352   0.483   2.350   0.977
 6463TIP3    H119353   0.488   2.254   0.976
 6463TIP3    H219354   0.530   2.376   1.056
 6464TIP3   OH219355   3.581   1.897   1.612
 6464TIP3    H119356   3.520   1.951   1.663
 6464TIP3    H219357   3.533   1.816   1.595
 6465TIP3   OH219358   0.265   6.476   3.510
 6465TIP3    H119359   0.215   6.530   3.571
 6465TIP3    H219360   0.354   6.511   3.515
 6466TIP3   OH219361   3.722   5.525   2.492
 6466TIP3    H119362   3.735   5.443   2.541
 6466TIP3    H219363   3.641   5.561   2.527
 6467TIP3   OH219364   2.444   5.126   3.532
 6467TIP3    H119365   2.379   5.130   3.461
 6467TIP3    H219366   2.404   5.174   3.604
 6468TIP3   OH219367   1.284   0.367   0.663
 6468TIP3    H119368   1.299   0.428   0.591
 6468TIP3    H219369   1.274   0.424   0.740
 6469TIP3   OH219370   2.073   5.428   1.330
 6469TIP3    H119371   2.098   5.428   1.237
 6469TIP3    H219372   2.056   5.336   1.349
 6470TIP3   OH219373   7.014   6.380   4.552
 6470TIP3    H119374   7.083   6.349   4.493
 6470TIP3    H219375   6.984   6.301   4.596
 6471TIP3   OH219376   4.494   1.588   1.606
 6471TIP3    H119377   4.467   1.497   1.623
 6471TIP3    H219378   4.428   1.621   1.544
 6472TIP3   OH219379   4.118   5.585   1.955
 6472TIP3    H119380   4.050   5.625   2.010
 6472TIP3    H219381   4.114   5.633   1.872
 6473TIP3   OH219382   6.699   4.651   2.451
 6473TIP3    H119383   6.680   4.733   2.495
 6473TIP3    H219384   6.731   4.676   2.364
 6474TIP3   OH219385   4.055   3.618   0.711
 6474TIP3    H119386   4.044   3.596   0.618
 6474TIP3    H219387   3.980   3.674   0.731
 6475TIP3   OH219388   0.688   4.806   3.957
 6475TIP3    H119389   0.779   4.824   3.934
 6475TIP3    H219390   0.657   4.885   4.001
 6476TIP3   OH219391   4.794   1.621   0.792
 6476TIP3    H119392   4.776   1.707   0.754
 6476TIP3    H219393   4.887   1.607   0.776
 6477TIP3   OH219394   0.050   4.203   2.449
 6477TIP3    H119395   0.076   4.203   2.541
 6477TIP3    H219396   0.042   4.110   2.426
 6478TIP3   OH219397   0.791   5.281   0.076
 6478TIP3    H119398   0.768   5.190   0.054
 6478TIP3    H219399   0.861   5.273   0.140
 6479TIP3   OH219400   2.136   1.806   5.559
 6479TIP3    H119401   2.050   1.767   5.572
 6479TIP3    H219402   2.118   1.896   5.531
 6480TIP3   OH219403   6.748   4.255   4.342
 6480TIP3    H119404   6.682   4.201   4.385
 6480TIP3    H219405   6.825   4.198   4.336
 6481TIP3   OH219406   2.992   0.425   2.265
 6481TIP3    H119407   2.919   0.413   2.326
 6481TIP3    H219408   3.044   0.345   2.274
 6482TIP3   OH219409   4.920   2.554   5.741
 6482TIP3    H119410   4.850   2.549   5.807
 6482TIP3    H219411   4.912   2.642   5.705
 6483TIP3   OH219412   4.795   5.423   5.354
 6483TIP3    H119413   4.776   5.350   5.413
 6483TIP3    H219414   4.713   5.472   5.349
 6484TIP3   OH219415   5.567   1.938   4.556
 6484TIP3    H119416   5.480   1.969   4.583
 6484TIP3    H219417   5.571   1.848   4.587
 6485TIP3   OH219418   2.113   5.280   1.892
 6485TIP3    H119419   2.181   5.291   1.825
 6485TIP3    H219420   2.040   5.334   1.862
 6486TIP3   OH219421   6.217   2.736   3.281
 6486TIP3    H119422   6.216   2.783   3.198
 6486TIP3    H219423   6.125   2.718   3.300
 6487TIP3   OH219424   3.408  -0.006   4.762
 6487TIP3    H119425   3.439   0.084   4.756
 6487TIP3    H219426   3.471  -0.050   4.819
 6488TIP3   OH219427   2.377   3.896   4.669
 6488TIP3    H119428   2.356   3.919   4.759
 6488TIP3    H219429   2.459   3.846   4.675
 6489TIP3   OH219430   0.922   1.051   2.097
 6489TIP3    H119431   0.994   1.038   2.036
 6489TIP3    H219432   0.852   1.089   2.044
 6490TIP3   OH219433   4.182   3.822   0.838
 6490TIP3    H119434   4.149   3.743   0.796
 6490TIP3    H219435   4.107   3.858   0.885
 6491TIP3   OH219436   3.824   4.248   0.870
 6491TIP3    H119437   3.817   4.269   0.777
 6491TIP3    H219438   3.745   4.196   0.889
 6492TIP3   OH219439   5.250   2.360   3.097
 6492TIP3    H119440   5.214   2.433   3.047
 6492TIP3    H219441   5.341   2.384   3.113
 6493TIP3   OH219442   4.102   6.707   4.373
 6493TIP3    H119443   4.079   6.799   4.386
 6493TIP3    H219444   4.118   6.699   4.279
 6494TIP3   OH219445   3.879   0.297   4.484
 6494TIP3    H119446   3.797   0.291   4.435
 6494TIP3    H219447   3.899   0.207   4.509
 6495TIP3   OH219448   0.306   0.757   5.045
 6495TIP3    H119449   0.250   0.708   5.104
 6495TIP3    H219450   0.389   0.710   5.046
 6496TIP3   OH219451   6.674   0.056   4.991
 6496TIP3    H119452   6.656   0.028   4.901
 6496TIP3    H219453   6.591   0.043   5.037
 6497TIP3   OH219454   3.291   2.735   2.844
 6497TIP3    H119455   3.208   2.754   2.887
 6497TIP3    H219456   3.350   2.803   2.876
 6498TIP3   OH219457   6.641   1.140   4.457
 6498TIP3    H119458   6.546   1.130   4.454
 6498TIP3    H219459   6.669   1.118   4.368
 6499TIP3   OH219460   3.542   3.567   0.336
 6499TIP3    H119461   3.637   3.555   0.332
 6499TIP3    H219462   3.530   3.647   0.387
 6500TIP3   OH219463   6.705   5.137   4.907
 6500TIP3    H119464   6.778   5.186   4.871
 6500TIP3    H219465   6.691   5.175   4.994
 6501TIP3   OH219466   3.264   3.780   2.386
 6501TIP3    H119467   3.183   3.791   2.335
 6501TIP3    H219468   3.281   3.686   2.385
 6502TIP3   OH219469   0.714   5.767   0.922
 6502TIP3    H119470   0.709   5.671   0.914
 6502TIP3    H219471   0.770   5.782   0.998
 6503TIP3   OH219472   4.165   2.692   4.414
 6503TIP3    H119473   4.244   2.743   4.431
 6503TIP3    H219474   4.105   2.754   4.372
 6504TIP3   OH219475   5.913   4.056   5.657
 6504TIP3    H119476   5.964   4.128   5.694
 6504TIP3    H219477   5.845   4.039   5.722
 6505TIP3   OH219478   2.699   5.320   4.254
 6505TIP3    H119479   2.660   5.309   4.340
 6505TIP3    H219480   2.669   5.243   4.204
 6506TIP3   OH219481   1.972   2.815   1.998
 6506TIP3    H119482   1.928   2.895   1.968
 6506TIP3    H219483   1.966   2.755   1.923
 6507TIP3   OH219484   5.381   1.375   1.323
 6507TIP3    H119485   5.350   1.456   1.283
 6507TIP3    H219486   5.305   1.341   1.372
 6508TIP3   OH219487   4.207   5.620   4.631
 6508TIP3    H119488   4.229   5.679   4.559
 6508TIP3    H219489   4.116   5.596   4.615
 6509TIP3   OH219490   3.316   6.607   3.190
 6509TIP3    H119491   3.275   6.573   3.111
 6509TIP3    H219492   3.398   6.647   3.160
 6510TIP3   OH219493   2.853   2.647   1.595
 6510TIP3    H119494   2.859   2.683   1.684
 6510TIP3    H219495   2.944   2.630   1.571
 6511TIP3   OH219496   5.773   4.464   3.090
 6511TIP3    H119497   5.856   4.419   3.106
 6511TIP3    H219498   5.737   4.480   3.177
 6512TIP3   OH219499   6.474   5.856   5.795
 6512TIP3    H119500   6.450   5.851   5.703
 6512TIP3    H219501   6.509   5.769   5.816
 6513TIP3   OH219502   1.404   1.621   4.403
 6513TIP3    H119503   1.492   1.649   4.428
 6513TIP3    H219504   1.380   1.677   4.330
 6514TIP3   OH219505   1.229   6.598   5.264
 6514TIP3    H119506   1.234   6.693   5.262
 6514TIP3    H219507   1.137   6.578   5.250
 6515TIP3   OH219508   1.694   6.178   4.372
 6515TIP3    H119509   1.692   6.233   4.450
 6515TIP3    H219510   1.720   6.092   4.404
 6516TIP3   OH219511   3.088   2.110   1.478
 6516TIP3    H119512   3.000   2.100   1.443
 6516TIP3    H219513   3.088   2.198   1.517
 6517TIP3   OH219514   3.939   5.774   0.926
 6517TIP3    H119515   4.035   5.771   0.921
 6517TIP3    H219516   3.915   5.701   0.982
 6518TIP3   OH219517   6.304   0.119   5.797
 6518TIP3    H119518   6.244   0.104   5.870
 6518TIP3    H219519   6.273   0.201   5.757
 6519TIP3   OH219520   2.078   6.549   2.994
 6519TIP3    H119521   2.124   6.608   2.934
 6519TIP3    H219522   2.122   6.561   3.078
 6520TIP3   OH219523   5.071   6.259   4.920
 6520TIP3    H119524   5.164   6.281   4.933
 6520TIP3    H219525   5.029   6.283   5.003
 6521TIP3   OH219526   4.307   1.521   4.597
 6521TIP3    H119527   4.291   1.591   4.660
 6521TIP3    H219528   4.373   1.466   4.638
 6522TIP3   OH219529   4.030   1.791   1.389
 6522TIP3    H119530   3.998   1.708   1.353
 6522TIP3    H219531   4.018   1.782   1.484
 6523TIP3   OH219532   6.131   2.005   4.669
 6523TIP3    H119533   6.084   2.083   4.699
 6523TIP3    H219534   6.170   1.969   4.749
 6524TIP3   OH219535   3.440   5.597   2.659
 6524TIP3    H119536   3.375   5.577   2.727
 6524TIP3    H219537   3.434   5.691   2.647
 6525TIP3   OH219538   0.031   5.076   4.795
 6525TIP3    H119539   0.123   5.097   4.810
 6525TIP3    H219540   0.031   4.987   4.759
 6526TIP3   OH219541   2.196   6.729   1.349
 6526TIP3    H119542   2.106   6.705   1.328
 6526TIP3    H219543   2.204   6.711   1.442
 6527TIP3   OH219544   3.677   5.398   5.411
 6527TIP3    H119545   3.683   5.456   5.487
 6527TIP3    H219546   3.751   5.338   5.421
 6528TIP3   OH219547   1.225   3.646   4.387
 6528TIP3    H119548   1.215   3.727   4.336
 6528TIP3    H219549   1.308   3.609   4.357
 6529TIP3   OH219550   0.339   4.534   4.135
 6529TIP3    H119551   0.384   4.493   4.061
 6529TIP3    H219552   0.334   4.627   4.112
 6530TIP3   OH219553   3.123   4.108   4.619
 6530TIP3    H119554   3.102   4.050   4.545
 6530TIP3    H219555   3.056   4.088   4.684
 6531TIP3   OH219556   6.312   0.259   1.520
 6531TIP3    H119557   6.356   0.287   1.600
 6531TIP3    H219558   6.243   0.201   1.550
 6532TIP3   OH219559   4.958   1.942   5.171
 6532TIP3    H119560   4.989   1.873   5.230
 6532TIP3    H219561   4.862   1.935   5.175
 6533TIP3   OH219562   3.293   2.250   4.321
 6533TIP3    H119563   3.382   2.246   4.355
 6533TIP3    H219564   3.299   2.311   4.247
 6534TIP3   OH219565   5.099   0.837   2.507
 6534TIP3    H119566   5.085   0.882   2.590
 6534TIP3    H219567   5.094   0.907   2.441
 6535TIP3   OH219568   0.550   5.232   2.916
 6535TIP3    H119569   0.561   5.201   2.826
 6535TIP3    H219570   0.553   5.153   2.970
 6536TIP3   OH219571   5.703   1.881   1.750
 6536TIP3    H119572   5.731   1.958   1.801
 6536TIP3    H219573   5.710   1.808   1.812
 6537TIP3   OH219574   5.554   3.757   4.181
 6537TIP3    H119575   5.480   3.708   4.216
 6537TIP3    H219576   5.530   3.849   4.195
 6538TIP3   OH219577   0.390   2.865   4.970
 6538TIP3    H119578   0.325   2.903   5.028
 6538TIP3    H219579   0.474   2.881   5.014
 6539TIP3   OH219580   0.199   6.403   1.960
 6539TIP3    H119581   0.141   6.465   2.004
 6539TIP3    H219582   0.141   6.340   1.918
 6540TIP3   OH219583   4.403   2.948   2.643
 6540TIP3    H119584   4.347   2.873   2.621
 6540TIP3    H219585   4.359   3.023   2.605
 6541TIP3   OH219586   0.383   2.329   2.990
 6541TIP3    H119587   0.424   2.416   2.982
 6541TIP3    H219588   0.289   2.346   2.983
 6542TIP3   OH219589   1.907   1.059   3.991
 6542TIP3    H119590   1.887   1.134   4.047
 6542TIP3    H219591   1.903   1.094   3.902
 6543TIP3   OH219592   6.593   5.363   1.760
 6543TIP3    H119593   6.639   5.346   1.678
 6543TIP3    H219594   6.545   5.282   1.778
 6544TIP3   OH219595   3.952   2.448   3.932
 6544TIP3    H119596   3.876   2.505   3.924
 6544TIP3    H219597   4.000   2.482   4.008
 6545TIP3   OH219598   6.731   2.176   0.775
 6545TIP3    H119599   6.715   2.090   0.737
 6545TIP3    H219600   6.814   2.204   0.738
 6546TIP3   OH219601   5.913   2.914   4.367
 6546TIP3    H119602   5.823   2.915   4.333
 6546TIP3    H219603   5.951   2.996   4.334
 6547TIP3   OH219604   0.758   5.377   4.673
 6547TIP3    H119605   0.848   5.364   4.701
 6547TIP3    H219606   0.714   5.416   4.749
 6548TIP3   OH219607   5.494   0.462   3.923
 6548TIP3    H119608   5.408   0.503   3.926
 6548TIP3    H219609   5.539   0.492   4.002
 6549TIP3   OH219610   1.557   1.865   5.680
 6549TIP3    H119611   1.462   1.854   5.673
 6549TIP3    H219612   1.576   1.854   5.773
 6550TIP3   OH219613   6.498   3.940   0.392
 6550TIP3    H119614   6.418   3.890   0.411
 6550TIP3    H219615   6.557   3.876   0.351
 6551TIP3   OH219616   6.540   1.249   2.468
 6551TIP3    H119617   6.538   1.175   2.528
 6551TIP3    H219618   6.618   1.234   2.413
 6552TIP3   OH219619   0.382   0.607   3.655
 6552TIP3    H119620   0.403   0.697   3.630
 6552TIP3    H219621   0.465   0.573   3.690
 6553TIP3   OH219622   2.127   4.613   2.670
 6553TIP3    H119623   2.119   4.707   2.653
 6553TIP3    H219624   2.038   4.586   2.694
 6554TIP3   OH219625   5.320   3.684   5.128
 6554TIP3    H119626   5.340   3.736   5.050
 6554TIP3    H219627   5.282   3.603   5.093
 6555TIP3   OH219628   0.920   5.604   2.282
 6555TIP3    H119629   0.980   5.530   2.278
 6555TIP3    H219630   0.864   5.593   2.205
 6556TIP3   OH219631   2.880   2.809   1.291
 6556TIP3    H119632   2.903   2.736   1.349
 6556TIP3    H219633   2.961   2.859   1.281
 6557TIP3   OH219634   1.338   3.532   3.380
 6557TIP3    H119635   1.250   3.536   3.418
 6557TIP3    H219636   1.355   3.622   3.352
 6558TIP3   OH219637   1.418   1.880   0.496
 6558TIP3    H119638   1.508   1.889   0.464
 6558TIP3    H219639   1.401   1.960   0.545
 6559TIP3   OH219640   6.268   4.573   3.590
 6559TIP3    H119641   6.351   4.550   3.549
 6559TIP3    H219642   6.250   4.662   3.561
 6560TIP3   OH219643   0.514   2.176   1.323
 6560TIP3    H119644   0.453   2.222   1.381
 6560TIP3    H219645   0.484   2.085   1.326
 6561TIP3   OH219646   0.696   4.216   0.101
 6561TIP3    H119647   0.657   4.138   0.141
 6561TIP3    H219648   0.780   4.226   0.145
 6562TIP3   OH219649   5.996   1.458   3.037
 6562TIP3    H119650   6.084   1.421   3.036
 6562TIP3    H219651   6.009   1.551   3.018
 6563TIP3   OH219652   0.209   2.946   3.732
 6563TIP3    H119653   0.253   2.944   3.817
 6563TIP3    H219654   0.115   2.952   3.753
 6564TIP3   OH219655   1.422   5.458   0.638
 6564TIP3    H119656   1.394   5.532   0.585
 6564TIP3    H219657   1.505   5.430   0.598
 6565TIP3   OH219658   3.434   0.895   2.967
 6565TIP3    H119659   3.515   0.946   2.964
 6565TIP3    H219660   3.436   0.842   2.887
 6566TIP3   OH219661   4.142   5.433   0.037
 6566TIP3    H119662   4.196   5.360   0.006
 6566TIP3    H219663   4.146   5.497  -0.034
 6567TIP3   OH219664   1.172   5.308   2.713
 6567TIP3    H119665   1.260   5.299   2.678
 6567TIP3    H219666   1.129   5.371   2.654
 6568TIP3   OH219667   0.276   4.586   3.380
 6568TIP3    H119668   0.285   4.670   3.335
 6568TIP3    H219669   0.366   4.564   3.406
 6569TIP3   OH219670   6.871   5.884   1.726
 6569TIP3    H119671   6.793   5.889   1.782
 6569TIP3    H219672   6.868   5.796   1.689
 6570TIP3   OH219673   3.425   3.891   5.212
 6570TIP3    H119674   3.480   3.951   5.263
 6570TIP3    H219675   3.336   3.924   5.225
 6571TIP3   OH219676   4.980   1.685   5.279
 6571TIP3    H119677   5.053   1.633   5.313
 6571TIP3    H219678   4.938   1.627   5.214
 6572TIP3   OH219679   4.453   2.425   5.220
 6572TIP3    H119680   4.493   2.358   5.276
 6572TIP3    H219681   4.520   2.445   5.155
 6573TIP3   OH219682   2.501   4.107   2.245
 6573TIP3    H119683   2.502   4.037   2.311
 6573TIP3    H219684   2.513   4.061   2.162
 6574TIP3   OH219685   3.493   5.017   5.075
 6574TIP3    H119686   3.454   5.065   5.003
 6574TIP3    H219687   3.559   4.960   5.034
 6575TIP3   OH219688   3.997   1.393   5.115
 6575TIP3    H119689   4.089   1.420   5.116
 6575TIP3    H219690   3.948   1.471   5.140
 6576TIP3   OH219691   2.459  -0.012   1.479
 6576TIP3    H119692   2.420   0.066   1.517
 6576TIP3    H219693   2.511  -0.050   1.550
 6577TIP3   OH219694   1.624   1.272   4.775
 6577TIP3    H119695   1.547   1.314   4.736
 6577TIP3    H219696   1.682   1.345   4.796
 6578TIP3   OH219697   4.195   3.785   2.138
 6578TIP3    H119698   4.153   3.871   2.139
 6578TIP3    H219699   4.230   3.774   2.226
 6579TIP3   OH219700   2.482   3.568   2.022
 6579TIP3    H119701   2.462   3.579   2.115
 6579TIP3    H219702   2.577   3.558   2.019
 6580TIP3   OH219703   7.163   5.704   0.366
 6580TIP3    H119704   7.256   5.712   0.343
 6580TIP3    H219705   7.129   5.793   0.362
 6581TIP3   OH219706   3.453   6.157   3.381
 6581TIP3    H119707   3.465   6.250   3.365
 6581TIP3    H219708   3.358   6.144   3.380
 6582TIP3   OH219709   5.649   4.111   3.111
 6582TIP3    H119710   5.671   4.205   3.112
 6582TIP3    H219711   5.734   4.067   3.114
 6583TIP3   OH219712   2.910   2.543   5.616
 6583TIP3    H119713   2.890   2.527   5.524
 6583TIP3    H219714   2.976   2.612   5.615
 6584TIP3   OH219715   4.054   2.623   2.492
 6584TIP3    H119716   4.020   2.575   2.568
 6584TIP3    H219717   4.057   2.557   2.422
 6585TIP3   OH219718   3.145   4.863   3.840
 6585TIP3    H119719   3.089   4.785   3.839
 6585TIP3    H219720   3.136   4.898   3.928
 6586TIP3   OH219721   0.042   2.473   2.148
 6586TIP3    H119722   0.023   2.386   2.182
 6586TIP3    H219723   0.122   2.462   2.097
 6587TIP3   OH219724   0.923   4.032   4.566
 6587TIP3    H119725   0.858   4.091   4.528
 6587TIP3    H219726   0.977   4.004   4.492
 6588TIP3   OH219727   0.999   2.394   3.835
 6588TIP3    H119728   1.025   2.306   3.806
 6588TIP3    H219729   0.981   2.384   3.929
 6589TIP3   OH219730   1.335   4.945   1.338
 6589TIP3    H119731   1.376   4.927   1.253
 6589TIP3    H219732   1.289   5.028   1.325
 6590TIP3   OH219733   0.948   6.709   1.990
 6590TIP3    H119734   0.982   6.738   2.075
 6590TIP3    H219735   1.023   6.666   1.947
 6591TIP3   OH219736   2.060   3.818   3.242
 6591TIP3    H119737   2.055   3.756   3.169
 6591TIP3    H219738   1.988   3.879   3.226
 6592TIP3   OH219739   1.200   5.210   4.948
 6592TIP3    H119740   1.263   5.184   4.881
 6592TIP3    H219741   1.214   5.304   4.960
 6593TIP3   OH219742   0.592   3.673   0.930
 6593TIP3    H119743   0.580   3.759   0.889
 6593TIP3    H219744   0.654   3.689   1.001
 6594TIP3   OH219745   0.731   1.793   2.918
 6594TIP3    H119746   0.744   1.846   2.839
 6594TIP3    H219747   0.788   1.834   2.983
 6595TIP3   OH219748   6.025   1.541   4.170
 6595TIP3    H119749   6.032   1.604   4.098
 6595TIP3    H219750   5.933   1.516   4.171
 6596TIP3   OH219751   6.361   5.631   0.721
 6596TIP3    H119752   6.443   5.586   0.696
 6596TIP3    H219753   6.326   5.578   0.792
 6597TIP3   OH219754   5.694   3.681   0.058
 6597TIP3    H119755   5.665   3.695  -0.032
 6597TIP3    H219756   5.789   3.670   0.051
 6598TIP3   OH219757   1.181   0.392   0.368
 6598TIP3    H119758   1.136   0.475   0.385
 6598TIP3    H219759   1.273   0.412   0.380
 6599TIP3   OH219760   2.314   2.311   1.104
 6599TIP3    H119761   2.372   2.376   1.143
 6599TIP3    H219762   2.342   2.305   1.013
 6600TIP3   OH219763   5.615   5.002   2.318
 6600TIP3    H119764   5.652   5.015   2.405
 6600TIP3    H219765   5.522   4.987   2.334
 6601TIP3   OH219766   3.509   5.461   1.769
 6601TIP3    H119767   3.453   5.503   1.834
 6601TIP3    H219768   3.463   5.474   1.686
 6602TIP3   OH219769   4.011   5.351   1.760
 6602TIP3    H119770   4.101   5.333   1.788
 6602TIP3    H219771   3.957   5.313   1.829
 6603TIP3   OH219772   5.482   6.458   2.055
 6603TIP3    H119773   5.443   6.534   2.098
 6603TIP3    H219774   5.540   6.420   2.122
 6604TIP3   OH219775   7.020   4.391   3.272
 6604TIP3    H119776   7.087   4.325   3.290
 6604TIP3    H219777   6.978   4.362   3.191
 6605TIP3   OH219778   1.261   4.491   0.240
 6605TIP3    H119779   1.221   4.512   0.156
 6605TIP3    H219780   1.324   4.562   0.256
 6606TIP3   OH219781   3.080   3.960   4.402
 6606TIP3    H119782   3.109   3.869   4.410
 6606TIP3    H219783   3.130   3.994   4.327
 6607TIP3   OH219784   3.518   2.137   4.718
 6607TIP3    H119785   3.564   2.186   4.785
 6607TIP3    H219786   3.455   2.084   4.766
 6608TIP3   OH219787   5.748   3.087   4.116
 6608TIP3    H119788   5.724   2.995   4.105
 6608TIP3    H219789   5.829   3.096   4.066
 6609TIP3   OH219790   4.443   4.991   5.554
 6609TIP3    H119791   4.351   5.004   5.577
 6609TIP3    H219792   4.441   4.926   5.484
 6610TIP3   OH219793   1.172   3.900   1.288
 6610TIP3    H119794   1.108   3.939   1.228
 6610TIP3    H219795   1.241   3.865   1.231
 6611TIP3   OH219796   3.510   0.181   0.509
 6611TIP3    H119797   3.520   0.112   0.442
 6611TIP3    H219798   3.441   0.148   0.567
 6612TIP3   OH219799   4.318   3.480   4.581
 6612TIP3    H119800   4.228   3.472   4.549
 6612TIP3    H219801   4.344   3.389   4.599
 6613TIP3   OH219802   6.205   2.467   4.605
 6613TIP3    H119803   6.232   2.527   4.535
 6613TIP3    H219804   6.162   2.523   4.669
 6614TIP3   OH219805   4.326   1.350   4.278
 6614TIP3    H119806   4.329   1.267   4.230
 6614TIP3    H219807   4.242   1.348   4.324
 6615TIP3   OH219808   4.547   5.098   1.548
 6615TIP3    H119809   4.547   5.046   1.628
 6615TIP3    H219810   4.604   5.172   1.569
 6616TIP3   OH219811   6.612   3.369   0.811
 6616TIP3    H119812   6.573   3.400   0.730
 6616TIP3    H219813   6.541   3.322   0.855
 6617TIP3   OH219814   2.162   4.436   0.519
 6617TIP3    H119815   2.140   4.480   0.437
 6617TIP3    H219816   2.258   4.444   0.524
 6618TIP3   OH219817   6.992   3.165   4.391
 6618TIP3    H119818   7.044   3.108   4.447
 6618TIP3    H219819   6.914   3.114   4.371
 6619TIP3   OH219820   2.286   0.225   5.034
 6619TIP3    H119821   2.346   0.287   5.076
 6619TIP3    H219822   2.292   0.146   5.087
 6620TIP3   OH219823   0.269   2.923   0.546
 6620TIP3    H119824   0.344   2.974   0.513
 6620TIP3    H219825   0.300   2.889   0.630
 6621TIP3   OH219826   0.113   5.446   3.620
 6621TIP3    H119827   0.133   5.536   3.594
 6621TIP3    H219828   0.038   5.422   3.565
 6622TIP3   OH219829   5.318   1.996   4.650
 6622TIP3    H119830   5.318   2.015   4.744
 6622TIP3    H219831   5.256   1.924   4.640
 6623TIP3   OH219832   2.080   4.687   1.260
 6623TIP3    H119833   2.114   4.737   1.186
 6623TIP3    H219834   2.135   4.712   1.334
 6624TIP3   OH219835   0.537   3.509   4.673
 6624TIP3    H119836   0.496   3.594   4.691
 6624TIP3    H219837   0.571   3.518   4.584
 6625TIP3   OH219838   5.228   6.413   0.107
 6625TIP3    H119839   5.303   6.385   0.160
 6625TIP3    H219840   5.230   6.356   0.030
 6626TIP3   OH219841   1.764   1.912   5.475
 6626TIP3    H119842   1.738   1.917   5.383
 6626TIP3    H219843   1.682   1.912   5.524
 6627TIP3   OH219844   0.639   4.548   3.834
 6627TIP3    H119845   0.636   4.643   3.850
 6627TIP3    H219846   0.561   4.531   3.780
 6628TIP3   OH219847   6.388   5.000   4.522
 6628TIP3    H119848   6.384   4.914   4.564
 6628TIP3    H219849   6.414   5.060   4.592
 6629TIP3   OH219850   1.917   4.458   5.396
 6629TIP3    H119851   1.832   4.499   5.411
 6629TIP3    H219852   1.958   4.512   5.329
 6630TIP3   OH219853   5.225   0.225   5.078
 6630TIP3    H119854   5.186   0.311   5.090
 6630TIP3    H219855   5.249   0.196   5.166
 6631TIP3   OH219856   0.211   5.725   0.271
 6631TIP3    H119857   0.212   5.809   0.225
 6631TIP3    H219858   0.303   5.700   0.277
 6632TIP3   OH219859   0.193   1.894   0.556
 6632TIP3    H119860   0.146   1.869   0.476
 6632TIP3    H219861   0.125   1.916   0.619
 6633TIP3   OH219862   5.288   4.822   0.159
 6633TIP3    H119863   5.211   4.813   0.102
 6633TIP3    H219864   5.347   4.752   0.131
 6634TIP3   OH219865   4.843   3.883   2.033
 6634TIP3    H119866   4.900   3.921   1.966
 6634TIP3    H219867   4.765   3.855   1.985
 6635TIP3   OH219868   1.334   4.523   5.188
 6635TIP3    H119869   1.346   4.499   5.096
 6635TIP3    H219870   1.394   4.597   5.201
 6636TIP3   OH219871   5.988   6.317   2.642
 6636TIP3    H119872   6.029   6.338   2.558
 6636TIP3    H219873   5.969   6.223   2.636
 6637TIP3   OH219874   6.469   3.658   1.521
 6637TIP3    H119875   6.517   3.670   1.439
 6637TIP3    H219876   6.382   3.628   1.494
 6638TIP3   OH219877   0.339   3.495   5.189
 6638TIP3    H119878   0.427   3.457   5.190
 6638TIP3    H219879   0.322   3.520   5.279
 6639TIP3   OH219880   5.872   6.727   4.514
 6639TIP3    H119881   5.947   6.680   4.553
 6639TIP3    H219882   5.882   6.817   4.546
 6640TIP3   OH219883   5.414   5.963   5.083
 6640TIP3    H119884   5.468   5.888   5.103
 6640TIP3    H219885   5.469   6.018   5.027
 6641TIP3   OH219886   5.187   4.985   5.874
 6641TIP3    H119887   5.094   5.007   5.880
 6641TIP3    H219888   5.207   4.991   5.780
 6642TIP3   OH219889   4.782   0.798   3.628
 6642TIP3    H119890   4.779   0.883   3.585
 6642TIP3    H219891   4.741   0.738   3.566
 6643TIP3   OH219892   5.176   4.391   0.743
 6643TIP3    H119893   5.139   4.385   0.655
 6643TIP3    H219894   5.099   4.390   0.801
 6644TIP3   OH219895   5.678   5.381   3.614
 6644TIP3    H119896   5.682   5.308   3.552
 6644TIP3    H219897   5.734   5.353   3.687
 6645TIP3   OH219898   3.141   4.076   2.892
 6645TIP3    H119899   3.209   4.048   2.831
 6645TIP3    H219900   3.189   4.101   2.971
 6646TIP3   OH219901   2.958   2.987   2.168
 6646TIP3    H119902   2.894   2.930   2.211
 6646TIP3    H219903   3.041   2.940   2.175
 6647TIP3   OH219904   6.358   5.191   5.800
 6647TIP3    H119905   6.292   5.260   5.803
 6647TIP3    H219906   6.328   5.130   5.732
 6648TIP3   OH219907   5.787   5.158   4.204
 6648TIP3    H119908   5.708   5.210   4.215
 6648TIP3    H219909   5.821   5.148   4.293
 6649TIP3   OH219910   1.999   6.744   4.735
 6649TIP3    H119911   2.075   6.700   4.773
 6649TIP3    H219912   1.927   6.681   4.744
 6650TIP3   OH219913   0.490   0.862   4.309
 6650TIP3    H119914   0.529   0.853   4.221
 6650TIP3    H219915   0.518   0.948   4.339
 6651TIP3   OH219916   2.259   5.529   5.653
 6651TIP3    H119917   2.329   5.570   5.705
 6651TIP3    H219918   2.246   5.590   5.580
 6652TIP3   OH219919   5.176   3.346   3.387
 6652TIP3    H119920   5.256   3.357   3.335
 6652TIP3    H219921   5.107   3.335   3.323
 6653TIP3   OH219922   0.132   2.695   0.848
 6653TIP3    H119923   0.188   2.646   0.908
 6653TIP3    H219924   0.183   2.773   0.826
 6654TIP3   OH219925   3.009   1.748   2.448
 6654TIP3    H119926   2.961   1.758   2.366
 6654TIP3    H219927   3.031   1.655   2.452
 6655TIP3   OH219928   1.246   0.810   0.677
 6655TIP3    H119929   1.208   0.876   0.619
 6655TIP3    H219930   1.177   0.744   0.686
 6656TIP3   OH219931   2.412   2.737   5.490
 6656TIP3    H119932   2.391   2.721   5.582
 6656TIP3    H219933   2.331   2.774   5.453
 6657TIP3   OH219934   2.211   2.057   2.567
 6657TIP3    H119935   2.190   2.148   2.587
 6657TIP3    H219936   2.194   2.009   2.648
 6658TIP3   OH219937   3.372   1.206   1.146
 6658TIP3    H119938   3.315   1.222   1.071
 6658TIP3    H219939   3.415   1.290   1.162
 6659TIP3   OH219940   4.935   2.999   3.569
 6659TIP3    H119941   5.030   3.003   3.566
 6659TIP3    H219942   4.907   3.090   3.558
 6660TIP3   OH219943   7.156   5.868   2.266
 6660TIP3    H119944   7.124   5.839   2.351
 6660TIP3    H219945   7.250   5.877   2.277
 6661TIP3   OH219946   0.756   3.654   0.351
 6661TIP3    H119947   0.806   3.679   0.429
 6661TIP3    H219948   0.818   3.663   0.279
 6662TIP3   OH219949   7.016   1.769   3.400
 6662TIP3    H119950   6.942   1.710   3.415
 6662TIP3    H219951   7.093   1.715   3.420
 6663TIP3   OH219952   6.970   2.791   4.512
 6663TIP3    H119953   7.003   2.726   4.450
 6663TIP3    H219954   7.048   2.837   4.542
 6664TIP3   OH219955   1.471   3.490   2.524
 6664TIP3    H119956   1.382   3.499   2.488
 6664TIP3    H219957   1.458   3.492   2.619
 6665TIP3   OH219958   0.234   2.867   2.106
 6665TIP3    H119959   0.161   2.809   2.084
 6665TIP3    H219960   0.201   2.921   2.178
 6666TIP3   OH219961   6.826   5.373   1.244
 6666TIP3    H119962   6.911   5.353   1.285
 6666TIP3    H219963   6.846   5.382   1.151
 6667TIP3   OH219964   2.154   1.511   3.831
 6667TIP3    H119965   2.206   1.461   3.894
 6667TIP3    H219966   2.110   1.444   3.778
 6668TIP3   OH219967   6.865   1.321   1.640
 6668TIP3    H119968   6.863   1.227   1.656
 6668TIP3    H219969   6.798   1.335   1.573
 6669TIP3   OH219970   3.798   2.729   5.019
 6669TIP3    H119971   3.715   2.711   4.976
 6669TIP3    H219972   3.794   2.822   5.042
 6670TIP3   OH219973   0.405   3.229   2.600
 6670TIP3    H119974   0.328   3.178   2.627
 6670TIP3    H219975   0.394   3.240   2.505
 6671TIP3   OH219976   4.545   6.239   4.200
 6671TIP3    H119977   4.492   6.181   4.145
 6671TIP3    H219978   4.630   6.195   4.207
 6672TIP3   OH219979   4.948   4.493   2.440
 6672TIP3    H119980   5.028   4.502   2.389
 6672TIP3    H219981   4.963   4.417   2.496
 6673TIP3   OH219982   2.114   4.735   0.736
 6673TIP3    H119983   2.051   4.663   0.736
 6673TIP3    H219984   2.062   4.811   0.709
 6674TIP3   OH219985   1.877   0.935   0.453
 6674TIP3    H119986   1.800   0.884   0.428
 6674TIP3    H219987   1.950   0.873   0.448
 6675TIP3   OH219988   1.908   4.221   2.354
 6675TIP3    H119989   1.904   4.187   2.265
 6675TIP3    H219990   1.968   4.296   2.348
 6676TIP3   OH219991   4.062   2.134   3.980
 6676TIP3    H119992   4.120   2.182   4.039
 6676TIP3    H219993   4.113   2.123   3.900
 6677TIP3   OH219994   5.636   6.220   4.414
 6677TIP3    H119995   5.676   6.139   4.446
 6677TIP3    H219996   5.596   6.196   4.330
 6678TIP3   OH219997   3.539   5.998   1.597
 6678TIP3    H119998   3.620   5.975   1.641
 6678TIP3    H219999   3.476   5.932   1.626
 6679TIP3   OH220000   0.216   4.402   2.631
 6679TIP3    H120001   0.198   4.310   2.648
 6679TIP3    H220002   0.253   4.436   2.712
 6680TIP3   OH220003   2.267   2.364   3.619
 6680TIP3    H120004   2.235   2.325   3.538
 6680TIP3    H220005   2.330   2.301   3.653
 6681TIP3   OH220006   0.315   1.469   3.706
 6681TIP3    H120007   0.239   1.497   3.757
 6681TIP3    H220008   0.390   1.485   3.764
 6682TIP3   OH220009   1.012   2.686   0.122
 6682TIP3    H120010   1.000   2.615   0.184
 6682TIP3    H220011   1.099   2.673   0.085
 6683TIP3   OH220012   6.797   5.584   4.007
 6683TIP3    H120013   6.858   5.655   3.983
 6683TIP3    H220014   6.852   5.519   4.051
 6684TIP3   OH220015   1.860   5.954   4.653
 6684TIP3    H120016   1.783   5.937   4.598
 6684TIP3    H220017   1.913   6.014   4.600
 6685TIP3   OH220018   0.615   2.438   4.093
 6685TIP3    H120019   0.608   2.533   4.102
 6685TIP3    H220020   0.528   2.410   4.065
 6686TIP3   OH220021   2.439   0.776   5.203
 6686TIP3    H120022   2.347   0.758   5.222
 6686TIP3    H220023   2.440   0.868   5.176
 6687TIP3   OH220024   2.523   5.242   2.889
 6687TIP3    H120025   2.547   5.316   2.832
 6687TIP3    H220026   2.498   5.173   2.828
 6688TIP3   OH220027   5.251   1.986   2.460
 6688TIP3    H120028   5.302   2.000   2.539
 6688TIP3    H220029   5.316   1.981   2.390
 6689TIP3   OH220030   2.710   2.988   0.600
 6689TIP3    H120031   2.681   2.964   0.512
 6689TIP3    H220032   2.774   3.058   0.585
 6690TIP3   OH220033   3.700   6.490   0.521
 6690TIP3    H120034   3.678   6.488   0.614
 6690TIP3    H220035   3.714   6.399   0.497
 6691TIP3   OH220036   2.481   2.703   5.112
 6691TIP3    H120037   2.515   2.702   5.022
 6691TIP3    H220038   2.432   2.785   5.118
 6692TIP3   OH220039   3.461   2.027   2.368
 6692TIP3    H120040   3.366   2.027   2.382
 6692TIP3    H220041   3.490   1.942   2.403
 6693TIP3   OH220042   3.397   0.879   1.076
 6693TIP3    H120043   3.336   0.916   1.140
 6693TIP3    H220044   3.348   0.806   1.038
 6694TIP3   OH220045   3.026   1.554   1.933
 6694TIP3    H120046   2.938   1.563   1.971
 6694TIP3    H220047   3.023   1.471   1.885
 6695TIP3   OH220048   6.398   2.534   2.893
 6695TIP3    H120049   6.414   2.628   2.880
 6695TIP3    H220050   6.382   2.500   2.805
 6696TIP3   OH220051   4.394   5.643   1.901
 6696TIP3    H120052   4.451   5.675   1.832
 6696TIP3    H220053   4.315   5.614   1.856
 6697TIP3   OH220054   0.335   0.338   4.054
 6697TIP3    H120055   0.288   0.294   3.983
 6697TIP3    H220056   0.344   0.428   4.024
 6698TIP3   OH220057   3.401   1.494   3.881
 6698TIP3    H120058   3.487   1.533   3.894
 6698TIP3    H220059   3.390   1.434   3.955
 6699TIP3   OH220060   2.482   1.963   1.648
 6699TIP3    H120061   2.510   2.045   1.607
 6699TIP3    H220062   2.401   1.939   1.603
 6700TIP3   OH220063   0.384   3.734   4.692
 6700TIP3    H120064   0.430   3.815   4.670
 6700TIP3    H220065   0.338   3.709   4.612
 6701TIP3   OH220066   2.508   0.475   0.852
 6701TIP3    H120067   2.515   0.570   0.847
 6701TIP3    H220068   2.509   0.446   0.760
 6702TIP3   OH220069   1.653   5.756   0.883
 6702TIP3    H120070   1.703   5.755   0.965
 6702TIP3    H220071   1.621   5.666   0.874
 6703TIP3   OH220072   4.941   2.831   3.897
 6703TIP3    H120073   4.959   2.834   3.991
 6703TIP3    H220074   4.893   2.749   3.884
 6704TIP3   OH220075   2.979   0.398   1.104
 6704TIP3    H120076   2.949   0.373   1.017
 6704TIP3    H220077   3.070   0.366   1.108
 6705TIP3   OH220078   6.890   6.029   3.558
 6705TIP3    H120079   6.895   6.123   3.541
 6705TIP3    H220080   6.970   5.994   3.518
 6706TIP3   OH220081   6.623   1.259   3.750
 6706TIP3    H120082   6.532   1.244   3.776
 6706TIP3    H220083   6.675   1.237   3.828
 6707TIP3   OH220084   3.921   3.136   0.429
 6707TIP3    H120085   3.886   3.057   0.472
 6707TIP3    H220086   4.005   3.151   0.472
 6708TIP3   OH220087   2.244   0.111   3.128
 6708TIP3    H120088   2.214   0.201   3.136
 6708TIP3    H220089   2.245   0.094   3.033
 6709TIP3   OH220090   6.460   2.629   3.147
 6709TIP3    H120091   6.377   2.667   3.176
 6709TIP3    H220092   6.436   2.573   3.073
 6710TIP3   OH220093   1.910   4.094   2.082
 6710TIP3    H120094   1.895   4.159   2.014
 6710TIP3    H220095   1.996   4.058   2.063
 6711TIP3   OH220096   0.993   4.183   2.049
 6711TIP3    H120097   1.073   4.131   2.038
 6711TIP3    H220098   0.982   4.227   1.964
 6712TIP3   OH220099   6.806   3.113   4.983
 6712TIP3    H120100   6.853   3.108   4.899
 6712TIP3    H220101   6.742   3.182   4.970
 6713TIP3   OH220102   0.858   5.728   2.508
 6713TIP3    H120103   0.876   5.673   2.431
 6713TIP3    H220104   0.863   5.668   2.582
 6714TIP3   OH220105   3.461   2.947   2.403
 6714TIP3    H120106   3.429   2.890   2.473
 6714TIP3    H220107   3.396   3.017   2.397
 6715TIP3   OH220108   5.024   3.340   1.152
 6715TIP3    H120109   5.069   3.325   1.068
 6715TIP3    H220110   5.094   3.367   1.212
 6716TIP3   OH220111   5.146   0.539   5.464
 6716TIP3    H120112   5.131   0.606   5.396
 6716TIP3    H220113   5.233   0.559   5.498
 6717TIP3   OH220114   4.339   5.539   4.261
 6717TIP3    H120115   4.360   5.465   4.205
 6717TIP3    H220116   4.424   5.580   4.279
 6718TIP3   OH220117   0.310   0.582   1.882
 6718TIP3    H120118   0.391   0.604   1.929
 6718TIP3    H220119   0.270   0.512   1.934
 6719TIP3   OH220120   5.083   3.965   0.509
 6719TIP3    H120121   5.134   3.885   0.523
 6719TIP3    H220122   4.995   3.934   0.490
 6720TIP3   OH220123   6.121   4.972   0.563
 6720TIP3    H120124   6.067   4.897   0.588
 6720TIP3    H220125   6.203   4.933   0.533
 6721TIP3   OH220126   7.064   0.760   2.765
 6721TIP3    H120127   7.122   0.733   2.694
 6721TIP3    H220128   7.028   0.678   2.798
 6722TIP3   OH220129   2.500   3.098   4.724
 6722TIP3    H120130   2.481   3.016   4.679
 6722TIP3    H220131   2.422   3.114   4.778
 6723TIP3   OH220132   1.070   6.240   4.609
 6723TIP3    H120133   1.005   6.246   4.679
 6723TIP3    H220134   1.121   6.162   4.630
 6724TIP3   OH220135   4.454   2.228   1.889
 6724TIP3    H120136   4.361   2.209   1.900
 6724TIP3    H220137   4.456   2.299   1.825
 6725TIP3   OH220138   1.622   1.414   1.384
 6725TIP3    H120139   1.607   1.508   1.384
 6725TIP3    H220140   1.671   1.397   1.465
 6726TIP3   OH220141   0.329   2.540   5.108
 6726TIP3    H120142   0.360   2.603   5.174
 6726TIP3    H220143   0.270   2.591   5.052
 6727TIP3   OH220144   4.326   3.764   5.840
 6727TIP3    H120145   4.273   3.686   5.822
 6727TIP3    H220146   4.413   3.742   5.805
 6728TIP3   OH220147   4.018   6.633   4.926
 6728TIP3    H120148   4.000   6.726   4.913
 6728TIP3    H220149   3.994   6.616   5.017
 6729TIP3   OH220150   6.432   0.926   3.603
 6729TIP3    H120151   6.400   0.998   3.657
 6729TIP3    H220152   6.382   0.933   3.522
 6730TIP3   OH220153   6.914   1.907   0.678
 6730TIP3    H120154   6.971   1.840   0.640
 6730TIP3    H220155   6.852   1.857   0.732
 6731TIP3   OH220156   1.989   0.607   1.095
 6731TIP3    H120157   1.990   0.647   1.181
 6731TIP3    H220158   1.947   0.521   1.109
 6732TIP3   OH220159   3.823   6.188   4.909
 6732TIP3    H120160   3.731   6.163   4.911
 6732TIP3    H220161   3.849   6.178   4.817
 6733TIP3   OH220162   1.182   2.855   1.574
 6733TIP3    H120163   1.153   2.855   1.665
 6733TIP3    H220164   1.276   2.842   1.578
 6734TIP3   OH220165   0.452   2.812   2.497
 6734TIP3    H120166   0.388   2.807   2.568
 6734TIP3    H220167   0.428   2.741   2.438
 6735TIP3   OH220168   3.707   6.706   1.032
 6735TIP3    H120169   3.613   6.721   1.022
 6735TIP3    H220170   3.747   6.792   1.018
 6736TIP3   OH220171   0.592   6.387   4.753
 6736TIP3    H120172   0.548   6.461   4.794
 6736TIP3    H220173   0.678   6.384   4.795
 6737TIP3   OH220174   1.698   6.492   4.101
 6737TIP3    H120175   1.602   6.491   4.097
 6737TIP3    H220176   1.724   6.560   4.040
 6738TIP3   OH220177   2.433   5.222   5.191
 6738TIP3    H120178   2.405   5.139   5.230
 6738TIP3    H220179   2.352   5.272   5.180
 6739TIP3   OH220180   5.215   4.416   2.387
 6739TIP3    H120181   5.214   4.333   2.339
 6739TIP3    H220182   5.237   4.391   2.477
 6740TIP3   OH220183   3.738   1.770   2.324
 6740TIP3    H120184   3.658   1.787   2.374
 6740TIP3    H220185   3.801   1.741   2.389
 6741TIP3   OH220186   0.664   5.963   0.723
 6741TIP3    H120187   0.731   6.030   0.738
 6741TIP3    H220188   0.694   5.888   0.773
 6742TIP3   OH220189   1.193   1.936   2.516
 6742TIP3    H120190   1.158   1.852   2.487
 6742TIP3    H220191   1.137   2.001   2.474
 6743TIP3   OH220192   5.156   4.390   4.492
 6743TIP3    H120193   5.157   4.457   4.424
 6743TIP3    H220194   5.063   4.377   4.512
 6744TIP3   OH220195   2.356   1.454   1.405
 6744TIP3    H120196   2.352   1.537   1.359
 6744TIP3    H220197   2.344   1.477   1.497
 6745TIP3   OH220198   3.340   6.245   0.006
 6745TIP3    H120199   3.378   6.213   0.088
 6745TIP3    H220200   3.252   6.207   0.004
 6746TIP3   OH220201   4.154   2.964   5.174
 6746TIP3    H120202   4.201   2.891   5.134
 6746TIP3    H220203   4.145   3.029   5.105
 6747TIP3   OH220204   6.624   1.370   3.290
 6747TIP3    H120205   6.602   1.383   3.382
 6747TIP3    H220206   6.667   1.451   3.263
 6748TIP3   OH220207   5.387   6.121   4.454
 6748TIP3    H120208   5.350   6.128   4.542
 6748TIP3    H220209   5.449   6.194   4.448
 6749TIP3   OH220210   1.562   2.511   4.933
 6749TIP3    H120211   1.590   2.420   4.936
 6749TIP3    H220212   1.542   2.528   4.841
 6750TIP3   OH220213   2.795   6.626   1.236
 6750TIP3    H120214   2.816   6.533   1.247
 6750TIP3    H220215   2.843   6.670   1.306
 6751TIP3   OH220216   4.422   4.957   4.187
 6751TIP3    H120217   4.496   4.897   4.179
 6751TIP3    H220218   4.380   4.955   4.101
 6752TIP3   OH220219   3.153   0.525   4.374
 6752TIP3    H120220   3.094   0.452   4.353
 6752TIP3    H220221   3.202   0.539   4.293
 6753TIP3   OH220222   7.145   4.023   1.876
 6753TIP3    H120223   7.105   4.025   1.963
 6753TIP3    H220224   7.152   4.115   1.851
 6754TIP3   OH220225   5.781   4.801   3.099
 6754TIP3    H120226   5.862   4.843   3.068
 6754TIP3    H220227   5.743   4.762   3.020
 6755TIP3   OH220228   0.875   0.100   3.483
 6755TIP3    H120229   0.924   0.048   3.419
 6755TIP3    H220230   0.882   0.050   3.565
 6756TIP3   OH220231   5.826   3.802   5.346
 6756TIP3    H120232   5.876   3.800   5.265
 6756TIP3    H220233   5.779   3.718   5.346
 6757TIP3   OH220234   4.217   3.151   2.535
 6757TIP3    H120235   4.225   3.151   2.440
 6757TIP3    H220236   4.259   3.232   2.563
 6758TIP3   OH220237   1.255   4.355   2.093
 6758TIP3    H120238   1.257   4.271   2.048
 6758TIP3    H220239   1.183   4.403   2.051
 6759TIP3   OH220240   0.890   0.435   5.126
 6759TIP3    H120241   0.802   0.459   5.096
 6759TIP3    H220242   0.948   0.463   5.056
 6760TIP3   OH220243   0.572   6.426   4.474
 6760TIP3    H120244   0.516   6.351   4.490
 6760TIP3    H220245   0.635   6.426   4.546
 6761TIP3   OH220246   2.446   0.656   4.822
 6761TIP3    H120247   2.505   0.724   4.855
 6761TIP3    H220248   2.484   0.631   4.737
 6762TIP3   OH220249   4.176   3.194   0.521
 6762TIP3    H120250   4.210   3.157   0.440
 6762TIP3    H220251   4.222   3.278   0.531
 6763TIP3   OH220252   0.143   2.410   1.802
 6763TIP3    H120253   0.054   2.436   1.778
 6763TIP3    H220254   0.174   2.480   1.860
 6764TIP3   OH220255   6.015   3.125   3.926
 6764TIP3    H120256   6.070   3.192   3.885
 6764TIP3    H220257   6.034   3.046   3.876
 6765TIP3   OH220258   5.733   1.272   1.052
 6765TIP3    H120259   5.738   1.236   0.964
 6765TIP3    H220260   5.794   1.346   1.051
 6766TIP3   OH220261   6.399   5.719   3.317
 6766TIP3    H120262   6.480   5.734   3.268
 6766TIP3    H220263   6.379   5.804   3.356
 6767TIP3   OH220264   2.432   3.597   5.097
 6767TIP3    H120265   2.517   3.635   5.073
 6767TIP3    H220266   2.391   3.663   5.152
 6768TIP3   OH220267   3.616   3.264   3.663
 6768TIP3    H120268   3.603   3.175   3.694
 6768TIP3    H220269   3.541   3.281   3.605
 6769TIP3   OH220270   4.075   1.314   3.686
 6769TIP3    H120271   4.142   1.383   3.690
 6769TIP3    H220272   4.088   1.264   3.767
 6770TIP3   OH220273   4.898   2.836   1.852
 6770TIP3    H120274   4.920   2.912   1.798
 6770TIP3    H220275   4.861   2.872   1.932
 6771TIP3   OH220276   3.211   2.188   2.129
 6771TIP3    H120277   3.282   2.131   2.099
 6771TIP3    H220278   3.141   2.175   2.065
 6772TIP3   OH220279   1.715   4.582   1.164
 6772TIP3    H120280   1.701   4.668   1.203
 6772TIP3    H220281   1.722   4.523   1.239
 6773TIP3   OH220282   2.259   3.163   3.967
 6773TIP3    H120283   2.274   3.210   4.049
 6773TIP3    H220284   2.343   3.167   3.922
 6774TIP3   OH220285   0.519   6.124   0.051
 6774TIP3    H120286   0.608   6.096   0.029
 6774TIP3    H220287   0.469   6.043   0.053
 6775TIP3   OH220288   6.078   0.771   2.323
 6775TIP3    H120289   6.081   0.808   2.235
 6775TIP3    H220290   6.039   0.840   2.376
 6776TIP3   OH220291   6.900   4.643   0.033
 6776TIP3    H120292   6.842   4.672   0.103
 6776TIP3    H220293   6.874   4.552   0.016
 6777TIP3   OH220294   2.506   4.987   0.911
 6777TIP3    H120295   2.444   4.958   0.844
 6777TIP3    H220296   2.569   4.915   0.919
 6778TIP3   OH220297   0.328   2.440   0.441
 6778TIP3    H120298   0.266   2.495   0.489
 6778TIP3    H220299   0.412   2.483   0.451
 6779TIP3   OH220300   4.512   3.904   5.549
 6779TIP3    H120301   4.502   3.882   5.456
 6779TIP3    H220302   4.497   3.998   5.553
 6780TIP3   OH220303   1.112   1.976   4.530
 6780TIP3    H120304   1.205   1.998   4.540
 6780TIP3    H220305   1.103   1.892   4.575
 6781TIP3   OH220306   5.323   2.577   4.818
 6781TIP3    H120307   5.389   2.600   4.883
 6781TIP3    H220308   5.336   2.639   4.747
 6782TIP3   OH220309   4.902   3.887   0.872
 6782TIP3    H120310   4.888   3.794   0.852
 6782TIP3    H220311   4.815   3.926   0.864
 6783TIP3   OH220312   1.333   6.043   2.552
 6783TIP3    H120313   1.271   6.005   2.489
 6783TIP3    H220314   1.333   6.137   2.532
 6784TIP3   OH220315   6.380   3.462   3.996
 6784TIP3    H120316   6.298   3.446   4.043
 6784TIP3    H220317   6.429   3.381   4.006
 6785TIP3   OH220318   4.640   4.193   1.230
 6785TIP3    H120319   4.632   4.102   1.260
 6785TIP3    H220320   4.715   4.228   1.277
 6786TIP3   OH220321   2.257   2.773   1.745
 6786TIP3    H120322   2.335   2.791   1.693
 6786TIP3    H220323   2.186   2.768   1.681
 6787TIP3   OH220324   4.850   2.746   4.187
 6787TIP3    H120325   4.780   2.779   4.131
 6787TIP3    H220326   4.847   2.802   4.264
 6788TIP3   OH220327   7.209   5.481   4.301
 6788TIP3    H120328   7.293   5.435   4.291
 6788TIP3    H220329   7.190   5.475   4.394
 6789TIP3   OH220330   3.365   3.463   1.260
 6789TIP3    H120331   3.299   3.416   1.312
 6789TIP3    H220332   3.412   3.515   1.324
 6790TIP3   OH220333   2.715   6.680   4.196
 6790TIP3    H120334   2.633   6.703   4.154
 6790TIP3    H220335   2.712   6.585   4.205
 6791TIP3   OH220336   6.457   1.031   5.278
 6791TIP3    H120337   6.542   1.047   5.319
 6791TIP3    H220338   6.395   1.031   5.352
 6792TIP3   OH220339   5.957   5.000   3.042
 6792TIP3    H120340   6.049   4.988   3.068
 6792TIP3    H220341   5.914   5.031   3.122
 6793TIP3   OH220342   3.711   5.974   0.972
 6793TIP3    H120343   3.750   6.027   1.042
 6793TIP3    H220344   3.753   5.889   0.980
 6794TIP3   OH220345   0.352   4.408   1.077
 6794TIP3    H120346   0.257   4.394   1.075
 6794TIP3    H220347   0.380   4.373   1.161
 6795TIP3   OH220348   2.102   6.368   3.560
 6795TIP3    H120349   2.022   6.325   3.588
 6795TIP3    H220350   2.075   6.457   3.537
 6796TIP3   OH220351   5.675   1.028   0.280
 6796TIP3    H120352   5.631   0.947   0.252
 6796TIP3    H220353   5.617   1.064   0.347
 6797TIP3   OH220354   0.935   4.554   5.727
 6797TIP3    H120355   0.937   4.602   5.810
 6797TIP3    H220356   0.883   4.476   5.745
 6798TIP3   OH220357   5.547   3.566   2.321
 6798TIP3    H120358   5.596   3.528   2.249
 6798TIP3    H220359   5.567   3.659   2.318
 6799TIP3   OH220360   1.376   3.194   4.903
 6799TIP3    H120361   1.432   3.256   4.950
 6799TIP3    H220362   1.394   3.211   4.811
 6800TIP3   OH220363   5.396   4.861   5.029
 6800TIP3    H120364   5.359   4.884   4.944
 6800TIP3    H220365   5.395   4.766   5.030
 6801TIP3   OH220366   5.061   0.337   2.287
 6801TIP3    H120367   5.121   0.408   2.266
 6801TIP3    H220368   5.118   0.262   2.304
 6802TIP3   OH220369   1.055   5.331   5.161
 6802TIP3    H120370   1.071   5.306   5.251
 6802TIP3    H220371   1.112   5.274   5.109
 6803TIP3   OH220372   2.782   4.853   0.654
 6803TIP3    H120373   2.777   4.798   0.576
 6803TIP3    H220374   2.815   4.795   0.722
 6804TIP3   OH220375   3.103   2.609   1.539
 6804TIP3    H120376   3.161   2.682   1.517
 6804TIP3    H220377   3.115   2.546   1.468
 6805TIP3   OH220378   4.060   4.513   1.272
 6805TIP3    H120379   3.990   4.505   1.337
 6805TIP3    H220380   4.018   4.489   1.189
 6806TIP3   OH220381   1.273   3.806   2.639
 6806TIP3    H120382   1.287   3.735   2.576
 6806TIP3    H220383   1.193   3.782   2.685
 6807TIP3   OH220384   4.695   3.110   1.525
 6807TIP3    H120385   4.709   3.129   1.618
 6807TIP3    H220386   4.662   3.020   1.523
 6808TIP3   OH220387   5.144   6.721   5.491
 6808TIP3    H120388   5.090   6.763   5.557
 6808TIP3    H220389   5.084   6.663   5.444
 6809TIP3   OH220390   0.535   5.173   4.677
 6809TIP3    H120391   0.631   5.177   4.685
 6809TIP3    H220392   0.510   5.259   4.643
 6810TIP3   OH220393   5.392   3.263   1.981
 6810TIP3    H120394   5.483   3.252   2.009
 6810TIP3    H220395   5.397   3.279   1.886
 6811TIP3   OH220396   5.727   6.389   1.385
 6811TIP3    H120397   5.765   6.459   1.331
 6811TIP3    H220398   5.721   6.427   1.472
 6812TIP3   OH220399   6.089   2.261   4.151
 6812TIP3    H120400   6.016   2.323   4.151
 6812TIP3    H220401   6.141   2.287   4.227
 6813TIP3   OH220402   3.671   3.567   0.646
 6813TIP3    H120403   3.652   3.514   0.724
 6813TIP3    H220404   3.594   3.623   0.636
 6814TIP3   OH220405   4.815   3.902   0.466
 6814TIP3    H120406   4.762   3.822   0.468
 6814TIP3    H220407   4.758   3.969   0.505
 6815TIP3   OH220408   2.065   3.502   4.006
 6815TIP3    H120409   2.043   3.411   4.026
 6815TIP3    H220410   2.009   3.553   4.065
 6816TIP3   OH220411   4.232   1.839   3.865
 6816TIP3    H120412   4.239   1.924   3.821
 6816TIP3    H220413   4.165   1.852   3.932
 6817TIP3   OH220414   1.640   2.237   3.579
 6817TIP3    H120415   1.569   2.251   3.516
 6817TIP3    H220416   1.599   2.250   3.665
 6818TIP3   OH220417   2.793   0.635   1.051
 6818TIP3    H120418   2.843   0.555   1.069
 6818TIP3    H220419   2.850   0.687   0.994
 6819TIP3   OH220420   0.731   3.019   0.424
 6819TIP3    H120421   0.795   2.969   0.372
 6819TIP3    H220422   0.736   2.979   0.511
 6820TIP3   OH220423   0.290   4.442   5.287
 6820TIP3    H120424   0.268   4.414   5.198
 6820TIP3    H220425   0.375   4.402   5.304
 6821TIP3   OH220426   0.817   6.076   3.993
 6821TIP3    H120427   0.811   5.985   4.021
 6821TIP3    H220428   0.831   6.125   4.074
 6822TIP3   OH220429   0.390   5.446   1.367
 6822TIP3    H120430   0.428   5.458   1.453
 6822TIP3    H220431   0.433   5.512   1.312
 6823TIP3   OH220432   7.150   1.201   0.731
 6823TIP3    H120433   7.177   1.279   0.779
 6823TIP3    H220434   7.101   1.149   0.795
 6824TIP3   OH220435   2.606   0.082   0.537
 6824TIP3    H120436   2.536   0.021   0.516
 6824TIP3    H220437   2.686   0.036   0.513
 6825TIP3   OH220438   3.350   1.754   2.252
 6825TIP3    H120439   3.332   1.841   2.290
 6825TIP3    H220440   3.307   1.756   2.167
 6826TIP3   OH220441   4.656   4.327   2.992
 6826TIP3    H120442   4.747   4.318   3.022
 6826TIP3    H220443   4.604   4.302   3.068
 6827TIP3   OH220444   4.342   4.542   5.511
 6827TIP3    H120445   4.435   4.563   5.511
 6827TIP3    H220446   4.320   4.526   5.602
 6828TIP3   OH220447   3.231   6.140   1.593
 6828TIP3    H120448   3.283   6.076   1.641
 6828TIP3    H220449   3.278   6.223   1.604
 6829TIP3   OH220450   2.864   3.691   5.183
 6829TIP3    H120451   2.852   3.706   5.277
 6829TIP3    H220452   2.790   3.735   5.142
 6830TIP3   OH220453   4.259   5.188   3.894
 6830TIP3    H120454   4.326   5.248   3.861
 6830TIP3    H220455   4.242   5.219   3.983
 6831TIP3   OH220456   2.773   0.045   3.969
 6831TIP3    H120457   2.749   0.019   3.880
 6831TIP3    H220458   2.749  -0.031   4.023
 6832TIP3   OH220459   6.420   6.806   1.962
 6832TIP3    H120460   6.440   6.720   1.999
 6832TIP3    H220461   6.436   6.796   1.868
 6833TIP3   OH220462   5.325   1.217   0.850
 6833TIP3    H120463   5.367   1.224   0.935
 6833TIP3    H220464   5.231   1.223   0.868
 6834TIP3   OH220465   1.529   4.641   4.797
 6834TIP3    H120466   1.574   4.685   4.869
 6834TIP3    H220467   1.470   4.706   4.761
 6835TIP3   OH220468   6.742   5.211   3.909
 6835TIP3    H120469   6.780   5.178   3.990
 6835TIP3    H220470   6.655   5.171   3.905
 6836TIP3   OH220471   2.734   3.185   4.850
 6836TIP3    H120472   2.655   3.143   4.816
 6836TIP3    H220473   2.804   3.123   4.832
 6837TIP3   OH220474   2.012   1.728   1.191
 6837TIP3    H120475   1.932   1.774   1.165
 6837TIP3    H220476   2.061   1.792   1.243
 6838TIP3   OH220477   1.341   0.572   3.488
 6838TIP3    H120478   1.322   0.539   3.576
 6838TIP3    H220479   1.305   0.505   3.429
 6839TIP3   OH220480   6.723   1.755   0.003
 6839TIP3    H120481   6.796   1.793  -0.046
 6839TIP3    H220482   6.761   1.730   0.087
 6840TIP3   OH220483   3.503   5.007   2.012
 6840TIP3    H120484   3.464   5.074   2.067
 6840TIP3    H220485   3.597   5.014   2.027
 6841TIP3   OH220486   7.019   1.876   1.740
 6841TIP3    H120487   6.978   1.933   1.805
 6841TIP3    H220488   7.024   1.930   1.661
 6842TIP3   OH220489   6.113   1.347   3.862
 6842TIP3    H120490   6.123   1.271   3.806
 6842TIP3    H220491   6.025   1.380   3.845
 6843TIP3   OH220492   6.333   5.210   0.051
 6843TIP3    H120493   6.364   5.227   0.140
 6843TIP3    H220494   6.372   5.126   0.027
 6844TIP3   OH220495   5.609   6.349   3.355
 6844TIP3    H120496   5.571   6.394   3.280
 6844TIP3    H220497   5.537   6.343   3.418
 6845TIP3   OH220498   5.689   4.705   4.214
 6845TIP3    H120499   5.637   4.719   4.293
 6845TIP3    H220500   5.667   4.779   4.157
 6846TIP3   OH220501   5.862   6.511   2.243
 6846TIP3    H120502   5.832   6.499   2.334
 6846TIP3    H220503   5.881   6.423   2.213
 6847TIP3   OH220504   0.367   3.996   0.466
 6847TIP3    H120505   0.378   3.970   0.374
 6847TIP3    H220506   0.375   4.091   0.465
 6848TIP3   OH220507   5.840   3.446   2.346
 6848TIP3    H120508   5.777   3.374   2.341
 6848TIP3    H220509   5.925   3.403   2.337
 6849TIP3   OH220510   6.532   1.236   3.064
 6849TIP3    H120511   6.476   1.166   3.098
 6849TIP3    H220512   6.558   1.285   3.142
 6850TIP3   OH220513   1.004   0.057   2.108
 6850TIP3    H120514   0.997   0.151   2.128
 6850TIP3    H220515   0.989   0.052   2.013
 6851TIP3   OH220516   0.211   4.821   3.583
 6851TIP3    H120517   0.198   4.915   3.595
 6851TIP3    H220518   0.251   4.813   3.496
 6852TIP3   OH220519   3.239   2.492   5.812
 6852TIP3    H120520   3.277   2.566   5.764
 6852TIP3    H220521   3.172   2.532   5.867
 6853TIP3   OH220522   5.359   2.209   4.264
 6853TIP3    H120523   5.337   2.119   4.238
 6853TIP3    H220524   5.333   2.214   4.356
 6854TIP3   OH220525   4.298   1.930   2.901
 6854TIP3    H120526   4.385   1.890   2.895
 6854TIP3    H220527   4.283   1.968   2.815
 6855TIP3   OH220528   4.310   0.451   0.823
 6855TIP3    H120529   4.236   0.470   0.880
 6855TIP3    H220530   4.363   0.530   0.824
 6856TIP3   OH220531   6.807   5.703   5.560
 6856TIP3    H120532   6.813   5.791   5.598
 6856TIP3    H220533   6.884   5.657   5.593
 6857TIP3   OH220534   5.778   0.772   4.240
 6857TIP3    H120535   5.734   0.794   4.322
 6857TIP3    H220536   5.857   0.827   4.240
 6858TIP3   OH220537   3.230   2.339   2.531
 6858TIP3    H120538   3.324   2.346   2.513
 6858TIP3    H220539   3.189   2.332   2.445
 6859TIP3   OH220540   3.890   4.712   4.996
 6859TIP3    H120541   3.958   4.700   4.929
 6859TIP3    H220542   3.934   4.690   5.078
 6860TIP3   OH220543   6.876   5.403   5.862
 6860TIP3    H120544   6.788   5.385   5.829
 6860TIP3    H220545   6.887   5.342   5.935
 6861TIP3   OH220546   3.165   6.016   3.015
 6861TIP3    H120547   3.119   5.965   2.949
 6861TIP3    H220548   3.108   6.092   3.030
 6862TIP3   OH220549   1.750   5.156   3.538
 6862TIP3    H120550   1.776   5.221   3.473
 6862TIP3    H220551   1.756   5.072   3.492
 6863TIP3   OH220552   2.536   6.343   4.194
 6863TIP3    H120553   2.448   6.375   4.177
 6863TIP3    H220554   2.560   6.294   4.116
 6864TIP3   OH220555   2.991   0.122   2.862
 6864TIP3    H120556   2.970   0.104   2.770
 6864TIP3    H220557   3.064   0.184   2.859
 6865TIP3   OH220558   1.666   5.479   1.508
 6865TIP3    H120559   1.708   5.424   1.574
 6865TIP3    H220560   1.604   5.421   1.465
 6866TIP3   OH220561   4.063   6.493   5.561
 6866TIP3    H120562   4.124   6.437   5.513
 6866TIP3    H220563   4.048   6.448   5.644
 6867TIP3   OH220564   0.786   2.982   2.224
 6867TIP3    H120565   0.692   2.988   2.237
 6867TIP3    H220566   0.821   2.956   2.309
 6868TIP3   OH220567   1.305   6.524   1.500
 6868TIP3    H120568   1.281   6.432   1.511
 6868TIP3    H220569   1.301   6.538   1.405
 6869TIP3   OH220570   7.129   5.754   1.544
 6869TIP3    H120571   7.110   5.744   1.638
 6869TIP3    H220572   7.225   5.760   1.540
 6870TIP3   OH220573   1.854   5.404   1.002
 6870TIP3    H120574   1.796   5.350   0.947
 6870TIP3    H220575   1.892   5.342   1.064
 6871TIP3   OH220576   0.001   3.868   0.120
 6871TIP3    H120577   0.033   3.919   0.194
 6871TIP3    H220578  -0.024   3.933   0.055
 6872TIP3   OH220579   4.712   3.063   0.816
 6872TIP3    H120580   4.806   3.055   0.799
 6872TIP3    H220581   4.687   2.978   0.854
 6873TIP3   OH220582   7.104   6.652   1.292
 6873TIP3    H120583   7.151   6.713   1.349
 6873TIP3    H220584   7.019   6.695   1.276
 6874TIP3   OH220585   2.633   2.958   1.815
 6874TIP3    H120586   2.700   3.017   1.849
 6874TIP3    H220587   2.559   2.968   1.875
 6875TIP3   OH220588   0.542   6.099   5.797
 6875TIP3    H120589   0.477   6.157   5.836
 6875TIP3    H220590   0.509   6.010   5.815
 6876TIP3   OH220591   5.079   2.808   2.237
 6876TIP3    H120592   5.139   2.871   2.197
 6876TIP3    H220593   5.008   2.861   2.273
 6877TIP3   OH220594   3.483   3.621   1.054
 6877TIP3    H120595   3.450   3.559   1.119
 6877TIP3    H220596   3.578   3.618   1.064
 6878TIP3   OH220597   1.827   3.806   1.924
 6878TIP3    H120598   1.790   3.847   1.846
 6878TIP3    H220599   1.781   3.848   1.997
 6879TIP3   OH220600   3.575   5.184   1.012
 6879TIP3    H120601   3.490   5.169   0.971
 6879TIP3    H220602   3.609   5.095   1.028
 6880TIP3   OH220603   2.781   4.016   4.512
 6880TIP3    H120604   2.795   3.984   4.601
 6880TIP3    H220605   2.858   3.986   4.463
 6881TIP3   OH220606   2.340   4.936   5.008
 6881TIP3    H120607   2.367   4.972   4.923
 6881TIP3    H220608   2.405   4.969   5.070
 6882TIP3   OH220609   2.658   5.003   4.454
 6882TIP3    H120610   2.607   5.085   4.459
 6882TIP3    H220611   2.748   5.030   4.473
 6883TIP3   OH220612   2.185   2.384   2.647
 6883TIP3    H120613   2.199   2.412   2.737
 6883TIP3    H220614   2.269   2.400   2.604
 6884TIP3   OH220615   5.681   3.338   2.067
 6884TIP3    H120616   5.725   3.327   2.151
 6884TIP3    H220617   5.744   3.303   2.003
 6885TIP3   OH220618   6.114   1.232   5.586
 6885TIP3    H120619   6.151   1.227   5.674
 6885TIP3    H220620   6.141   1.150   5.544
 6886TIP3   OH220621   5.969   0.520   2.783
 6886TIP3    H120622   6.011   0.601   2.751
 6886TIP3    H220623   5.912   0.493   2.711
 6887TIP3   OH220624   2.926   0.979   3.513
 6887TIP3    H120625   2.988   1.047   3.542
 6887TIP3    H220626   2.882   0.952   3.594
 6888TIP3   OH220627   4.403   0.554   4.482
 6888TIP3    H120628   4.497   0.573   4.482
 6888TIP3    H220629   4.368   0.607   4.554
 6889TIP3   OH220630   4.119   3.725   1.557
 6889TIP3    H120631   4.051   3.725   1.624
 6889TIP3    H220632   4.141   3.818   1.544
 6890TIP3   OH220633   5.317   3.092   3.187
 6890TIP3    H120634   5.310   3.029   3.259
 6890TIP3    H220635   5.410   3.095   3.167
 6891TIP3   OH220636   2.736   0.090   4.428
 6891TIP3    H120637   2.746   0.142   4.508
 6891TIP3    H220638   2.699   0.007   4.458
 6892TIP3   OH220639   0.750   6.379   1.046
 6892TIP3    H120640   0.692   6.306   1.024
 6892TIP3    H220641   0.711   6.416   1.125
 6893TIP3   OH220642   0.966   1.894   3.839
 6893TIP3    H120643   0.882   1.858   3.867
 6893TIP3    H220644   1.029   1.823   3.851
 6894TIP3   OH220645   6.974   5.196   4.747
 6894TIP3    H120646   7.069   5.201   4.743
 6894TIP3    H220647   6.954   5.103   4.734
 6895TIP3   OH220648   5.765   6.461   0.673
 6895TIP3    H120649   5.791   6.506   0.593
 6895TIP3    H220650   5.845   6.418   0.704
 6896TIP3   OH220651   2.782   4.756   4.406
 6896TIP3    H120652   2.743   4.837   4.373
 6896TIP3    H220653   2.828   4.719   4.331
 6897TIP3   OH220654   3.531   0.540   5.792
 6897TIP3    H120655   3.478   0.581   5.860
 6897TIP3    H220656   3.515   0.593   5.714
 6898TIP3   OH220657   4.270   6.381   2.620
 6898TIP3    H120658   4.213   6.322   2.570
 6898TIP3    H220659   4.342   6.325   2.650
 6899TIP3   OH220660   2.782   6.200   2.337
 6899TIP3    H120661   2.748   6.123   2.291
 6899TIP3    H220662   2.848   6.165   2.397
 6900TIP3   OH220663   4.098   3.169   5.000
 6900TIP3    H120664   4.062   3.252   4.968
 6900TIP3    H220665   4.178   3.157   4.948
 6901TIP3   OH220666   4.121   2.891   0.318
 6901TIP3    H120667   4.126   2.952   0.244
 6901TIP3    H220668   4.033   2.902   0.352
 6902TIP3   OH220669   7.136   5.116   4.313
 6902TIP3    H120670   7.168   5.139   4.401
 6902TIP3    H220671   7.077   5.042   4.328
 6903TIP3   OH220672   5.185   3.080   0.961
 6903TIP3    H120673   5.241   3.108   1.033
 6903TIP3    H220674   5.134   3.158   0.938
 6904TIP3   OH220675   5.909   5.833   0.474
 6904TIP3    H120676   5.989   5.873   0.440
 6904TIP3    H220677   5.941   5.769   0.538
 6905TIP3   OH220678   1.629   6.206   5.741
 6905TIP3    H120679   1.577   6.221   5.820
 6905TIP3    H220680   1.564   6.186   5.673
 6906TIP3   OH220681   0.471   5.243   1.846
 6906TIP3    H120682   0.482   5.285   1.931
 6906TIP3    H220683   0.491   5.150   1.862
 6907TIP3   OH220684   5.663   2.217   3.719
 6907TIP3    H120685   5.572   2.207   3.691
 6907TIP3    H220686   5.689   2.303   3.685
 6908TIP3   OH220687   5.937   3.704   4.636
 6908TIP3    H120688   5.876   3.771   4.606
 6908TIP3    H220689   6.023   3.744   4.626
 6909TIP3   OH220690   2.840   5.830   2.404
 6909TIP3    H120691   2.798   5.892   2.464
 6909TIP3    H220692   2.776   5.759   2.394
 6910TIP3   OH220693   5.979   5.335   5.222
 6910TIP3    H120694   5.900   5.350   5.170
 6910TIP3    H220695   5.997   5.242   5.212
 6911TIP3   OH220696   1.090   1.313   1.244
 6911TIP3    H120697   1.042   1.344   1.321
 6911TIP3    H220698   1.059   1.223   1.231
 6912TIP3   OH220699   3.954   4.594   0.755
 6912TIP3    H120700   3.950   4.660   0.687
 6912TIP3    H220701   3.892   4.527   0.728
 6913TIP3   OH220702   4.565   4.104   1.488
 6913TIP3    H120703   4.612   4.180   1.523
 6913TIP3    H220704   4.488   4.141   1.445
 6914TIP3   OH220705   0.320   5.257   0.478
 6914TIP3    H120706   0.308   5.321   0.409
 6914TIP3    H220707   0.411   5.269   0.506
 6915TIP3   OH220708   3.160   3.545   5.558
 6915TIP3    H120709   3.183   3.594   5.479
 6915TIP3    H220710   3.242   3.503   5.585
 6916TIP3   OH220711   1.597   5.146   1.564
 6916TIP3    H120712   1.507   5.116   1.552
 6916TIP3    H220713   1.647   5.098   1.498
 6917TIP3   OH220714   5.000   1.390   5.572
 6917TIP3    H120715   5.024   1.477   5.603
 6917TIP3    H220716   4.999   1.335   5.650
 6918TIP3   OH220717   1.235   3.748   0.169
 6918TIP3    H120718   1.313   3.784   0.127
 6918TIP3    H220719   1.233   3.791   0.255
 6919TIP3   OH220720   6.175   3.304   0.564
 6919TIP3    H120721   6.152   3.280   0.654
 6919TIP3    H220722   6.102   3.271   0.512
 6920TIP3   OH220723   2.894   2.556   3.382
 6920TIP3    H120724   2.977   2.517   3.409
 6920TIP3    H220725   2.910   2.586   3.293
 6921TIP3   OH220726   6.373   1.758   4.590
 6921TIP3    H120727   6.279   1.747   4.575
 6921TIP3    H220728   6.395   1.686   4.650
 6922TIP3   OH220729   3.115   2.064   3.942
 6922TIP3    H120730   3.182   2.034   4.003
 6922TIP3    H220731   3.155   2.138   3.896
 6923TIP3   OH220732   5.895   1.473   1.023
 6923TIP3    H120733   5.841   1.512   0.954
 6923TIP3    H220734   5.933   1.548   1.069
 6924TIP3   OH220735   6.272   0.760   0.639
 6924TIP3    H120736   6.179   0.781   0.629
 6924TIP3    H220737   6.278   0.722   0.727
 6925TIP3   OH220738   5.800   1.074   1.935
 6925TIP3    H120739   5.761   1.161   1.946
 6925TIP3    H220740   5.755   1.019   1.999
 6926TIP3   OH220741   3.873   0.414   0.448
 6926TIP3    H120742   3.835   0.499   0.466
 6926TIP3    H220743   3.914   0.388   0.531
 6927TIP3   OH220744   2.790   4.213   4.338
 6927TIP3    H120745   2.771   4.153   4.410
 6927TIP3    H220746   2.840   4.284   4.378
 6928TIP3   OH220747   0.381   3.975   0.180
 6928TIP3    H120748   0.425   3.891   0.196
 6928TIP3    H220749   0.429   4.013   0.106
 6929TIP3   OH220750   1.634   2.629   4.194
 6929TIP3    H120751   1.647   2.546   4.239
 6929TIP3    H220752   1.608   2.605   4.105
 6930TIP3   OH220753   1.801   6.228   0.912
 6930TIP3    H120754   1.709   6.243   0.893
 6930TIP3    H220755   1.815   6.269   0.997
 6931TIP3   OH220756   4.899   2.749   3.463
 6931TIP3    H120757   4.922   2.839   3.486
 6931TIP3    H220758   4.803   2.745   3.473
 6932TIP3   OH220759   6.067   5.221   3.404
 6932TIP3    H120760   6.054   5.315   3.412
 6932TIP3    H220761   6.161   5.211   3.388
 6933TIP3   OH220762   3.452   0.065   4.381
 6933TIP3    H120763   3.413   0.088   4.466
 6933TIP3    H220764   3.379   0.070   4.320
 6934TIP3   OH220765   4.165   5.293   3.428
 6934TIP3    H120766   4.173   5.368   3.487
 6934TIP3    H220767   4.195   5.326   3.344
 6935TIP3   OH220768   5.854   6.763   3.330
 6935TIP3    H120769   5.861   6.765   3.235
 6935TIP3    H220770   5.856   6.670   3.352
 6936TIP3   OH220771   6.302   5.788   0.972
 6936TIP3    H120772   6.357   5.717   1.006
 6936TIP3    H220773   6.220   5.779   1.020
 6937TIP3   OH220774   6.610   4.761   4.336
 6937TIP3    H120775   6.560   4.831   4.295
 6937TIP3    H220776   6.556   4.733   4.411
 6938TIP3   OH220777   1.717   5.085   0.616
 6938TIP3    H120778   1.637   5.131   0.588
 6938TIP3    H220779   1.705   4.996   0.584
 6939TIP3   OH220780   7.138   3.807   1.725
 6939TIP3    H120781   7.112   3.887   1.771
 6939TIP3    H220782   7.180   3.837   1.645
 6940TIP3   OH220783   0.113   4.095   2.158
 6940TIP3    H120784   0.144   4.164   2.216
 6940TIP3    H220785   0.030   4.127   2.125
 6941TIP3   OH220786   2.096   1.098   2.429
 6941TIP3    H120787   2.093   1.192   2.409
 6941TIP3    H220788   2.011   1.081   2.470
 6942TIP3   OH220789   1.142   0.889   5.303
 6942TIP3    H120790   1.065   0.943   5.319
 6942TIP3    H220791   1.212   0.951   5.283
 6943TIP3   OH220792   5.478   3.207   4.786
 6943TIP3    H120793   5.518   3.190   4.870
 6943TIP3    H220794   5.545   3.252   4.735
 6944TIP3   OH220795   6.826   0.277   5.686
 6944TIP3    H120796   6.842   0.354   5.741
 6944TIP3    H220797   6.742   0.243   5.716
 6945TIP3   OH220798   3.992   3.193   3.125
 6945TIP3    H120799   4.021   3.282   3.108
 6945TIP3    H220800   3.897   3.197   3.122
 6946TIP3   OH220801   1.803   2.349   2.043
 6946TIP3    H120802   1.885   2.371   2.089
 6946TIP3    H220803   1.734   2.387   2.097
 6947TIP3   OH220804   3.723   2.022   2.214
 6947TIP3    H120805   3.772   2.011   2.133
 6947TIP3    H220806   3.737   1.940   2.262
 6948TIP3   OH220807   7.041   0.225   5.510
 6948TIP3    H120808   7.017   0.242   5.419
 6948TIP3    H220809   6.963   0.249   5.559
 6949TIP3   OH220810   4.707   2.495   1.423
 6949TIP3    H120811   4.615   2.477   1.403
 6949TIP3    H220812   4.741   2.536   1.343
 6950TIP3   OH220813   5.179   2.863   3.655
 6950TIP3    H120814   5.115   2.866   3.726
 6950TIP3    H220815   5.154   2.787   3.604
 6951TIP3   OH220816   5.745   5.468   5.810
 6951TIP3    H120817   5.686   5.394   5.821
 6951TIP3    H220818   5.782   5.482   5.897
 6952TIP3   OH220819   6.823   6.267   5.705
 6952TIP3    H120820   6.771   6.186   5.709
 6952TIP3    H220821   6.763   6.332   5.670
 6953TIP3   OH220822   0.863   5.450   1.291
 6953TIP3    H120823   0.882   5.447   1.384
 6953TIP3    H220824   0.835   5.540   1.275
 6954TIP3   OH220825   2.869   5.613   2.106
 6954TIP3    H120826   2.912   5.680   2.159
 6954TIP3    H220827   2.881   5.532   2.155
 6955TIP3   OH220828   0.804   2.142   3.875
 6955TIP3    H120829   0.859   2.074   3.914
 6955TIP3    H220830   0.716   2.105   3.876
 6956TIP3   OH220831   5.427   4.916   1.562
 6956TIP3    H120832   5.510   4.934   1.517
 6956TIP3    H220833   5.454   4.883   1.648
 6957TIP3   OH220834   5.470   0.131   1.168
 6957TIP3    H120835   5.453   0.206   1.112
 6957TIP3    H220836   5.487   0.059   1.108
 6958TIP3   OH220837   4.093   4.606   4.856
 6958TIP3    H120838   4.183   4.615   4.888
 6958TIP3    H220839   4.102   4.607   4.761
 6959TIP3   OH220840   0.077   1.643   4.725
 6959TIP3    H120841   0.139   1.572   4.709
 6959TIP3    H220842   0.109   1.715   4.669
 6960TIP3   OH220843   1.561   3.729   4.381
 6960TIP3    H120844   1.519   3.647   4.356
 6960TIP3    H220845   1.495   3.796   4.365
 6961TIP3   OH220846   4.172   2.660   3.765
 6961TIP3    H120847   4.081   2.648   3.739
 6961TIP3    H220848   4.170   2.665   3.861
 6962TIP3   OH220849   3.374   4.454   1.161
 6962TIP3    H120850   3.346   4.490   1.245
 6962TIP3    H220851   3.356   4.523   1.098
 6963TIP3   OH220852   4.533   6.135   3.239
 6963TIP3    H120853   4.620   6.167   3.215
 6963TIP3    H220854   4.549   6.046   3.271
 6964TIP3   OH220855   4.228   2.459   4.570
 6964TIP3    H120856   4.302   2.447   4.512
 6964TIP3    H220857   4.181   2.535   4.536
 6965TIP3   OH220858   4.304   6.575   0.939
 6965TIP3    H120859   4.302   6.664   0.903
 6965TIP3    H220860   4.313   6.518   0.863
 6966TIP3   OH220861   0.244   2.685   1.308
 6966TIP3    H120862   0.156   2.657   1.333
 6966TIP3    H220863   0.296   2.677   1.388
 6967TIP3   OH220864   2.306   2.763   4.790
 6967TIP3    H120865   2.334   2.808   4.710
 6967TIP3    H220866   2.270   2.833   4.845
 6968TIP3   OH220867   6.798   2.440   3.565
 6968TIP3    H120868   6.875   2.487   3.597
 6968TIP3    H220869   6.744   2.425   3.643
 6969TIP3   OH220870   5.221   0.264   0.856
 6969TIP3    H120871   5.280   0.307   0.918
 6969TIP3    H220872   5.143   0.319   0.854
 6970TIP3   OH220873   0.412   4.868   2.146
 6970TIP3    H120874   0.386   4.867   2.238
 6970TIP3    H220875   0.354   4.932   2.104
 6971TIP3   OH220876   4.025   5.717   1.334
 6971TIP3    H120877   4.075   5.746   1.258
 6971TIP3    H220878   4.064   5.634   1.360
 6972TIP3   OH220879   2.303   6.044   3.299
 6972TIP3    H120880   2.285   6.075   3.388
 6972TIP3    H220881   2.370   6.104   3.266
 6973TIP3   OH220882   4.912   0.490   3.422
 6973TIP3    H120883   4.825   0.526   3.409
 6973TIP3    H220884   4.898   0.396   3.433
 6974TIP3   OH220885   3.586   5.676   0.080
 6974TIP3    H120886   3.493   5.677   0.058
 6974TIP3    H220887   3.627   5.733   0.014
 6975TIP3   OH220888   6.537   3.439   3.533
 6975TIP3    H120889   6.454   3.431   3.485
 6975TIP3    H220890   6.586   3.360   3.509
 6976TIP3   OH220891   1.998   2.254   2.305
 6976TIP3    H120892   1.958   2.167   2.312
 6976TIP3    H220893   1.986   2.293   2.392
 6977TIP3   OH220894   5.172   6.183   1.230
 6977TIP3    H120895   5.142   6.123   1.298
 6977TIP3    H220896   5.212   6.256   1.277
 6978TIP3   OH220897   0.661   5.092   0.531
 6978TIP3    H120898   0.724   5.148   0.486
 6978TIP3    H220899   0.589   5.082   0.468
 6979TIP3   OH220900   1.638   3.755   0.292
 6979TIP3    H120901   1.646   3.659   0.297
 6979TIP3    H220902   1.669   3.777   0.204
 6980TIP3   OH220903   2.239   6.383   1.228
 6980TIP3    H120904   2.247   6.290   1.207
 6980TIP3    H220905   2.185   6.418   1.157
 6981TIP3   OH220906   4.267   5.184   5.892
 6981TIP3    H120907   4.253   5.257   5.832
 6981TIP3    H220908   4.360   5.188   5.914
 6982TIP3   OH220909   5.010   0.963   1.182
 6982TIP3    H120910   5.025   0.870   1.170
 6982TIP3    H220911   4.959   0.989   1.105
 6983TIP3   OH220912   2.590   5.401   3.900
 6983TIP3    H120913   2.575   5.467   3.832
 6983TIP3    H220914   2.507   5.393   3.945
 6984TIP3   OH220915   6.214   1.483   5.110
 6984TIP3    H120916   6.298   1.439   5.098
 6984TIP3    H220917   6.159   1.419   5.156
 6985TIP3   OH220918   0.907   4.089   3.097
 6985TIP3    H120919   0.816   4.076   3.120
 6985TIP3    H220920   0.908   4.169   3.045
 6986TIP3   OH220921   2.602   3.429   2.435
 6986TIP3    H120922   2.659   3.471   2.370
 6986TIP3    H220923   2.583   3.498   2.499
 6987TIP3   OH220924   2.125   1.774   3.760
 6987TIP3    H120925   2.183   1.846   3.787
 6987TIP3    H220926   2.164   1.696   3.799
 6988TIP3   OH220927   1.332   2.885   1.196
 6988TIP3    H120928   1.367   2.799   1.220
 6988TIP3    H220929   1.389   2.915   1.125
 6989TIP3   OH220930   4.682   1.884   1.370
 6989TIP3    H120931   4.650   1.974   1.373
 6989TIP3    H220932   4.618   1.839   1.315
 6990TIP3   OH220933   2.556   2.484   5.613
 6990TIP3    H120934   2.480   2.478   5.671
 6990TIP3    H220935   2.519   2.477   5.525
 6991TIP3   OH220936   4.929   5.718   1.148
 6991TIP3    H120937   5.021   5.718   1.121
 6991TIP3    H220938   4.926   5.778   1.223
 6992TIP3   OH220939   0.996   4.249   4.886
 6992TIP3    H120940   1.082   4.206   4.889
 6992TIP3    H220941   0.948   4.210   4.959
 6993TIP3   OH220942   6.926   3.426   5.733
 6993TIP3    H120943   6.910   3.439   5.827
 6993TIP3    H220944   6.844   3.390   5.700
 6994TIP3   OH220945   2.872   6.496   2.339
 6994TIP3    H120946   2.960   6.462   2.322
 6994TIP3    H220947   2.828   6.426   2.388
 6995TIP3   OH220948   2.881   4.140   2.459
 6995TIP3    H120949   2.970   4.151   2.492
 6995TIP3    H220950   2.832   4.213   2.497
 6996TIP3   OH220951   5.819   0.132   0.866
 6996TIP3    H120952   5.828   0.058   0.925
 6996TIP3    H220953   5.842   0.098   0.779
 6997TIP3   OH220954   3.784   3.452   3.829
 6997TIP3    H120955   3.874   3.464   3.797
 6997TIP3    H220956   3.750   3.379   3.778
 6998TIP3   OH220957   2.324   3.923   1.433
 6998TIP3    H120958   2.263   3.880   1.492
 6998TIP3    H220959   2.342   4.008   1.473
 6999TIP3   OH220960   3.059   5.911   2.245
 6999TIP3    H120961   2.997   5.879   2.311
 6999TIP3    H220962   3.004   5.935   2.170
 7000TIP3   OH220963   1.866   4.519   2.390
 7000TIP3    H120964   1.853   4.607   2.425
 7000TIP3    H220965   1.949   4.523   2.344
 7001TIP3   OH220966   0.442   3.668   2.778
 7001TIP3    H120967   0.506   3.675   2.849
 7001TIP3    H220968   0.466   3.587   2.733
 7002TIP3   OH220969   3.747   6.404   1.340
 7002TIP3    H120970   3.726   6.339   1.407
 7002TIP3    H220971   3.680   6.471   1.349
 7003TIP3   OH220972   0.701   3.151   3.815
 7003TIP3    H120973   0.617   3.164   3.858
 7003TIP3    H220974   0.710   3.055   3.811
 7004TIP3   OH220975   4.232   1.166   0.335
 7004TIP3    H120976   4.198   1.224   0.267
 7004TIP3    H220977   4.239   1.081   0.293
 7005TIP3   OH220978   3.368   6.497   0.547
 7005TIP3    H120979   3.322   6.414   0.561
 7005TIP3    H220980   3.328   6.534   0.469
 7006TIP3   OH220981   0.516   5.898   4.169
 7006TIP3    H120982   0.444   5.941   4.123
 7006TIP3    H220983   0.582   5.883   4.101
 7007TIP3   OH220984   0.115   3.438   1.776
 7007TIP3    H120985   0.109   3.347   1.805
 7007TIP3    H220986   0.061   3.487   1.838
 7008TIP3   OH220987   6.092   0.631   4.122
 7008TIP3    H120988   6.070   0.600   4.210
 7008TIP3    H220989   6.010   0.625   4.073
 7009TIP3   OH220990   3.940   0.502   4.336
 7009TIP3    H120991   4.017   0.555   4.359
 7009TIP3    H220992   3.933   0.439   4.407
 7010TIP3   OH220993   6.361   4.324   1.047
 7010TIP3    H120994   6.337   4.413   1.073
 7010TIP3    H220995   6.304   4.305   0.972
 7011TIP3   OH220996   2.132   4.892   4.698
 7011TIP3    H120997   2.095   4.868   4.783
 7011TIP3    H220998   2.090   4.834   4.636
 7012TIP3   OH220999   6.799   2.196   3.412
 7012TIP3    H121000   6.711   2.200   3.374
 7012TIP3    H221001   6.799   2.266   3.477
 7013TIP3   OH221002   4.410   2.782   2.849
 7013TIP3    H121003   4.404   2.840   2.773
 7013TIP3    H221004   4.430   2.841   2.922
 7014TIP3   OH221005   5.463   3.486   3.569
 7014TIP3    H121006   5.369   3.506   3.573
 7014TIP3    H221007   5.502   3.541   3.637
 7015TIP3   OH221008   2.588   5.637   2.056
 7015TIP3    H121009   2.683   5.627   2.050
 7015TIP3    H221010   2.554   5.586   1.983
 7016TIP3   OH221011   5.757   3.207   5.537
 7016TIP3    H121012   5.702   3.179   5.610
 7016TIP3    H221013   5.826   3.260   5.578
 7017TIP3   OH221014   2.361   0.246   0.244
 7017TIP3    H121015   2.425   0.247   0.173
 7017TIP3    H221016   2.308   0.325   0.230
 7018TIP3   OH221017   3.631   0.711   2.437
 7018TIP3    H121018   3.624   0.615   2.430
 7018TIP3    H221019   3.713   0.725   2.485
 7019TIP3   OH221020   5.045   1.931   3.606
 7019TIP3    H121021   4.974   1.885   3.562
 7019TIP3    H221022   5.022   2.024   3.599
 7020TIP3   OH221023   1.195   0.002   2.335
 7020TIP3    H121024   1.181   0.037   2.248
 7020TIP3    H221025   1.156  -0.085   2.333
 7021TIP3   OH221026   5.342   0.626   1.014
 7021TIP3    H121027   5.268   0.616   0.955
 7021TIP3    H221028   5.341   0.718   1.038
 7022TIP3   OH221029   5.434   4.458   0.870
 7022TIP3    H121030   5.403   4.462   0.960
 7022TIP3    H221031   5.355   4.472   0.817
 7023TIP3   OH221032   1.694   0.856   3.636
 7023TIP3    H121033   1.612   0.888   3.671
 7023TIP3    H221034   1.747   0.934   3.621
 7024TIP3   OH221035   5.803   2.012   2.476
 7024TIP3    H121036   5.828   2.101   2.453
 7024TIP3    H221037   5.863   1.956   2.427
 7025TIP3   OH221038   2.854   1.017   1.718
 7025TIP3    H121039   2.927   1.034   1.659
 7025TIP3    H221040   2.838   0.923   1.709
 7026TIP3   OH221041   1.332   0.949   1.531
 7026TIP3    H121042   1.313   1.025   1.476
 7026TIP3    H221043   1.422   0.963   1.562
 7027TIP3   OH221044   1.964   6.457   4.178
 7027TIP3    H121045   2.020   6.422   4.109
 7027TIP3    H221046   1.876   6.429   4.155
 7028TIP3   OH221047   6.278   2.253   5.687
 7028TIP3    H121048   6.362   2.239   5.643
 7028TIP3    H221049   6.294   2.227   5.778
 7029TIP3   OH221050   0.545   0.674   0.938
 7029TIP3    H121051   0.515   0.746   0.995
 7029TIP3    H221052   0.564   0.602   0.998
 7030TIP3   OH221053   6.692   6.234   2.604
 7030TIP3    H121054   6.715   6.169   2.670
 7030TIP3    H221055   6.776   6.256   2.563
 7031TIP3   OH221056   3.807   1.225   3.364
 7031TIP3    H121057   3.831   1.138   3.397
 7031TIP3    H221058   3.731   1.250   3.415
 7032TIP3   OH221059   6.870   3.193   0.881
 7032TIP3    H121060   6.795   3.251   0.892
 7032TIP3    H221061   6.901   3.210   0.792
 7033TIP3   OH221062   2.753   6.424   3.220
 7033TIP3    H121063   2.694   6.350   3.235
 7033TIP3    H221064   2.757   6.468   3.305
 7034TIP3   OH221065   3.923   6.528   0.867
 7034TIP3    H121066   3.857   6.556   0.931
 7034TIP3    H221067   3.970   6.608   0.844
 7035TIP3   OH221068   4.706   1.370   5.785
 7035TIP3    H121069   4.781   1.313   5.767
 7035TIP3    H221070   4.638   1.310   5.816
 7036TIP3   OH221071   3.989   4.634   5.234
 7036TIP3    H121072   3.928   4.616   5.306
 7036TIP3    H221073   4.064   4.578   5.251
 7037TIP3   OH221074   1.672   1.875   5.221
 7037TIP3    H121075   1.639   1.964   5.226
 7037TIP3    H221076   1.611   1.830   5.162
 7038TIP3   OH221077   4.082   0.803   1.206
 7038TIP3    H121078   4.137   0.818   1.128
 7038TIP3    H221079   4.116   0.721   1.243
 7039TIP3   OH221080   0.759   0.918   5.915
 7039TIP3    H121081   0.815   0.845   5.942
 7039TIP3    H221082   0.743   0.902   5.822
 7040TIP3   OH221083   1.042   4.882   5.583
 7040TIP3    H121084   1.119   4.933   5.559
 7040TIP3    H221085   0.981   4.896   5.510
 7041TIP3   OH221086   1.095   6.418   2.784
 7041TIP3    H121087   1.179   6.378   2.760
 7041TIP3    H221088   1.042   6.345   2.815
 7042TIP3   OH221089   2.876   4.095   0.361
 7042TIP3    H121090   2.782   4.075   0.360
 7042TIP3    H221091   2.884   4.168   0.423
 7043TIP3   OH221092   6.648   1.662   3.225
 7043TIP3    H121093   6.563   1.623   3.202
 7043TIP3    H221094   6.633   1.756   3.222
 7044TIP3   OH221095   5.503   3.758   1.212
 7044TIP3    H121096   5.486   3.806   1.131
 7044TIP3    H221097   5.564   3.814   1.261
 7045TIP3   OH221098   6.640   4.726   2.796
 7045TIP3    H121099   6.664   4.818   2.803
 7045TIP3    H221100   6.710   4.687   2.743
 7046TIP3   OH221101   5.815   6.470   3.708
 7046TIP3    H121102   5.856   6.383   3.710
 7046TIP3    H221103   5.885   6.529   3.683
 7047TIP3   OH221104   3.137   2.753   3.214
 7047TIP3    H121105   3.194   2.778   3.141
 7047TIP3    H221106   3.189   2.773   3.292
 7048TIP3   OH221107   4.249   2.110   5.349
 7048TIP3    H121108   4.291   2.027   5.373
 7048TIP3    H221109   4.294   2.137   5.269
 7049TIP3   OH221110   5.644   3.832   1.938
 7049TIP3    H121111   5.572   3.862   1.993
 7049TIP3    H221112   5.620   3.743   1.913
 7050TIP3   OH221113   3.561   1.729   0.460
 7050TIP3    H121114   3.612   1.674   0.519
 7050TIP3    H221115   3.580   1.696   0.372
 7051TIP3   OH221116   5.819   6.783   0.959
 7051TIP3    H121117   5.854   6.694   0.966
 7051TIP3    H221118   5.724   6.772   0.963
 7052TIP3   OH221119   0.858   4.216   3.969
 7052TIP3    H121120   0.898   4.212   4.056
 7052TIP3    H221121   0.931   4.203   3.908
 7053TIP3   OH221122   1.945   2.580   4.097
 7053TIP3    H121123   2.039   2.595   4.091
 7053TIP3    H221124   1.905   2.653   4.050
 7054TIP3   OH221125   6.848   5.571   3.510
 7054TIP3    H121126   6.837   5.510   3.582
 7054TIP3    H221127   6.780   5.546   3.447
 7055TIP3   OH221128   5.653   0.260   3.919
 7055TIP3    H121129   5.581   0.323   3.918
 7055TIP3    H221130   5.723   0.304   3.967
 7056TIP3   OH221131   0.857   6.540   2.781
 7056TIP3    H121132   0.947   6.514   2.762
 7056TIP3    H221133   0.864   6.600   2.856
 7057TIP3   OH221134   2.754   0.499   2.101
 7057TIP3    H121135   2.732   0.496   2.194
 7057TIP3    H221136   2.814   0.426   2.087
 7058TIP3   OH221137   4.353   4.153   5.012
 7058TIP3    H121138   4.346   4.219   4.944
 7058TIP3    H221139   4.444   4.124   5.009
 7059TIP3   OH221140   4.756   4.677   2.463
 7059TIP3    H121141   4.671   4.655   2.501
 7059TIP3    H221142   4.801   4.593   2.455
 7060TIP3   OH221143   4.687   5.567   2.905
 7060TIP3    H121144   4.746   5.520   2.963
 7060TIP3    H221145   4.719   5.658   2.907
 7061TIP3   OH221146   7.039   5.546   2.376
 7061TIP3    H121147   6.958   5.570   2.331
 7061TIP3    H221148   7.012   5.518   2.463
 7062TIP3   OH221149   6.762   1.618   0.998
 7062TIP3    H121150   6.822   1.610   1.072
 7062TIP3    H221151   6.776   1.707   0.965
 7063TIP3   OH221152   3.155   3.028   4.092
 7063TIP3    H121153   3.079   2.984   4.129
 7063TIP3    H221154   3.193   3.076   4.166
 7064TIP3   OH221155   3.512   4.772   5.420
 7064TIP3    H121156   3.555   4.705   5.367
 7064TIP3    H221157   3.435   4.797   5.369
 7065TIP3   OH221158   3.671   1.313   2.335
 7065TIP3    H121159   3.681   1.340   2.244
 7065TIP3    H221160   3.594   1.363   2.366
 7066TIP3   OH221161   7.147   0.322   4.082
 7066TIP3    H121162   7.193   0.304   4.164
 7066TIP3    H221163   7.054   0.321   4.106
 7067TIP3   OH221164   6.111   0.109   2.967
 7067TIP3    H121165   6.186   0.052   2.949
 7067TIP3    H221166   6.091   0.150   2.883
 7068TIP3   OH221167   6.190   4.121   0.801
 7068TIP3    H121168   6.154   4.063   0.734
 7068TIP3    H221169   6.168   4.209   0.770
 7069TIP3   OH221170   7.196   3.170   2.817
 7069TIP3    H121171   7.161   3.158   2.905
 7069TIP3    H221172   7.119   3.179   2.761
 7070TIP3   OH221173   1.658   1.013   5.613
 7070TIP3    H121174   1.700   1.024   5.528
 7070TIP3    H221175   1.569   0.983   5.593
 7071TIP3   OH221176   1.336   1.130   2.412
 7071TIP3    H121177   1.403   1.126   2.344
 7071TIP3    H221178   1.267   1.184   2.373
 7072TIP3   OH221179   2.443   6.145   4.978
 7072TIP3    H121180   2.495   6.222   4.956
 7072TIP3    H221181   2.418   6.107   4.894
 7073TIP3   OH221182   5.053   4.963   1.072
 7073TIP3    H121183   5.125   4.991   1.128
 7073TIP3    H221184   5.042   5.035   1.010
 7074TIP3   OH221185   3.688   2.174   5.484
 7074TIP3    H121186   3.627   2.116   5.437
 7074TIP3    H221187   3.765   2.119   5.500
 7075TIP3   OH221188   0.248   1.998   0.119
 7075TIP3    H121189   0.155   2.004   0.140
 7075TIP3    H221190   0.258   1.910   0.082
 7076TIP3   OH221191   2.777   2.525   5.862
 7076TIP3    H121192   2.791   2.512   5.768
 7076TIP3    H221193   2.863   2.548   5.896
 7077TIP3   OH221194   0.741   5.053   5.652
 7077TIP3    H121195   0.751   4.969   5.608
 7077TIP3    H221196   0.721   5.115   5.582
 7078TIP3   OH221197   3.358   4.631   4.358
 7078TIP3    H121198   3.347   4.587   4.442
 7078TIP3    H221199   3.449   4.613   4.333
 7079TIP3   OH221200   3.620   2.754   0.889
 7079TIP3    H121201   3.657   2.794   0.967
 7079TIP3    H221202   3.595   2.666   0.917
 7080TIP3   OH221203   3.780   3.512   0.180
 7080TIP3    H121204   3.873   3.487   0.181
 7080TIP3    H221205   3.741   3.456   0.113
 7081TIP3   OH221206   5.266   6.417   2.499
 7081TIP3    H121207   5.331   6.403   2.567
 7081TIP3    H221208   5.214   6.337   2.498
 7082TIP3   OH221209   2.518   1.589   0.754
 7082TIP3    H121210   2.552   1.501   0.769
 7082TIP3    H221211   2.540   1.637   0.834
 7083TIP3   OH221212   3.125   1.567   1.173
 7083TIP3    H121213   3.175   1.605   1.244
 7083TIP3    H221214   3.036   1.601   1.185
 7084TIP3   OH221215   2.658   3.428   3.204
 7084TIP3    H121216   2.600   3.362   3.241
 7084TIP3    H221217   2.674   3.398   3.114
 7085TIP3   OH221218   0.731   6.375   5.087
 7085TIP3    H121219   0.683   6.296   5.062
 7085TIP3    H221220   0.727   6.376   5.182
 7086TIP3   OH221221   6.994   5.011   1.234
 7086TIP3    H121222   7.083   5.040   1.218
 7086TIP3    H221223   6.950   5.019   1.149
 7087TIP3   OH221224   0.893   3.676   3.280
 7087TIP3    H121225   0.934   3.716   3.356
 7087TIP3    H221226   0.799   3.682   3.297
 7088TIP3   OH221227   1.059   5.889   3.558
 7088TIP3    H121228   1.046   5.802   3.595
 7088TIP3    H221229   1.154   5.894   3.543
 7089TIP3   OH221230   6.627   1.382   1.795
 7089TIP3    H121231   6.690   1.343   1.734
 7089TIP3    H221232   6.676   1.451   1.839
 7090TIP3   OH221233   5.339   6.472   4.344
 7090TIP3    H121234   5.358   6.466   4.438
 7090TIP3    H221235   5.388   6.400   4.305
 7091TIP3   OH221236   1.389   1.442   2.961
 7091TIP3    H121237   1.390   1.519   3.017
 7091TIP3    H221238   1.465   1.454   2.904
 7092TIP3   OH221239   2.359   5.850   0.580
 7092TIP3    H121240   2.343   5.942   0.604
 7092TIP3    H221241   2.289   5.802   0.624
 7093TIP3   OH221242   5.853   2.506   2.088
 7093TIP3    H121243   5.764   2.514   2.053
 7093TIP3    H221244   5.897   2.445   2.029
 7094TIP3   OH221245   1.878   0.551   4.408
 7094TIP3    H121246   1.921   0.477   4.366
 7094TIP3    H221247   1.814   0.582   4.345
 7095TIP3   OH221248   1.319   2.693   0.062
 7095TIP3    H121249   1.410   2.719   0.048
 7095TIP3    H221250   1.302   2.711   0.154
 7096TIP3   OH221251   3.173   5.810   3.750
 7096TIP3    H121252   3.141   5.727   3.784
 7096TIP3    H221253   3.265   5.813   3.775
 7097TIP3   OH221254   1.183   5.930   0.623
 7097TIP3    H121255   1.185   5.892   0.712
 7097TIP3    H221256   1.245   6.002   0.627
 7098TIP3   OH221257   1.550   1.245   4.091
 7098TIP3    H121258   1.572   1.188   4.164
 7098TIP3    H221259   1.544   1.333   4.130
 7099TIP3   OH221260   6.923   2.033   5.181
 7099TIP3    H121261   6.922   2.043   5.086
 7099TIP3    H221262   6.966   2.112   5.213
 7100TIP3   OH221263   1.120   6.259   2.238
 7100TIP3    H121264   1.203   6.250   2.285
 7100TIP3    H221265   1.125   6.194   2.168
 7101TIP3   OH221266   3.537   4.259   4.865
 7101TIP3    H121267   3.481   4.276   4.789
 7101TIP3    H221268   3.545   4.163   4.868
 7102TIP3   OH221269   1.059   4.104   5.715
 7102TIP3    H121270   1.082   4.127   5.805
 7102TIP3    H221271   1.061   4.187   5.667
 7103TIP3   OH221272   4.198   4.329   4.056
 7103TIP3    H121273   4.194   4.423   4.073
 7103TIP3    H221274   4.107   4.301   4.056
 7104TIP3   OH221275   4.351   4.745   0.899
 7104TIP3    H121276   4.356   4.797   0.979
 7104TIP3    H221277   4.337   4.809   0.829
 7105TIP3   OH221278   5.550   2.571   2.388
 7105TIP3    H121279   5.592   2.578   2.474
 7105TIP3    H221280   5.475   2.630   2.394
 7106TIP3   OH221281   3.051   3.210   5.502
 7106TIP3    H121282   3.003   3.286   5.470
 7106TIP3    H221283   3.104   3.181   5.427
 7107TIP3   OH221284   2.194   0.911   5.231
 7107TIP3    H121285   2.141   0.849   5.282
 7107TIP3    H221286   2.168   0.997   5.264
 7108TIP3   OH221287   4.190   6.019   4.202
 7108TIP3    H121288   4.119   6.013   4.265
 7108TIP3    H221289   4.147   6.032   4.118
 7109TIP3   OH221290   5.975   2.337   1.934
 7109TIP3    H121291   6.013   2.386   1.862
 7109TIP3    H221292   6.039   2.269   1.954
 7110TIP3   OH221293   6.599   6.090   2.013
 7110TIP3    H121294   6.682   6.050   2.037
 7110TIP3    H221295   6.538   6.062   2.081
 7111TIP3   OH221296   2.489   5.033   5.629
 7111TIP3    H121297   2.463   5.042   5.537
 7111TIP3    H221298   2.550   5.105   5.643
 7112TIP3   OH221299   3.962   5.972   4.362
 7112TIP3    H121300   3.980   5.956   4.454
 7112TIP3    H221301   3.867   5.972   4.356
 7113TIP3   OH221302   1.999   3.493   2.585
 7113TIP3    H121303   2.017   3.404   2.614
 7113TIP3    H221304   2.082   3.525   2.549
 7114TIP3   OH221305   7.154   4.683   5.855
 7114TIP3    H121306   7.153   4.742   5.780
 7114TIP3    H221307   7.176   4.738   5.930
 7115TIP3   OH221308   1.398   0.958   4.147
 7115TIP3    H121309   1.392   0.869   4.182
 7115TIP3    H221310   1.476   0.957   4.092
 7116TIP3   OH221311   5.963   3.676   0.416
 7116TIP3    H121312   6.016   3.609   0.373
 7116TIP3    H221313   5.978   3.755   0.365
 7117TIP3   OH221314   5.772   1.748   3.059
 7117TIP3    H121315   5.811   1.795   3.133
 7117TIP3    H221316   5.846   1.706   3.016
 7118TIP3   OH221317   4.256   6.040   0.250
 7118TIP3    H121318   4.340   6.087   0.254
 7118TIP3    H221319   4.278   5.953   0.217
 7119TIP3   OH221320   5.976   6.047   2.635
 7119TIP3    H121321   6.039   6.026   2.704
 7119TIP3    H221322   5.896   6.001   2.660
 7120TIP3   OH221323   4.764   5.533   1.274
 7120TIP3    H121324   4.798   5.614   1.234
 7120TIP3    H221325   4.702   5.563   1.340
 7121TIP3   OH221326   5.793   5.088   2.128
 7121TIP3    H121327   5.755   5.034   2.197
 7121TIP3    H221328   5.859   5.032   2.088
 7122TIP3   OH221329   3.673   3.956   3.485
 7122TIP3    H121330   3.599   4.007   3.517
 7122TIP3    H221331   3.690   3.990   3.398
 7123TIP3   OH221332   1.054   5.240   1.488
 7123TIP3    H121333   0.986   5.306   1.502
 7123TIP3    H221334   1.008   5.156   1.497
 7124TIP3   OH221335   1.943   3.793   5.612
 7124TIP3    H121336   2.004   3.858   5.577
 7124TIP3    H221337   1.864   3.804   5.559
 7125TIP3   OH221338   7.130   5.155   5.031
 7125TIP3    H121339   7.160   5.133   4.942
 7125TIP3    H221340   7.209   5.158   5.083
 7126TIP3   OH221341   1.751   5.079   5.630
 7126TIP3    H121342   1.776   5.075   5.538
 7126TIP3    H221343   1.826   5.042   5.677
 7127TIP3   OH221344   4.595   4.370   2.331
 7127TIP3    H121345   4.525   4.417   2.376
 7127TIP3    H221346   4.589   4.280   2.364
 7128TIP3   OH221347   7.171   0.734   2.414
 7128TIP3    H121348   7.150   0.681   2.338
 7128TIP3    H221349   7.220   0.676   2.472
 7129TIP3   OH221350   3.505   4.341   2.607
 7129TIP3    H121351   3.484   4.378   2.521
 7129TIP3    H221352   3.530   4.417   2.660
 7130TIP3   OH221353   4.427   2.053   4.126
 7130TIP3    H121354   4.400   2.144   4.114
 7130TIP3    H221355   4.365   2.018   4.190
 7131TIP3   OH221356   3.951   4.140   1.544
 7131TIP3    H121357   3.912   4.227   1.545
 7131TIP3    H221358   4.035   4.150   1.590
 7132TIP3   OH221359   2.320   5.429   4.421
 7132TIP3    H121360   2.349   5.507   4.470
 7132TIP3    H221361   2.225   5.433   4.423
 7133TIP3   OH221362   1.055   4.746   5.075
 7133TIP3    H121363   1.000   4.718   5.002
 7133TIP3    H221364   1.102   4.666   5.102
 7134TIP3   OH221365   5.560   3.163   5.059
 7134TIP3    H121366   5.599   3.173   5.146
 7134TIP3    H221367   5.602   3.085   5.023
 7135TIP3   OH221368   0.569   6.014   4.409
 7135TIP3    H121369   0.558   5.992   4.316
 7135TIP3    H221370   0.482   5.999   4.447
 7136TIP3   OH221371   4.459   4.834   2.260
 7136TIP3    H121372   4.551   4.841   2.235
 7136TIP3    H221373   4.412   4.826   2.177
 7137TIP3   OH221374   5.804   2.807   5.734
 7137TIP3    H121375   5.760   2.832   5.815
 7137TIP3    H221376   5.893   2.839   5.744
 7138TIP3   OH221377   6.403   5.816   1.562
 7138TIP3    H121378   6.377   5.771   1.482
 7138TIP3    H221379   6.424   5.905   1.534
 7139TIP3   OH221380   0.464   6.245   4.250
 7139TIP3    H121381   0.550   6.260   4.290
 7139TIP3    H221382   0.482   6.187   4.176
 7140TIP3   OH221383   2.384   0.001   5.438
 7140TIP3    H121384   2.443  -0.001   5.362
 7140TIP3    H221385   2.441  -0.013   5.513
 7141TIP3   OH221386   4.879   2.817   4.700
 7141TIP3    H121387   4.856   2.881   4.633
 7141TIP3    H221388   4.962   2.779   4.671
 7142TIP3   OH221389   3.672   3.996   2.155
 7142TIP3    H121390   3.721   4.046   2.090
 7142TIP3    H221391   3.616   3.938   2.102
 7143TIP3   OH221392   4.863   5.610   5.892
 7143TIP3    H121393   4.883   5.631   5.800
 7143TIP3    H221394   4.948   5.591   5.931
 7144TIP3   OH221395   3.691   2.871   5.784
 7144TIP3    H121396   3.650   2.941   5.835
 7144TIP3    H221397   3.697   2.906   5.696
 7145TIP3   OH221398   6.404   3.250   0.933
 7145TIP3    H121399   6.345   3.325   0.942
 7145TIP3    H221400   6.346   3.174   0.934
 7146TIP3   OH221401   4.293   0.810   4.655
 7146TIP3    H121402   4.309   0.814   4.560
 7146TIP3    H221403   4.215   0.864   4.668
 7147TIP3   OH221404   2.861   4.467   2.286
 7147TIP3    H121405   2.851   4.507   2.200
 7147TIP3    H221406   2.889   4.539   2.343
 7148TIP3   OH221407   3.899   6.164   0.528
 7148TIP3    H121408   3.805   6.176   0.545
 7148TIP3    H221409   3.942   6.209   0.601
 7149TIP3   OH221410   2.453   4.169   4.979
 7149TIP3    H121411   2.395   4.245   4.984
 7149TIP3    H221412   2.395   4.097   4.954
 7150TIP3   OH221413   5.953   5.870   4.308
 7150TIP3    H121414   5.878   5.917   4.344
 7150TIP3    H221415   6.009   5.853   4.384
 7151TIP3   OH221416   1.804   6.195   5.143
 7151TIP3    H121417   1.898   6.178   5.132
 7151TIP3    H221418   1.767   6.184   5.056
 7152TIP3   OH221419   0.969   5.915   0.230
 7152TIP3    H121420   1.012   5.927   0.146
 7152TIP3    H221421   0.921   5.996   0.245
 7153TIP3   OH221422   2.981   2.847   0.203
 7153TIP3    H121423   3.047   2.900   0.159
 7153TIP3    H221424   3.025   2.816   0.282
 7154TIP3   OH221425   6.260   1.340   2.999
 7154TIP3    H121426   6.292   1.267   3.052
 7154TIP3    H221427   6.303   1.417   3.036
 7155TIP3   OH221428   2.457   5.618   5.811
 7155TIP3    H121429   2.426   5.601   5.900
 7155TIP3    H221430   2.550   5.598   5.814
 7156TIP3   OH221431   1.207   3.567   2.514
 7156TIP3    H121432   1.184   3.488   2.564
 7156TIP3    H221433   1.168   3.553   2.428
 7157TIP3   OH221434   0.441   4.104   1.042
 7157TIP3    H121435   0.473   4.194   1.034
 7157TIP3    H221436   0.511   4.051   1.002
 7158TIP3   OH221437   6.026   5.867   3.105
 7158TIP3    H121438   6.095   5.807   3.134
 7158TIP3    H221439   5.950   5.811   3.089
 7159TIP3   OH221440   6.840   0.470   5.415
 7159TIP3    H121441   6.841   0.511   5.329
 7159TIP3    H221442   6.927   0.431   5.424
 7160TIP3   OH221443   6.519   1.496   0.581
 7160TIP3    H121444   6.564   1.511   0.665
 7160TIP3    H221445   6.499   1.403   0.580
 7161TIP3   OH221446   0.696   2.579   5.782
 7161TIP3    H121447   0.657   2.613   5.701
 7161TIP3    H221448   0.621   2.561   5.839
 7162TIP3   OH221449   0.293   1.995   5.357
 7162TIP3    H121450   0.240   2.019   5.281
 7162TIP3    H221451   0.383   1.994   5.325
 7163TIP3   OH221452   1.365   3.838   4.212
 7163TIP3    H121453   1.413   3.907   4.165
 7163TIP3    H221454   1.350   3.771   4.145
 7164TIP3   OH221455   0.738   0.001   4.751
 7164TIP3    H121456   0.668   0.065   4.737
 7164TIP3    H221457   0.779  -0.008   4.665
 7165TIP3   OH221458   3.480   6.568   1.474
 7165TIP3    H121459   3.402   6.597   1.428
 7165TIP3    H221460   3.548   6.632   1.450
 7166TIP3   OH221461   3.258   2.634   5.567
 7166TIP3    H121462   3.204   2.636   5.488
 7166TIP3    H221463   3.348   2.641   5.535
 7167TIP3   OH221464   3.181   1.175   4.467
 7167TIP3    H121465   3.165   1.268   4.448
 7167TIP3    H221466   3.143   1.129   4.392
 7168TIP3   OH221467   1.671   1.230   3.150
 7168TIP3    H121468   1.751   1.248   3.100
 7168TIP3    H221469   1.623   1.167   3.096
 7169TIP3   OH221470   6.851   6.492   3.185
 7169TIP3    H121471   6.859   6.434   3.261
 7169TIP3    H221472   6.912   6.563   3.204
 7170TIP3   OH221473   1.953   1.036   1.964
 7170TIP3    H121474   1.945   0.949   1.927
 7170TIP3    H221475   1.920   1.028   2.054
 7171TIP3   OH221476   6.987   3.469   0.424
 7171TIP3    H121477   7.026   3.518   0.496
 7171TIP3    H221478   7.056   3.463   0.358
 7172TIP3   OH221479   6.405   0.339   3.950
 7172TIP3    H121480   6.393   0.302   3.863
 7172TIP3    H221481   6.316   0.356   3.981
 7173TIP3   OH221482   4.737   0.675   2.422
 7173TIP3    H121483   4.800   0.648   2.356
 7173TIP3    H221484   4.684   0.743   2.379
 7174TIP3   OH221485   5.980   3.119   3.365
 7174TIP3    H121486   5.937   3.095   3.447
 7174TIP3    H221487   5.912   3.162   3.313
 7175TIP3   OH221488   0.466   5.546   5.207
 7175TIP3    H121489   0.424   5.549   5.293
 7175TIP3    H221490   0.399   5.579   5.147
 7176TIP3   OH221491   1.659   1.595   5.291
 7176TIP3    H121492   1.726   1.650   5.250
 7176TIP3    H221493   1.703   1.511   5.306
 7177TIP3   OH221494   1.666   4.330   0.316
 7177TIP3    H121495   1.639   4.409   0.363
 7177TIP3    H221496   1.640   4.258   0.372
 7178TIP3   OH221497   4.553   3.859   1.591
 7178TIP3    H121498   4.496   3.821   1.524
 7178TIP3    H221499   4.578   3.944   1.555
 7179TIP3   OH221500   5.428   2.579   2.791
 7179TIP3    H121501   5.470   2.568   2.876
 7179TIP3    H221502   5.337   2.601   2.812
 7180TIP3   OH221503   1.093   0.426   1.242
 7180TIP3    H121504   1.032   0.353   1.234
 7180TIP3    H221505   1.160   0.396   1.303
 7181TIP3   OH221506   5.614   5.213   5.832
 7181TIP3    H121507   5.576   5.127   5.849
 7181TIP3    H221508   5.648   5.242   5.917
 7182TIP3   OH221509   7.031   3.081   5.780
 7182TIP3    H121510   6.985   2.999   5.765
 7182TIP3    H221511   6.994   3.142   5.716
 7183TIP3   OH221512   5.548   3.960   5.207
 7183TIP3    H121513   5.615   3.999   5.263
 7183TIP3    H221514   5.512   3.888   5.259
 7184TIP3   OH221515   3.218   3.861   1.145
 7184TIP3    H121516   3.123   3.860   1.132
 7184TIP3    H221517   3.229   3.842   1.238
 7185TIP3   OH221518   0.133   2.689   5.015
 7185TIP3    H121519   0.048   2.680   5.059
 7185TIP3    H221520   0.135   2.779   4.984
 7186TIP3   OH221521   2.381   4.248   3.297
 7186TIP3    H121522   2.409   4.167   3.341
 7186TIP3    H221523   2.461   4.300   3.290
 7187TIP3   OH221524   1.987   6.418   4.786
 7187TIP3    H121525   1.919   6.450   4.726
 7187TIP3    H221526   2.068   6.458   4.754
 7188TIP3   OH221527   1.128   3.088   4.748
 7188TIP3    H121528   1.108   3.172   4.790
 7188TIP3    H221529   1.191   3.046   4.807
 7189TIP3   OH221530   2.752   6.141   3.732
 7189TIP3    H121531   2.711   6.056   3.719
 7189TIP3    H221532   2.825   6.123   3.792
 7190TIP3   OH221533   6.021   5.501   1.846
 7190TIP3    H121534   6.038   5.582   1.893
 7190TIP3    H221535   6.060   5.515   1.759
 7191TIP3   OH221536   0.788   6.086   4.818
 7191TIP3    H121537   0.723   6.033   4.770
 7191TIP3    H221538   0.781   6.173   4.779
 7192TIP3   OH221539   3.925   3.193   1.747
 7192TIP3    H121540   3.934   3.265   1.810
 7192TIP3    H221541   3.852   3.141   1.779
 7193TIP3   OH221542   5.549   0.851   5.273
 7193TIP3    H121543   5.482   0.918   5.287
 7193TIP3    H221544   5.632   0.897   5.289
 7194TIP3   OH221545   0.135   3.111   4.243
 7194TIP3    H121546   0.123   3.195   4.199
 7194TIP3    H221547   0.198   3.128   4.313
 7195TIP3   OH221548   6.978   3.314   4.014
 7195TIP3    H121549   7.044   3.252   4.046
 7195TIP3    H221550   6.912   3.258   3.972
 7196TIP3   OH221551   5.002   6.429   1.470
 7196TIP3    H121552   4.941   6.484   1.421
 7196TIP3    H221553   5.083   6.432   1.420
 7197TIP3   OH221554   4.521   3.351   0.710
 7197TIP3    H121555   4.433   3.373   0.680
 7197TIP3    H221556   4.566   3.318   0.632
 7198TIP3   OH221557   0.571   0.624   5.010
 7198TIP3    H121558   0.532   0.543   4.976
 7198TIP3    H221559   0.582   0.607   5.104
 7199TIP3   OH221560   6.899   4.935   4.716
 7199TIP3    H121561   6.940   4.906   4.797
 7199TIP3    H221562   6.807   4.909   4.724
 7200TIP3   OH221563   7.045   2.689   3.444
 7200TIP3    H121564   7.134   2.698   3.478
 7200TIP3    H221565   7.014   2.779   3.435
 7201TIP3   OH221566   0.335   4.805   4.825
 7201TIP3    H121567   0.350   4.800   4.731
 7201TIP3    H221568   0.322   4.899   4.842
 7202TIP3   OH221569   2.602   5.656   0.872
 7202TIP3    H121570   2.665   5.589   0.844
 7202TIP3    H221571   2.589   5.638   0.965
 7203TIP3   OH221572   1.853   4.804   1.751
 7203TIP3    H121573   1.822   4.846   1.831
 7203TIP3    H221574   1.884   4.718   1.779
 7204TIP3   OH221575   4.349   0.371   4.295
 7204TIP3    H121576   4.400   0.426   4.356
 7204TIP3    H221577   4.290   0.322   4.352
 7205TIP3   OH221578   3.619   4.917   1.608
 7205TIP3    H121579   3.711   4.931   1.628
 7205TIP3    H221580   3.573   4.985   1.656
 7206TIP3   OH221581   3.107   1.360   2.689
 7206TIP3    H121582   3.120   1.404   2.605
 7206TIP3    H221583   3.087   1.431   2.751
 7207TIP3   OH221584   0.350   1.669   1.253
 7207TIP3    H121585   0.258   1.695   1.258
 7207TIP3    H221586   0.351   1.597   1.190
 7208TIP3   OH221587   2.960   4.125   3.212
 7208TIP3    H121588   3.046   4.164   3.199
 7208TIP3    H221589   2.976   4.031   3.217
 7209TIP3   OH221590   4.823   6.703   4.529
 7209TIP3    H121591   4.836   6.732   4.620
 7209TIP3    H221592   4.910   6.676   4.500
 7210TIP3   OH221593   6.909   2.477   1.704
 7210TIP3    H121594   6.949   2.398   1.669
 7210TIP3    H221595   6.884   2.528   1.626
 7211TIP3   OH221596   2.236   6.647   4.340
 7211TIP3    H121597   2.276   6.686   4.418
 7211TIP3    H221598   2.144   6.671   4.346
 7212TIP3   OH221599   2.599   5.590   4.129
 7212TIP3    H121600   2.613   5.562   4.219
 7212TIP3    H221601   2.545   5.522   4.090
 7213TIP3   OH221602   6.911   1.849   1.254
 7213TIP3    H121603   6.877   1.777   1.307
 7213TIP3    H221604   6.840   1.913   1.252
 7214TIP3   OH221605   5.486   6.820   3.156
 7214TIP3    H121606   5.421   6.768   3.203
 7214TIP3    H221607   5.560   6.760   3.143
 7215TIP3   OH221608   6.300   1.552   1.623
 7215TIP3    H121609   6.206   1.566   1.613
 7215TIP3    H221610   6.307   1.484   1.690
 7216TIP3   OH221611   4.814   1.700   0.433
 7216TIP3    H121612   4.724   1.668   0.427
 7216TIP3    H221613   4.813   1.763   0.505
 7217TIP3   OH221614   2.869   1.011   1.304
 7217TIP3    H121615   2.846   1.102   1.283
 7217TIP3    H221616   2.899   0.974   1.222
 7218TIP3   OH221617   6.519   2.123   1.075
 7218TIP3    H121618   6.563   2.178   1.011
 7218TIP3    H221619   6.525   2.034   1.039
 7219TIP3   OH221620   4.580   3.230   5.799
 7219TIP3    H121621   4.594   3.321   5.772
 7219TIP3    H221622   4.615   3.178   5.726
 7220TIP3   OH221623   4.214   2.006   5.748
 7220TIP3    H121624   4.189   1.914   5.751
 7220TIP3    H221625   4.310   2.005   5.745
 7221TIP3   OH221626   1.996   3.950   4.400
 7221TIP3    H121627   2.006   3.856   4.381
 7221TIP3    H221628   1.913   3.955   4.448
 7222TIP3   OH221629   0.570   6.310   1.925
 7222TIP3    H121630   0.619   6.381   1.966
 7222TIP3    H221631   0.493   6.298   1.981
 7223TIP3   OH221632   5.837   3.498   3.745
 7223TIP3    H121633   5.849   3.588   3.712
 7223TIP3    H221634   5.742   3.487   3.750
 7224TIP3   OH221635   6.442   0.383   0.869
 7224TIP3    H121636   6.402   0.298   0.890
 7224TIP3    H221637   6.369   0.438   0.844
 7225TIP3   OH221638   5.656   1.174   2.798
 7225TIP3    H121639   5.636   1.267   2.789
 7225TIP3    H221640   5.734   1.172   2.853
 7226TIP3   OH221641   1.133   5.061   4.618
 7226TIP3    H121642   1.091   5.021   4.694
 7226TIP3    H221643   1.108   5.004   4.545
 7227TIP3   OH221644   4.941   4.225   5.254
 7227TIP3    H121645   4.861   4.215   5.306
 7227TIP3    H221646   5.002   4.160   5.290
 7228TIP3   OH221647   5.684   2.193   4.638
 7228TIP3    H121648   5.665   2.159   4.726
 7228TIP3    H221649   5.666   2.119   4.580
 7229TIP3   OH221650   2.159   3.857   5.809
 7229TIP3    H121651   2.134   3.949   5.798
 7229TIP3    H221652   2.077   3.810   5.814
 7230TIP3   OH221653   3.947   6.717   1.464
 7230TIP3    H121654   3.940   6.639   1.409
 7230TIP3    H221655   3.939   6.684   1.553
 7231TIP3   OH221656   1.453   0.658   0.812
 7231TIP3    H121657   1.547   0.677   0.804
 7231TIP3    H221658   1.411   0.715   0.748
 7232TIP3   OH221659   7.048   4.622   4.497
 7232TIP3    H121660   6.968   4.600   4.450
 7232TIP3    H221661   7.038   4.581   4.583
 7233TIP3   OH221662   3.075   3.533   2.922
 7233TIP3    H121663   3.138   3.479   2.875
 7233TIP3    H221664   3.059   3.608   2.865
 7234TIP3   OH221665   1.876   1.005   4.958
 7234TIP3    H121666   1.828   0.938   5.008
 7234TIP3    H221667   1.863   0.980   4.867
 7235TIP3   OH221668   3.667   3.072   0.031
 7235TIP3    H121669   3.732   3.002   0.036
 7235TIP3    H221670   3.665   3.110   0.119
 7236TIP3   OH221671   3.253   4.364   1.519
 7236TIP3    H121672   3.291   4.275   1.523
 7236TIP3    H221673   3.215   4.378   1.605
 7237TIP3   OH221674   0.373   5.253   5.005
 7237TIP3    H121675   0.465   5.267   5.029
 7237TIP3    H221676   0.331   5.338   5.021
 7238TIP3   OH221677   2.849   3.576   2.458
 7238TIP3    H121678   2.856   3.504   2.521
 7238TIP3    H221679   2.834   3.653   2.513
 7239TIP3   OH221680   1.292   6.611   0.415
 7239TIP3    H121681   1.258   6.685   0.365
 7239TIP3    H221682   1.280   6.636   0.507
 7240TIP3   OH221683   3.889   1.495   3.189
 7240TIP3    H121684   3.813   1.541   3.225
 7240TIP3    H221685   3.917   1.435   3.258
 7241TIP3   OH221686   5.393   5.862   3.240
 7241TIP3    H121687   5.313   5.858   3.293
 7241TIP3    H221688   5.362   5.851   3.150
 7242TIP3   OH221689   5.596   4.750   0.823
 7242TIP3    H121690   5.671   4.709   0.866
 7242TIP3    H221691   5.535   4.678   0.807
 7243TIP3   OH221692   3.657   3.973   5.884
 7243TIP3    H121693   3.700   4.043   5.933
 7243TIP3    H221694   3.658   4.003   5.793
 7244TIP3   OH221695   0.719   6.788   1.054
 7244TIP3    H121696   0.806   6.806   1.017
 7244TIP3    H221697   0.684   6.719   0.997
 7245TIP3   OH221698   5.383   4.336   3.100
 7245TIP3    H121699   5.360   4.402   3.165
 7245TIP3    H221700   5.432   4.384   3.033
 7246TIP3   OH221701   6.536   0.228   3.340
 7246TIP3    H121702   6.520   0.263   3.252
 7246TIP3    H221703   6.631   0.226   3.349
 7247TIP3   OH221704   7.132   3.503   2.447
 7247TIP3    H121705   7.047   3.519   2.487
 7247TIP3    H221706   7.149   3.410   2.463
 7248TIP3   OH221707   4.202   0.107   1.535
 7248TIP3    H121708   4.253   0.028   1.518
 7248TIP3    H221709   4.133   0.078   1.594
 7249TIP3   OH221710   5.260   1.585   1.191
 7249TIP3    H121711   5.182   1.613   1.240
 7249TIP3    H221712   5.230   1.509   1.142
 7250TIP3   OH221713   2.010   2.533   2.489
 7250TIP3    H121714   2.067   2.473   2.537
 7250TIP3    H221715   2.070   2.583   2.433
 7251TIP3   OH221716   1.589   6.221   2.383
 7251TIP3    H121717   1.670   6.260   2.350
 7251TIP3    H221718   1.618   6.159   2.450
 7252TIP3   OH221719   6.162   3.865   4.630
 7252TIP3    H121720   6.237   3.865   4.571
 7252TIP3    H221721   6.138   3.957   4.638
 7253TIP3   OH221722   0.144   5.250   4.193
 7253TIP3    H121723   0.190   5.189   4.135
 7253TIP3    H221724   0.064   5.204   4.217
 7254TIP3   OH221725   6.353   6.644   1.305
 7254TIP3    H121726   6.422   6.578   1.306
 7254TIP3    H221727   6.394   6.722   1.266
 7255TIP3   OH221728   7.159   6.165   3.282
 7255TIP3    H121729   7.078   6.187   3.234
 7255TIP3    H221730   7.171   6.238   3.343
 7256TIP3   OH221731   5.704   0.527   4.135
 7256TIP3    H121732   5.652   0.484   4.203
 7256TIP3    H221733   5.708   0.619   4.163
 7257TIP3   OH221734   5.717   6.662   2.676
 7257TIP3    H121735   5.671   6.693   2.754
 7257TIP3    H221736   5.760   6.739   2.640
 7258TIP3   OH221737   1.416   0.490   4.678
 7258TIP3    H121738   1.351   0.476   4.609
 7258TIP3    H221739   1.497   0.453   4.643
 7259TIP3   OH221740   4.924   5.999   0.490
 7259TIP3    H121741   4.961   6.078   0.528
 7259TIP3    H221742   4.998   5.940   0.481
 7260TIP3   OH221743   4.939   2.174   3.682
 7260TIP3    H121744   4.982   2.256   3.705
 7260TIP3    H221745   4.871   2.162   3.748
 7261TIP3   OH221746   5.451   1.212   1.127
 7261TIP3    H121747   5.540   1.236   1.103
 7261TIP3    H221748   5.425   1.276   1.192
 7262TIP3   OH221749   2.217   2.970   5.448
 7262TIP3    H121750   2.151   3.039   5.435
 7262TIP3    H221751   2.300   3.013   5.430
 7263TIP3   OH221752   4.681   2.398   5.069
 7263TIP3    H121753   4.750   2.367   5.128
 7263TIP3    H221754   4.641   2.318   5.035
 7264TIP3   OH221755   1.263   4.790   4.382
 7264TIP3    H121756   1.241   4.823   4.295
 7264TIP3    H221757   1.265   4.695   4.373
 7265TIP3   OH221758   6.593   3.759   5.762
 7265TIP3    H121759   6.646   3.727   5.689
 7265TIP3    H221760   6.586   3.853   5.748
 7266TIP3   OH221761   4.344   1.566   1.879
 7266TIP3    H121762   4.382   1.513   1.809
 7266TIP3    H221763   4.368   1.656   1.857
 7267TIP3   OH221764   5.106   4.944   4.981
 7267TIP3    H121765   5.034   5.006   4.975
 7267TIP3    H221766   5.156   4.971   5.058
 7268TIP3   OH221767   4.742   3.927   0.141
 7268TIP3    H121768   4.796   3.886   0.209
 7268TIP3    H221769   4.791   3.913   0.060
 7269TIP3   OH221770   2.321   3.854   0.570
 7269TIP3    H121771   2.403   3.838   0.524
 7269TIP3    H221772   2.274   3.916   0.515
 7270TIP3   OH221773   5.059   1.596   4.391
 7270TIP3    H121774   5.023   1.537   4.457
 7270TIP3    H221775   4.984   1.618   4.335
 7271TIP3   OH221776   4.488   1.389   0.951
 7271TIP3    H121777   4.396   1.413   0.963
 7271TIP3    H221778   4.485   1.298   0.924
 7272TIP3   OH221779   6.908   3.125   1.543
 7272TIP3    H121780   6.847   3.196   1.527
 7272TIP3    H221781   6.976   3.136   1.476
 7273TIP3   OH221782   4.959   3.113   5.489
 7273TIP3    H121783   4.871   3.118   5.526
 7273TIP3    H221784   4.969   3.196   5.442
 7274TIP3   OH221785   0.253   0.832   1.796
 7274TIP3    H121786   0.275   0.852   1.887
 7274TIP3    H221787   0.275   0.739   1.786
 7275TIP3   OH221788   6.605   5.958   4.846
 7275TIP3    H121789   6.531   6.013   4.872
 7275TIP3    H221790   6.676   5.986   4.903
 7276TIP3   OH221791   2.775   5.302   0.367
 7276TIP3    H121792   2.773   5.229   0.428
 7276TIP3    H221793   2.688   5.341   0.372
 7277TIP3   OH221794   6.411   6.022   5.135
 7277TIP3    H121795   6.491   5.971   5.148
 7277TIP3    H221796   6.440   6.101   5.089
 7278TIP3   OH221797   5.109   3.190   0.338
 7278TIP3    H121798   5.123   3.244   0.417
 7278TIP3    H221799   5.088   3.103   0.372
 7279TIP3   OH221800   6.540   6.238   3.613
 7279TIP3    H121801   6.541   6.208   3.522
 7279TIP3    H221802   6.490   6.170   3.660
 7280TIP3   OH221803   1.079   0.337   2.373
 7280TIP3    H121804   1.170   0.310   2.385
 7280TIP3    H221805   1.071   0.418   2.423
 7281TIP3   OH221806   2.961   1.147   2.607
 7281TIP3    H121807   2.998   1.226   2.646
 7281TIP3    H221808   2.974   1.158   2.513
 7282TIP3   OH221809   1.747   1.268   5.678
 7282TIP3    H121810   1.831   1.244   5.717
 7282TIP3    H221811   1.695   1.188   5.681
 7283TIP3   OH221812   0.307   2.745   2.737
 7283TIP3    H121813   0.371   2.678   2.761
 7283TIP3    H221814   0.311   2.809   2.808
 7284TIP3   OH221815   6.665   1.105   5.716
 7284TIP3    H121816   6.756   1.132   5.704
 7284TIP3    H221817   6.663   1.014   5.685
 7285TIP3   OH221818   6.779   3.827   3.019
 7285TIP3    H121819   6.723   3.795   3.089
 7285TIP3    H221820   6.727   3.897   2.978
 7286TIP3   OH221821   5.923   5.430   1.123
 7286TIP3    H121822   5.835   5.468   1.126
 7286TIP3    H221823   5.907   5.335   1.123
 7287TIP3   OH221824   0.362   6.204   3.521
 7287TIP3    H121825   0.298   6.275   3.530
 7287TIP3    H221826   0.434   6.243   3.472
 7288TIP3   OH221827   3.993   6.437   3.760
 7288TIP3    H121828   4.081   6.403   3.744
 7288TIP3    H221829   3.988   6.448   3.855
 7289TIP3   OH221830   0.055   2.108   5.210
 7289TIP3    H121831   0.011   2.110   5.125
 7289TIP3    H221832   0.061   2.200   5.236
 7290TIP3   OH221833   5.478   5.297   2.023
 7290TIP3    H121834   5.440   5.285   2.110
 7290TIP3    H221835   5.471   5.210   1.982
 7291TIP3   OH221836   5.874   0.447   5.748
 7291TIP3    H121837   5.846   0.524   5.698
 7291TIP3    H221838   5.902   0.483   5.832
 7292TIP3   OH221839   0.345   4.591   0.782
 7292TIP3    H121840   0.382   4.647   0.849
 7292TIP3    H221841   0.250   4.596   0.796
 7293TIP3   OH221842   5.104   3.349   2.825
 7293TIP3    H121843   5.194   3.376   2.809
 7293TIP3    H221844   5.103   3.327   2.919
 7294TIP3   OH221845   0.682   1.058   2.516
 7294TIP3    H121846   0.752   1.046   2.452
 7294TIP3    H221847   0.718   1.120   2.580
 7295TIP3   OH221848   4.501   6.551   4.703
 7295TIP3    H121849   4.480   6.607   4.778
 7295TIP3    H221850   4.422   6.553   4.649
 7296TIP3   OH221851   5.289   4.484   1.111
 7296TIP3    H121852   5.220   4.534   1.068
 7296TIP3    H221853   5.340   4.550   1.158
 7297TIP3   OH221854   3.312   2.649   1.789
 7297TIP3    H121855   3.382   2.688   1.736
 7297TIP3    H221856   3.261   2.724   1.819
 7298TIP3   OH221857   5.898   6.762   3.069
 7298TIP3    H121858   5.873   6.815   2.993
 7298TIP3    H221859   5.952   6.692   3.032
 7299TIP3   OH221860   6.975   3.104   0.471
 7299TIP3    H121861   7.043   3.042   0.498
 7299TIP3    H221862   6.941   3.067   0.389
 7300TIP3   OH221863   2.533   0.662   0.476
 7300TIP3    H121864   2.618   0.619   0.467
 7300TIP3    H221865   2.477   0.595   0.516
 7301TIP3   OH221866   1.037   3.736   4.160
 7301TIP3    H121867   0.986   3.764   4.084
 7301TIP3    H221868   1.118   3.701   4.123
 7302TIP3   OH221869   0.683   0.226   1.222
 7302TIP3    H121870   0.650   0.145   1.182
 7302TIP3    H221871   0.778   0.220   1.211
 7303TIP3   OH221872   5.606   5.342   1.100
 7303TIP3    H121873   5.538   5.409   1.107
 7303TIP3    H221874   5.595   5.288   1.178
 7304TIP3   OH221875   5.714   2.392   0.711
 7304TIP3    H121876   5.773   2.391   0.636
 7304TIP3    H221877   5.636   2.438   0.679
 7305TIP3   OH221878   3.150   5.070   0.475
 7305TIP3    H121879   3.068   5.033   0.443
 7305TIP3    H221880   3.124   5.132   0.543
 7306TIP3   OH221881   5.932   3.421   4.552
 7306TIP3    H121882   5.945   3.515   4.565
 7306TIP3    H221883   5.932   3.410   4.456
 7307TIP3   OH221884   5.785   2.048   2.750
 7307TIP3    H121885   5.842   1.996   2.807
 7307TIP3    H221886   5.798   2.011   2.663
 7308TIP3   OH221887   5.059   5.823   5.518
 7308TIP3    H121888   5.142   5.849   5.559
 7308TIP3    H221889   5.078   5.825   5.424
 7309TIP3   OH221890   4.250   1.751   5.853
 7309TIP3    H121891   4.339   1.725   5.875
 7309TIP3    H221892   4.196   1.676   5.880
 7310TIP3   OH221893   0.165   6.203   1.088
 7310TIP3    H121894   0.202   6.270   1.145
 7310TIP3    H221895   0.070   6.213   1.097
 7311TIP3   OH221896   0.193   2.917   1.136
 7311TIP3    H121897   0.181   2.844   1.197
 7311TIP3    H221898   0.246   2.981   1.184
 7312TIP3   OH221899   0.075   6.347   3.879
 7312TIP3    H121900   0.021   6.275   3.912
 7312TIP3    H221901   0.160   6.307   3.860
 7313TIP3   OH221902   4.985   4.521   5.695
 7313TIP3    H121903   5.051   4.528   5.627
 7313TIP3    H221904   5.021   4.570   5.769
 7314TIP3   OH221905   5.099   3.646   0.239
 7314TIP3    H121906   5.176   3.599   0.271
 7314TIP3    H221907   5.037   3.577   0.216
 7315TIP3   OH221908   1.034   4.514   3.429
 7315TIP3    H121909   1.097   4.464   3.376
 7315TIP3    H221910   1.075   4.520   3.515
 7316TIP3   OH221911   4.828   1.041   3.480
 7316TIP3    H121912   4.869   1.044   3.394
 7316TIP3    H221913   4.885   1.093   3.537
 7317TIP3   OH221914   2.968   2.077   2.304
 7317TIP3    H121915   2.880   2.077   2.265
 7317TIP3    H221916   2.957   2.119   2.389
 7318TIP3   OH221917   2.708   2.882   0.320
 7318TIP3    H121918   2.637   2.889   0.257
 7318TIP3    H221919   2.785   2.860   0.267
 7319TIP3   OH221920   1.125   6.251   5.193
 7319TIP3    H121921   1.076   6.179   5.154
 7319TIP3    H221922   1.063   6.323   5.197
 7320TIP3   OH221923   2.776   6.456   3.597
 7320TIP3    H121924   2.741   6.377   3.557
 7320TIP3    H221925   2.750   6.450   3.689
 7321TIP3   OH221926   4.308   2.170   2.347
 7321TIP3    H121927   4.346   2.143   2.431
 7321TIP3    H221928   4.303   2.089   2.296
 7322TIP3   OH221929   2.757   1.409   3.189
 7322TIP3    H121930   2.834   1.458   3.220
 7322TIP3    H221931   2.682   1.456   3.226
 7323TIP3   OH221932   6.725   4.247   3.401
 7323TIP3    H121933   6.729   4.218   3.310
 7323TIP3    H221934   6.816   4.249   3.430
 7324TIP3   OH221935   2.705   1.993   3.545
 7324TIP3    H121936   2.637   1.964   3.484
 7324TIP3    H221937   2.753   1.913   3.567
 7325TIP3   OH221938   1.217   5.680   0.065
 7325TIP3    H121939   1.225   5.772   0.090
 7325TIP3    H221940   1.301   5.641   0.088
 7326TIP3   OH221941   1.055   3.731   2.787
 7326TIP3    H121942   0.981   3.680   2.755
 7326TIP3    H221943   1.020   3.782   2.860
 7327TIP3   OH221944   6.098   0.543   0.012
 7327TIP3    H121945   6.073   0.635   0.022
 7327TIP3    H221946   6.094   0.507   0.100
 7328TIP3   OH221947   2.550   1.558   4.996
 7328TIP3    H121948   2.645   1.549   4.985
 7328TIP3    H221949   2.529   1.501   5.070
 7329TIP3   OH221950   2.516   2.083   0.739
 7329TIP3    H121951   2.574   2.104   0.666
 7329TIP3    H221952   2.536   2.150   0.805
 7330TIP3   OH221953   0.906   3.713   0.573
 7330TIP3    H121954   0.822   3.685   0.609
 7330TIP3    H221955   0.938   3.779   0.635
 7331TIP3   OH221956   6.564   5.632   4.804
 7331TIP3    H121957   6.544   5.538   4.812
 7331TIP3    H221958   6.483   5.675   4.831
 7332TIP3   OH221959   3.843   2.050   3.105
 7332TIP3    H121960   3.856   2.084   3.193
 7332TIP3    H221961   3.748   2.042   3.095
 7333TIP3   OH221962   3.848   3.880   4.978
 7333TIP3    H121963   3.881   3.966   4.951
 7333TIP3    H221964   3.808   3.895   5.063
 7334TIP3   OH221965   3.894   5.791   2.113
 7334TIP3    H121966   3.821   5.850   2.091
 7334TIP3    H221967   3.930   5.827   2.194
 7335TIP3   OH221968   1.786   1.135   1.168
 7335TIP3    H121969   1.741   1.204   1.120
 7335TIP3    H221970   1.768   1.055   1.118
 7336TIP3   OH221971   3.069   5.444   2.875
 7336TIP3    H121972   2.992   5.405   2.832
 7336TIP3    H221973   3.137   5.441   2.808
 7337TIP3   OH221974   4.646   3.778   2.439
 7337TIP3    H121975   4.730   3.733   2.430
 7337TIP3    H221976   4.669   3.871   2.444
 7338TIP3   OH221977   4.908   0.102   2.568
 7338TIP3    H121978   4.911   0.170   2.635
 7338TIP3    H221979   4.988   0.050   2.582
 7339TIP3   OH221980   5.960   2.610   4.388
 7339TIP3    H121981   5.929   2.692   4.426
 7339TIP3    H221982   5.880   2.558   4.375
 7340TIP3   OH221983   6.605   6.342   4.771
 7340TIP3    H121984   6.577   6.432   4.789
 7340TIP3    H221985   6.674   6.351   4.705
 7341TIP3   OH221986   5.968   4.909   0.916
 7341TIP3    H121987   5.977   4.858   0.835
 7341TIP3    H221988   5.892   4.965   0.900
 7342TIP3   OH221989   2.895   5.525   0.466
 7342TIP3    H121990   2.889   5.450   0.408
 7342TIP3    H221991   2.828   5.510   0.533
 7343TIP3   OH221992   6.269   4.736   0.570
 7343TIP3    H121993   6.194   4.677   0.569
 7343TIP3    H221994   6.309   4.722   0.656
 7344TIP3   OH221995   1.576   5.040   0.255
 7344TIP3    H121996   1.600   5.085   0.175
 7344TIP3    H221997   1.614   4.952   0.246
 7345TIP3   OH221998   6.892   0.042   3.784
 7345TIP3    H121999   6.829   0.098   3.830
 7345TIP3    H222000   6.974   0.091   3.787
 7346TIP3   OH222001   1.569   4.813   5.574
 7346TIP3    H122002   1.654   4.855   5.591
 7346TIP3    H222003   1.517   4.880   5.532
 7347TIP3   OH222004   7.141   5.848   5.140
 7347TIP3    H122005   7.092   5.775   5.102
 7347TIP3    H222006   7.076   5.897   5.190
 7348TIP3   OH222007   1.978   3.978   3.917
 7348TIP3    H122008   1.941   3.936   3.839
 7348TIP3    H222009   1.911   4.039   3.946
 7349TIP3   OH222010   2.208   4.123   3.678
 7349TIP3    H122011   2.138   4.120   3.744
 7349TIP3    H222012   2.162   4.130   3.595
 7350TIP3   OH222013   6.272   4.863   5.275
 7350TIP3    H122014   6.351   4.882   5.225
 7350TIP3    H222015   6.302   4.816   5.352
 7351TIP3   OH222016   3.702   0.498   4.727
 7351TIP3    H122017   3.682   0.508   4.820
 7351TIP3    H222018   3.794   0.523   4.719
 7352TIP3   OH222019   1.546   2.727   2.324
 7352TIP3    H122020   1.499   2.781   2.387
 7352TIP3    H222021   1.637   2.756   2.330
 7353TIP3   OH222022   1.684   0.639   5.521
 7353TIP3    H122023   1.636   0.642   5.604
 7353TIP3    H222024   1.621   0.668   5.456
 7354TIP3   OH222025   4.310   4.792   2.666
 7354TIP3    H122026   4.243   4.754   2.723
 7354TIP3    H222027   4.271   4.873   2.635
 7355TIP3   OH222028   1.782   3.599   0.770
 7355TIP3    H122029   1.706   3.553   0.734
 7355TIP3    H222030   1.829   3.632   0.694
 7356TIP3   OH222031   7.187   2.789   3.059
 7356TIP3    H122032   7.188   2.783   2.963
 7356TIP3    H222033   7.161   2.702   3.088
 7357TIP3   OH222034   3.859   6.030   4.107
 7357TIP3    H122035   3.894   6.119   4.114
 7357TIP3    H222036   3.907   5.980   4.173
 7358TIP3   OH222037   5.286   5.191   2.188
 7358TIP3    H122038   5.249   5.155   2.108
 7358TIP3    H222039   5.271   5.123   2.254
 7359TIP3   OH222040   3.639   2.598   2.563
 7359TIP3    H122041   3.586   2.678   2.572
 7359TIP3    H222042   3.729   2.628   2.571
 7360TIP3   OH222043   3.510   5.344   0.270
 7360TIP3    H122044   3.578   5.411   0.265
 7360TIP3    H222045   3.477   5.336   0.181
 7361TIP3   OH222046   6.721   3.949   2.267
 7361TIP3    H122047   6.802   3.981   2.309
 7361TIP3    H222048   6.661   3.935   2.340
 7362TIP3   OH222049   4.032   0.373   0.687
 7362TIP3    H122050   3.971   0.310   0.726
 7362TIP3    H222051   4.111   0.367   0.741
 7363TIP3   OH222052   2.142   3.275   2.973
 7363TIP3    H122053   2.116   3.216   3.043
 7363TIP3    H222054   2.130   3.224   2.893
 7364TIP3   OH222055   2.318   2.081   4.574
 7364TIP3    H122056   2.373   2.010   4.607
 7364TIP3    H222057   2.373   2.159   4.583
 7365TIP3   OH222058   6.213   1.584   3.457
 7365TIP3    H122059   6.264   1.527   3.515
 7365TIP3    H222060   6.125   1.547   3.458
 7366TIP3   OH222061   1.567   1.183   0.029
 7366TIP3    H122062   1.632   1.252   0.013
 7366TIP3    H222063   1.483   1.225   0.010
 7367TIP3   OH222064   1.361   3.845   1.108
 7367TIP3    H122065   1.370   3.754   1.078
 7367TIP3    H222066   1.322   3.891   1.034
 7368TIP3   OH222067   5.008   6.566   0.179
 7368TIP3    H122068   5.076   6.503   0.153
 7368TIP3    H222069   5.056   6.636   0.224
 7369TIP3   OH222070   2.563   4.636   4.947
 7369TIP3    H122071   2.577   4.553   4.900
 7369TIP3    H222072   2.590   4.703   4.885
 7370TIP3   OH222073   4.321   5.820   4.452
 7370TIP3    H122074   4.287   5.862   4.373
 7370TIP3    H222075   4.415   5.812   4.435
 7371TIP3   OH222076   1.568   1.664   4.922
 7371TIP3    H122077   1.627   1.608   4.871
 7371TIP3    H222078   1.518   1.604   4.976
 7372TIP3   OH222079   5.023   0.333   4.697
 7372TIP3    H122080   4.933   0.310   4.720
 7372TIP3    H222081   5.069   0.249   4.698
 7373TIP3   OH222082   3.511   4.916   1.358
 7373TIP3    H122083   3.566   4.904   1.435
 7373TIP3    H222084   3.469   5.001   1.372
 7374TIP3   OH222085   5.099   0.616   0.889
 7374TIP3    H122086   5.052   0.694   0.858
 7374TIP3    H222087   5.049   0.542   0.853
 7375TIP3   OH222088   5.943   3.701   2.366
 7375TIP3    H122089   5.925   3.608   2.353
 7375TIP3    H222090   5.910   3.743   2.287
 7376TIP3   OH222091   7.159   1.850   2.763
 7376TIP3    H122092   7.077   1.882   2.803
 7376TIP3    H222093   7.212   1.821   2.837
 7377TIP3   OH222094   6.104   1.650  -0.017
 7377TIP3    H122095   6.054   1.681   0.059
 7377TIP3    H222096   6.125   1.559   0.003
 7378TIP3   OH222097   1.884   6.811   5.059
 7378TIP3    H122098   1.814   6.823   5.123
 7378TIP3    H222099   1.868   6.724   5.022
 7379TIP3   OH222100   0.665   4.306   1.576
 7379TIP3    H122101   0.583   4.256   1.581
 7379TIP3    H222102   0.695   4.310   1.667
 7380TIP3   OH222103   6.349   3.743   0.096
 7380TIP3    H122104   6.306   3.817   0.138
 7380TIP3    H222105   6.418   3.717   0.158
 7381TIP3   OH222106   5.031   4.198   1.743
 7381TIP3    H122107   5.006   4.167   1.656
 7381TIP3    H222108   5.109   4.251   1.727
 7382TIP3   OH222109   6.139   1.607   0.640
 7382TIP3    H122110   6.149   1.548   0.565
 7382TIP3    H222111   6.182   1.563   0.713
 7383TIP3   OH222112   4.140   5.554   3.845
 7383TIP3    H122113   4.212   5.616   3.847
 7383TIP3    H222114   4.083   5.581   3.917
 7384TIP3   OH222115   1.538   1.854   1.964
 7384TIP3    H122116   1.621   1.810   1.942
 7384TIP3    H222117   1.563   1.945   1.981
 7385TIP3   OH222118   2.328   0.416   1.312
 7385TIP3    H122119   2.297   0.370   1.233
 7385TIP3    H222120   2.392   0.479   1.280
 7386TIP3   OH222121   6.639   3.375   0.432
 7386TIP3    H122122   6.712   3.334   0.480
 7386TIP3    H222123   6.598   3.433   0.497
 7387TIP3   OH222124   5.060   3.570   3.010
 7387TIP3    H122125   5.121   3.618   2.954
 7387TIP3    H222126   4.974   3.584   2.969
 7388TIP3   OH222127   4.262   0.582   4.829
 7388TIP3    H122128   4.220   0.510   4.783
 7388TIP3    H222129   4.261   0.655   4.767
 7389TIP3   OH222130   0.808   2.029   5.429
 7389TIP3    H122131   0.881   1.992   5.380
 7389TIP3    H222132   0.782   2.107   5.379
 7390TIP3   OH222133   0.797   3.289   0.325
 7390TIP3    H122134   0.784   3.196   0.347
 7390TIP3    H222135   0.870   3.317   0.380
 7391TIP3   OH222136   0.782   1.214   2.725
 7391TIP3    H122137   0.834   1.173   2.794
 7391TIP3    H222138   0.715   1.264   2.772
 7392TIP3   OH222139   4.369   3.266   4.337
 7392TIP3    H122140   4.362   3.230   4.426
 7392TIP3    H222141   4.284   3.307   4.321
 7393TIP3   OH222142   1.907   4.583   0.465
 7393TIP3    H122143   1.937   4.545   0.547
 7393TIP3    H222144   1.836   4.525   0.436
 7394TIP3   OH222145   1.393   0.267   2.726
 7394TIP3    H122146   1.469   0.272   2.783
 7394TIP3    H222147   1.362   0.357   2.717
 7395TIP3   OH222148   4.372   6.240   1.824
 7395TIP3    H122149   4.399   6.255   1.733
 7395TIP3    H222150   4.374   6.327   1.864
 7396TIP3   OH222151   3.857   4.542   0.007
 7396TIP3    H122152   3.919   4.469   0.002
 7396TIP3    H222153   3.913   4.619   0.017
 7397TIP3   OH222154   0.724   4.701   5.034
 7397TIP3    H122155   0.783   4.669   4.966
 7397TIP3    H222156   0.637   4.689   4.998
 7398TIP3   OH222157   4.281   5.705   2.175
 7398TIP3    H122158   4.191   5.682   2.196
 7398TIP3    H222159   4.292   5.680   2.083
 7399TIP3   OH222160   2.428   2.629   3.735
 7399TIP3    H122161   2.483   2.641   3.812
 7399TIP3    H222162   2.369   2.705   3.735
 7400TIP3   OH222163   1.983   0.186   3.686
 7400TIP3    H122164   2.040   0.139   3.626
 7400TIP3    H222165   2.032   0.190   3.768
 7401TIP3   OH222166   2.129   0.713   1.599
 7401TIP3    H122167   2.192   0.780   1.573
 7401TIP3    H222168   2.061   0.717   1.531
 7402TIP3   OH222169   3.270   6.006   4.792
 7402TIP3    H122170   3.271   6.089   4.744
 7402TIP3    H222171   3.361   5.976   4.791
 7403TIP3   OH222172   2.685   6.605   4.792
 7403TIP3    H122173   2.635   6.668   4.740
 7403TIP3    H222174   2.721   6.656   4.864
 7404TIP3   OH222175   3.691   5.339   2.294
 7404TIP3    H122176   3.749   5.320   2.220
 7404TIP3    H222177   3.710   5.430   2.317
 7405TIP3   OH222178   3.650   1.448   2.927
 7405TIP3    H122179   3.745   1.444   2.914
 7405TIP3    H222180   3.631   1.377   2.988
 7406TIP3   OH222181   1.812   4.490   2.133
 7406TIP3    H122182   1.810   4.489   2.228
 7406TIP3    H222183   1.743   4.429   2.106
 7407TIP3   OH222184   5.067   0.462   5.155
 7407TIP3    H122185   4.986   0.423   5.187
 7407TIP3    H222186   5.077   0.543   5.205
 7408TIP3   OH222187   0.743   0.192   2.759
 7408TIP3    H122188   0.813   0.186   2.694
 7408TIP3    H222189   0.747   0.283   2.790
 7409TIP3   OH222190   2.521   2.113   2.551
 7409TIP3    H122191   2.459   2.075   2.612
 7409TIP3    H222192   2.473   2.185   2.510
 7410TIP3   OH222193   3.886   1.332   0.123
 7410TIP3    H122194   3.825   1.362   0.191
 7410TIP3    H222195   3.849   1.366   0.041
 7411TIP3   OH222196   4.563   0.130   1.608
 7411TIP3    H122197   4.517   0.050   1.633
 7411TIP3    H222198   4.628   0.143   1.677
 7412TIP3   OH222199   3.225   3.564   1.616
 7412TIP3    H122200   3.214   3.593   1.707
 7412TIP3    H222201   3.313   3.594   1.593
 7413TIP3   OH222202   5.425   2.853   0.195
 7413TIP3    H122203   5.498   2.914   0.189
 7413TIP3    H222204   5.400   2.836   0.104
 7414TIP3   OH222205   0.817   4.061   5.435
 7414TIP3    H122206   0.826   4.136   5.494
 7414TIP3    H222207   0.857   4.091   5.353
 7415TIP3   OH222208   3.245   3.047   5.084
 7415TIP3    H122209   3.157   3.068   5.054
 7415TIP3    H222210   3.301   3.068   5.009
 7416TIP3   OH222211   3.320   1.613   3.053
 7416TIP3    H122212   3.289   1.632   3.142
 7416TIP3    H222213   3.318   1.698   3.008
 7417TIP3   OH222214   7.198   6.226   1.876
 7417TIP3    H122215   7.176   6.145   1.830
 7417TIP3    H222216   7.114   6.270   1.890
 7418TIP3   OH222217   1.599   4.148   1.939
 7418TIP3    H122218   1.558   4.079   1.990
 7418TIP3    H222219   1.680   4.108   1.906
 7419TIP3   OH222220   1.927   3.507   5.307
 7419TIP3    H122221   1.930   3.456   5.226
 7419TIP3    H222222   1.927   3.598   5.278
 7420TIP3   OH222223   3.126   0.080   0.084
 7420TIP3    H122224   3.164   0.081  -0.004
 7420TIP3    H222225   3.031   0.079   0.070
 7421TIP3   OH222226   2.613   3.497   1.461
 7421TIP3    H122227   2.632   3.562   1.528
 7421TIP3    H222228   2.571   3.547   1.391
 7422TIP3   OH222229   4.581   1.809   2.424
 7422TIP3    H122230   4.655   1.820   2.364
 7422TIP3    H222231   4.568   1.896   2.462
 7423TIP3   OH222232   1.885   1.191   0.501
 7423TIP3    H122233   1.880   1.098   0.478
 7423TIP3    H222234   1.795   1.213   0.525
 7424TIP3   OH222235   0.723   5.820   4.019
 7424TIP3    H122236   0.684   5.737   4.046
 7424TIP3    H222237   0.695   5.831   3.928
 7425TIP3   OH222238   4.690   1.822   4.782
 7425TIP3    H122239   4.659   1.779   4.861
 7425TIP3    H222240   4.734   1.754   4.732
 7426TIP3   OH222241   0.548   3.002   2.305
 7426TIP3    H122242   0.484   3.065   2.270
 7426TIP3    H222243   0.509   2.972   2.387
 7427TIP3   OH222244   1.780   6.691   3.928
 7427TIP3    H122245   1.834   6.741   3.989
 7427TIP3    H222246   1.723   6.756   3.887
 7428TIP3   OH222247   2.849   4.076   3.506
 7428TIP3    H122248   2.873   4.070   3.598
 7428TIP3    H222249   2.807   3.993   3.486
 7429TIP3   OH222250   6.675   0.715   1.354
 7429TIP3    H122251   6.643   0.626   1.362
 7429TIP3    H222252   6.625   0.753   1.282
 7430TIP3   OH222253   2.723   0.020   3.687
 7430TIP3    H122254   2.640   0.050   3.725
 7430TIP3    H222255   2.705   0.015   3.593
 7431TIP3   OH222256   5.480   6.278   1.583
 7431TIP3    H122257   5.543   6.349   1.596
 7431TIP3    H222258   5.459   6.248   1.672
 7432TIP3   OH222259   3.426   0.357   1.896
 7432TIP3    H122260   3.360   0.397   1.952
 7432TIP3    H222261   3.484   0.429   1.872
 7433TIP3   OH222262   2.485   1.405   0.157
 7433TIP3    H122263   2.401   1.359   0.155
 7433TIP3    H222264   2.462   1.498   0.150
 7434TIP3   OH222265   4.008   2.940   2.592
 7434TIP3    H122266   4.075   3.007   2.606
 7434TIP3    H222267   3.978   2.917   2.680
 7435TIP3   OH222268   4.621   2.579   5.446
 7435TIP3    H122269   4.633   2.585   5.540
 7435TIP3    H222270   4.599   2.488   5.430
 7436TIP3   OH222271   4.951   4.370   0.907
 7436TIP3    H122272   4.895   4.447   0.894
 7436TIP3    H222273   4.919   4.306   0.844
 7437TIP3   OH222274   5.243   3.738   0.512
 7437TIP3    H122275   5.317   3.779   0.468
 7437TIP3    H222276   5.279   3.657   0.549
 7438TIP3   OH222277   2.830   1.905   4.503
 7438TIP3    H122278   2.819   1.999   4.493
 7438TIP3    H222279   2.855   1.894   4.595
 7439TIP3   OH222280   2.084   4.684   5.670
 7439TIP3    H122281   2.094   4.649   5.758
 7439TIP3    H222282   2.158   4.743   5.658
 7440TIP3   OH222283   5.666   5.738   0.396
 7440TIP3    H122284   5.676   5.676   0.324
 7440TIP3    H222285   5.719   5.813   0.371
 7441TIP3   OH222286   4.191   4.605   4.175
 7441TIP3    H122287   4.178   4.566   4.261
 7441TIP3    H222288   4.209   4.697   4.193
 7442TIP3   OH222289   0.077   1.123   2.784
 7442TIP3    H122290   0.074   1.214   2.755
 7442TIP3    H222291   0.144   1.121   2.853
 7443TIP3   OH222292   2.502   1.373   5.233
 7443TIP3    H122293   2.557   1.347   5.307
 7443TIP3    H222294   2.424   1.412   5.273
 7444TIP3   OH222295   6.412   5.427   3.434
 7444TIP3    H122296   6.393   5.519   3.416
 7444TIP3    H222297   6.385   5.414   3.525
 7445TIP3   OH222298   2.084   2.220   3.787
 7445TIP3    H122299   2.081   2.184   3.699
 7445TIP3    H222300   2.136   2.300   3.779
 7446TIP3   OH222301   6.350   2.122   0.616
 7446TIP3    H122302   6.420   2.182   0.588
 7446TIP3    H222303   6.393   2.058   0.671
 7447TIP3   OH222304   1.273   5.993   3.874
 7447TIP3    H122305   1.356   6.028   3.842
 7447TIP3    H222306   1.213   6.068   3.871
 7448TIP3   OH222307   4.818   6.624   3.463
 7448TIP3    H122308   4.775   6.538   3.459
 7448TIP3    H222309   4.745   6.686   3.470
 7449TIP3   OH222310   2.046   2.129   3.541
 7449TIP3    H122311   1.969   2.074   3.529
 7449TIP3    H222312   2.035   2.201   3.478
 7450TIP3   OH222313   5.544   5.405   2.659
 7450TIP3    H122314   5.612   5.390   2.594
 7450TIP3    H222315   5.586   5.389   2.743
 7451TIP3   OH222316   5.502   3.863   0.143
 7451TIP3    H122317   5.512   3.947   0.098
 7451TIP3    H222318   5.572   3.809   0.105
 7452TIP3   OH222319   5.448   1.358   4.422
 7452TIP3    H122320   5.421   1.342   4.513
 7452TIP3    H222321   5.444   1.453   4.412
 7453TIP3   OH222322   4.214   2.143   3.763
 7453TIP3    H122323   4.301   2.183   3.768
 7453TIP3    H222324   4.162   2.205   3.714
 7454TIP3   OH222325   2.719   0.369   3.429
 7454TIP3    H122326   2.636   0.402   3.464
 7454TIP3    H222327   2.753   0.442   3.376
 7455TIP3   OH222328   6.486   1.592   5.661
 7455TIP3    H122329   6.493   1.639   5.578
 7455TIP3    H222330   6.405   1.542   5.653
 7456TIP3   OH222331   4.632   0.222   3.743
 7456TIP3    H122332   4.590   0.289   3.797
 7456TIP3    H222333   4.647   0.266   3.659
 7457TIP3   OH222334   3.114   3.483   4.319
 7457TIP3    H122335   3.072   3.399   4.333
 7457TIP3    H222336   3.194   3.462   4.271
 7458TIP3   OH222337   6.789   1.385   4.018
 7458TIP3    H122338   6.847   1.408   3.945
 7458TIP3    H222339   6.726   1.457   4.022
 7459TIP3   OH222340   1.594   1.023   3.971
 7459TIP3    H122341   1.599   1.115   3.997
 7459TIP3    H222342   1.526   1.020   3.904
 7460TIP3   OH222343   6.773   1.669   4.037
 7460TIP3    H122344   6.764   1.762   4.060
 7460TIP3    H222345   6.841   1.636   4.095
 7461TIP3   OH222346   4.664   4.459   0.265
 7461TIP3    H122347   4.676   4.500   0.179
 7461TIP3    H222348   4.714   4.378   0.260
 7462TIP3   OH222349   7.119   0.062   0.373
 7462TIP3    H122350   7.056   0.018   0.430
 7462TIP3    H222351   7.075   0.068   0.288
 7463TIP3   OH222352   1.245   4.136   4.352
 7463TIP3    H122353   1.204   4.189   4.420
 7463TIP3    H222354   1.176   4.075   4.325
 7464TIP3   OH222355   5.592   2.916   0.689
 7464TIP3    H122356   5.542   2.936   0.610
 7464TIP3    H222357   5.670   2.971   0.683
 7465TIP3   OH222358   4.565   0.184   5.764
 7465TIP3    H122359   4.648   0.143   5.741
 7465TIP3    H222360   4.587   0.277   5.776
 7466TIP3   OH222361   6.594   5.280   1.464
 7466TIP3    H122362   6.683   5.245   1.454
 7466TIP3    H222363   6.537   5.209   1.434
 7467TIP3   OH222364   2.548   2.064   1.254
 7467TIP3    H122365   2.603   2.123   1.202
 7467TIP3    H222366   2.523   2.116   1.330
 7468TIP3   OH222367   0.641   4.104   3.081
 7468TIP3    H122368   0.668   4.027   3.032
 7468TIP3    H222369   0.569   4.141   3.030
 7469TIP3   OH222370   7.133   6.552   0.942
 7469TIP3    H122371   7.213   6.557   0.889
 7469TIP3    H222372   7.160   6.584   1.029
 7470TIP3   OH222373   6.138   0.360   3.670
 7470TIP3    H122374   6.213   0.319   3.627
 7470TIP3    H222375   6.156   0.454   3.664
 7471TIP3   OH222376   1.915   5.037   1.946
 7471TIP3    H122377   1.870   5.107   1.898
 7471TIP3    H222378   2.007   5.064   1.948
 7472TIP3   OH222379   3.899   0.109   1.626
 7472TIP3    H122380   3.865   0.109   1.537
 7472TIP3    H222381   3.858   0.033   1.668
 7473TIP3   OH222382   3.159   4.178   5.043
 7473TIP3    H122383   3.174   4.095   4.998
 7473TIP3    H222384   3.185   4.161   5.134
 7474TIP3   OH222385   1.175   3.420   3.741
 7474TIP3    H122386   1.197   3.398   3.832
 7474TIP3    H222387   1.202   3.343   3.691
 7475TIP3   OH222388   2.466   6.499   2.836
 7475TIP3    H122389   2.419   6.417   2.825
 7475TIP3    H222390   2.495   6.499   2.927
 7476TIP3   OH222391   1.288   4.356   0.477
 7476TIP3    H122392   1.286   4.425   0.410
 7476TIP3    H222393   1.245   4.282   0.436
 7477TIP3   OH222394   6.307   1.819   2.761
 7477TIP3    H122395   6.235   1.862   2.716
 7477TIP3    H222396   6.386   1.855   2.720
 7478TIP3   OH222397   0.535   6.038   1.678
 7478TIP3    H122398   0.530   6.008   1.587
 7478TIP3    H222399   0.485   6.119   1.679
 7479TIP3   OH222400   1.352   5.401   2.085
 7479TIP3    H122401   1.275   5.391   2.029
 7479TIP3    H222402   1.411   5.331   2.058
 7480TIP3   OH222403   5.054   6.652   0.947
 7480TIP3    H122404   5.070   6.558   0.960
 7480TIP3    H222405   5.111   6.675   0.873
 7481TIP3   OH222406   4.533   5.989   1.348
 7481TIP3    H122407   4.445   6.006   1.315
 7481TIP3    H222408   4.552   6.063   1.405
 7482TIP3   OH222409   0.881   3.388   3.226
 7482TIP3    H122410   0.898   3.476   3.259
 7482TIP3    H222411   0.902   3.393   3.132
 7483TIP3   OH222412   4.157   2.783   2.271
 7483TIP3    H122413   4.198   2.717   2.215
 7483TIP3    H222414   4.223   2.852   2.279
 7484TIP3   OH222415   1.355   2.570   2.873
 7484TIP3    H122416   1.415   2.500   2.848
 7484TIP3    H222417   1.284   2.564   2.808
 7485TIP3   OH222418   2.227   0.420   5.442
 7485TIP3    H122419   2.319   0.417   5.415
 7485TIP3    H222420   2.223   0.365   5.520
 7486TIP3   OH222421   5.529   4.244   1.309
 7486TIP3    H122422   5.434   4.239   1.325
 7486TIP3    H222423   5.537   4.244   1.214
 7487TIP3   OH222424   5.659   2.497   2.628
 7487TIP3    H122425   5.754   2.486   2.621
 7487TIP3    H222426   5.648   2.565   2.695
 7488TIP3   OH222427   0.732   5.977   3.125
 7488TIP3    H122428   0.775   5.905   3.080
 7488TIP3    H222429   0.753   5.963   3.218
 7489TIP3   OH222430   0.474   5.703   0.258
 7489TIP3    H122431   0.545   5.640   0.245
 7489TIP3    H222432   0.451   5.732   0.170
 7490TIP3   OH222433   6.383   5.168   1.064
 7490TIP3    H122434   6.329   5.247   1.062
 7490TIP3    H222435   6.353   5.120   1.142
 7491TIP3   OH222436   2.210   6.358   5.090
 7491TIP3    H122437   2.249   6.412   5.021
 7491TIP3    H222438   2.148   6.415   5.134
 7492TIP3   OH222439   6.242   6.516   0.028
 7492TIP3    H122440   6.242   6.609   0.050
 7492TIP3    H222441   6.331   6.486   0.048
 7493TIP3   OH222442   0.582   6.682   2.974
 7493TIP3    H122443   0.593   6.769   2.935
 7493TIP3    H222444   0.492   6.681   3.007
 7494TIP3   OH222445   6.800   6.176   4.410
 7494TIP3    H122446   6.772   6.209   4.325
 7494TIP3    H222447   6.721   6.138   4.449
 7495TIP3   OH222448   1.292   1.628   0.391
 7495TIP3    H122449   1.198   1.610   0.393
 7495TIP3    H222450   1.299   1.722   0.407
 7496TIP3   OH222451   1.263   4.727   1.467
 7496TIP3    H122452   1.314   4.793   1.421
 7496TIP3    H222453   1.194   4.702   1.405
 7497TIP3   OH222454   3.860   5.408   4.950
 7497TIP3    H122455   3.829   5.472   5.014
 7497TIP3    H222456   3.892   5.460   4.877
 7498TIP3   OH222457   2.944   2.407   4.650
 7498TIP3    H122458   3.029   2.381   4.616
 7498TIP3    H222459   2.932   2.497   4.619
 7499TIP3   OH222460   1.743   0.159   2.911
 7499TIP3    H122461   1.697   0.241   2.927
 7499TIP3    H222462   1.674   0.097   2.885
 7500TIP3   OH222463   6.112   2.866   4.569
 7500TIP3    H122464   6.052   2.903   4.504
 7500TIP3    H222465   6.199   2.878   4.531
 7501TIP3   OH222466   3.742   2.258   4.861
 7501TIP3    H122467   3.802   2.183   4.867
 7501TIP3    H222468   3.736   2.290   4.951
 7502TIP3   OH222469   7.175   2.568   0.199
 7502TIP3    H122470   7.188   2.518   0.279
 7502TIP3    H222471   7.197   2.658   0.223
 7503TIP3   OH222472   2.964   3.863   1.083
 7503TIP3    H122473   2.880   3.827   1.112
 7503TIP3    H222474   2.940   3.930   1.019
 7504TIP3   OH222475   0.858   3.378   5.579
 7504TIP3    H122476   0.905   3.315   5.634
 7504TIP3    H222477   0.879   3.464   5.617
 7505TIP3   OH222478   0.157   4.087   1.040
 7505TIP3    H122479   0.250   4.105   1.049
 7505TIP3    H222480   0.131   4.132   0.960
 7506TIP3   OH222481   6.076   3.191   0.805
 7506TIP3    H122482   6.097   3.145   0.887
 7506TIP3    H222483   6.013   3.134   0.761
 7507TIP3   OH222484   5.815   5.908   5.717
 7507TIP3    H122485   5.740   5.896   5.776
 7507TIP3    H222486   5.799   5.992   5.674
 7508TIP3   OH222487   6.706   0.787   2.454
 7508TIP3    H122488   6.703   0.883   2.453
 7508TIP3    H222489   6.635   0.761   2.513
 7509TIP3   OH222490   6.174   0.960   0.330
 7509TIP3    H122491   6.086   0.955   0.368
 7509TIP3    H222492   6.190   0.872   0.297
 7510TIP3   OH222493   2.530   6.777   4.652
 7510TIP3    H122494   2.611   6.801   4.606
 7510TIP3    H222495   2.463   6.832   4.612
 7511TIP3   OH222496   0.935   2.905   1.990
 7511TIP3    H122497   0.896   2.961   1.924
 7511TIP3    H222498   0.899   2.935   2.073
 7512TIP3   OH222499   3.359   1.258   0.707
 7512TIP3    H122500   3.445   1.287   0.675
 7512TIP3    H222501   3.370   1.165   0.724
 7513TIP3   OH222502   7.126   4.263   5.518
 7513TIP3    H122503   7.197   4.279   5.456
 7513TIP3    H222504   7.131   4.169   5.536
 7514TIP3   OH222505   6.599   6.438   3.064
 7514TIP3    H122506   6.685   6.459   3.099
 7514TIP3    H222507   6.541   6.504   3.103
 7515TIP3   OH222508   1.868   4.661   0.103
 7515TIP3    H122509   1.877   4.594   0.171
 7515TIP3    H222510   1.874   4.612   0.021
 7516TIP3   OH222511   1.994   4.677   5.214
 7516TIP3    H122512   1.998   4.742   5.285
 7516TIP3    H222513   2.065   4.702   5.155
 7517TIP3   OH222514   0.400   5.640   0.750
 7517TIP3    H122515   0.316   5.602   0.725
 7517TIP3    H222516   0.378   5.727   0.782
 7518TIP3   OH222517   0.860   1.385   2.332
 7518TIP3    H122518   0.905   1.355   2.253
 7518TIP3    H222519   0.927   1.382   2.401
 7519TIP3   OH222520   1.161   5.574   0.761
 7519TIP3    H122521   1.242   5.523   0.770
 7519TIP3    H222522   1.104   5.519   0.707
 7520TIP3   OH222523   7.127   2.201   2.160
 7520TIP3    H122524   7.189   2.169   2.095
 7520TIP3    H222525   7.041   2.191   2.118
 7521TIP3   OH222526   3.270   1.356   5.724
 7521TIP3    H122527   3.228   1.406   5.654
 7521TIP3    H222528   3.337   1.415   5.759
 7522TIP3   OH222529   2.570   6.769   0.173
 7522TIP3    H122530   2.496   6.724   0.133
 7522TIP3    H222531   2.628   6.790   0.099
 7523TIP3   OH222532   0.976   1.401   0.664
 7523TIP3    H122533   1.060   1.416   0.708
 7523TIP3    H222534   0.996   1.336   0.596
 7524TIP3   OH222535   1.009   4.231   4.186
 7524TIP3    H122536   1.103   4.224   4.168
 7524TIP3    H222537   0.994   4.325   4.198
 7525TIP3   OH222538   0.216   0.897   3.640
 7525TIP3    H122539   0.274   0.914   3.715
 7525TIP3    H222540   0.275   0.899   3.564
 7526TIP3   OH222541   2.010   5.164   1.423
 7526TIP3    H122542   1.963   5.116   1.356
 7526TIP3    H222543   2.049   5.096   1.478
 7527TIP3   OH222544   0.720   1.387   0.787
 7527TIP3    H122545   0.667   1.435   0.723
 7527TIP3    H222546   0.810   1.397   0.755
 7528TIP3   OH222547   1.729   3.155   1.121
 7528TIP3    H122548   1.700   3.245   1.136
 7528TIP3    H222549   1.729   3.145   1.026
 7529TIP3   OH222550   0.013   3.009   1.456
 7529TIP3    H122551  -0.034   3.081   1.413
 7529TIP3    H222552   0.093   3.048   1.490
 7530TIP3   OH222553   7.033   1.533   0.344
 7530TIP3    H122554   7.059   1.529   0.252
 7530TIP3    H222555   7.082   1.462   0.385
 7531TIP3   OH222556   1.884   3.527   3.166
 7531TIP3    H122557   1.954   3.533   3.102
 7531TIP3    H222558   1.808   3.565   3.122
 7532TIP3   OH222559   0.495   0.409   4.866
 7532TIP3    H122560   0.555   0.469   4.822
 7532TIP3    H222561   0.523   0.322   4.837
 7533TIP3   OH222562   4.219   1.687   3.058
 7533TIP3    H122563   4.166   1.764   3.080
 7533TIP3    H222564   4.288   1.721   3.001
 7534TIP3   OH222565   4.120   0.625   3.765
 7534TIP3    H122566   4.155   0.685   3.832
 7534TIP3    H222567   4.040   0.591   3.804
 7535TIP3   OH222568   1.469   3.001   2.745
 7535TIP3    H122569   1.494   2.931   2.806
 7535TIP3    H222570   1.435   3.070   2.801
 7536TIP3   OH222571  -0.014   4.332   0.285
 7536TIP3    H122572   0.026   4.419   0.290
 7536TIP3    H222573   0.040   4.284   0.222
 7537TIP3   OH222574   1.986   0.394   5.262
 7537TIP3    H122575   1.919   0.332   5.290
 7537TIP3    H222576   2.067   0.364   5.304
 7538TIP3   OH222577   4.209   4.546   0.771
 7538TIP3    H122578   4.250   4.614   0.823
 7538TIP3    H222579   4.117   4.572   0.765
 7539TIP3   OH222580   2.370   5.202   0.893
 7539TIP3    H122581   2.287   5.155   0.892
 7539TIP3    H222582   2.436   5.134   0.897
 7540TIP3   OH222583   0.061   2.364   4.544
 7540TIP3    H122584   0.141   2.346   4.592
 7540TIP3    H222585   0.081   2.337   4.454
 7541TIP3   OH222586   5.904   2.271   2.306
 7541TIP3    H122587   5.914   2.209   2.233
 7541TIP3    H222588   5.970   2.338   2.288
 7542TIP3   OH222589   3.170   4.457   0.370
 7542TIP3    H122590   3.250   4.438   0.321
 7542TIP3    H222591   3.177   4.405   0.450
 7543TIP3   OH222592   3.224   5.108   1.054
 7543TIP3    H122593   3.303   5.055   1.068
 7543TIP3    H222594   3.152   5.050   1.077
 7544TIP3   OH222595   3.743   5.050   2.115
 7544TIP3    H122596   3.739   5.039   2.210
 7544TIP3    H222597   3.814   4.993   2.087
 7545TIP3   OH222598   3.868   6.014   5.607
 7545TIP3    H122599   3.810   5.969   5.669
 7545TIP3    H222600   3.847   6.107   5.619
 7546TIP3   OH222601   2.786   2.061   1.621
 7546TIP3    H122602   2.783   2.139   1.676
 7546TIP3    H222603   2.759   1.990   1.679
 7547TIP3   OH222604   5.172   2.974   5.355
 7547TIP3    H122605   5.214   3.048   5.312
 7547TIP3    H222606   5.089   3.008   5.387
 7548TIP3   OH222607   4.226   5.262   0.364
 7548TIP3    H122608   4.270   5.243   0.281
 7548TIP3    H222609   4.195   5.177   0.395
 7549TIP3   OH222610   0.148   1.642   2.474
 7549TIP3    H122611   0.242   1.628   2.462
 7549TIP3    H222612   0.129   1.721   2.423
 7550TIP3   OH222613   0.536   2.366   5.493
 7550TIP3    H122614   0.623   2.365   5.453
 7550TIP3    H222615   0.488   2.434   5.445
 7551TIP3   OH222616   7.145   3.433   4.446
 7551TIP3    H122617   7.234   3.398   4.453
 7551TIP3    H222618   7.088   3.358   4.462
 7552TIP3   OH222619   4.213   6.341   0.342
 7552TIP3    H122620   4.203   6.246   0.332
 7552TIP3    H222621   4.307   6.356   0.342
 7553TIP3   OH222622   6.785   4.580   3.951
 7553TIP3    H122623   6.794   4.549   3.861
 7553TIP3    H222624   6.708   4.636   3.950
 7554TIP3   OH222625   1.419   6.697   4.242
 7554TIP3    H122626   1.466   6.781   4.240
 7554TIP3    H222627   1.420   6.667   4.151
 7555TIP3   OH222628   6.063   6.486   4.021
 7555TIP3    H122629   6.141   6.430   4.014
 7555TIP3    H222630   6.059   6.531   3.936
 7556TIP3   OH222631   1.113   3.876   5.110
 7556TIP3    H122632   1.187   3.853   5.167
 7556TIP3    H222633   1.101   3.799   5.053
 7557TIP3   OH222634   6.398   2.377   0.461
 7557TIP3    H122635   6.425   2.334   0.380
 7557TIP3    H222636   6.434   2.466   0.454
 7558TIP3   OH222637   6.238   3.154   5.311
 7558TIP3    H122638   6.200   3.068   5.329
 7558TIP3    H222639   6.328   3.148   5.343
 7559TIP3   OH222640   3.289   4.897   5.298
 7559TIP3    H122641   3.358   4.941   5.249
 7559TIP3    H222642   3.243   4.844   5.233
 7560TIP3   OH222643   6.627   2.886   2.635
 7560TIP3    H122644   6.709   2.861   2.678
 7560TIP3    H222645   6.621   2.981   2.650
 7561TIP3   OH222646   5.569   0.968   4.783
 7561TIP3    H122647   5.659   0.949   4.756
 7561TIP3    H222648   5.517   0.902   4.738
 7562TIP3   OH222649   6.769   0.898   3.253
 7562TIP3    H122650   6.822   0.918   3.330
 7562TIP3    H222651   6.786   0.970   3.193
 7563TIP3   OH222652   5.041   1.242   0.855
 7563TIP3    H122653   4.970   1.271   0.911
 7563TIP3    H222654   4.998   1.197   0.782
 7564TIP3   OH222655   3.293   0.986   2.061
 7564TIP3    H122656   3.230   1.006   1.992
 7564TIP3    H222657   3.305   0.891   2.055
 7565TIP3   OH222658   0.640   4.466   5.604
 7565TIP3    H122659   0.725   4.425   5.587
 7565TIP3    H222660   0.661   4.545   5.654
 7566TIP3   OH222661   6.052   6.368   5.568
 7566TIP3    H122662   6.137   6.345   5.607
 7566TIP3    H222663   5.989   6.315   5.617
 7567TIP3   OH222664   5.760   5.689   1.945
 7567TIP3    H122665   5.810   5.701   1.865
 7567TIP3    H222666   5.690   5.628   1.921
 7568TIP3   OH222667   3.231   5.550   4.809
 7568TIP3    H122668   3.201   5.467   4.844
 7568TIP3    H222669   3.164   5.575   4.745
 7569TIP3   OH222670   2.338   2.086   5.180
 7569TIP3    H122671   2.333   2.072   5.086
 7569TIP3    H222672   2.391   2.165   5.190
 7570TIP3   OH222673   2.417   3.397   1.832
 7570TIP3    H122674   2.350   3.428   1.770
 7570TIP3    H222675   2.429   3.470   1.893
 7571TIP3   OH222676   5.036   6.525   3.737
 7571TIP3    H122677   5.068   6.541   3.826
 7571TIP3    H222678   4.943   6.507   3.748
 7572TIP3   OH222679   4.445   5.969  -0.015
 7572TIP3    H122680   4.519   5.955   0.044
 7572TIP3    H222681   4.402   5.884  -0.021
 7573TIP3   OH222682   6.465   4.646   0.165
 7573TIP3    H122683   6.495   4.586   0.233
 7573TIP3    H222684   6.445   4.590   0.090
 7574TIP3   OH222685   3.922   2.194   4.525
 7574TIP3    H122686   3.946   2.114   4.571
 7574TIP3    H222687   3.974   2.263   4.567
 7575TIP3   OH222688   4.498   1.137   2.670
 7575TIP3    H122689   4.518   1.192   2.746
 7575TIP3    H222690   4.430   1.186   2.623
 7576TIP3   OH222691   6.143   5.010   4.310
 7576TIP3    H122692   6.051   5.017   4.336
 7576TIP3    H222693   6.183   4.959   4.380
 7577TIP3   OH222694   0.101   0.609   0.440
 7577TIP3    H122695   0.131   0.555   0.367
 7577TIP3    H222696   0.078   0.547   0.509
 7578TIP3   OH222697   1.360   6.690   1.715
 7578TIP3    H122698   1.312   6.659   1.792
 7578TIP3    H222699   1.338   6.627   1.647
 7579TIP3   OH222700   2.047   3.122   0.046
 7579TIP3    H122701   2.006   3.079  -0.029
 7579TIP3    H222702   2.141   3.112   0.031
 7580TIP3   OH222703   0.874   3.577   0.912
 7580TIP3    H122704   0.843   3.512   0.848
 7580TIP3    H222705   0.808   3.646   0.910
 7581TIP3   OH222706   4.080   0.863   1.545
 7581TIP3    H122707   4.128   0.786   1.575
 7581TIP3    H222708   3.988   0.844   1.562
 7582TIP3   OH222709   5.205   4.450   2.015
 7582TIP3    H122710   5.216   4.384   2.083
 7582TIP3    H222711   5.292   4.489   2.005
 7583TIP3   OH222712   5.427   5.660   4.998
 7583TIP3    H122713   5.461   5.643   4.910
 7583TIP3    H222714   5.499   5.706   5.043
 7584TIP3   OH222715   3.832   6.152   2.296
 7584TIP3    H122716   3.831   6.246   2.313
 7584TIP3    H222717   3.919   6.135   2.260
 7585TIP3   OH222718   3.756   3.152   2.472
 7585TIP3    H122719   3.670   3.185   2.444
 7585TIP3    H222720   3.788   3.218   2.533
 7586TIP3   OH222721   4.616   2.323   0.982
 7586TIP3    H122722   4.534   2.307   0.936
 7586TIP3    H222723   4.656   2.236   0.989
 7587TIP3   OH222724   4.603   4.315   0.996
 7587TIP3    H122725   4.585   4.402   1.030
 7587TIP3    H222726   4.616   4.260   1.073
 7588TIP3   OH222727   3.869   3.430   4.460
 7588TIP3    H122728   3.856   3.519   4.429
 7588TIP3    H222729   3.791   3.383   4.430
 7589TIP3   OH222730   4.849   1.384   1.009
 7589TIP3    H122731   4.790   1.379   0.935
 7589TIP3    H222732   4.846   1.476   1.036
 7590TIP3   OH222733   6.078   6.754   5.848
 7590TIP3    H122734   6.099   6.695   5.920
 7590TIP3    H222735   6.061   6.696   5.773
 7591TIP3   OH222736   4.598   4.004   2.847
 7591TIP3    H122737   4.668   3.948   2.879
 7591TIP3    H222738   4.642   4.072   2.797
 7592TIP3   OH222739   2.152   4.478   3.734
 7592TIP3    H122740   2.166   4.426   3.813
 7592TIP3    H222741   2.182   4.421   3.663
 7593TIP3   OH222742   1.358   0.816   1.072
 7593TIP3    H122743   1.359   0.877   0.998
 7593TIP3    H222744   1.284   0.758   1.055
 7594TIP3   OH222745   5.121   2.192   5.273
 7594TIP3    H122746   5.088   2.102   5.270
 7594TIP3    H222747   5.201   2.189   5.220
 7595TIP3   OH222748   5.427   4.043   3.711
 7595TIP3    H122749   5.335   4.014   3.710
 7595TIP3    H222750   5.452   4.046   3.619
 7596TIP3   OH222751   2.952   0.742   0.876
 7596TIP3    H122752   3.005   0.664   0.859
 7596TIP3    H222753   2.944   0.785   0.791
 7597TIP3   OH222754   5.957   5.137   3.988
 7597TIP3    H122755   5.958   5.050   3.948
 7597TIP3    H222756   5.888   5.133   4.054
 7598TIP3   OH222757   3.892   0.231   0.897
 7598TIP3    H122758   3.835   0.235   0.820
 7598TIP3    H222759   3.837   0.266   0.968
 7599TIP3   OH222760   6.215   4.408   2.390
 7599TIP3    H122761   6.271   4.332   2.373
 7599TIP3    H222762   6.276   4.481   2.403
 7600TIP3   OH222763   0.785   3.696   1.145
 7600TIP3    H122764   0.773   3.646   1.225
 7600TIP3    H222765   0.804   3.785   1.174
 7601TIP3   OH222766   0.586   0.269   4.189
 7601TIP3    H122767   0.514   0.326   4.163
 7601TIP3    H222768   0.547   0.181   4.194
 7602TIP3   OH222769   6.907   0.944   2.175
 7602TIP3    H122770   6.964   0.940   2.252
 7602TIP3    H222771   6.870   0.856   2.168
 7603TIP3   OH222772   1.450   2.613   1.227
 7603TIP3    H122773   1.356   2.608   1.247
 7603TIP3    H222774   1.491   2.554   1.291
 7604TIP3   OH222775   3.405   2.365   2.225
 7604TIP3    H122776   3.382   2.438   2.283
 7604TIP3    H222777   3.322   2.342   2.183
 7605TIP3   OH222778   7.001   3.353   4.912
 7605TIP3    H122779   6.929   3.416   4.905
 7605TIP3    H222780   7.078   3.400   4.879
 7606TIP3   OH222781   0.100   5.406   2.713
 7606TIP3    H122782   0.139   5.357   2.785
 7606TIP3    H222783   0.142   5.491   2.716
 7607TIP3   OH222784   4.434   4.194   2.527
 7607TIP3    H122785   4.447   4.263   2.591
 7607TIP3    H222786   4.397   4.121   2.578
 7608TIP3   OH222787   0.084   2.225   2.421
 7608TIP3    H122788   0.052   2.164   2.487
 7608TIP3    H222789   0.035   2.200   2.341
 7609TIP3   OH222790   6.464   1.389   5.856
 7609TIP3    H122791   6.545   1.368   5.903
 7609TIP3    H222792   6.487   1.464   5.802
 7610TIP3   OH222793   0.113   1.172   4.322
 7610TIP3    H122794   0.134   1.135   4.236
 7610TIP3    H222795   0.019   1.159   4.331
 7611TIP3   OH222796   3.349   6.644   2.230
 7611TIP3    H122797   3.330   6.732   2.263
 7611TIP3    H222798   3.386   6.659   2.143
 7612TIP3   OH222799   2.399   2.579   0.186
 7612TIP3    H122800   2.375   2.508   0.245
 7612TIP3    H222801   2.390   2.658   0.238
 7613TIP3   OH222802   0.228   1.070   0.744
 7613TIP3    H122803   0.203   0.988   0.701
 7613TIP3    H222804   0.157   1.087   0.805
 7614TIP3   OH222805   1.069   5.924   2.771
 7614TIP3    H122806   1.069   5.936   2.676
 7614TIP3    H222807   1.147   5.870   2.788
 7615TIP3   OH222808   4.663   0.649   3.436
 7615TIP3    H122809   4.614   0.579   3.478
 7615TIP3    H222810   4.614   0.669   3.356
 7616TIP3   OH222811   3.160   6.412   2.337
 7616TIP3    H122812   3.195   6.366   2.413
 7616TIP3    H222813   3.219   6.487   2.324
 7617TIP3   OH222814   0.850   5.155   3.860
 7617TIP3    H122815   0.800   5.090   3.908
 7617TIP3    H222816   0.850   5.124   3.770
 7618TIP3   OH222817   1.480   6.371   4.283
 7618TIP3    H122818   1.430   6.395   4.361
 7618TIP3    H222819   1.516   6.284   4.303
 7619TIP3   OH222820   6.529   2.643   4.553
 7619TIP3    H122821   6.442   2.683   4.550
 7619TIP3    H222822   6.577   2.694   4.619
 7620TIP3   OH222823   3.256   6.560   0.310
 7620TIP3    H122824   3.187   6.494   0.300
 7620TIP3    H222825   3.211   6.644   0.295
 7621TIP3   OH222826   3.791   5.297   2.021
 7621TIP3    H122827   3.767   5.210   2.050
 7621TIP3    H222828   3.764   5.300   1.929
 7622TIP3   OH222829   0.203   0.399   5.618
 7622TIP3    H122830   0.221   0.411   5.712
 7622TIP3    H222831   0.260   0.463   5.575
 7623TIP3   OH222832   1.651   1.703   0.154
 7623TIP3    H122833   1.706   1.688   0.077
 7623TIP3    H222834   1.571   1.652   0.136
 7624TIP3   OH222835   0.186   3.704   5.057
 7624TIP3    H122836   0.252   3.646   5.095
 7624TIP3    H222837   0.104   3.655   5.062
 7625TIP3   OH222838   2.270   1.548   0.263
 7625TIP3    H122839   2.239   1.523   0.350
 7625TIP3    H222840   2.236   1.480   0.205
 7626TIP3   OH222841   6.487   1.009   2.200
 7626TIP3    H122842   6.518   1.081   2.255
 7626TIP3    H222843   6.564   0.955   2.185
 7627TIP3   OH222844   4.332   3.211   3.183
 7627TIP3    H122845   4.238   3.210   3.201
 7627TIP3    H222846   4.353   3.304   3.172
 7628TIP3   OH222847   3.694   4.112   0.499
 7628TIP3    H122848   3.663   4.152   0.581
 7628TIP3    H222849   3.615   4.104   0.446
 7629TIP3   OH222850   0.703   3.788   2.402
 7629TIP3    H122851   0.624   3.811   2.450
 7629TIP3    H222852   0.765   3.858   2.424
 7630TIP3   OH222853   1.488   2.646   5.176
 7630TIP3    H122854   1.494   2.591   5.254
 7630TIP3    H222855   1.546   2.604   5.113
 7631TIP3   OH222856   6.163   0.172   2.206
 7631TIP3    H122857   6.157   0.239   2.139
 7631TIP3    H222858   6.244   0.125   2.186
 7632TIP3   OH222859   2.151   1.943   1.407
 7632TIP3    H122860   2.141   1.946   1.312
 7632TIP3    H222861   2.145   2.035   1.434
 7633TIP3   OH222862   2.635   2.168   4.945
 7633TIP3    H122863   2.719   2.213   4.948
 7633TIP3    H222864   2.657   2.075   4.939
 7634TIP3   OH222865   2.462   4.234   0.183
 7634TIP3    H122866   2.495   4.144   0.186
 7634TIP3    H222867   2.468   4.264   0.274
 7635TIP3   OH222868   0.273   6.654   4.154
 7635TIP3    H122869   0.271   6.562   4.129
 7635TIP3    H222870   0.182   6.676   4.174
 7636TIP3   OH222871   1.144   1.015   3.385
 7636TIP3    H122872   1.224   0.986   3.429
 7636TIP3    H222873   1.080   0.947   3.405
 7637TIP3   OH222874   3.587   5.301   3.799
 7637TIP3    H122875   3.662   5.361   3.804
 7637TIP3    H222876   3.511   5.359   3.794
 7638TIP3   OH222877   6.155   6.418   1.656
 7638TIP3    H122878   6.123   6.329   1.641
 7638TIP3    H222879   6.245   6.417   1.624
 7639TIP3   OH222880   7.151   2.969   4.556
 7639TIP3    H122881   7.169   3.019   4.635
 7639TIP3    H222882   7.230   2.916   4.542
 7640TIP3   OH222883   5.425   0.027   4.201
 7640TIP3    H122884   5.506   0.069   4.230
 7640TIP3    H222885   5.426   0.036   4.106
 7641TIP3   OH222886   4.752   4.947   2.548
 7641TIP3    H122887   4.742   4.853   2.532
 7641TIP3    H222888   4.679   4.987   2.501
 7642TIP3   OH222889   7.062   4.043   0.816
 7642TIP3    H122890   7.039   4.134   0.836
 7642TIP3    H222891   7.006   3.991   0.874
 7643TIP3   OH222892   2.360   0.732   0.217
 7643TIP3    H122893   2.399   0.747   0.303
 7643TIP3    H222894   2.354   0.637   0.210
 7644TIP3   OH222895   6.966   2.171   5.754
 7644TIP3    H122896   7.015   2.205   5.828
 7644TIP3    H222897   7.033   2.140   5.693
 7645TIP3   OH222898   2.259   5.072   1.734
 7645TIP3    H122899   2.259   5.149   1.678
 7645TIP3    H222900   2.347   5.068   1.770
 7646TIP3   OH222901   6.334   4.196   5.213
 7646TIP3    H122902   6.268   4.189   5.281
 7646TIP3    H222903   6.314   4.125   5.152
 7647TIP3   OH222904   3.799   4.074   1.912
 7647TIP3    H122905   3.724   4.025   1.877
 7647TIP3    H222906   3.791   4.161   1.872
 7648TIP3   OH222907   6.969   4.290   0.858
 7648TIP3    H122908   6.986   4.352   0.929
 7648TIP3    H222909   6.945   4.345   0.783
 7649TIP3   OH222910   3.925   4.839   0.108
 7649TIP3    H122911   4.007   4.799   0.139
 7649TIP3    H222912   3.922   4.817   0.015
 7650TIP3   OH222913   2.883   4.192   5.930
 7650TIP3    H122914   2.903   4.241   5.850
 7650TIP3    H222915   2.911   4.103   5.911
 7651TIP3   OH222916   4.631   6.408   5.410
 7651TIP3    H122917   4.552   6.382   5.362
 7651TIP3    H222918   4.667   6.326   5.442
 7652TIP3   OH222919   0.466   2.067   5.662
 7652TIP3    H122920   0.550   2.029   5.688
 7652TIP3    H222921   0.487   2.123   5.587
 7653TIP3   OH222922   2.893   4.391   4.510
 7653TIP3    H122923   2.842   4.460   4.553
 7653TIP3    H222924   2.956   4.362   4.576
 7654TIP3   OH222925   2.722   1.063   0.842
 7654TIP3    H122926   2.642   1.054   0.791
 7654TIP3    H222927   2.692   1.090   0.929
 7655TIP3   OH222928   5.087   2.436   0.224
 7655TIP3    H122929   5.038   2.502   0.175
 7655TIP3    H222930   5.131   2.486   0.293
 7656TIP3   OH222931   2.733   6.122   5.194
 7656TIP3    H122932   2.675   6.065   5.144
 7656TIP3    H222933   2.789   6.163   5.128
 7657TIP3   OH222934   6.162   6.098   2.976
 7657TIP3    H122935   6.113   6.023   3.011
 7657TIP3    H222936   6.246   6.094   3.020
 7658TIP3   OH222937   3.931   5.731   3.291
 7658TIP3    H122938   3.906   5.773   3.373
 7658TIP3    H222939   3.927   5.800   3.225
 7659TIP3   OH222940   0.637   0.836   5.654
 7659TIP3    H122941   0.697   0.807   5.586
 7659TIP3    H222942   0.550   0.815   5.620
 7660TIP3   OH222943   2.462   5.851   5.394
 7660TIP3    H122944   2.524   5.832   5.464
 7660TIP3    H222945   2.391   5.899   5.436
 7661TIP3   OH222946   5.530   4.842   2.721
 7661TIP3    H122947   5.451   4.870   2.676
 7661TIP3    H222948   5.529   4.891   2.804
 7662TIP3   OH222949   3.000   1.668   0.122
 7662TIP3    H122950   3.010   1.619   0.203
 7662TIP3    H222951   2.908   1.656   0.098
 7663TIP3   OH222952   5.005   6.710   1.226
 7663TIP3    H122953   5.024   6.699   1.133
 7663TIP3    H222954   4.951   6.634   1.248
 7664TIP3   OH222955   7.139   3.617   1.907
 7664TIP3    H122956   7.127   3.672   1.984
 7664TIP3    H222957   7.119   3.675   1.833
 7665TIP3   OH222958   2.221   2.530   3.222
 7665TIP3    H122959   2.137   2.567   3.247
 7665TIP3    H222960   2.258   2.593   3.160
 7666TIP3   OH222961   6.766   0.527   3.675
 7666TIP3    H122962   6.786   0.568   3.591
 7666TIP3    H222963   6.672   0.513   3.673
 7667TIP3   OH222964   5.333   2.988   4.730
 7667TIP3    H122965   5.279   2.970   4.807
 7667TIP3    H222966   5.394   3.056   4.757
 7668TIP3   OH222967   3.862   2.860   0.477
 7668TIP3    H122968   3.838   2.782   0.427
 7668TIP3    H222969   3.883   2.826   0.565
 7669TIP3   OH222970   0.382   4.568   2.124
 7669TIP3    H122971   0.470   4.532   2.135
 7669TIP3    H222972   0.394   4.663   2.129
 7670TIP3   OH222973   0.746   0.576   2.388
 7670TIP3    H122974   0.688   0.541   2.321
 7670TIP3    H222975   0.750   0.670   2.371
 7671TIP3   OH222976   3.760   4.975   0.999
 7671TIP3    H122977   3.781   4.927   1.079
 7671TIP3    H222978   3.813   5.055   1.005
 7672TIP3   OH222979   6.834   4.698   3.093
 7672TIP3    H122980   6.838   4.668   3.003
 7672TIP3    H222981   6.846   4.793   3.088
 7673TIP3   OH222982   0.518   2.243   4.488
 7673TIP3    H122983   0.486   2.220   4.401
 7673TIP3    H222984   0.486   2.332   4.504
 7674TIP3   OH222985   4.289   1.836   1.806
 7674TIP3    H122986   4.218   1.872   1.754
 7674TIP3    H222987   4.260   1.848   1.897
 7675TIP3   OH222988   4.268   5.264   5.472
 7675TIP3    H122989   4.357   5.299   5.475
 7675TIP3    H222990   4.269   5.189   5.532
 7676TIP3   OH222991   6.230   2.359   0.939
 7676TIP3    H122992   6.202   2.322   0.856
 7676TIP3    H222993   6.311   2.407   0.918
 7677TIP3   OH222994   1.301   1.941   3.904
 7677TIP3    H122995   1.352   2.017   3.932
 7677TIP3    H222996   1.367   1.881   3.867
 7678TIP3   OH222997   2.277  -0.011   0.331
 7678TIP3    H122998   2.326  -0.045   0.256
 7678TIP3    H222999   2.296   0.083   0.331
 7679TIP3   OH223000   6.385   0.236   2.825
 7679TIP3    H123001   6.399   0.145   2.848
 7679TIP3    H223002   6.309   0.235   2.767
 7680TIP3   OH223003   5.885   4.903   5.813
 7680TIP3    H123004   5.798   4.864   5.813
 7680TIP3    H223005   5.870   4.995   5.791
 7681TIP3   OH223006   7.205   6.470   1.514
 7681TIP3    H123007   7.220   6.526   1.590
 7681TIP3    H223008   7.207   6.530   1.439
 7682TIP3   OH223009   0.464   3.199   3.954
 7682TIP3    H123010   0.473   3.238   4.041
 7682TIP3    H223011   0.400   3.256   3.910
 7683TIP3   OH223012   3.352   0.075   0.913
 7683TIP3    H123013   3.361   0.132   0.836
 7683TIP3    H223014   3.369  -0.013   0.879
 7684TIP3   OH223015   4.232   3.450   3.355
 7684TIP3    H123016   4.318   3.466   3.317
 7684TIP3    H223017   4.250   3.396   3.432
 7685TIP3   OH223018   3.262   4.060   4.191
 7685TIP3    H123019   3.285   4.152   4.179
 7685TIP3    H223020   3.215   4.036   4.111
 7686TIP3   OH223021   1.825   3.918   3.129
 7686TIP3    H123022   1.896   3.965   3.085
 7686TIP3    H223023   1.805   3.846   3.069
 7687TIP3   OH223024   2.347   4.548   3.171
 7687TIP3    H123025   2.402   4.471   3.155
 7687TIP3    H223026   2.292   4.555   3.093
 7688TIP3   OH223027   2.176   1.251   0.979
 7688TIP3    H123028   2.255   1.203   1.007
 7688TIP3    H223029   2.160   1.313   1.050
 7689TIP3   OH223030   7.122   4.643   3.946
 7689TIP3    H123031   7.127   4.577   3.877
 7689TIP3    H223032   7.195   4.702   3.927
 7690TIP3   OH223033   3.773   0.677   0.499
 7690TIP3    H123034   3.832   0.697   0.426
 7690TIP3    H223035   3.811   0.724   0.574
 7691TIP3   OH223036   4.668   1.545   4.878
 7691TIP3    H123037   4.712   1.493   4.810
 7691TIP3    H223038   4.580   1.509   4.883
 7692TIP3   OH223039   5.069   3.584   5.667
 7692TIP3    H123040   5.072   3.624   5.580
 7692TIP3    H223041   5.159   3.589   5.699
 7693TIP3   OH223042   4.350   3.779   2.926
 7693TIP3    H123043   4.441   3.793   2.954
 7693TIP3    H223044   4.299   3.787   3.006
 7694TIP3   OH223045   4.278   5.767   0.169
 7694TIP3    H123046   4.334   5.695   0.199
 7694TIP3    H223047   4.189   5.736   0.186
 7695TIP3   OH223048   3.015   4.721   3.238
 7695TIP3    H123049   3.050   4.649   3.186
 7695TIP3    H223050   3.033   4.697   3.329
 7696TIP3   OH223051   7.096   0.156   2.482
 7696TIP3    H123052   7.017   0.163   2.536
 7696TIP3    H223053   7.163   0.200   2.534
 7697TIP3   OH223054   2.056   6.422   1.015
 7697TIP3    H123055   2.040   6.337   1.056
 7697TIP3    H223056   2.005   6.484   1.067
 7698TIP3   OH223057   2.617   1.581   5.525
 7698TIP3    H123058   2.542   1.621   5.568
 7698TIP3    H223059   2.639   1.641   5.454
 7699TIP3   OH223060   1.447   0.817   3.335
 7699TIP3    H123061   1.410   0.754   3.396
 7699TIP3    H223062   1.434   0.902   3.377
 7700TIP3   OH223063   3.123   0.333   0.577
 7700TIP3    H123064   3.054   0.274   0.605
 7700TIP3    H223065   3.084   0.385   0.506
 7701TIP3   OH223066   4.822   4.605   0.861
 7701TIP3    H123067   4.791   4.669   0.925
 7701TIP3    H223068   4.848   4.658   0.786
 7702TIP3   OH223069   6.207   2.080   1.045
 7702TIP3    H123070   6.153   2.042   0.975
 7702TIP3    H223071   6.234   2.165   1.010
 7703TIP3   OH223072   4.330   4.393   1.762
 7703TIP3    H123073   4.373   4.334   1.824
 7703TIP3    H223074   4.391   4.401   1.689
 7704TIP3   OH223075   3.224   5.063   1.560
 7704TIP3    H123076   3.245   5.039   1.651
 7704TIP3    H223077   3.137   5.102   1.565
 7705TIP3   OH223078   4.349   4.480   3.748
 7705TIP3    H123079   4.278   4.508   3.805
 7705TIP3    H223080   4.387   4.561   3.713
 7706TIP3   OH223081   1.053   0.242   5.215
 7706TIP3    H123082   1.004   0.319   5.188
 7706TIP3    H223083   1.135   0.247   5.166
 7707TIP3   OH223084   0.335   3.393   3.364
 7707TIP3    H123085   0.262   3.376   3.424
 7707TIP3    H223086   0.406   3.423   3.421
 7708TIP3   OH223087   6.401   3.513   5.581
 7708TIP3    H123088   6.472   3.576   5.572
 7708TIP3    H223089   6.422   3.464   5.660
 7709TIP3   OH223090   5.168   5.636   5.080
 7709TIP3    H123091   5.152   5.542   5.092
 7709TIP3    H223092   5.234   5.641   5.012
 7710TIP3   OH223093   0.493   4.102   5.370
 7710TIP3    H123094   0.520   4.059   5.289
 7710TIP3    H223095   0.502   4.196   5.352
 7711TIP3   OH223096   0.419   0.719   0.689
 7711TIP3    H123097   0.447   0.712   0.780
 7711TIP3    H223098   0.480   0.782   0.650
 7712TIP3   OH223099   2.841   1.410   0.822
 7712TIP3    H123100   2.932   1.403   0.852
 7712TIP3    H223101   2.830   1.338   0.760
 7713TIP3   OH223102   4.719   6.386   4.593
 7713TIP3    H123103   4.775   6.334   4.650
 7713TIP3    H223104   4.703   6.467   4.642
 7714TIP3   OH223105   6.724   3.351   1.953
 7714TIP3    H123106   6.818   3.364   1.964
 7714TIP3    H223107   6.696   3.424   1.898
 7715TIP3   OH223108   0.903   5.607   3.058
 7715TIP3    H123109   0.874   5.691   3.023
 7715TIP3    H223110   0.879   5.610   3.151
 7716TIP3   OH223111   0.048   4.551   5.444
 7716TIP3    H123112   0.089   4.491   5.382
 7716TIP3    H223113   0.084   4.527   5.529
 7717TIP3   OH223114   5.440   4.624   1.996
 7717TIP3    H123115   5.517   4.580   1.960
 7717TIP3    H223116   5.475   4.686   2.060
 7718TIP3   OH223117   1.224   2.604   5.361
 7718TIP3    H123118   1.264   2.622   5.275
 7718TIP3    H223119   1.199   2.691   5.393
 7719TIP3   OH223120   0.133   5.652   5.238
 7719TIP3    H123121   0.090   5.733   5.210
 7719TIP3    H223122   0.093   5.630   5.322
 7720TIP3   OH223123   4.151   5.264   4.380
 7720TIP3    H123124   4.243   5.282   4.364
 7720TIP3    H223125   4.106   5.293   4.300
 7721TIP3   OH223126   6.714  -0.002   0.534
 7721TIP3    H123127   6.731   0.088   0.505
 7721TIP3    H223128   6.639  -0.030   0.482
 7722TIP3   OH223129   3.306   2.084   5.152
 7722TIP3    H123130   3.245   2.140   5.200
 7722TIP3    H223131   3.390   2.128   5.159
 7723TIP3   OH223132   1.246   6.480   4.158
 7723TIP3    H123133   1.336   6.469   4.188
 7723TIP3    H223134   1.204   6.396   4.175
 7724TIP3   OH223135   6.665   5.030   2.151
 7724TIP3    H123136   6.721   5.104   2.176
 7724TIP3    H223137   6.649   5.042   2.058
 7725TIP3   OH223138   1.733   3.085   2.529
 7725TIP3    H123139   1.664   3.086   2.595
 7725TIP3    H223140   1.770   3.173   2.531
 7726TIP3   OH223141   2.773   3.792   3.446
 7726TIP3    H123142   2.692   3.753   3.412
 7726TIP3    H223143   2.802   3.731   3.515
 7727TIP3   OH223144   1.486   5.046   4.890
 7727TIP3    H123145   1.559   4.985   4.902
 7727TIP3    H223146   1.411   5.002   4.929
 7728TIP3   OH223147   6.918   5.066   3.473
 7728TIP3    H123148   6.951   4.976   3.475
 7728TIP3    H223149   6.834   5.060   3.426
 7729TIP3   OH223150   4.255   6.214   3.987
 7729TIP3    H123151   4.233   6.148   3.921
 7729TIP3    H223152   4.274   6.293   3.936
 7730TIP3   OH223153   4.291   0.454   0.188
 7730TIP3    H123154   4.335   0.383   0.141
 7730TIP3    H223155   4.201   0.454   0.155
 7731TIP3   OH223156   6.605   2.060   1.543
 7731TIP3    H123157   6.641   1.984   1.588
 7731TIP3    H223158   6.602   2.129   1.609
 7732TIP3   OH223159   1.552   1.385   3.337
 7732TIP3    H123160   1.457   1.392   3.326
 7732TIP3    H223161   1.579   1.320   3.272
 7733TIP3   OH223162   3.198   1.638   3.787
 7733TIP3    H123163   3.264   1.583   3.830
 7733TIP3    H223164   3.117   1.617   3.833
 7734TIP3   OH223165   0.237   6.533   0.867
 7734TIP3    H123166   0.294   6.588   0.921
 7734TIP3    H223167   0.272   6.544   0.778
 7735TIP3   OH223168   3.576   0.430   0.447
 7735TIP3    H123169   3.541   0.342   0.462
 7735TIP3    H223170   3.669   0.417   0.434
 7736TIP3   OH223171   7.000   5.408   5.103
 7736TIP3    H123172   7.056   5.337   5.072
 7736TIP3    H223173   6.987   5.389   5.196
 7737TIP3   OH223174   2.621   4.580   4.524
 7737TIP3    H123175   2.678   4.644   4.480
 7737TIP3    H223176   2.575   4.536   4.452
 7738TIP3   OH223177   2.597   5.483   0.403
 7738TIP3    H123178   2.525   5.423   0.422
 7738TIP3    H223179   2.574   5.564   0.447
 7739TIP3   OH223180   6.440   6.236   0.445
 7739TIP3    H123181   6.363   6.277   0.406
 7739TIP3    H223182   6.428   6.245   0.540
 7740TIP3   OH223183   2.407   4.030   1.792
 7740TIP3    H123184   2.396   4.091   1.720
 7740TIP3    H223185   2.389   4.081   1.870
 7741TIP3   OH223186   1.032   0.779   3.473
 7741TIP3    H123187   1.095   0.738   3.531
 7741TIP3    H223188   0.962   0.714   3.464
 7742TIP3   OH223189   6.816   5.485   0.787
 7742TIP3    H123190   6.790   5.394   0.772
 7742TIP3    H223191   6.804   5.527   0.702
 7743TIP3   OH223192   1.006   5.755   4.362
 7743TIP3    H123193   0.935   5.790   4.416
 7743TIP3    H223194   0.964   5.691   4.305
 7744TIP3   OH223195   2.255   6.254   2.058
 7744TIP3    H123196   2.228   6.344   2.036
 7744TIP3    H223197   2.246   6.206   1.976
 7745TIP3   OH223198   0.467   1.987   1.028
 7745TIP3    H123199   0.465   1.893   1.011
 7745TIP3    H223200   0.452   1.995   1.122
 7746TIP3   OH223201   3.636   3.800   1.732
 7746TIP3    H123202   3.600   3.851   1.804
 7746TIP3    H223203   3.569   3.804   1.664
 7747TIP3   OH223204   1.597   2.526   4.565
 7747TIP3    H123205   1.659   2.591   4.598
 7747TIP3    H223206   1.511   2.566   4.576
 7748TIP3   OH223207   0.057   4.976   3.851
 7748TIP3    H123208   0.022   5.032   3.781
 7748TIP3    H223209   0.138   5.019   3.878
 7749TIP3   OH223210   4.456   4.648   0.252
 7749TIP3    H123211   4.520   4.582   0.278
 7749TIP3    H223212   4.453   4.641   0.156
 7750TIP3   OH223213   6.994   0.147   3.038
 7750TIP3    H123214   7.052   0.078   3.067
 7750TIP3    H223215   6.963   0.118   2.952
 7751TIP3   OH223216   3.031   3.115   3.591
 7751TIP3    H123217   3.039   3.156   3.504
 7751TIP3    H223218   3.088   3.166   3.647
 7752TIP3   OH223219   4.785   4.030   5.700
 7752TIP3    H123220   4.854   4.089   5.668
 7752TIP3    H223221   4.713   4.089   5.724
 7753TIP3   OH223222   6.748   4.978   3.714
 7753TIP3    H123223   6.676   4.965   3.652
 7753TIP3    H223224   6.778   5.067   3.698
 7754TIP3   OH223225   5.317   5.363   4.069
 7754TIP3    H123226   5.230   5.364   4.109
 7754TIP3    H223227   5.377   5.344   4.140
 7755TIP3   OH223228   4.205   5.324   1.284
 7755TIP3    H123229   4.132   5.268   1.310
 7755TIP3    H223230   4.265   5.264   1.239
 7756TIP3   OH223231   1.506   2.877   5.704
 7756TIP3    H123232   1.521   2.788   5.670
 7756TIP3    H223233   1.483   2.864   5.796
 7757TIP3   OH223234   3.496   0.637   0.208
 7757TIP3    H123235   3.429   0.575   0.235
 7757TIP3    H223236   3.466   0.721   0.244
 7758TIP3   OH223237   2.060   5.817   4.840
 7758TIP3    H123238   2.002   5.833   4.766
 7758TIP3    H223239   2.079   5.903   4.875
 7759TIP3   OH223240   4.725   1.665   2.629
 7759TIP3    H123241   4.765   1.579   2.614
 7759TIP3    H223242   4.658   1.672   2.561
 7760TIP3   OH223243   5.630   3.657   0.329
 7760TIP3    H123244   5.631   3.749   0.355
 7760TIP3    H223245   5.667   3.656   0.241
 7761TIP3   OH223246   4.397   2.813   3.914
 7761TIP3    H123247   4.463   2.752   3.948
 7761TIP3    H223248   4.405   2.805   3.819
 7762TIP3   OH223249   0.894   1.056   2.374
 7762TIP3    H123250   0.969   1.044   2.432
 7762TIP3    H223251   0.932   1.071   2.288
 7763TIP3   OH223252   3.821   4.866   1.252
 7763TIP3    H123253   3.911   4.858   1.220
 7763TIP3    H223254   3.822   4.822   1.337
 7764TIP3   OH223255   4.859   3.057   4.875
 7764TIP3    H123256   4.834   3.084   4.787
 7764TIP3    H223257   4.880   2.964   4.866
 7765TIP3   OH223258   0.231   2.022   2.131
 7765TIP3    H123259   0.311   2.049   2.087
 7765TIP3    H223260   0.200   1.946   2.081
 7766TIP3   OH223261   6.132   6.015   5.201
 7766TIP3    H123262   6.128   6.062   5.285
 7766TIP3    H223263   6.224   5.989   5.192
 7767TIP3   OH223264   4.704   1.973   3.007
 7767TIP3    H123265   4.707   1.938   3.096
 7767TIP3    H223266   4.696   2.068   3.019
 7768TIP3   OH223267   7.096   2.550   3.130
 7768TIP3    H123268   7.018   2.518   3.175
 7768TIP3    H223269   7.166   2.544   3.196
 7769TIP3   OH223270   7.040   1.453   0.917
 7769TIP3    H123271   7.130   1.436   0.892
 7769TIP3    H223272   7.044   1.534   0.968
 7770TIP3   OH223273   0.018   3.421   1.533
 7770TIP3    H123274   0.084   3.476   1.490
 7770TIP3    H223275   0.027   3.441   1.626
 7771TIP3   OH223276   0.683   4.981   2.350
 7771TIP3    H123277   0.747   4.983   2.421
 7771TIP3    H223278   0.602   4.954   2.392
 7772TIP3   OH223279   0.217   4.234   0.763
 7772TIP3    H123280   0.289   4.289   0.793
 7772TIP3    H223281   0.164   4.291   0.708
 7773TIP3   OH223282   4.093   0.398   4.676
 7773TIP3    H123283   4.062   0.310   4.699
 7773TIP3    H223284   4.013   0.449   4.661
 7774TIP3   OH223285   5.365   5.237   2.918
 7774TIP3    H123286   5.397   5.296   2.850
 7774TIP3    H223287   5.417   5.158   2.907
 7775TIP3   OH223288   6.082   1.697   4.631
 7775TIP3    H123289   6.059   1.656   4.714
 7775TIP3    H223290   6.069   1.790   4.645
 7776TIP3   OH223291   0.942   3.957   0.264
 7776TIP3    H123292   0.943   3.861   0.264
 7776TIP3    H223293   0.934   3.981   0.357
 7777TIP3   OH223294   0.716   0.442   2.866
 7777TIP3    H123295   0.760   0.517   2.907
 7777TIP3    H223296   0.657   0.408   2.933
 7778TIP3   OH223297   2.148   5.295   0.608
 7778TIP3    H123298   2.178   5.225   0.666
 7778TIP3    H223299   2.193   5.373   0.638
 7779TIP3   OH223300   2.011   2.002   4.566
 7779TIP3    H123301   1.975   2.082   4.529
 7779TIP3    H223302   2.086   1.982   4.510
 7780TIP3   OH223303   1.376   6.345   2.489
 7780TIP3    H123304   1.467   6.321   2.473
 7780TIP3    H223305   1.350   6.394   2.411
 7781TIP3   OH223306   1.232   6.284   3.932
 7781TIP3    H123307   1.168   6.354   3.945
 7781TIP3    H223308   1.257   6.258   4.020
 7782TIP3   OH223309   4.829   0.096   4.035
 7782TIP3    H123310   4.859   0.008   4.010
 7782TIP3    H223311   4.813   0.141   3.952
 7783TIP3   OH223312   5.994   0.930   4.277
 7783TIP3    H123313   6.084   0.903   4.298
 7783TIP3    H223314   6.002   0.978   4.195
 7784TIP3   OH223315   5.191   1.965   2.051
 7784TIP3    H123316   5.227   1.927   2.131
 7784TIP3    H223317   5.097   1.955   2.060
 7785TIP3   OH223318   1.680   6.708   4.786
 7785TIP3    H123319   1.665   6.766   4.860
 7785TIP3    H223320   1.719   6.629   4.823
 7786TIP3   OH223321   1.603   3.583   3.449
 7786TIP3    H123322   1.627   3.658   3.394
 7786TIP3    H223323   1.513   3.563   3.423
 7787TIP3   OH223324   0.402   0.366   4.496
 7787TIP3    H123325   0.338   0.307   4.458
 7787TIP3    H223326   0.350   0.437   4.534
 7788TIP3   OH223327   4.094   3.227   3.952
 7788TIP3    H123328   4.184   3.198   3.935
 7788TIP3    H223329   4.054   3.234   3.865
 7789TIP3   OH223330   6.494   1.730   2.479
 7789TIP3    H123331   6.585   1.702   2.472
 7789TIP3    H223332   6.464   1.693   2.562
 7790TIP3   OH223333   4.638   3.669   0.475
 7790TIP3    H123334   4.582   3.663   0.552
 7790TIP3    H223335   4.589   3.722   0.413
 7791TIP3   OH223336   0.016   2.647   4.445
 7791TIP3    H123337  -0.001   2.571   4.501
 7791TIP3    H223338   0.111   2.650   4.436
 7792TIP3   OH223339   2.421   5.923   0.957
 7792TIP3    H123340   2.503   5.877   0.977
 7792TIP3    H223341   2.448   6.009   0.925
 7793TIP3   OH223342   3.140   3.662   1.921
 7793TIP3    H123343   3.057   3.618   1.905
 7793TIP3    H223344   3.170   3.626   2.005
 7794TIP3   OH223345   0.445   5.847   5.329
 7794TIP3    H123346   0.510   5.869   5.396
 7794TIP3    H223347   0.365   5.893   5.357
 7795TIP3   OH223348   2.247   0.131   4.774
 7795TIP3    H123349   2.155   0.159   4.770
 7795TIP3    H223350   2.282   0.175   4.851
 7796TIP3   OH223351   4.929   6.534   0.690
 7796TIP3    H123352   4.936   6.627   0.715
 7796TIP3    H223353   4.860   6.532   0.624
 7797TIP3   OH223354   4.796   2.111   0.618
 7797TIP3    H123355   4.775   2.193   0.662
 7797TIP3    H223356   4.750   2.117   0.534
 7798TIP3   OH223357   0.124   5.179   5.212
 7798TIP3    H123358   0.197   5.216   5.162
 7798TIP3    H223359   0.124   5.231   5.293
 7799TIP3   OH223360   1.525   4.697   0.682
 7799TIP3    H123361   1.440   4.706   0.726
 7799TIP3    H223362   1.526   4.769   0.619
 7800TIP3   OH223363   3.922   5.591   4.014
 7800TIP3    H123364   3.990   5.589   4.081
 7800TIP3    H223365   3.849   5.638   4.055
 7801TIP3   OH223366   0.773   1.182   1.911
 7801TIP3    H123367   0.696   1.148   1.955
 7801TIP3    H223368   0.761   1.277   1.912
 7802TIP3   OH223369   6.490   4.494   5.407
 7802TIP3    H123370   6.505   4.504   5.313
 7802TIP3    H223371   6.551   4.556   5.448
 7803TIP3   OH223372   6.589   4.891   5.021
 7803TIP3    H123373   6.593   4.895   5.116
 7803TIP3    H223374   6.630   4.972   4.992
 7804TIP3   OH223375   4.872   1.533   5.080
 7804TIP3    H123376   4.835   1.542   4.992
 7804TIP3    H223377   4.906   1.443   5.082
 7805TIP3   OH223378   5.508   4.831   1.804
 7805TIP3    H123379   5.440   4.782   1.852
 7805TIP3    H223380   5.520   4.911   1.855
 7806TIP3   OH223381   3.844   5.496   1.569
 7806TIP3    H123382   3.909   5.469   1.634
 7806TIP3    H223383   3.816   5.414   1.528
 7807TIP3   OH223384   6.055   4.238   4.052
 7807TIP3    H123385   6.036   4.146   4.030
 7807TIP3    H223386   6.042   4.243   4.147
 7808TIP3   OH223387   5.315   5.581   5.542
 7808TIP3    H123388   5.382   5.602   5.607
 7808TIP3    H223389   5.363   5.542   5.470
 7809TIP3   OH223390   1.019   1.640   0.441
 7809TIP3    H123391   1.055   1.681   0.520
 7809TIP3    H223392   0.933   1.608   0.468
 7810TIP3   OH223393   2.384   2.754   2.701
 7810TIP3    H123394   2.341   2.829   2.660
 7810TIP3    H223395   2.323   2.725   2.769
 7811TIP3   OH223396   6.523   4.484   3.462
 7811TIP3    H123397   6.587   4.431   3.415
 7811TIP3    H223398   6.517   4.565   3.411
 7812TIP3   OH223399   2.309   6.531   2.134
 7812TIP3    H123400   2.219   6.531   2.164
 7812TIP3    H223401   2.361   6.545   2.213
 7813TIP3   OH223402   4.445   5.983   4.125
 7813TIP3    H123403   4.432   5.894   4.092
 7813TIP3    H223404   4.360   6.009   4.160
 7814TIP3   OH223405   5.418   2.668   0.641
 7814TIP3    H123406   5.449   2.755   0.667
 7814TIP3    H223407   5.323   2.679   0.634
 7815TIP3   OH223408   6.145   6.137   1.637
 7815TIP3    H123409   6.166   6.047   1.663
 7815TIP3    H223410   6.208   6.157   1.568
 7816TIP3   OH223411   0.975   6.074   1.534
 7816TIP3    H123412   1.004   6.136   1.601
 7816TIP3    H223413   1.048   6.013   1.524
 7817TIP3   OH223414   4.116   6.151   0.036
 7817TIP3    H123415   4.158   6.114   0.114
 7817TIP3    H223416   4.050   6.087   0.012
 7818TIP3   OH223417   0.811   6.339   1.515
 7818TIP3    H123418   0.810   6.309   1.606
 7818TIP3    H223419   0.898   6.316   1.483
 7819TIP3   OH223420   1.273   3.168   1.192
 7819TIP3    H123421   1.219   3.107   1.241
 7819TIP3    H223422   1.215   3.242   1.173
 7820TIP3   OH223423   6.576   5.751   1.253
 7820TIP3    H123424   6.508   5.683   1.253
 7820TIP3    H223425   6.643   5.717   1.312
 7821TIP3   OH223426   1.841   4.351   4.918
 7821TIP3    H123427   1.849   4.386   4.830
 7821TIP3    H223428   1.830   4.428   4.974
 7822TIP3   OH223429   0.171   6.726   1.241
 7822TIP3    H123430   0.263   6.752   1.234
 7822TIP3    H223431   0.140   6.770   1.320
 7823TIP3   OH223432   4.578   5.287   0.196
 7823TIP3    H123433   4.549   5.203   0.231
 7823TIP3    H223434   4.568   5.279   0.102
 7824TIP3   OH223435   0.784   1.782   4.012
 7824TIP3    H123436   0.840   1.752   4.083
 7824TIP3    H223437   0.701   1.803   4.054
 7825TIP3   OH223438   1.022   3.791   2.364
 7825TIP3    H123439   1.044   3.706   2.327
 7825TIP3    H223440   0.973   3.836   2.294
 7826TIP3   OH223441   0.648   2.356   3.731
 7826TIP3    H123442   0.700   2.284   3.766
 7826TIP3    H223443   0.663   2.428   3.792
 7827TIP3   OH223444   3.038   0.624   0.448
 7827TIP3    H123445   3.132   0.639   0.445
 7827TIP3    H223446   2.999   0.707   0.420
 7828TIP3   OH223447   4.616   5.507   1.528
 7828TIP3    H123448   4.521   5.495   1.527
 7828TIP3    H223449   4.649   5.429   1.572
 7829TIP3   OH223450   0.799   4.194   3.570
 7829TIP3    H123451   0.804   4.250   3.492
 7829TIP3    H223452   0.801   4.255   3.643
 7830TIP3   OH223453   0.986   4.641   3.047
 7830TIP3    H123454   0.899   4.640   3.008
 7830TIP3    H223455   0.972   4.619   3.139
 7831TIP3   OH223456   6.040   3.406   3.248
 7831TIP3    H123457   6.126   3.424   3.287
 7831TIP3    H223458   5.978   3.424   3.318
 7832TIP3   OH223459   6.083   1.126   4.103
 7832TIP3    H123460   6.015   1.140   4.037
 7832TIP3    H223461   6.126   1.212   4.111
 7833TIP3   OH223462   5.340   5.423   3.510
 7833TIP3    H123463   5.387   5.349   3.549
 7833TIP3    H223464   5.250   5.413   3.540
 7834TIP3   OH223465   5.452   1.750   0.774
 7834TIP3    H123466   5.504   1.776   0.698
 7834TIP3    H223467   5.510   1.766   0.849
 7835TIP3   OH223468   0.633   3.452   3.448
 7835TIP3    H123469   0.722   3.446   3.482
 7835TIP3    H223470   0.597   3.364   3.460
 7836TIP3   OH223471   6.899   5.782   3.663
 7836TIP3    H123472   6.884   5.869   3.625
 7836TIP3    H223473   6.872   5.721   3.594
 7837TIP3   OH223474   5.924   3.888   2.169
 7837TIP3    H123475   5.954   3.947   2.238
 7837TIP3    H223476   5.919   3.943   2.090
 7838TIP3   OH223477   5.203   2.139   5.576
 7838TIP3    H123478   5.205   2.220   5.628
 7838TIP3    H223479   5.215   2.168   5.486
 7839TIP3   OH223480   2.490   4.440   2.158
 7839TIP3    H123481   2.514   4.381   2.229
 7839TIP3    H223482   2.481   4.525   2.199
 7840TIP3   OH223483   6.534   6.158   5.679
 7840TIP3    H123484   6.539   6.117   5.766
 7840TIP3    H223485   6.530   6.252   5.697
 7841TIP3   OH223486   4.802   5.704   1.947
 7841TIP3    H123487   4.739   5.750   1.892
 7841TIP3    H223488   4.844   5.773   1.998
 7842TIP3   OH223489   6.841   0.448   1.597
 7842TIP3    H123490   6.900   0.508   1.552
 7842TIP3    H223491   6.899   0.382   1.637
 7843TIP3   OH223492   6.414   0.168   4.381
 7843TIP3    H123493   6.484   0.230   4.401
 7843TIP3    H223494   6.358   0.215   4.319
 7844TIP3   OH223495   1.379   4.508   2.554
 7844TIP3    H123496   1.433   4.586   2.565
 7844TIP3    H223497   1.404   4.474   2.468
 7845TIP3   OH223498   0.875   4.883   2.552
 7845TIP3    H123499   0.893   4.946   2.622
 7845TIP3    H223500   0.804   4.829   2.586
 7846TIP3   OH223501   1.286   6.479   2.278
 7846TIP3    H123502   1.250   6.423   2.210
 7846TIP3    H223503   1.282   6.567   2.241
 7847TIP3   OH223504   0.259   1.362   4.034
 7847TIP3    H123505   0.178   1.362   3.983
 7847TIP3    H223506   0.294   1.274   4.022
 7848TIP3   OH223507   1.953   5.637   2.588
 7848TIP3    H123508   2.026   5.597   2.636
 7848TIP3    H223509   1.875   5.596   2.625
 7849TIP3   OH223510   6.536   2.740   2.410
 7849TIP3    H123511   6.446   2.771   2.406
 7849TIP3    H223512   6.573   2.784   2.487
 7850TIP3   OH223513   1.899   3.883   3.671
 7850TIP3    H123514   1.963   3.834   3.619
 7850TIP3    H223515   1.881   3.961   3.618
 7851TIP3   OH223516   7.072   5.799   0.769
 7851TIP3    H123517   7.035   5.873   0.817
 7851TIP3    H223518   7.107   5.741   0.837
 7852TIP3   OH223519   5.299   0.694   1.379
 7852TIP3    H123520   5.278   0.731   1.465
 7852TIP3    H223521   5.307   0.770   1.321
 7853TIP3   OH223522   5.218   4.681   3.885
 7853TIP3    H123523   5.151   4.748   3.876
 7853TIP3    H223524   5.180   4.617   3.945
 7854TIP3   OH223525   3.486   2.804   1.247
 7854TIP3    H123526   3.460   2.896   1.236
 7854TIP3    H223527   3.572   2.808   1.289
 7855TIP3   OH223528   1.330   3.487   0.117
 7855TIP3    H123529   1.305   3.578   0.130
 7855TIP3    H223530   1.253   3.436   0.143
 7856TIP3   OH223531   2.837   4.351   3.363
 7856TIP3    H123532   2.752   4.336   3.405
 7856TIP3    H223533   2.867   4.265   3.336
 7857TIP3   OH223534   0.253   3.347   4.966
 7857TIP3    H123535   0.228   3.266   5.011
 7857TIP3    H223536   0.265   3.411   5.037
 7858TIP3   OH223537   5.458   0.086   3.946
 7858TIP3    H123538   5.540   0.134   3.931
 7858TIP3    H223539   5.470   0.003   3.901
 7859TIP3   OH223540   0.239   6.381   4.159
 7859TIP3    H123541   0.313   6.329   4.190
 7859TIP3    H223542   0.180   6.317   4.119
 7860TIP3   OH223543   3.855   2.671   2.209
 7860TIP3    H123544   3.918   2.618   2.161
 7860TIP3    H223545   3.858   2.756   2.166
 7861TIP3   OH223546   5.878   5.881   5.152
 7861TIP3    H123547   5.964   5.920   5.169
 7861TIP3    H223548   5.893   5.787   5.154
 7862TIP3   OH223549   1.137   3.339   5.475
 7862TIP3    H123550   1.180   3.318   5.558
 7862TIP3    H223551   1.070   3.403   5.498
 7863TIP3   OH223552   0.908   3.436   3.859
 7863TIP3    H123553   0.981   3.494   3.879
 7863TIP3    H223554   0.914   3.419   3.765
 7864TIP3   OH223555   3.496   5.858   1.156
 7864TIP3    H123556   3.534   5.890   1.074
 7864TIP3    H223557   3.518   5.765   1.158
 7865TIP3   OH223558   4.420   3.866   2.011
 7865TIP3    H123559   4.336   3.821   2.024
 7865TIP3    H223560   4.398   3.959   2.016
 7866TIP3   OH223561   6.801   0.740   5.473
 7866TIP3    H123562   6.806   0.645   5.481
 7866TIP3    H223563   6.888   0.766   5.442
 7867TIP3   OH223564   5.374   0.758   1.891
 7867TIP3    H123565   5.408   0.710   1.966
 7867TIP3    H223566   5.305   0.814   1.927
 7868TIP3   OH223567   0.872   3.911   5.832
 7868TIP3    H123568   0.923   3.982   5.795
 7868TIP3    H223569   0.928   3.875   5.901
 7869TIP3   OH223570   6.290   3.188   5.635
 7869TIP3    H123571   6.331   3.103   5.623
 7869TIP3    H223572   6.352   3.238   5.687
 7870TIP3   OH223573   6.748   1.429   0.126
 7870TIP3    H123574   6.788   1.512   0.150
 7870TIP3    H223575   6.752   1.377   0.206
 7871TIP3   OH223576   4.837   1.316   1.727
 7871TIP3    H123577   4.837   1.241   1.668
 7871TIP3    H223578   4.802   1.282   1.809
 7872TIP3   OH223579   6.393   2.554   2.604
 7872TIP3    H123580   6.461   2.621   2.606
 7872TIP3    H223581   6.400   2.516   2.516
 7873TIP3   OH223582   5.854   0.942   2.778
 7873TIP3    H123583   5.875   0.913   2.866
 7873TIP3    H223584   5.896   1.027   2.769
 7874TIP3   OH223585   1.855   4.192   5.639
 7874TIP3    H123586   1.850   4.287   5.651
 7874TIP3    H223587   1.840   4.178   5.546
 7875TIP3   OH223588   4.901   2.743   1.018
 7875TIP3    H123589   4.917   2.649   1.007
 7875TIP3    H223590   4.974   2.786   0.973
 7876TIP3   OH223591   1.138   0.472   1.814
 7876TIP3    H123592   1.149   0.423   1.732
 7876TIP3    H223593   1.120   0.406   1.880
 7877TIP3   OH223594   1.443   3.640   4.639
 7877TIP3    H123595   1.523   3.587   4.638
 7877TIP3    H223596   1.457   3.706   4.571
 7878TIP3   OH223597   6.773   4.320   0.384
 7878TIP3    H123598   6.726   4.263   0.444
 7878TIP3    H223599   6.741   4.408   0.403
 7879TIP3   OH223600   0.485   5.776   3.240
 7879TIP3    H123601   0.396   5.791   3.271
 7879TIP3    H223602   0.478   5.778   3.145
 7880TIP3   OH223603   0.495   2.362   5.790
 7880TIP3    H123604   0.518   2.343   5.699
 7880TIP3    H223605   0.517   2.282   5.838
 7881TIP3   OH223606   1.725   2.264   1.790
 7881TIP3    H123607   1.633   2.271   1.763
 7881TIP3    H223608   1.729   2.309   1.874
 7882TIP3   OH223609   6.053   3.341   3.705
 7882TIP3    H123610   6.068   3.340   3.611
 7882TIP3    H223611   5.967   3.383   3.716
 7883TIP3   OH223612   1.928   3.947   0.378
 7883TIP3    H123613   1.880   3.966   0.297
 7883TIP3    H223614   2.005   4.004   0.375
 7884TIP3   OH223615   4.926   1.706   4.165
 7884TIP3    H123616   4.871   1.766   4.115
 7884TIP3    H223617   4.910   1.620   4.126
 7885TIP3   OH223618   5.201   0.961   1.912
 7885TIP3    H123619   5.196   1.022   1.839
 7885TIP3    H223620   5.110   0.948   1.939
 7886TIP3   OH223621   1.450   0.807   2.265
 7886TIP3    H123622   1.458   0.891   2.220
 7886TIP3    H223623   1.356   0.796   2.279
 7887TIP3   OH223624   1.269   2.653   4.971
 7887TIP3    H123625   1.228   2.738   4.986
 7887TIP3    H223626   1.322   2.638   5.050
 7888TIP3   OH223627   2.276   5.942   5.083
 7888TIP3    H123628   2.203   5.952   5.021
 7888TIP3    H223629   2.335   6.014   5.062
 7889TIP3   OH223630   6.310   2.857   3.809
 7889TIP3    H123631   6.234   2.806   3.836
 7889TIP3    H223632   6.276   2.942   3.785
 7890TIP3   OH223633   3.095   2.800   4.809
 7890TIP3    H123634   3.049   2.747   4.744
 7890TIP3    H223635   3.030   2.863   4.839
 7891TIP3   OH223636   2.063   3.742   5.158
 7891TIP3    H123637   1.975   3.780   5.149
 7891TIP3    H223638   2.083   3.706   5.072
 7892TIP3   OH223639   0.399   2.739   0.760
 7892TIP3    H123640   0.461   2.675   0.794
 7892TIP3    H223641   0.431   2.824   0.791
 7893TIP3   OH223642   1.737   0.475   0.837
 7893TIP3    H123643   1.801   0.434   0.895
 7893TIP3    H223644   1.748   0.569   0.853
 7894TIP3   OH223645   3.972   3.051   2.287
 7894TIP3    H123646   3.907   3.098   2.339
 7894TIP3    H223647   4.027   3.120   2.249
 7895TIP3   OH223648   3.943   3.375   4.882
 7895TIP3    H123649   3.870   3.319   4.909
 7895TIP3    H223650   3.957   3.353   4.790
 7896TIP3   OH223651   3.480   4.553   0.449
 7896TIP3    H123652   3.566   4.561   0.407
 7896TIP3    H223653   3.434   4.488   0.397
 7897TIP3   OH223654   3.537   5.021   3.951
 7897TIP3    H123655   3.506   5.044   3.864
 7897TIP3    H223656   3.563   5.105   3.990
 7898TIP3   OH223657   0.981   3.423   0.008
 7898TIP3    H123658   0.984   3.383   0.095
 7898TIP3    H223659   0.968   3.350  -0.052
 7899TIP3   OH223660   1.520   5.266   5.838
 7899TIP3    H123661   1.429   5.238   5.840
 7899TIP3    H223662   1.541   5.274   5.745
 7900TIP3   OH223663   5.634   5.364  -0.010
 7900TIP3    H123664   5.705   5.305   0.015
 7900TIP3    H223665   5.566   5.349   0.056
 7901TIP3   OH223666   2.408   0.685   1.836
 7901TIP3    H123667   2.361   0.759   1.797
 7901TIP3    H223668   2.463   0.724   1.904
 7902TIP3   OH223669   2.539   1.593   4.194
 7902TIP3    H123670   2.505   1.532   4.259
 7902TIP3    H223671   2.609   1.641   4.240
 7903TIP3   OH223672   5.071   5.994   4.481
 7903TIP3    H123673   5.105   5.913   4.443
 7903TIP3    H223674   5.008   5.964   4.547
 7904TIP3   OH223675   3.990   3.354   2.603
 7904TIP3    H123676   3.896   3.334   2.600
 7904TIP3    H223677   4.033   3.269   2.594
 7905TIP3   OH223678   0.486   0.263   0.899
 7905TIP3    H123679   0.402   0.303   0.878
 7905TIP3    H223680   0.530   0.255   0.814
 7906TIP3   OH223681   0.084   3.710   4.777
 7906TIP3    H123682   0.138   3.696   4.855
 7906TIP3    H223683   0.146   3.738   4.710
 7907TIP3   OH223684   1.773   5.248   2.167
 7907TIP3    H123685   1.701   5.186   2.152
 7907TIP3    H223686   1.777   5.257   2.262
 7908TIP3   OH223687   1.238   5.318   0.421
 7908TIP3    H123688   1.327   5.315   0.388
 7908TIP3    H223689   1.198   5.236   0.391
 7909TIP3   OH223690   1.501   6.394   0.680
 7909TIP3    H123691   1.585   6.429   0.648
 7909TIP3    H223692   1.521   6.304   0.703
 7910TIP3   OH223693   6.956   2.367   4.356
 7910TIP3    H123694   6.869   2.396   4.384
 7910TIP3    H223695   7.007   2.447   4.348
 7911TIP3   OH223696   1.109   2.076   5.698
 7911TIP3    H123697   1.153   2.103   5.618
 7911TIP3    H223698   1.043   2.144   5.713
 7912TIP3   OH223699   5.385   3.427   0.843
 7912TIP3    H123700   5.431   3.343   0.852
 7912TIP3    H223701   5.434   3.486   0.900
 7913TIP3   OH223702   2.317   0.868   2.749
 7913TIP3    H123703   2.392   0.825   2.708
 7913TIP3    H223704   2.269   0.796   2.791
 7914TIP3   OH223705   5.474   6.428   2.690
 7914TIP3    H123706   5.522   6.510   2.692
 7914TIP3    H223707   5.540   6.361   2.705
 7915TIP3   OH223708   3.323   0.308   4.485
 7915TIP3    H123709   3.313   0.403   4.481
 7915TIP3    H223710   3.292   0.277   4.399
 7916TIP3   OH223711   0.520   0.052   1.049
 7916TIP3    H123712   0.507   0.144   1.029
 7916TIP3    H223713   0.480   0.005   0.976
 7917TIP3   OH223714   4.991   6.505   2.467
 7917TIP3    H123715   4.964   6.484   2.556
 7917TIP3    H223716   4.960   6.432   2.413
 7918TIP3   OH223717   1.927   4.925   0.767
 7918TIP3    H123718   1.886   4.994   0.714
 7918TIP3    H223719   1.863   4.854   0.768
 7919TIP3   OH223720   3.600   1.089   1.747
 7919TIP3    H123721   3.686   1.086   1.706
 7919TIP3    H223722   3.617   1.109   1.839
 7920TIP3   OH223723   7.146   2.079   4.971
 7920TIP3    H123724   7.093   2.149   4.934
 7920TIP3    H223725   7.143   2.010   4.905
 7921TIP3   OH223726   6.397   1.257   0.595
 7921TIP3    H123727   6.436   1.170   0.591
 7921TIP3    H223728   6.331   1.251   0.664
 7922TIP3   OH223729   6.602   0.376   5.494
 7922TIP3    H123730   6.619   0.288   5.529
 7922TIP3    H223731   6.688   0.408   5.467
 7923TIP3   OH223732   6.324   1.682   1.369
 7923TIP3    H123733   6.326   1.617   1.439
 7923TIP3    H223734   6.354   1.763   1.410
 7924TIP3   OH223735   2.414   1.804   2.471
 7924TIP3    H123736   2.497   1.852   2.476
 7924TIP3    H223737   2.354   1.854   2.526
 7925TIP3   OH223738   6.021   0.844   2.055
 7925TIP3    H123739   6.050   0.845   1.964
 7925TIP3    H223740   5.926   0.854   2.050
 7926TIP3   OH223741   7.050   1.687   1.055
 7926TIP3    H123742   7.011   1.761   1.101
 7926TIP3    H223743   7.105   1.727   0.987
 7927TIP3   OH223744   4.371   4.602   4.949
 7927TIP3    H123745   4.465   4.594   4.963
 7927TIP3    H223746   4.338   4.643   5.028
 7928TIP3   OH223747   6.745   6.505   5.012
 7928TIP3    H123748   6.699   6.572   5.064
 7928TIP3    H223749   6.789   6.555   4.943
 7929TIP3   OH223750   6.903   3.606   1.099
 7929TIP3    H123751   6.928   3.652   1.178
 7929TIP3    H223752   6.901   3.514   1.124
 7930TIP3   OH223753   4.783   4.379   1.884
 7930TIP3    H123754   4.861   4.413   1.841
 7930TIP3    H223755   4.787   4.414   1.973
 7931TIP3   OH223756   5.444   3.632   2.638
 7931TIP3    H123757   5.538   3.635   2.617
 7931TIP3    H223758   5.430   3.543   2.670
 7932TIP3   OH223759   1.693   0.104   1.240
 7932TIP3    H123760   1.770   0.052   1.263
 7932TIP3    H223761   1.647   0.117   1.322
 7933TIP3   OH223762   4.663   5.376   0.668
 7933TIP3    H123763   4.739   5.407   0.717
 7933TIP3    H223764   4.615   5.321   0.729
 7934TIP3   OH223765   4.050   4.378   5.769
 7934TIP3    H123766   3.975   4.321   5.750
 7934TIP3    H223767   4.014   4.448   5.823
 7935TIP3   OH223768   6.840   5.821   2.793
 7935TIP3    H123769   6.865   5.768   2.869
 7935TIP3    H223770   6.819   5.907   2.830
 7936TIP3   OH223771   0.407   1.751   0.275
 7936TIP3    H123772   0.437   1.834   0.237
 7936TIP3    H223773   0.317   1.742   0.244
 7937TIP3   OH223774   4.306   2.733   2.519
 7937TIP3    H123775   4.224   2.722   2.471
 7937TIP3    H223776   4.301   2.668   2.590
 7938TIP3   OH223777   3.160   4.466   2.883
 7938TIP3    H123778   3.137   4.484   2.974
 7938TIP3    H223779   3.083   4.423   2.847
 7939TIP3   OH223780   1.296   5.469   4.918
 7939TIP3    H123781   1.352   5.454   4.842
 7939TIP3    H223782   1.317   5.558   4.946
 7940TIP3   OH223783   0.162   2.959   0.847
 7940TIP3    H123784   0.159   2.913   0.931
 7940TIP3    H223785   0.249   2.998   0.844
 7941TIP3   OH223786   4.751   4.511   0.530
 7941TIP3    H123787   4.702   4.586   0.564
 7941TIP3    H223788   4.707   4.489   0.448
 7942TIP3   OH223789   3.660   3.108   0.967
 7942TIP3    H123790   3.699   3.038   1.020
 7942TIP3    H223791   3.726   3.126   0.899
 7943TIP3   OH223792   4.654   5.871   5.473
 7943TIP3    H123793   4.724   5.903   5.531
 7943TIP3    H223794   4.574   5.905   5.511
 7944TIP3   OH223795   4.458   4.189   5.499
 7944TIP3    H123796   4.407   4.234   5.432
 7944TIP3    H223797   4.417   4.215   5.582
 7945TIP3   OH223798   6.340   2.487   0.715
 7945TIP3    H123799   6.356   2.424   0.645
 7945TIP3    H223800   6.413   2.548   0.710
 7946TIP3   OH223801   7.079   5.218   3.947
 7946TIP3    H123802   7.063   5.198   3.854
 7946TIP3    H223803   7.057   5.311   3.955
 7947TIP3   OH223804   0.507   2.447   4.952
 7947TIP3    H123805   0.474   2.445   4.862
 7947TIP3    H223806   0.443   2.499   5.000
 7948TIP3   OH223807   1.088   2.143   3.775
 7948TIP3    H123808   1.008   2.114   3.819
 7948TIP3    H223809   1.150   2.072   3.790
 7949TIP3   OH223810   0.608   1.117   4.303
 7949TIP3    H123811   0.692   1.079   4.328
 7949TIP3    H223812   0.589   1.181   4.371
 7950TIP3   OH223813   6.557   2.934   3.849
 7950TIP3    H123814   6.465   2.908   3.851
 7950TIP3    H223815   6.564   3.003   3.915
 7951TIP3   OH223816   3.460   0.286   4.136
 7951TIP3    H123817   3.385   0.241   4.096
 7951TIP3    H223818   3.536   0.237   4.106
 7952TIP3   OH223819   4.944   1.210   5.757
 7952TIP3    H123820   4.906   1.150   5.693
 7952TIP3    H223821   5.004   1.157   5.808
 7953TIP3   OH223822   3.271   1.600   0.760
 7953TIP3    H123823   3.270   1.605   0.665
 7953TIP3    H223824   3.341   1.538   0.780
 7954TIP3   OH223825   6.388   5.113   1.406
 7954TIP3    H123826   6.334   5.170   1.351
 7954TIP3    H223827   6.350   5.121   1.494
 7955TIP3   OH223828   5.408   0.987   1.528
 7955TIP3    H123829   5.485   1.041   1.516
 7955TIP3    H223830   5.372   0.976   1.439
 7956TIP3   OH223831   1.654   5.235   0.857
 7956TIP3    H123832   1.623   5.150   0.888
 7956TIP3    H223833   1.705   5.215   0.778
 7957TIP3   OH223834   3.205   6.192   0.398
 7957TIP3    H123835   3.231   6.190   0.491
 7957TIP3    H223836   3.165   6.106   0.383
 7958TIP3   OH223837   4.545   3.594   1.711
 7958TIP3    H123838   4.563   3.688   1.719
 7958TIP3    H223839   4.456   3.589   1.677
 7959TIP3   OH223840   3.564   1.820   1.977
 7959TIP3    H123841   3.501   1.763   1.933
 7959TIP3    H223842   3.567   1.788   2.067
 7960TIP3   OH223843   4.915   5.762   3.144
 7960TIP3    H123844   4.992   5.707   3.125
 7960TIP3    H223845   4.952   5.841   3.183
 7961TIP3   OH223846   2.302   4.321   4.116
 7961TIP3    H123847   2.360   4.301   4.190
 7961TIP3    H223848   2.290   4.416   4.119
 7962TIP3   OH223849   3.652   2.504   1.191
 7962TIP3    H123850   3.632   2.489   1.099
 7962TIP3    H223851   3.576   2.470   1.238
 7963TIP3   OH223852   1.945   0.466   4.696
 7963TIP3    H123853   2.026   0.443   4.649
 7963TIP3    H223854   1.948   0.414   4.776
 7964TIP3   OH223855   0.948   2.945   2.676
 7964TIP3    H123856   0.918   2.921   2.764
 7964TIP3    H223857   0.874   2.921   2.619
 7965TIP3   OH223858   6.526   0.029   1.911
 7965TIP3    H123859   6.598   0.089   1.895
 7965TIP3    H223860   6.546  -0.048   1.858
 7966TIP3   OH223861   4.219   0.604   3.299
 7966TIP3    H123862   4.276   0.540   3.341
 7966TIP3    H223863   4.174   0.555   3.231
 7967TIP3   OH223864   6.875   2.882   2.743
 7967TIP3    H123865   6.907   2.910   2.829
 7967TIP3    H223866   6.917   2.942   2.681
 7968TIP3   OH223867   0.152   0.920   2.609
 7968TIP3    H123868   0.144   0.966   2.692
 7968TIP3    H223869   0.233   0.953   2.571
 7969TIP3   OH223870   1.290   3.651   4.028
 7969TIP3    H123871   1.318   3.656   3.937
 7969TIP3    H223872   1.253   3.563   4.037
 7970TIP3   OH223873   4.937   3.211   0.741
 7970TIP3    H123874   5.019   3.255   0.764
 7970TIP3    H223875   4.869   3.264   0.781
 7971TIP3   OH223876   0.623   4.161   4.243
 7971TIP3    H123877   0.536   4.201   4.237
 7971TIP3    H223878   0.662   4.174   4.156
 7972TIP3   OH223879   6.374   6.346   4.194
 7972TIP3    H123880   6.305   6.334   4.259
 7972TIP3    H223881   6.337   6.310   4.113
 7973TIP3   OH223882   2.205   2.618   4.364
 7973TIP3    H123883   2.132   2.675   4.388
 7973TIP3    H223884   2.281   2.676   4.363
 7974TIP3   OH223885   5.192   0.658   2.957
 7974TIP3    H123886   5.243   0.739   2.946
 7974TIP3    H223887   5.103   0.689   2.975
 7975TIP3   OH223888   3.798   2.585   5.263
 7975TIP3    H123889   3.827   2.638   5.189
 7975TIP3    H223890   3.875   2.576   5.319
 7976TIP3   OH223891   4.094   1.527   1.767
 7976TIP3    H123892   4.038   1.593   1.809
 7976TIP3    H223893   4.182   1.546   1.800
 7977TIP3   OH223894   1.053   5.314   1.132
 7977TIP3    H123895   0.974   5.337   1.181
 7977TIP3    H223896   1.022   5.290   1.045
 7978TIP3   OH223897   7.215   2.113   0.168
 7978TIP3    H123898   7.126   2.080   0.157
 7978TIP3    H223899   7.227   2.118   0.263
 7979TIP3   OH223900   3.757   6.724   4.219
 7979TIP3    H123901   3.758   6.774   4.137
 7979TIP3    H223902   3.826   6.765   4.273
 7980TIP3   OH223903   0.660   0.197   1.607
 7980TIP3    H123904   0.664   0.101   1.614
 7980TIP3    H223905   0.747   0.223   1.579
 7981TIP3   OH223906   1.351   6.781   5.914
 7981TIP3    H123907   1.324   6.862   5.869
 7981TIP3    H223908   1.446   6.779   5.905
 7982TIP3   OH223909   1.674   4.482   2.823
 7982TIP3    H123910   1.611   4.553   2.835
 7982TIP3    H223911   1.702   4.460   2.912
 7983TIP3   OH223912   5.191   2.821   0.585
 7983TIP3    H123913   5.261   2.876   0.549
 7983TIP3    H223914   5.110   2.862   0.556
 7984TIP3   OH223915   6.949   5.777   3.338
 7984TIP3    H123916   6.909   5.708   3.392
 7984TIP3    H223917   7.027   5.803   3.386
 7985TIP3   OH223918   6.203   1.385   0.449
 7985TIP3    H123919   6.249   1.430   0.379
 7985TIP3    H223920   6.273   1.338   0.496
 7986TIP3   OH223921   0.410   4.367   4.968
 7986TIP3    H123922   0.365   4.342   4.887
 7986TIP3    H223923   0.493   4.405   4.938
 7987TIP3   OH223924   5.529   3.676   5.327
 7987TIP3    H123925   5.522   3.602   5.387
 7987TIP3    H223926   5.499   3.642   5.243
 7988TIP3   OH223927   5.394   4.383   4.632
 7988TIP3    H123928   5.366   4.471   4.657
 7988TIP3    H223929   5.323   4.351   4.576
 7989TIP3   OH223930   3.452   1.656   3.383
 7989TIP3    H123931   3.363   1.622   3.375
 7989TIP3    H223932   3.456   1.692   3.471
 7990TIP3   OH223933   5.901   2.899   1.160
 7990TIP3    H123934   5.813   2.862   1.173
 7990TIP3    H223935   5.898   2.938   1.073
 7991TIP3   OH223936   1.173   6.709   4.030
 7991TIP3    H123937   1.209   6.790   4.066
 7991TIP3    H223938   1.177   6.647   4.103
 7992TIP3   OH223939   4.731   5.239   3.432
 7992TIP3    H123940   4.786   5.174   3.390
 7992TIP3    H223941   4.673   5.270   3.362
 7993TIP3   OH223942   1.297   4.213   2.646
 7993TIP3    H123943   1.206   4.209   2.678
 7993TIP3    H223944   1.320   4.306   2.652
 7994TIP3   OH223945   2.432   1.634   2.831
 7994TIP3    H123946   2.425   1.729   2.823
 7994TIP3    H223947   2.350   1.601   2.795
 7995TIP3   OH223948   6.876   0.653   3.457
 7995TIP3    H123949   6.806   0.719   3.456
 7995TIP3    H223950   6.956   0.704   3.469
 7996TIP3   OH223951   3.748   4.260   5.250
 7996TIP3    H123952   3.822   4.200   5.262
 7996TIP3    H223953   3.760   4.295   5.162
 7997TIP3   OH223954   0.296   3.196   1.238
 7997TIP3    H123955   0.282   3.282   1.198
 7997TIP3    H223956   0.369   3.159   1.188
 7998TIP3   OH223957   2.466   3.983   5.273
 7998TIP3    H123958   2.388   4.038   5.270
 7998TIP3    H223959   2.539   4.044   5.280
 7999TIP3   OH223960   5.416   5.328   5.620
 7999TIP3    H123961   5.460   5.315   5.704
 7999TIP3    H223962   5.356   5.401   5.636
 8000TIP3   OH223963   4.094   3.083   4.210
 8000TIP3    H123964   4.066   3.126   4.129
 8000TIP3    H223965   4.123   3.155   4.266
 8001TIP3   OH223966   5.846   1.849   5.762
 8001TIP3    H123967   5.827   1.756   5.776
 8001TIP3    H223968   5.852   1.858   5.667
 8002TIP3   OH223969   1.452   5.872   4.765
 8002TIP3    H123970   1.356   5.875   4.758
 8002TIP3    H223971   1.479   5.963   4.752
 8003TIP3   OH223972   2.121   2.318   4.271
 8003TIP3    H123973   2.037   2.329   4.228
 8003TIP3    H223974   2.161   2.405   4.269
 8004TIP3   OH223975   4.373   1.428   2.093
 8004TIP3    H123976   4.317   1.469   2.159
 8004TIP3    H223977   4.338   1.458   2.010
 8005TIP3   OH223978   4.389   4.489   5.782
 8005TIP3    H123979   4.363   4.405   5.820
 8005TIP3    H223980   4.476   4.505   5.816
 8006TIP3   OH223981   1.382   0.862   1.905
 8006TIP3    H123982   1.314   0.803   1.935
 8006TIP3    H223983   1.424   0.893   1.985
 8007TIP3   OH223984   0.471   1.884   2.508
 8007TIP3    H123985   0.534   1.930   2.454
 8007TIP3    H223986   0.385   1.913   2.476
 8008TIP3   OH223987   5.484   4.022   4.113
 8008TIP3    H123988   5.548   4.087   4.143
 8008TIP3    H223989   5.400   4.053   4.150
 8009TIP3   OH223990   1.972   2.409   5.044
 8009TIP3    H123991   2.039   2.353   5.005
 8009TIP3    H223992   2.009   2.497   5.040
 8010TIP3   OH223993   0.636   6.489   1.288
 8010TIP3    H123994   0.623   6.583   1.303
 8010TIP3    H223995   0.670   6.456   1.372
 8011TIP3   OH223996   3.257   0.635   1.012
 8011TIP3    H123997   3.229   0.597   0.928
 8011TIP3    H223998   3.190   0.609   1.074
 8012TIP3   OH223999   5.518   1.128   1.834
 8012TIP3    H124000   5.470   1.178   1.767
 8012TIP3    H224001   5.471   1.146   1.916
 8013TIP3   OH224002   2.022   2.421   1.414
 8013TIP3    H124003   1.955   2.385   1.356
 8013TIP3    H224004   2.045   2.505   1.375
 8014TIP3   OH224005   5.691   0.755   1.037
 8014TIP3    H124006   5.616   0.759   0.978
 8014TIP3    H224007   5.656   0.716   1.118
 8015TIP3   OH224008   5.577   2.208   1.031
 8015TIP3    H124009   5.571   2.140   0.964
 8015TIP3    H224010   5.655   2.258   1.007
 8016TIP3   OH224011   4.178   1.380   0.119
 8016TIP3    H124012   4.084   1.365   0.113
 8016TIP3    H224013   4.198   1.439   0.045
 8017TIP3   OH224014   4.933   1.584   1.714
 8017TIP3    H124015   4.866   1.515   1.716
 8017TIP3    H224016   4.888   1.659   1.674
 8018TIP3   OH224017   4.549   1.001   1.865
 8018TIP3    H124018   4.481   1.045   1.814
 8018TIP3    H224019   4.544   1.042   1.952
 8019TIP3   OH224020   4.716   2.994   3.752
 8019TIP3    H124021   4.672   2.909   3.740
 8019TIP3    H224022   4.809   2.975   3.735
 8020TIP3   OH224023   4.335   2.689   5.684
 8020TIP3    H124024   4.337   2.693   5.780
 8020TIP3    H224025   4.380   2.769   5.656
 8021TIP3   OH224026   6.006   1.575   4.875
 8021TIP3    H124027   6.070   1.560   4.945
 8021TIP3    H224028   5.942   1.505   4.887
 8022TIP3   OH224029   1.683   4.861   4.934
 8022TIP3    H124030   1.670   4.801   5.007
 8022TIP3    H224031   1.775   4.852   4.911
 8023TIP3   OH224032   5.522   1.777   3.203
 8023TIP3    H124033   5.463   1.830   3.149
 8023TIP3    H224034   5.583   1.737   3.141
 8024TIP3   OH224035   0.440   6.182   4.647
 8024TIP3    H124036   0.472   6.105   4.694
 8024TIP3    H224037   0.490   6.255   4.685
 8025TIP3   OH224038   6.271   4.956   0.847
 8025TIP3    H124039   6.248   4.987   0.935
 8025TIP3    H224040   6.194   4.976   0.794
 8026TIP3   OH224041   0.956   3.981   2.665
 8026TIP3    H124042   1.003   3.897   2.663
 8026TIP3    H224043   0.955   4.009   2.574
 8027TIP3   OH224044   2.786   3.492   4.522
 8027TIP3    H124045   2.754   3.546   4.449
 8027TIP3    H224046   2.824   3.555   4.583
 8028TIP3   OH224047   1.052   2.239   2.284
 8028TIP3    H124048   1.020   2.165   2.336
 8028TIP3    H224049   1.078   2.201   2.201
 8029TIP3   OH224050   5.125   2.519   5.916
 8029TIP3    H124051   5.064   2.553   5.851
 8029TIP3    H224052   5.163   2.442   5.875
 8030TIP3   OH224053   6.666   3.968   1.878
 8030TIP3    H124054   6.635   4.028   1.945
 8030TIP3    H224055   6.588   3.917   1.853
 8031TIP3   OH224056   1.277   2.633   4.260
 8031TIP3    H124057   1.299   2.548   4.222
 8031TIP3    H224058   1.291   2.623   4.354
 8032TIP3   OH224059   1.257   6.552   5.790
 8032TIP3    H124060   1.288   6.635   5.824
 8032TIP3    H224061   1.194   6.576   5.722
 8033TIP3   OH224062   5.893   2.209   4.448
 8033TIP3    H124063   5.832   2.194   4.521
 8033TIP3    H224064   5.876   2.299   4.421
 8034TIP3   OH224065   2.540   3.658   3.330
 8034TIP3    H124066   2.567   3.576   3.290
 8034TIP3    H224067   2.474   3.693   3.269
 8035TIP3   OH224068   0.626   4.145   5.845
 8035TIP3    H124069   0.628   4.049   5.849
 8035TIP3    H224070   0.558   4.165   5.781
 8036TIP3   OH224071   1.395   3.251   5.415
 8036TIP3    H124072   1.308   3.287   5.433
 8036TIP3    H224073   1.408   3.184   5.482
 8037TIP3   OH224074   5.601   5.998   3.751
 8037TIP3    H124075   5.550   6.071   3.717
 8037TIP3    H224076   5.640   5.958   3.674
 8038TIP3   OH224077   5.117   2.092   3.924
 8038TIP3    H124078   5.098   2.061   3.835
 8038TIP3    H224079   5.203   2.056   3.944
 8039TIP3   OH224080   5.329   2.912   3.429
 8039TIP3    H124081   5.289   2.923   3.515
 8039TIP3    H224082   5.406   2.857   3.445
 8040TIP3   OH224083   3.795   5.833   1.410
 8040TIP3    H124084   3.879   5.787   1.400
 8040TIP3    H224085   3.730   5.769   1.380
 8041TIP3   OH224086   2.807   4.306   1.083
 8041TIP3    H124087   2.850   4.387   1.110
 8041TIP3    H224088   2.756   4.330   1.006
 8042TIP3   OH224089   5.385   2.945   0.468
 8042TIP3    H124090   5.380   2.912   0.378
 8042TIP3    H224091   5.404   3.038   0.459
 8043TIP3   OH224092   1.276   0.029   0.854
 8043TIP3    H124093   1.310   0.066   0.936
 8043TIP3    H224094   1.182   0.018   0.870
 8044TIP3   OH224095   6.363   3.451   1.830
 8044TIP3    H124096   6.309   3.529   1.840
 8044TIP3    H224097   6.326   3.406   1.754
 8045TIP3   OH224098   6.194   1.819   5.655
 8045TIP3    H124099   6.212   1.726   5.639
 8045TIP3    H224100   6.137   1.819   5.732
 8046TIP3   OH224101   6.356   2.599   5.473
 8046TIP3    H124102   6.272   2.596   5.427
 8046TIP3    H224103   6.389   2.509   5.468
 8047TIP3   OH224104   4.409   0.403   3.316
 8047TIP3    H124105   4.446   0.385   3.229
 8047TIP3    H224106   4.346   0.332   3.330
 8048TIP3   OH224107   1.965   2.748   4.830
 8048TIP3    H124108   2.052   2.778   4.859
 8048TIP3    H224109   1.984   2.678   4.769
 8049TIP3   OH224110   4.933   3.000   2.393
 8049TIP3    H124111   4.981   3.082   2.405
 8049TIP3    H224112   4.844   3.019   2.425
 8050TIP3   OH224113   6.248   1.853   1.763
 8050TIP3    H124114   6.287   1.791   1.825
 8050TIP3    H224115   6.168   1.810   1.732
 8051TIP3   OH224116   0.940   3.907   1.677
 8051TIP3    H124117   0.895   3.936   1.756
 8051TIP3    H224118   1.009   3.972   1.663
 8052TIP3   OH224119   5.206   0.315   3.766
 8052TIP3    H124120   5.208   0.410   3.778
 8052TIP3    H224121   5.168   0.302   3.679
 8053TIP3   OH224122   2.844   6.676   3.930
 8053TIP3    H124123   2.832   6.672   4.024
 8053TIP3    H224124   2.804   6.595   3.897
 8054TIP3   OH224125   2.955   5.090   2.932
 8054TIP3    H124126   3.036   5.039   2.930
 8054TIP3    H224127   2.955   5.137   2.849
 8055TIP3   OH224128   1.576   5.482   4.069
 8055TIP3    H124129   1.573   5.396   4.111
 8055TIP3    H224130   1.649   5.527   4.111
 8056TIP3   OH224131   3.662   4.898   4.499
 8056TIP3    H124132   3.596   4.847   4.546
 8056TIP3    H224133   3.643   4.883   4.406
 8057TIP3   OH224134   4.513   5.719   1.323
 8057TIP3    H124135   4.467   5.698   1.405
 8057TIP3    H224136   4.533   5.813   1.331
 8058TIP3   OH224137   1.826   2.129   4.230
 8058TIP3    H124138   1.805   2.219   4.254
 8058TIP3    H224139   1.843   2.132   4.136
 8059TIP3   OH224140   5.648   6.683   2.196
 8059TIP3    H124141   5.703   6.743   2.146
 8059TIP3    H224142   5.709   6.618   2.232
 8060TIP3   OH224143   6.267   5.035   5.589
 8060TIP3    H124144   6.304   5.066   5.506
 8060TIP3    H224145   6.246   4.943   5.572
 8061TIP3   OH224146   2.016   1.457   4.904
 8061TIP3    H124147   2.053   1.477   4.990
 8061TIP3    H224148   2.089   1.465   4.843
 8062TIP3   OH224149   3.058   0.611   5.049
 8062TIP3    H124150   3.117   0.576   5.116
 8062TIP3    H224151   3.002   0.673   5.096
 8063TIP3   OH224152   6.659   2.655   3.782
 8063TIP3    H124153   6.604   2.733   3.795
 8063TIP3    H224154   6.728   2.663   3.848
 8064TIP3   OH224155   7.079   1.771   2.061
 8064TIP3    H124156   7.010   1.835   2.047
 8064TIP3    H224157   7.109   1.787   2.150
 8065TIP3   OH224158   4.902   2.837   5.614
 8065TIP3    H124159   4.930   2.928   5.602
 8065TIP3    H224160   4.897   2.802   5.525
 8066TIP3   OH224161   4.300   5.887   2.397
 8066TIP3    H124162   4.303   5.803   2.351
 8066TIP3    H224163   4.382   5.889   2.447
 8067TIP3   OH224164   5.070   2.559   4.293
 8067TIP3    H124165   5.073   2.473   4.336
 8067TIP3    H224166   4.981   2.564   4.257
 8068TIP3   OH224167   3.817   6.417   2.317
 8068TIP3    H124168   3.743   6.442   2.261
 8068TIP3    H224169   3.866   6.498   2.329
 8069TIP3   OH224170   5.671   2.581   1.145
 8069TIP3    H124171   5.677   2.632   1.225
 8069TIP3    H224172   5.598   2.521   1.160
 8070TIP3   OH224173   3.576   6.232   5.434
 8070TIP3    H124174   3.571   6.188   5.349
 8070TIP3    H224175   3.558   6.324   5.415
 8071TIP3   OH224176   0.263   6.757   2.143
 8071TIP3    H124177   0.259   6.669   2.181
 8071TIP3    H224178   0.342   6.757   2.089
 8072TIP3   OH224179   3.170   6.572   4.126
 8072TIP3    H124180   3.220   6.647   4.094
 8072TIP3    H224181   3.196   6.563   4.218
 8073TIP3   OH224182   4.724   3.945   3.413
 8073TIP3    H124183   4.729   3.982   3.325
 8073TIP3    H224184   4.810   3.963   3.452
 8074TIP3   OH224185   6.099   1.290   0.998
 8074TIP3    H124186   6.032   1.358   1.002
 8074TIP3    H224187   6.180   1.334   1.021
 8075TIP3   OH224188   4.634   6.415   3.216
 8075TIP3    H124189   4.552   6.465   3.223
 8075TIP3    H224190   4.654   6.390   3.306
 8076TIP3   OH224191   1.031   4.433   0.981
 8076TIP3    H124192   1.107   4.480   0.947
 8076TIP3    H224193   1.069   4.368   1.041
 8077TIP3   OH224194   0.249   0.635   3.993
 8077TIP3    H124195   0.267   0.704   3.929
 8077TIP3    H224196   0.162   0.602   3.969
 8078TIP3   OH224197   0.351   3.551   4.192
 8078TIP3    H124198   0.445   3.562   4.205
 8078TIP3    H224199   0.312   3.629   4.231
 8079TIP3   OH224200   2.053   5.812   2.145
 8079TIP3    H124201   2.026   5.724   2.120
 8079TIP3    H224202   2.148   5.806   2.156
 8080TIP3   OH224203   1.982   0.126   4.407
 8080TIP3    H124204   1.942   0.078   4.334
 8080TIP3    H224205   1.923   0.200   4.422
 8081TIP3   OH224206   3.056   3.305   1.608
 8081TIP3    H124207   3.086   3.265   1.690
 8081TIP3    H224208   3.113   3.381   1.597
 8082TIP3   OH224209   3.360   5.456   1.243
 8082TIP3    H124210   3.322   5.405   1.315
 8082TIP3    H224211   3.298   5.527   1.229
 8083TIP3   OH224212   5.239   6.356   2.879
 8083TIP3    H124213   5.183   6.300   2.826
 8083TIP3    H224214   5.312   6.379   2.822
 8084TIP3   OH224215   3.994   4.596   3.626
 8084TIP3    H124216   3.925   4.592   3.692
 8084TIP3    H224217   4.031   4.683   3.635
 8085TIP3   OH224218   0.196   2.751   0.361
 8085TIP3    H124219   0.242   2.824   0.402
 8085TIP3    H224220   0.164   2.699   0.435
 8086TIP3   OH224221   0.780   6.701   0.316
 8086TIP3    H124222   0.757   6.771   0.254
 8086TIP3    H224223   0.710   6.636   0.306
 8087TIP3   OH224224   5.588   1.670   4.295
 8087TIP3    H124225   5.499   1.669   4.330
 8087TIP3    H224226   5.579   1.712   4.209
 8088TIP3   OH224227   2.400   2.235   4.279
 8088TIP3    H124228   2.340   2.298   4.317
 8088TIP3    H224229   2.345   2.178   4.225
 8089TIP3   OH224230   1.892   0.787   0.880
 8089TIP3    H124231   1.915   0.707   0.928
 8089TIP3    H224232   1.971   0.841   0.887
 8090TIP3   OH224233   2.635   3.819   0.729
 8090TIP3    H124234   2.730   3.825   0.737
 8090TIP3    H224235   2.602   3.841   0.817
 8091TIP3   OH224236   5.114   1.792   4.683
 8091TIP3    H124237   5.115   1.804   4.778
 8091TIP3    H224238   5.032   1.746   4.665
 8092TIP3   OH224239   6.021   6.302   4.896
 8092TIP3    H124240   6.110   6.330   4.875
 8092TIP3    H224241   5.992   6.363   4.964
 8093TIP3   OH224242   4.499   5.639   1.050
 8093TIP3    H124243   4.526   5.663   1.139
 8093TIP3    H224244   4.492   5.723   1.004
 8094TIP3   OH224245   3.660   3.700   2.486
 8094TIP3    H124246   3.618   3.785   2.472
 8094TIP3    H224247   3.695   3.705   2.575
 8095TIP3   OH224248   0.926   0.219   1.559
 8095TIP3    H124249   1.009   0.261   1.538
 8095TIP3    H224250   0.943   0.125   1.548
 8096TIP3   OH224251   6.734   0.716   2.188
 8096TIP3    H124252   6.775   0.630   2.193
 8096TIP3    H224253   6.733   0.748   2.278
 8097TIP3   OH224254   4.424   1.038   3.891
 8097TIP3    H124255   4.517   1.032   3.870
 8097TIP3    H224256   4.380   0.992   3.819
 8098TIP3   OH224257   5.160   0.919   4.660
 8098TIP3    H124258   5.118   0.928   4.575
 8098TIP3    H224259   5.091   0.889   4.718
 8099TIP3   OH224260   5.450   6.248   3.095
 8099TIP3    H124261   5.469   6.342   3.103
 8099TIP3    H224262   5.383   6.232   3.162
 8100TIP3   OH224263   1.038   6.498   1.662
 8100TIP3    H124264   1.055   6.423   1.718
 8100TIP3    H224265   1.109   6.496   1.597
 8101TIP3   OH224266   5.852   4.400   4.785
 8101TIP3    H124267   5.805   4.474   4.823
 8101TIP3    H224268   5.807   4.382   4.703
 8102TIP3   OH224269   1.380   0.292   2.256
 8102TIP3    H124270   1.423   0.245   2.184
 8102TIP3    H224271   1.435   0.274   2.332
 8103TIP3   OH224272   3.073   6.505   5.463
 8103TIP3    H124273   3.116   6.420   5.457
 8103TIP3    H224274   2.995   6.489   5.516
 8104TIP3   OH224275   5.339   2.020   0.943
 8104TIP3    H124276   5.323   1.927   0.927
 8104TIP3    H224277   5.252   2.058   0.952
 8105TIP3   OH224278   2.431   0.364   0.599
 8105TIP3    H124279   2.406   0.290   0.655
 8105TIP3    H224280   2.425   0.330   0.510
 8106TIP3   OH224281   4.203   4.966   0.364
 8106TIP3    H124282   4.121   4.971   0.414
 8106TIP3    H224283   4.189   4.893   0.303
 8107TIP3   OH224284   1.887   4.877   3.695
 8107TIP3    H124285   1.863   4.891   3.787
 8107TIP3    H224286   1.935   4.795   3.695
 8108TIP3   OH224287   3.340   0.402   3.579
 8108TIP3    H124288   3.410   0.360   3.529
 8108TIP3    H224289   3.385   0.461   3.640
 8109TIP3   OH224290   1.453   3.315   0.294
 8109TIP3    H124291   1.410   3.294   0.377
 8109TIP3    H224292   1.398   3.382   0.254
 8110TIP3   OH224293   1.772   4.578   5.079
 8110TIP3    H124294   1.698   4.594   5.137
 8110TIP3    H224295   1.848   4.613   5.126
 8111TIP3   OH224296   1.650   0.658   2.161
 8111TIP3    H124297   1.582   0.713   2.200
 8111TIP3    H224298   1.732   0.692   2.197
 8112TIP3   OH224299   1.768   5.269   2.711
 8112TIP3    H124300   1.783   5.359   2.742
 8112TIP3    H224301   1.674   5.255   2.722
 8113TIP3   OH224302   7.230   1.833   5.263
 8113TIP3    H124303   7.228   1.926   5.239
 8113TIP3    H224304   7.224   1.787   5.180
 8114TIP3   OH224305   5.155   4.532   5.483
 8114TIP3    H124306   5.094   4.517   5.411
 8114TIP3    H224307   5.181   4.624   5.475
 8115TIP3   OH224308   4.162   3.818   4.905
 8115TIP3    H124309   4.188   3.881   4.838
 8115TIP3    H224310   4.090   3.861   4.951
 8116TIP3   OH224311   6.557   0.362   2.138
 8116TIP3    H124312   6.651   0.370   2.123
 8116TIP3    H224313   6.519   0.440   2.096
 8117TIP3   OH224314   4.204   3.752   3.459
 8117TIP3    H124315   4.183   3.698   3.535
 8117TIP3    H224316   4.119   3.784   3.428
 8118TIP3   OH224317   3.353   0.563   4.151
 8118TIP3    H124318   3.406   0.567   4.231
 8118TIP3    H224319   3.371   0.477   4.114
 8119TIP3   OH224320   5.295   2.093   2.797
 8119TIP3    H124321   5.359   2.158   2.768
 8119TIP3    H224322   5.322   2.012   2.754
 8120TIP3   OH224323   4.202   5.053   5.654
 8120TIP3    H124324   4.229   5.076   5.743
 8120TIP3    H224325   4.121   5.004   5.666
 8121TIP3   OH224326   2.107   3.728   0.351
 8121TIP3    H124327   2.193   3.751   0.318
 8121TIP3    H224328   2.054   3.807   0.336
 8122TIP3   OH224329   5.230   6.061   0.988
 8122TIP3    H124330   5.201   6.113   1.063
 8122TIP3    H224331   5.165   5.991   0.980
 8123TIP3   OH224332   0.291   2.664   3.117
 8123TIP3    H124333   0.220   2.703   3.067
 8123TIP3    H224334   0.262   2.574   3.134
 8124TIP3   OH224335   4.483   5.401   5.496
 8124TIP3    H124336   4.492   5.488   5.458
 8124TIP3    H224337   4.541   5.402   5.572
 8125TIP3   OH224338   2.383   1.014   0.171
 8125TIP3    H124339   2.366   1.036   0.079
 8125TIP3    H224340   2.356   0.922   0.178
 8126TIP3   OH224341   3.931   4.085   1.227
 8126TIP3    H124342   3.838   4.101   1.212
 8126TIP3    H224343   3.946   4.110   1.318
 8127TIP3   OH224344   4.055   1.922   2.167
 8127TIP3    H124345   4.079   2.001   2.215
 8127TIP3    H224346   3.996   1.952   2.098
 8128TIP3   OH224347   5.209   1.054   0.212
 8128TIP3    H124348   5.195   0.978   0.155
 8128TIP3    H224349   5.285   1.098   0.175
 8129TIP3   OH224350   6.488   6.599   4.200
 8129TIP3    H124351   6.450   6.645   4.275
 8129TIP3    H224352   6.458   6.509   4.210
 8130TIP3   OH224353   2.426   5.592   1.782
 8130TIP3    H124354   2.337   5.628   1.773
 8130TIP3    H224355   2.477   5.638   1.715
 8131TIP3   OH224356   3.212   3.611   0.985
 8131TIP3    H124357   3.186   3.691   1.031
 8131TIP3    H224358   3.298   3.590   1.020
 8132TIP3   OH224359   2.858   3.055   2.873
 8132TIP3    H124360   2.794   3.091   2.934
 8132TIP3    H224361   2.806   3.026   2.798
 8133TIP3   OH224362   5.781   6.452   2.511
 8133TIP3    H124363   5.830   6.380   2.552
 8133TIP3    H224364   5.792   6.526   2.571
 8134TIP3   OH224365   0.853   6.766   3.016
 8134TIP3    H124366   0.765   6.730   3.019
 8134TIP3    H224367   0.844   6.856   3.047
 8135TIP3   OH224368   5.709   3.487   1.608
 8135TIP3    H124369   5.687   3.403   1.568
 8135TIP3    H224370   5.776   3.524   1.551
 8136TIP3   OH224371   6.225   5.818   0.004
 8136TIP3    H124372   6.162   5.774   0.061
 8136TIP3    H224373   6.221   5.910   0.031
 8137TIP3   OH224374   2.025   5.314   3.928
 8137TIP3    H124375   2.018   5.247   3.860
 8137TIP3    H224376   1.972   5.387   3.895
 8138TIP3   OH224377   1.846   1.555   4.581
 8138TIP3    H124378   1.897   1.614   4.527
 8138TIP3    H224379   1.901   1.476   4.589
 8139TIP3   OH224380   3.947   6.145   5.347
 8139TIP3    H124381   3.924   6.208   5.279
 8139TIP3    H224382   3.899   6.174   5.424
 8140TIP3   OH224383   5.809   5.483   5.533
 8140TIP3    H124384   5.874   5.551   5.551
 8140TIP3    H224385   5.775   5.460   5.620
 8141TIP3   OH224386   3.942   0.894   3.370
 8141TIP3    H124387   3.980   0.927   3.289
 8141TIP3    H224388   3.862   0.848   3.342
 8142TIP3   OH224389   2.239   4.242   0.021
 8142TIP3    H124390   2.220   4.333  -0.004
 8142TIP3    H224391   2.322   4.247   0.068
 8143TIP3   OH224392   5.594   4.027   0.718
 8143TIP3    H124393   5.634   3.988   0.640
 8143TIP3    H224394   5.500   4.022   0.701
 8144TIP3   OH224395   6.821   1.877   2.022
 8144TIP3    H124396   6.726   1.879   2.032
 8144TIP3    H224397   6.846   1.969   2.014
 8145TIP3   OH224398   4.417   0.816   2.674
 8145TIP3    H124399   4.422   0.722   2.691
 8145TIP3    H224400   4.369   0.823   2.591
 8146TIP3   OH224401   0.333   2.407   4.099
 8146TIP3    H124402   0.291   2.458   4.029
 8146TIP3    H224403   0.267   2.402   4.167
 8147TIP3   OH224404   4.012   0.358   2.028
 8147TIP3    H124405   4.042   0.285   1.973
 8147TIP3    H224406   4.037   0.436   1.978
 8148TIP3   OH224407   0.286   5.661   5.514
 8148TIP3    H124408   0.363   5.642   5.567
 8148TIP3    H224409   0.318   5.719   5.445
 8149TIP3   OH224410   5.080   6.603   4.759
 8149TIP3    H124411   5.081   6.620   4.664
 8149TIP3    H224412   5.172   6.597   4.783
 8150TIP3   OH224413   4.159   2.863   1.958
 8150TIP3    H124414   4.181   2.949   1.922
 8150TIP3    H224415   4.070   2.873   1.991
 8151TIP3   OH224416   2.846   5.347   3.960
 8151TIP3    H124417   2.759   5.384   3.946
 8151TIP3    H224418   2.888   5.409   4.020
 8152TIP3   OH224419   5.407   6.054   0.032
 8152TIP3    H124420   5.439   6.099   0.111
 8152TIP3    H224421   5.372   6.125  -0.023
 8153TIP3   OH224422   5.633   3.658   3.688
 8153TIP3    H124423   5.584   3.706   3.754
 8153TIP3    H224424   5.664   3.724   3.627
 8154TIP3   OH224425   1.931   0.618   0.109
 8154TIP3    H124426   1.912   0.579   0.195
 8154TIP3    H224427   1.936   0.543   0.050
 8155TIP3   OH224428   0.907   4.321   2.927
 8155TIP3    H124429   0.849   4.368   2.987
 8155TIP3    H224430   0.952   4.389   2.877
 8156TIP3   OH224431   0.599   4.264   3.965
 8156TIP3    H124432   0.599   4.349   3.920
 8156TIP3    H224433   0.691   4.237   3.963
 8157TIP3   OH224434   1.103   5.610   3.546
 8157TIP3    H124435   1.179   5.556   3.573
 8157TIP3    H224436   1.027   5.555   3.567
 8158TIP3   OH224437   7.035   2.659   4.210
 8158TIP3    H124438   7.116   2.697   4.242
 8158TIP3    H224439   6.982   2.734   4.183
 8159TIP3   OH224440   0.300   5.067   4.823
 8159TIP3    H124441   0.335   5.136   4.880
 8159TIP3    H224442   0.364   5.060   4.753
 8160TIP3   OH224443   2.253   4.603   4.111
 8160TIP3    H124444   2.299   4.686   4.102
 8160TIP3    H224445   2.168   4.617   4.070
 8161TIP3   OH224446   3.269   1.103   5.629
 8161TIP3    H124447   3.263   1.182   5.683
 8161TIP3    H224448   3.185   1.059   5.643
 8162TIP3   OH224449   6.231   6.753   4.151
 8162TIP3    H124450   6.241   6.662   4.123
 8162TIP3    H224451   6.155   6.784   4.101
 8163TIP3   OH224452   2.379   0.220   3.389
 8163TIP3    H124453   2.342   0.304   3.417
 8163TIP3    H224454   2.431   0.241   3.311
 8164TIP3   OH224455   6.397   4.183   2.313
 8164TIP3    H124456   6.455   4.123   2.360
 8164TIP3    H224457   6.332   4.126   2.272
 8165TIP3   OH224458   7.153   5.562   5.441
 8165TIP3    H124459   7.113   5.562   5.528
 8165TIP3    H224460   7.118   5.483   5.399
 8166TIP3   OH224461   3.877   4.150   2.577
 8166TIP3    H124462   3.864   4.198   2.659
 8166TIP3    H224463   3.895   4.218   2.512
 8167TIP3   OH224464   1.193   0.104   2.707
 8167TIP3    H124465   1.241   0.035   2.661
 8167TIP3    H224466   1.259   0.168   2.731
 8168TIP3   OH224467   6.677   0.843   3.534
 8168TIP3    H124468   6.725   0.924   3.551
 8168TIP3    H224469   6.588   0.862   3.564
 8169TIP3   OH224470   3.131   5.005   4.370
 8169TIP3    H124471   3.151   4.929   4.425
 8169TIP3    H224472   3.210   5.057   4.371
 8170TIP3   OH224473   5.411   1.441   4.968
 8170TIP3    H124474   5.445   1.530   4.981
 8170TIP3    H224475   5.398   1.407   5.057
 8171TIP3   OH224476   1.776   1.633   2.610
 8171TIP3    H124477   1.682   1.642   2.595
 8171TIP3    H224478   1.800   1.552   2.565
 8172TIP3   OH224479   4.652   0.608   0.948
 8172TIP3    H124480   4.567   0.650   0.955
 8172TIP3    H224481   4.637   0.517   0.975
 8173TIP3   OH224482   5.045   4.892   2.908
 8173TIP3    H124483   5.002   4.850   2.834
 8173TIP3    H224484   5.036   4.986   2.891
 8174TIP3   OH224485   0.722   3.081   1.247
 8174TIP3    H124486   0.674   3.112   1.323
 8174TIP3    H224487   0.799   3.139   1.242
 8175TIP3   OH224488   2.881   3.532   5.609
 8175TIP3    H124489   2.968   3.525   5.570
 8175TIP3    H224490   2.830   3.463   5.567
 8176TIP3   OH224491   6.296   6.317   3.832
 8176TIP3    H124492   6.226   6.253   3.831
 8176TIP3    H224493   6.377   6.266   3.829
 8177TIP3   OH224494   1.649   3.842   3.341
 8177TIP3    H124495   1.578   3.837   3.277
 8177TIP3    H224496   1.726   3.868   3.291
 8178TIP3   OH224497   3.297   6.335   4.079
 8178TIP3    H124498   3.229   6.398   4.104
 8178TIP3    H224499   3.378   6.386   4.083
 8179TIP3   OH224500   4.885   5.131   1.237
 8179TIP3    H124501   4.931   5.195   1.291
 8179TIP3    H224502   4.950   5.100   1.175
 8180TIP3   OH224503   5.171   1.639   1.991
 8180TIP3    H124504   5.190   1.576   1.922
 8180TIP3    H224505   5.143   1.718   1.945
 8181TIP3   OH224506   5.490   4.146   4.712
 8181TIP3    H124507   5.473   4.150   4.806
 8181TIP3    H224508   5.466   4.233   4.680
 8182TIP3   OH224509   0.389   6.713   2.740
 8182TIP3    H124510   0.331   6.698   2.814
 8182TIP3    H224511   0.427   6.627   2.721
 8183TIP3   OH224512   5.614   0.383   5.396
 8183TIP3    H124513   5.591   0.299   5.357
 8183TIP3    H224514   5.627   0.364   5.489
 8184TIP3   OH224515   1.234   4.003   3.119
 8184TIP3    H124516   1.165   3.987   3.184
 8184TIP3    H224517   1.228   3.929   3.060
 8185TIP3   OH224518   2.533   3.185   0.687
 8185TIP3    H124519   2.560   3.121   0.622
 8185TIP3    H224520   2.610   3.242   0.699
 8186TIP3   OH224521   2.062   2.331   3.368
 8186TIP3    H124522   1.998   2.306   3.301
 8186TIP3    H224523   2.036   2.420   3.394
 8187TIP3   OH224524   5.767   4.136   0.360
 8187TIP3    H124525   5.793   4.149   0.452
 8187TIP3    H224526   5.699   4.202   0.345
 8188TIP3   OH224527   3.963   4.691   3.306
 8188TIP3    H124528   3.988   4.783   3.307
 8188TIP3    H224529   3.939   4.672   3.397
 8189TIP3   OH224530   4.401   5.460   2.341
 8189TIP3    H124531   4.391   5.545   2.298
 8189TIP3    H224532   4.477   5.421   2.299
 8190TIP3   OH224533   5.190   1.307   3.374
 8190TIP3    H124534   5.206   1.227   3.424
 8190TIP3    H224535   5.097   1.303   3.350
 8191TIP3   OH224536   5.509   1.258   2.480
 8191TIP3    H124537   5.487   1.168   2.456
 8191TIP3    H224538   5.605   1.260   2.482
 8192TIP3   OH224539   3.150   0.048   5.633
 8192TIP3    H124540   3.121   0.133   5.666
 8192TIP3    H224541   3.109   0.041   5.547
 8193TIP3   OH224542   6.027   2.828   3.843
 8193TIP3    H124543   6.029   2.780   3.926
 8193TIP3    H224544   5.953   2.791   3.796
 8194TIP3   OH224545   4.003   1.826   5.242
 8194TIP3    H124546   4.082   1.851   5.194
 8194TIP3    H224547   3.950   1.778   5.178
 8195TIP3   OH224548   2.053   2.150   2.029
 8195TIP3    H124549   2.008   2.065   2.026
 8195TIP3    H224550   2.025   2.189   2.112
 8196TIP3   OH224551   0.727   3.251   2.156
 8196TIP3    H124552   0.765   3.164   2.149
 8196TIP3    H224553   0.641   3.243   2.116
 8197TIP3   OH224554   0.375   1.236   2.613
 8197TIP3    H124555   0.325   1.314   2.638
 8197TIP3    H224556   0.454   1.240   2.667
 8198TIP3   OH224557   2.544   4.355   3.091
 8198TIP3    H124558   2.581   4.397   3.013
 8198TIP3    H224559   2.593   4.274   3.100
 8199TIP3   OH224560   4.132   6.563   1.788
 8199TIP3    H124561   4.074   6.538   1.859
 8199TIP3    H224562   4.084   6.540   1.708
 8200TIP3   OH224563   3.441   4.400   5.614
 8200TIP3    H124564   3.371   4.337   5.595
 8200TIP3    H224565   3.406   4.454   5.684
 8201TIP3   OH224566   2.834   4.284   3.995
 8201TIP3    H124567   2.916   4.312   4.034
 8201TIP3    H224568   2.857   4.208   3.942
 8202TIP3   OH224569   0.563   0.577   4.332
 8202TIP3    H124570   0.553   0.546   4.422
 8202TIP3    H224571   0.564   0.672   4.338
 8203TIP3   OH224572   0.411   2.118   4.216
 8203TIP3    H124573   0.436   2.094   4.127
 8203TIP3    H224574   0.329   2.165   4.206
 8204TIP3   OH224575   0.929   2.734   4.129
 8204TIP3    H124576   0.971   2.688   4.056
 8204TIP3    H224577   0.975   2.818   4.135
 8205TIP3   OH224578   4.498   1.398   3.049
 8205TIP3    H124579   4.434   1.411   2.979
 8205TIP3    H224580   4.450   1.415   3.129
 8206TIP3   OH224581   2.418   6.630   2.386
 8206TIP3    H124582   2.345   6.690   2.397
 8206TIP3    H224583   2.488   6.684   2.348
 8207TIP3   OH224584   5.730   5.960   4.463
 8207TIP3    H124585   5.687   5.959   4.549
 8207TIP3    H224586   5.703   5.878   4.422
 8208TIP3   OH224587   0.064   1.257   3.362
 8208TIP3    H124588   0.115   1.335   3.380
 8208TIP3    H224589   0.022   1.236   3.445
 8209TIP3   OH224590   5.862   2.104   0.666
 8209TIP3    H124591   5.867   2.086   0.572
 8209TIP3    H224592   5.769   2.120   0.683
 8210TIP3   OH224593   4.502   4.310   3.197
 8210TIP3    H124594   4.481   4.393   3.239
 8210TIP3    H224595   4.501   4.246   3.268
 8211TIP3   OH224596   2.861   1.414   4.626
 8211TIP3    H124597   2.902   1.328   4.634
 8211TIP3    H224598   2.933   1.473   4.605
 8212TIP3   OH224599   0.386   3.810   5.303
 8212TIP3    H124600   0.371   3.719   5.278
 8212TIP3    H224601   0.481   3.821   5.298
 8213TIP3   OH224602   0.498   3.003   0.130
 8213TIP3    H124603   0.495   2.908   0.141
 8213TIP3    H224604   0.590   3.023   0.115
 8214TIP3   OH224605   4.588   5.668   4.273
 8214TIP3    H124606   4.594   5.759   4.302
 8214TIP3    H224607   4.653   5.622   4.326
 8215TIP3   OH224608   6.933   0.155   2.264
 8215TIP3    H124609   6.841   0.152   2.292
 8215TIP3    H224610   6.983   0.145   2.344
 8216TIP3   OH224611   5.070   6.704   3.534
 8216TIP3    H124612   5.095   6.705   3.626
 8216TIP3    H224613   4.986   6.659   3.533
 8217TIP3   OH224614   0.485   0.584   2.524
 8217TIP3    H124615   0.579   0.566   2.522
 8217TIP3    H224616   0.460   0.573   2.616
 8218TIP3   OH224617   3.327   5.702   0.022
 8218TIP3    H124618   3.254   5.641   0.011
 8218TIP3    H224619   3.291   5.773   0.075
 8219TIP3   OH224620   2.983   3.525   0.644
 8219TIP3    H124621   3.062   3.575   0.664
 8219TIP3    H224622   3.012   3.456   0.586
 8220TIP3   OH224623   5.173   5.244   3.846
 8220TIP3    H124624   5.215   5.307   3.905
 8220TIP3    H224625   5.117   5.191   3.902
 8221TIP3   OH224626   4.549   0.475   1.764
 8221TIP3    H124627   4.575   0.503   1.676
 8221TIP3    H224628   4.477   0.414   1.749
 8222TIP3   OH224629   6.859   1.100   3.818
 8222TIP3    H124630   6.779   1.052   3.840
 8222TIP3    H224631   6.927   1.033   3.820
 8223TIP3   OH224632   4.952   0.318   2.750
 8223TIP3    H124633   4.908   0.389   2.704
 8223TIP3    H224634   5.032   0.358   2.786
 8224TIP3   OH224635   4.613   3.747   5.756
 8224TIP3    H124636   4.688   3.807   5.758
 8224TIP3    H224637   4.557   3.782   5.687
 8225TIP3   OH224638   6.717   2.473   4.220
 8225TIP3    H124639   6.654   2.407   4.189
 8225TIP3    H224640   6.709   2.471   4.316
 8226TIP3   OH224641   6.605   3.728   1.295
 8226TIP3    H124642   6.667   3.727   1.368
 8226TIP3    H224643   6.645   3.785   1.229
 8227TIP3   OH224644   3.970   4.606   2.180
 8227TIP3    H124645   4.006   4.639   2.263
 8227TIP3    H224646   4.041   4.554   2.143
 8228TIP3   OH224647   2.384   4.500   2.585
 8228TIP3    H124648   2.347   4.412   2.596
 8228TIP3    H224649   2.307   4.558   2.590
 8229TIP3   OH224650   4.590   5.726   1.723
 8229TIP3    H124651   4.574   5.813   1.688
 8229TIP3    H224652   4.613   5.673   1.647
 8230TIP3   OH224653   4.150   2.998   0.696
 8230TIP3    H124654   4.166   3.060   0.625
 8230TIP3    H224655   4.206   3.028   0.768
 8231TIP3   OH224656   2.035   4.420   1.351
 8231TIP3    H124657   2.039   4.508   1.312
 8231TIP3    H224658   2.083   4.365   1.289
 8232TIP3   OH224659   3.843   4.098   4.699
 8232TIP3    H124660   3.784   4.051   4.758
 8232TIP3    H224661   3.788   4.163   4.656
 8233TIP3   OH224662   1.678   5.784   3.211
 8233TIP3    H124663   1.613   5.813   3.147
 8233TIP3    H224664   1.738   5.859   3.220
 8234TIP3   OH224665   4.279   6.253   5.223
 8234TIP3    H124666   4.214   6.258   5.153
 8234TIP3    H224667   4.227   6.234   5.301
 8235TIP3   OH224668   2.469   4.050   4.016
 8235TIP3    H124669   2.493   4.140   4.038
 8235TIP3    H224670   2.373   4.048   4.025
 8236TIP3   OH224671   2.248   0.053   2.853
 8236TIP3    H124672   2.214   0.089   2.771
 8236TIP3    H224673   2.333   0.096   2.864
 8237TIP3   OH224674   6.956   4.021   5.725
 8237TIP3    H124675   6.933   4.018   5.632
 8237TIP3    H224676   7.048   3.995   5.727
 8238TIP3   OH224677   3.223   1.008   4.048
 8238TIP3    H124678   3.270   1.033   3.968
 8238TIP3    H224679   3.170   0.933   4.022
 8239TIP3   OH224680   3.068   4.484   1.713
 8239TIP3    H124681   3.006   4.481   1.787
 8239TIP3    H224682   3.030   4.547   1.652
 8240TIP3   OH224683   3.724   1.511   5.819
 8240TIP3    H124684   3.814   1.505   5.788
 8240TIP3    H224685   3.690   1.592   5.780
 8241TIP3   OH224686   3.580   4.211   1.775
 8241TIP3    H124687   3.520   4.265   1.827
 8241TIP3    H224688   3.522   4.155   1.723
 8242TIP3   OH224689   1.483   3.690   4.900
 8242TIP3    H124690   1.561   3.635   4.903
 8242TIP3    H224691   1.437   3.661   4.821
 8243TIP3   OH224692   5.664   2.955   2.878
 8243TIP3    H124693   5.703   2.873   2.850
 8243TIP3    H224694   5.717   2.983   2.952
 8244TIP3   OH224695   5.437   0.143   2.222
 8244TIP3    H124696   5.367   0.129   2.285
 8244TIP3    H224697   5.499   0.072   2.238
 8245TIP3   OH224698   0.055   4.076   1.302
 8245TIP3    H124699   0.080   4.077   1.209
 8245TIP3    H224700  -0.017   4.139   1.308
 8246TIP3   OH224701   0.118   2.066   4.461
 8246TIP3    H124702   0.114   1.972   4.447
 8246TIP3    H224703   0.188   2.079   4.525
 8247TIP3   OH224704   0.768   4.643   3.483
 8247TIP3    H124705   0.690   4.673   3.531
 8247TIP3    H224706   0.838   4.645   3.547
 8248TIP3   OH224707   2.503   5.920   2.391
 8248TIP3    H124708   2.561   5.947   2.462
 8248TIP3    H224709   2.525   5.828   2.375
 8249TIP3   OH224710   5.774   1.244   0.770
 8249TIP3    H124711   5.787   1.337   0.753
 8249TIP3    H224712   5.860   1.205   0.753
 8250TIP3   OH224713   3.081   2.347   1.649
 8250TIP3    H124714   3.147   2.326   1.715
 8250TIP3    H224715   3.083   2.442   1.642
 8251TIP3   OH224716   3.848   4.444   1.420
 8251TIP3    H124717   3.819   4.447   1.511
 8251TIP3    H224718   3.769   4.421   1.371
 8252TIP3   OH224719   4.407   1.496   0.646
 8252TIP3    H124720   4.463   1.530   0.576
 8252TIP3    H224721   4.465   1.441   0.699
 8253TIP3   OH224722   0.741   4.787   1.144
 8253TIP3    H124723   0.742   4.827   1.057
 8253TIP3    H224724   0.724   4.860   1.204
 8254TIP3   OH224725   3.098   4.457   2.083
 8254TIP3    H124726   3.010   4.495   2.076
 8254TIP3    H224727   3.091   4.372   2.039
 8255TIP3   OH224728   0.984   6.553   3.905
 8255TIP3    H124729   0.955   6.505   3.983
 8255TIP3    H224730   1.046   6.618   3.938
 8256TIP3   OH224731   4.175   0.509   2.519
 8256TIP3    H124732   4.132   0.511   2.433
 8256TIP3    H224733   4.203   0.418   2.530
 8257TIP3   OH224734   1.074   1.218   0.418
 8257TIP3    H124735   1.010   1.271   0.370
 8257TIP3    H224736   1.157   1.232   0.372
 8258TIP3   OH224737   3.856   6.124   1.977
 8258TIP3    H124738   3.811   6.206   1.999
 8258TIP3    H224739   3.918   6.148   1.908
 8259TIP3   OH224740   3.676   6.618   3.479
 8259TIP3    H124741   3.659   6.679   3.408
 8259TIP3    H224742   3.732   6.666   3.540
 8260TIP3   OH224743   2.346   1.027   0.987
 8260TIP3    H124744   2.353   0.966   1.061
 8260TIP3    H224745   2.430   1.073   0.985
 8261TIP3   OH224746   3.430   0.879   2.531
 8261TIP3    H124747   3.430   0.974   2.515
 8261TIP3    H224748   3.505   0.846   2.481
 8262TIP3   OH224749   1.261   0.545   4.255
 8262TIP3    H124750   1.196   0.497   4.204
 8262TIP3    H224751   1.259   0.504   4.342
 8263TIP3   OH224752   5.206   3.882   4.624
 8263TIP3    H124753   5.121   3.876   4.580
 8263TIP3    H224754   5.209   3.971   4.659
 8264TIP3   OH224755   4.716   2.301   4.719
 8264TIP3    H124756   4.636   2.354   4.715
 8264TIP3    H224757   4.781   2.359   4.758
 8265TIP3   OH224758   5.563   1.851   0.521
 8265TIP3    H124759   5.648   1.890   0.498
 8265TIP3    H224760   5.549   1.784   0.454
 8266TIP3   OH224761   4.830   6.527   1.275
 8266TIP3    H124762   4.827   6.475   1.195
 8266TIP3    H224763   4.739   6.543   1.298
 8267TIP3   OH224764   1.499   3.632   1.984
 8267TIP3    H124765   1.540   3.633   1.897
 8267TIP3    H224766   1.533   3.711   2.027
 8268TIP3   OH224767   0.211   1.393   3.076
 8268TIP3    H124768   0.213   1.470   3.133
 8268TIP3    H224769   0.215   1.429   2.987
 8269TIP3   OH224770   2.383   1.911   3.797
 8269TIP3    H124771   2.436   1.924   3.875
 8269TIP3    H224772   2.376   1.997   3.757
 8270TIP3   OH224773   3.701   1.562   1.909
 8270TIP3    H124774   3.671   1.533   1.823
 8270TIP3    H224775   3.665   1.650   1.918
 8271TIP3   OH224776   1.011   2.088   1.840
 8271TIP3    H124777   0.977   2.009   1.798
 8271TIP3    H224778   0.982   2.160   1.783
 8272TIP3   OH224779   6.791   3.879   0.068
 8272TIP3    H124780   6.797   3.785   0.088
 8272TIP3    H224781   6.840   3.921   0.138
 8273TIP3   OH224782   4.894   4.087   4.996
 8273TIP3    H124783   4.971   4.030   4.992
 8273TIP3    H224784   4.900   4.130   5.081
 8274TIP3   OH224785   6.258   0.405   5.887
 8274TIP3    H124786   6.353   0.402   5.893
 8274TIP3    H224787   6.239   0.381   5.796
 8275TIP3   OH224788   0.163   5.359   2.463
 8275TIP3    H124789   0.153   5.361   2.558
 8275TIP3    H224790   0.175   5.267   2.442
 8276TIP3   OH224791   7.175   2.536   1.167
 8276TIP3    H124792   7.132   2.482   1.101
 8276TIP3    H224793   7.269   2.517   1.156
 8277TIP3   OH224794   5.906   4.568   0.089
 8277TIP3    H124795   5.897   4.474   0.075
 8277TIP3    H224796   5.993   4.589   0.055
 8278TIP3   OH224797   1.398   6.105   3.362
 8278TIP3    H124798   1.429   6.186   3.322
 8278TIP3    H224799   1.375   6.049   3.289
 8279TIP3   OH224800   2.429   5.181   2.198
 8279TIP3    H124801   2.412   5.152   2.287
 8279TIP3    H224802   2.348   5.226   2.172
 8280TIP3   OH224803   1.033   5.362   0.620
 8280TIP3    H124804   1.110   5.349   0.564
 8280TIP3    H224805   1.030   5.283   0.674
 8281TIP3   OH224806   4.635   1.600   1.028
 8281TIP3    H124807   4.695   1.617   0.955
 8281TIP3    H224808   4.580   1.527   0.998
 8282TIP3   OH224809   4.416   1.874   2.204
 8282TIP3    H124810   4.475   1.799   2.205
 8282TIP3    H224811   4.466   1.943   2.160
 8283TIP3   OH224812   3.849   5.546   0.743
 8283TIP3    H124813   3.910   5.590   0.802
 8283TIP3    H224814   3.766   5.593   0.755
 8284TIP3   OH224815   2.608   5.679   2.338
 8284TIP3    H124816   2.533   5.626   2.365
 8284TIP3    H224817   2.635   5.642   2.254
 8285TIP3   OH224818   6.658   5.736   0.883
 8285TIP3    H124819   6.736   5.682   0.873
 8285TIP3    H224820   6.638   5.768   0.795
 8286TIP3   OH224821   5.119   2.418   5.586
 8286TIP3    H124822   5.186   2.486   5.590
 8286TIP3    H224823   5.039   2.461   5.617
 8287TIP3   OH224824   5.545   6.492   3.655
 8287TIP3    H124825   5.629   6.488   3.702
 8287TIP3    H224826   5.536   6.585   3.631
 8288TIP3   OH224827   5.365   4.252   4.932
 8288TIP3    H124828   5.325   4.211   5.009
 8288TIP3    H224829   5.340   4.344   4.938
 8289TIP3   OH224830  -0.030   0.777   1.956
 8289TIP3    H124831   0.006   0.721   2.025
 8289TIP3    H224832   0.048   0.812   1.912
 8290TIP3   OH224833   6.789   1.201   2.000
 8290TIP3    H124834   6.842   1.121   2.013
 8290TIP3    H224835   6.745   1.187   1.916
 8291TIP3   OH224836   0.200   3.691   4.495
 8291TIP3    H124837   0.180   3.604   4.461
 8291TIP3    H224838   0.129   3.747   4.464
 8292TIP3   OH224839   1.297   6.263   1.964
 8292TIP3    H124840   1.383   6.223   1.950
 8292TIP3    H224841   1.271   6.232   2.051
 8293TIP3   OH224842   3.604   3.396   0.842
 8293TIP3    H124843   3.696   3.396   0.870
 8293TIP3    H224844   3.554   3.384   0.922
 8294TIP3   OH224845   0.551   4.372   5.342
 8294TIP3    H124846   0.623   4.377   5.279
 8294TIP3    H224847   0.583   4.420   5.418
 8295TIP3   OH224848   2.329   1.116   4.349
 8295TIP3    H124849   2.253   1.173   4.358
 8295TIP3    H224850   2.404   1.171   4.370
 8296TIP3   OH224851   4.743   4.587   4.141
 8296TIP3    H124852   4.647   4.583   4.141
 8296TIP3    H224853   4.771   4.498   4.118
 8297TIP3   OH224854   1.189   2.757   2.665
 8297TIP3    H124855   1.137   2.836   2.681
 8297TIP3    H224856   1.129   2.697   2.622
 8298TIP3   OH224857   6.828   0.377   2.007
 8298TIP3    H124858   6.807   0.414   1.921
 8298TIP3    H224859   6.912   0.334   1.994
 8299TIP3   OH224860   2.707   2.655   0.514
 8299TIP3    H124861   2.797   2.635   0.490
 8299TIP3    H224862   2.680   2.724   0.453
 8300TIP3   OH224863   6.503   2.246   5.544
 8300TIP3    H124864   6.537   2.265   5.457
 8300TIP3    H224865   6.580   2.250   5.601
 8301TIP3   OH224866   6.574   3.281   0.195
 8301TIP3    H124867   6.652   3.232   0.170
 8301TIP3    H224868   6.579   3.286   0.290
 8302TIP3   OH224869   2.344   5.681   0.060
 8302TIP3    H124870   2.417   5.705   0.003
 8302TIP3    H224871   2.382   5.621   0.124
 8303TIP3   OH224872   4.256   0.446   5.425
 8303TIP3    H124873   4.326   0.475   5.366
 8303TIP3    H224874   4.294   0.372   5.473
 8304TIP3   OH224875   0.544   1.904   1.605
 8304TIP3    H124876   0.488   1.828   1.623
 8304TIP3    H224877   0.591   1.919   1.686
 8305TIP3   OH224878   3.708   1.521   4.838
 8305TIP3    H124879   3.636   1.556   4.891
 8305TIP3    H224880   3.675   1.438   4.804
 8306TIP3   OH224881   2.223   5.930   1.397
 8306TIP3    H124882   2.315   5.919   1.420
 8306TIP3    H224883   2.185   5.842   1.403
 8307TIP3   OH224884   5.515   2.273   2.722
 8307TIP3    H124885   5.506   2.323   2.803
 8307TIP3    H224886   5.556   2.334   2.661
 8308TIP3   OH224887   3.009   5.656   4.648
 8308TIP3    H124888   2.987   5.600   4.574
 8308TIP3    H224889   2.933   5.649   4.707
 8309TIP3   OH224890   5.903   2.793   0.138
 8309TIP3    H124891   5.902   2.799   0.043
 8309TIP3    H224892   5.883   2.701   0.156
 8310TIP3   OH224893   1.574   3.603   0.589
 8310TIP3    H124894   1.540   3.691   0.577
 8310TIP3    H224895   1.659   3.604   0.545
 8311TIP3   OH224896   0.512   1.055   3.091
 8311TIP3    H124897   0.492   0.971   3.133
 8311TIP3    H224898   0.428   1.086   3.059
 8312TIP3   OH224899   4.340   6.285   1.548
 8312TIP3    H124900   4.309   6.372   1.523
 8312TIP3    H224901   4.261   6.239   1.578
 8313TIP3   OH224902   6.238   6.057   4.173
 8313TIP3    H124903   6.201   5.970   4.189
 8313TIP3    H224904   6.330   6.050   4.199
 8314TIP3   OH224905   6.269   2.772   2.370
 8314TIP3    H124906   6.186   2.805   2.405
 8314TIP3    H224907   6.249   2.742   2.282
 8315TIP3   OH224908   2.133   3.992   2.425
 8315TIP3    H124909   2.087   3.938   2.489
 8315TIP3    H224910   2.161   4.069   2.474
 8316TIP3   OH224911   4.889   1.634   0.048
 8316TIP3    H124912   4.952   1.654  -0.022
 8316TIP3    H224913   4.936   1.574   0.106
 8317TIP3   OH224914   6.339   2.315   4.980
 8317TIP3    H124915   6.353   2.403   5.014
 8317TIP3    H224916   6.252   2.318   4.939
 8318TIP3   OH224917   2.371   6.519   1.445
 8318TIP3    H124918   2.314   6.502   1.369
 8318TIP3    H224919   2.363   6.440   1.498
 8319TIP3   OH224920   5.031   2.593   0.528
 8319TIP3    H124921   5.110   2.614   0.478
 8319TIP3    H224922   5.057   2.517   0.581
 8320TIP3   OH224923   1.922   1.195   2.985
 8320TIP3    H124924   1.882   1.109   2.985
 8320TIP3    H224925   1.972   1.199   2.903
 8321TIP3   OH224926   2.413   3.345   3.027
 8321TIP3    H124927   2.345   3.278   3.020
 8321TIP3    H224928   2.404   3.380   3.116
 8322TIP3   OH224929   1.110   5.859   0.875
 8322TIP3    H124930   1.113   5.856   0.970
 8322TIP3    H224931   1.096   5.768   0.848
 8323TIP3   OH224932   5.224   0.555   4.439
 8323TIP3    H124933   5.287   0.625   4.425
 8323TIP3    H224934   5.261   0.504   4.511
 8324TIP3   OH224935   3.139   6.605   3.395
 8324TIP3    H124936   3.194   6.642   3.464
 8324TIP3    H224937   3.189   6.620   3.314
 8325TIP3   OH224938   2.653   4.123   5.446
 8325TIP3    H124939   2.671   4.207   5.403
 8325TIP3    H224940   2.587   4.145   5.513
 8326TIP3   OH224941   2.751   3.997   0.949
 8326TIP3    H124942   2.704   4.052   1.012
 8326TIP3    H224943   2.756   4.051   0.869
 8327TIP3   OH224944   4.816   3.264   0.062
 8327TIP3    H124945   4.824   3.195  -0.004
 8327TIP3    H224946   4.722   3.267   0.081
 8328TIP3   OH224947   2.653   3.246   3.598
 8328TIP3    H124948   2.716   3.282   3.535
 8328TIP3    H224949   2.688   3.160   3.621
 8329TIP3   OH224950   2.711   4.400   2.815
 8329TIP3    H124951   2.776   4.391   2.885
 8329TIP3    H224952   2.696   4.494   2.808
 8330TIP3   OH224953   1.397   5.577   2.818
 8330TIP3    H124954   1.314   5.582   2.865
 8330TIP3    H224955   1.409   5.665   2.782
 8331TIP3   OH224956   1.618   4.248   1.129
 8331TIP3    H124957   1.599   4.328   1.080
 8331TIP3    H224958   1.642   4.279   1.216
 8332TIP3   OH224959   3.261   6.232   0.667
 8332TIP3    H124960   3.179   6.190   0.693
 8332TIP3    H224961   3.298   6.266   0.748
 8333TIP3   OH224962   6.595   1.038   1.798
 8333TIP3    H124963   6.503   1.044   1.820
 8333TIP3    H224964   6.597   1.001   1.710
 8334TIP3   OH224965   4.239   3.501   1.242
 8334TIP3    H124966   4.309   3.473   1.183
 8334TIP3    H224967   4.281   3.562   1.302
 8335TIP3   OH224968   6.142   0.623   5.082
 8335TIP3    H124969   6.199   0.699   5.096
 8335TIP3    H224970   6.203   0.550   5.069
 8336TIP3   OH224971   4.382   1.006   5.481
 8336TIP3    H124972   4.413   0.930   5.531
 8336TIP3    H224973   4.409   0.988   5.391
 8337TIP3   OH224974   2.829   3.038   1.620
 8337TIP3    H124975   2.814   3.111   1.679
 8337TIP3    H224976   2.747   2.988   1.622
 8338TIP3   OH224977   3.249   3.247   0.250
 8338TIP3    H124978   3.156   3.262   0.265
 8338TIP3    H224979   3.256   3.153   0.233
 8339TIP3   OH224980   3.245   2.514   0.472
 8339TIP3    H124981   3.321   2.569   0.492
 8339TIP3    H224982   3.283   2.433   0.438
 8340TIP3   OH224983   4.303   5.961   3.406
 8340TIP3    H124984   4.215   5.988   3.434
 8340TIP3    H224985   4.338   6.038   3.362
 8341TIP3   OH224986   2.623   5.042   3.283
 8341TIP3    H124987   2.639   4.967   3.341
 8341TIP3    H224988   2.635   5.006   3.195
 8342TIP3   OH224989   4.017   4.902   5.785
 8342TIP3    H124990   3.930   4.867   5.807
 8342TIP3    H224991   4.078   4.834   5.814
 8343TIP3   OH224992   3.338   4.629   1.829
 8343TIP3    H124993   3.395   4.610   1.754
 8343TIP3    H224994   3.257   4.583   1.809
 8344TIP3   OH224995   5.121   2.814   0.013
 8344TIP3    H124996   5.039   2.798   0.060
 8344TIP3    H224997   5.150   2.899   0.045
 8345TIP3   OH224998   7.158   2.046   0.668
 8345TIP3    H124999   7.065   2.027   0.679
 8345TIP3    H225000   7.177   2.110   0.737
 8346TIP3   OH225001   1.649   0.948   1.034
 8346TIP3    H125002   1.568   0.979   0.994
 8346TIP3    H225003   1.702   0.917   0.960
 8347TIP3   OH225004   1.981   3.478   1.034
 8347TIP3    H125005   2.002   3.422   0.960
 8347TIP3    H225006   1.893   3.511   1.016
 8348TIP3   OH225007   6.221   2.877   1.581
 8348TIP3    H125008   6.275   2.799   1.565
 8348TIP3    H225009   6.131   2.843   1.585
 8349TIP3   OH225010   6.692   0.785   5.053
 8349TIP3    H125011   6.643   0.739   4.985
 8349TIP3    H225012   6.682   0.877   5.032
 8350TIP3   OH225013   1.181   0.337   1.550
 8350TIP3    H125014   1.221   0.262   1.504
 8350TIP3    H225015   1.249   0.404   1.549
 8351TIP3   OH225016   4.352   4.027   4.567
 8351TIP3    H125017   4.380   4.050   4.478
 8351TIP3    H225018   4.277   4.083   4.584
 8352TIP3   OH225019   2.724   0.300   0.666
 8352TIP3    H125020   2.667   0.328   0.594
 8352TIP3    H225021   2.722   0.204   0.662
 8353TIP3   OH225022   5.974   4.930   4.672
 8353TIP3    H125023   6.026   4.974   4.739
 8353TIP3    H225024   5.887   4.920   4.711
 8354TIP3   OH225025   1.613  -0.014   5.416
 8354TIP3    H125026   1.681   0.050   5.435
 8354TIP3    H225027   1.558   0.029   5.351
 8355TIP3   OH225028   0.661   4.725   3.243
 8355TIP3    H125029   0.566   4.733   3.255
 8355TIP3    H225030   0.693   4.690   3.325
 8356TIP3   OH225031   7.197   4.400   4.740
 8356TIP3    H125032   7.127   4.364   4.794
 8356TIP3    H225033   7.172   4.377   4.650
 8357TIP3   OH225034   3.707   2.432   1.612
 8357TIP3    H125035   3.722   2.425   1.706
 8357TIP3    H225036   3.751   2.514   1.587
 8358TIP3   OH225037   3.434   1.286   4.230
 8358TIP3    H125038   3.503   1.339   4.268
 8358TIP3    H225039   3.466   1.196   4.237
 8359TIP3   OH225040   3.153   6.248   1.237
 8359TIP3    H125041   3.240   6.269   1.272
 8359TIP3    H225042   3.152   6.153   1.231
 8360TIP3   OH225043   5.331   6.072   2.649
 8360TIP3    H125044   5.306   5.996   2.596
 8360TIP3    H225045   5.266   6.138   2.626
 8361TIP3   OH225046   7.174   1.903   4.722
 8361TIP3    H125047   7.101   1.904   4.660
 8361TIP3    H225048   7.155   1.830   4.781
 8362TIP3   OH225049   5.915   3.566   5.441
 8362TIP3    H125050   5.997   3.530   5.476
 8362TIP3    H225051   5.913   3.657   5.472
 8363TIP3   OH225052   6.836   4.463   4.551
 8363TIP3    H125053   6.839   4.370   4.572
 8363TIP3    H225054   6.814   4.505   4.634
 8364TIP3   OH225055   6.082   6.645   3.675
 8364TIP3    H125056   6.065   6.713   3.609
 8364TIP3    H225057   6.137   6.688   3.740
 8365TIP3   OH225058   6.223   0.781   4.300
 8365TIP3    H125059   6.251   0.704   4.350
 8365TIP3    H225060   6.170   0.745   4.229
 8366TIP3   OH225061   5.021   0.922   2.802
 8366TIP3    H125062   5.084   0.943   2.871
 8366TIP3    H225063   4.957   0.865   2.844
 8367TIP3   OH225064   4.856   6.276   2.361
 8367TIP3    H125065   4.795   6.280   2.288
 8367TIP3    H225066   4.801   6.266   2.439
 8368TIP3   OH225067   0.813   6.749   3.378
 8368TIP3    H125068   0.721   6.725   3.370
 8368TIP3    H225069   0.826   6.762   3.472
 8369TIP3   OH225070   0.754   1.666   5.051
 8369TIP3    H125071   0.842   1.640   5.024
 8369TIP3    H225072   0.704   1.669   4.970
 8370TIP3   OH225073   1.346   5.203   4.714
 8370TIP3    H125074   1.301   5.167   4.638
 8370TIP3    H225075   1.400   5.131   4.746
 8371TIP3   OH225076   1.371   6.249   5.050
 8371TIP3    H125077   1.407   6.338   5.058
 8371TIP3    H225078   1.280   6.258   5.078
 8372TIP3   OH225079   3.508   5.486   4.250
 8372TIP3    H125080   3.540   5.409   4.202
 8372TIP3    H225081   3.413   5.482   4.240
 8373TIP3   OH225082   1.419   5.095   3.497
 8373TIP3    H125083   1.445   5.186   3.485
 8373TIP3    H225084   1.444   5.073   3.586
 8374TIP3   OH225085   2.741   2.954   1.099
 8374TIP3    H125086   2.789   3.026   1.140
 8374TIP3    H225087   2.788   2.875   1.125
 8375TIP3   OH225088   6.505   2.974   4.965
 8375TIP3    H125089   6.574   2.936   5.020
 8375TIP3    H225090   6.462   3.038   5.021
 8376TIP3   OH225091   0.906   0.182   2.547
 8376TIP3    H125092   0.847   0.189   2.473
 8376TIP3    H225093   0.990   0.214   2.514
 8377TIP3   OH225094   6.159   1.243   4.482
 8377TIP3    H125095   6.124   1.317   4.532
 8377TIP3    H225096   6.146   1.267   4.391
 8378TIP3   OH225097   4.745   5.762   0.905
 8378TIP3    H125098   4.674   5.826   0.913
 8378TIP3    H225099   4.776   5.749   0.994
 8379TIP3   OH225100   5.362   2.030   0.534
 8379TIP3    H125101   5.363   2.094   0.605
 8379TIP3    H225102   5.438   1.974   0.549
 8380TIP3   OH225103   6.193   0.094   4.515
 8380TIP3    H125104   6.255   0.118   4.447
 8380TIP3    H225105   6.222   0.008   4.546
 8381TIP3   OH225106   2.207   1.959   1.834
 8381TIP3    H125107   2.135   2.023   1.838
 8381TIP3    H225108   2.285   2.009   1.856
 8382TIP3   OH225109   6.003   1.447   4.555
 8382TIP3    H125110   5.908   1.459   4.561
 8382TIP3    H225111   6.039   1.535   4.562
 8383TIP3   OH225112   6.312   4.084   5.634
 8383TIP3    H125113   6.313   4.061   5.726
 8383TIP3    H225114   6.289   4.003   5.589
 8384TIP3   OH225115   2.124   5.098   0.853
 8384TIP3    H125116   2.088   5.146   0.927
 8384TIP3    H225117   2.065   5.023   0.842
 8385TIP3   OH225118   5.796   6.474   5.808
 8385TIP3    H125119   5.785   6.563   5.842
 8385TIP3    H225120   5.889   6.455   5.820
 8386TIP3   OH225121   4.334   4.528   2.325
 8386TIP3    H125122   4.264   4.467   2.347
 8386TIP3    H225123   4.289   4.611   2.307
 8387TIP3   OH225124   1.666   0.056   0.208
 8387TIP3    H125125   1.745   0.066   0.155
 8387TIP3    H225126   1.675  -0.030   0.249
 8388TIP3   OH225127   7.171   0.059   5.675
 8388TIP3    H125128   7.137   0.131   5.621
 8388TIP3    H225129   7.119  -0.017   5.648
 8389TIP3   OH225130   2.231   5.950   5.846
 8389TIP3    H125131   2.149   6.000   5.853
 8389TIP3    H225132   2.272   5.958   5.932
 8390TIP3   OH225133   1.790   1.762   0.563
 8390TIP3    H125134   1.848   1.721   0.499
 8390TIP3    H225135   1.767   1.846   0.525
 8391TIP3   OH225136   4.715   6.417   4.318
 8391TIP3    H125137   4.626   6.406   4.285
 8391TIP3    H225138   4.705   6.419   4.414
 8392TIP3   OH225139   2.837   6.700   0.688
 8392TIP3    H125140   2.747   6.732   0.698
 8392TIP3    H225141   2.873   6.699   0.776
 8393TIP3   OH225142   3.737   3.459   5.174
 8393TIP3    H125143   3.746   3.405   5.095
 8393TIP3    H225144   3.650   3.498   5.167
 8394TIP3   OH225145   6.723   0.329   0.962
 8394TIP3    H125146   6.628   0.318   0.961
 8394TIP3    H225147   6.737   0.414   0.920
 8395TIP3   OH225148   2.740   0.234   4.669
 8395TIP3    H125149   2.796   0.312   4.670
 8395TIP3    H225150   2.791   0.167   4.714
 8396TIP3   OH225151   7.156   6.478   3.408
 8396TIP3    H125152   7.162   6.538   3.333
 8396TIP3    H225153   7.206   6.521   3.477
 8397TIP3   OH225154   7.108   2.653   2.578
 8397TIP3    H125155   7.021   2.663   2.538
 8397TIP3    H225156   7.169   2.662   2.505
 8398TIP3   OH225157   3.828   2.290   4.142
 8398TIP3    H125158   3.859   2.336   4.064
 8398TIP3    H225159   3.893   2.312   4.210
 8399TIP3   OH225160   0.345   0.013   0.247
 8399TIP3    H125161   0.396   0.094   0.255
 8399TIP3    H225162   0.354  -0.012   0.155
 8400TIP3   OH225163   3.810   4.715   5.590
 8400TIP3    H125164   3.771   4.761   5.664
 8400TIP3    H225165   3.786   4.624   5.603
 8401TIP3   OH225166   6.953   2.893   0.126
 8401TIP3    H125167   6.977   2.867   0.215
 8401TIP3    H225168   6.910   2.817   0.089
 8402TIP3   OH225169   4.238   5.962   1.428
 8402TIP3    H125170   4.265   6.047   1.393
 8402TIP3    H225171   4.234   5.904   1.352
 8403TIP3   OH225172   6.284   6.358   4.794
 8403TIP3    H125173   6.302   6.385   4.704
 8403TIP3    H225174   6.312   6.433   4.847
 8404TIP3   OH225175   1.376   1.158   0.473
 8404TIP3    H125176   1.382   1.162   0.378
 8404TIP3    H225177   1.464   1.177   0.504
 8405TIP3   OH225178   0.934   2.271   1.644
 8405TIP3    H125179   0.874   2.330   1.689
 8405TIP3    H225180   0.877   2.215   1.590
 8406TIP3   OH225181   1.883   1.614   4.195
 8406TIP3    H125182   1.969   1.655   4.203
 8406TIP3    H225183   1.837   1.667   4.131
 8407TIP3   OH225184   5.273   5.860   2.479
 8407TIP3    H125185   5.202   5.801   2.504
 8407TIP3    H225186   5.341   5.803   2.445
 8408TIP3   OH225187   6.615   1.585   2.926
 8408TIP3    H125188   6.624   1.499   2.884
 8408TIP3    H225189   6.536   1.576   2.981
 8409TIP3   OH225190   1.039   4.251   2.329
 8409TIP3    H125191   1.029   4.227   2.237
 8409TIP3    H225192   1.122   4.211   2.355
 8410TIP3   OH225193   3.657   3.265   4.382
 8410TIP3    H125194   3.611   3.319   4.447
 8410TIP3    H225195   3.599   3.262   4.307
 8411TIP3   OH225196   6.150   0.232   5.287
 8411TIP3    H125197   6.222   0.288   5.315
 8411TIP3    H225198   6.073   0.268   5.332
 8412TIP3   OH225199   1.714   4.233   5.342
 8412TIP3    H125200   1.622   4.248   5.364
 8412TIP3    H225201   1.753   4.320   5.345
 8413TIP3   OH225202   1.545   2.434   5.358
 8413TIP3    H125203   1.625   2.455   5.310
 8413TIP3    H225204   1.575   2.380   5.431
 8414TIP3   OH225205   0.965   3.201   5.757
 8414TIP3    H125206   1.001   3.190   5.845
 8414TIP3    H225207   0.924   3.116   5.738
 8415TIP3   OH225208   5.371   1.052   5.366
 8415TIP3    H125209   5.296   1.029   5.310
 8415TIP3    H225210   5.351   1.141   5.396
 8416TIP3   OH225211   6.841   3.581   2.482
 8416TIP3    H125212   6.842   3.502   2.428
 8416TIP3    H225213   6.851   3.548   2.572
 8417TIP3   OH225214   2.907   4.485   0.294
 8417TIP3    H125215   2.900   4.526   0.208
 8417TIP3    H225216   3.000   4.462   0.302
 8418TIP3   OH225217   3.838   1.035   4.721
 8418TIP3    H125218   3.890   0.996   4.651
 8418TIP3    H225219   3.901   1.065   4.785
 8419TIP3   OH225220   1.774   6.405   0.570
 8419TIP3    H125221   1.826   6.475   0.530
 8419TIP3    H225222   1.830   6.327   0.564
 8420TIP3   OH225223   0.329   5.471   0.026
 8420TIP3    H125224   0.237   5.451   0.010
 8420TIP3    H225225   0.335   5.482   0.121
 8421TIP3   OH225226   3.919   0.587   0.895
 8421TIP3    H125227   3.987   0.649   0.868
 8421TIP3    H225228   3.967   0.518   0.941
 8422TIP3   OH225229   4.856   2.711   5.372
 8422TIP3    H125230   4.768   2.691   5.404
 8422TIP3    H225231   4.841   2.762   5.292
 8423TIP3   OH225232   4.061   4.768   1.940
 8423TIP3    H125233   4.074   4.713   1.863
 8423TIP3    H225234   3.998   4.719   1.993
 8424TIP3   OH225235   1.944   6.399   3.834
 8424TIP3    H125236   2.030   6.441   3.842
 8424TIP3    H225237   1.884   6.458   3.881
 8425TIP3   OH225238   4.989   0.697   1.276
 8425TIP3    H125239   5.030   0.617   1.243
 8425TIP3    H225240   4.957   0.673   1.363
 8426TIP3   OH225241   4.495   2.168   3.399
 8426TIP3    H125242   4.510   2.080   3.433
 8426TIP3    H225243   4.580   2.194   3.362
 8427TIP3   OH225244   6.536   6.713   3.400
 8427TIP3    H125245   6.532   6.725   3.305
 8427TIP3    H225246   6.491   6.629   3.415
 8428TIP3   OH225247   6.238   3.814   5.212
 8428TIP3    H125248   6.294   3.847   5.142
 8428TIP3    H225249   6.169   3.766   5.166
 8429TIP3   OH225250   6.230   0.539   4.726
 8429TIP3    H125251   6.305   0.486   4.755
 8429TIP3    H225252   6.153   0.486   4.746
 8430TIP3   OH225253   2.478   5.113   1.922
 8430TIP3    H125254   2.446   5.148   2.006
 8430TIP3    H225255   2.495   5.021   1.940
 8431TIP3   OH225256   2.494   4.451   1.118
 8431TIP3    H125257   2.418   4.489   1.073
 8431TIP3    H225258   2.481   4.357   1.109
 8432TIP3   OH225259   7.020   3.077   1.925
 8432TIP3    H125260   7.029   3.161   1.880
 8432TIP3    H225261   6.939   3.085   1.975
 8433TIP3   OH225262   1.412   4.996   1.749
 8433TIP3    H125263   1.444   4.942   1.677
 8433TIP3    H225264   1.349   4.940   1.795
 8434TIP3   OH225265   2.277   6.095   3.619
 8434TIP3    H125266   2.190   6.063   3.640
 8434TIP3    H225267   2.332   6.066   3.692
 8435TIP3   OH225268   0.661   4.505   2.418
 8435TIP3    H125269   0.753   4.527   2.431
 8435TIP3    H225270   0.613   4.577   2.459
 8436TIP3   OH225271   0.155   6.631   1.702
 8436TIP3    H125272   0.236   6.680   1.717
 8436TIP3    H225273   0.139   6.585   1.784
 8437TIP3   OH225274   5.282   0.554   3.519
 8437TIP3    H125275   5.354   0.520   3.572
 8437TIP3    H225276   5.288   0.506   3.436
 8438TIP3   OH225277   7.180   3.265   0.312
 8438TIP3    H125278   7.195   3.185   0.262
 8438TIP3    H225279   7.117   3.239   0.379
 8439TIP3   OH225280   3.306   4.195   1.109
 8439TIP3    H125281   3.311   4.288   1.131
 8439TIP3    H225282   3.305   4.193   1.013
 8440TIP3   OH225283   2.606   0.562   5.605
 8440TIP3    H125284   2.679   0.555   5.666
 8440TIP3    H225285   2.632   0.508   5.530
 8441TIP3   OH225286   1.509   3.890   0.466
 8441TIP3    H125287   1.519   3.984   0.451
 8441TIP3    H225288   1.567   3.849   0.401
 8442TIP3   OH225289   0.210   6.336   4.726
 8442TIP3    H125290   0.279   6.291   4.677
 8442TIP3    H225291   0.129   6.294   4.697
 8443TIP3   OH225292   2.675   6.212   2.719
 8443TIP3    H125293   2.683   6.236   2.811
 8443TIP3    H225294   2.612   6.275   2.683
 8444TIP3   OH225295   5.918   2.102   2.108
 8444TIP3    H125296   5.889   2.159   2.037
 8444TIP3    H225297   5.906   2.013   2.075
 8445TIP3   OH225298   3.083   3.086   3.005
 8445TIP3    H125299   3.009   3.082   2.945
 8445TIP3    H225300   3.100   2.995   3.030
 8446TIP3   OH225301   1.228   5.067   0.316
 8446TIP3    H125302   1.247   4.973   0.323
 8446TIP3    H225303   1.282   5.097   0.244
 8447TIP3   OH225304   0.379   1.684   1.609
 8447TIP3    H125305   0.379   1.601   1.658
 8447TIP3    H225306   0.296   1.684   1.562
 8448TIP3   OH225307   0.330   4.529   0.299
 8448TIP3    H125308   0.357   4.448   0.342
 8448TIP3    H225309   0.375   4.598   0.348
 8449TIP3   OH225310   1.779   4.077   0.710
 8449TIP3    H125311   1.844   4.016   0.675
 8449TIP3    H225312   1.716   4.022   0.756
 8450TIP3   OH225313   0.427   6.726   0.501
 8450TIP3    H125314   0.501   6.695   0.448
 8450TIP3    H225315   0.392   6.647   0.542
 8451TIP3   OH225316   6.893   4.661   0.658
 8451TIP3    H125317   6.926   4.571   0.652
 8451TIP3    H225318   6.801   4.654   0.633
 8452TIP3   OH225319   3.269   1.853   0.916
 8452TIP3    H125320   3.210   1.850   0.841
 8452TIP3    H225321   3.318   1.771   0.912
 8453TIP3   OH225322   5.880   0.552   3.934
 8453TIP3    H125323   5.820   0.601   3.878
 8453TIP3    H225324   5.824   0.511   4.000
 8454TIP3   OH225325   1.782   4.012   1.777
 8454TIP3    H125326   1.736   3.990   1.696
 8454TIP3    H225327   1.863   4.055   1.748
 8455TIP3   OH225328   6.256   5.435   5.291
 8455TIP3    H125329   6.273   5.487   5.213
 8455TIP3    H225330   6.172   5.393   5.274
 8456TIP3   OH225331   4.125   4.720   2.366
 8456TIP3    H125332   4.103   4.716   2.459
 8456TIP3    H225333   4.094   4.807   2.338
 8457TIP3   OH225334   6.473   2.343   4.674
 8457TIP3    H125335   6.432   2.275   4.727
 8457TIP3    H225336   6.400   2.393   4.638
 8458TIP3   OH225337   4.062   2.556   2.064
 8458TIP3    H125338   4.128   2.624   2.049
 8458TIP3    H225339   4.112   2.480   2.093
 8459TIP3   OH225340   2.357   1.389   5.669
 8459TIP3    H125341   2.369   1.483   5.659
 8459TIP3    H225342   2.269   1.372   5.636
 8460TIP3   OH225343   3.020   5.303   1.344
 8460TIP3    H125344   3.001   5.216   1.309
 8460TIP3    H225345   2.937   5.350   1.336
 8461TIP3   OH225346   5.602   6.743   4.485
 8461TIP3    H125347   5.579   6.660   4.443
 8461TIP3    H225348   5.698   6.746   4.482
 8462TIP3   OH225349   6.665   0.739   0.513
 8462TIP3    H125350   6.596   0.742   0.446
 8462TIP3    H225351   6.631   0.678   0.579
 8463TIP3   OH225352   0.010   5.005   5.479
 8463TIP3    H125353   0.018   5.086   5.530
 8463TIP3    H225354   0.076   5.014   5.410
 8464TIP3   OH225355   1.210   6.553   1.970
 8464TIP3    H125356   1.289   6.607   1.977
 8464TIP3    H225357   1.242   6.464   1.957
 8465TIP3   OH225358   4.179   5.114   4.796
 8465TIP3    H125359   4.147   5.070   4.874
 8465TIP3    H225360   4.273   5.124   4.811
 8466TIP3   OH225361   6.198   4.644   1.467
 8466TIP3    H125362   6.125   4.673   1.521
 8466TIP3    H225363   6.212   4.552   1.492
 8467TIP3   OH225364   5.120   6.710   2.222
 8467TIP3    H125365   5.065   6.677   2.150
 8467TIP3    H225366   5.209   6.704   2.189
 8468TIP3   OH225367   6.909   6.180   3.147
 8468TIP3    H125368   6.836   6.216   3.096
 8468TIP3    H225369   6.953   6.120   3.087
 8469TIP3   OH225370   5.117   4.085   4.761
 8469TIP3    H125371   5.159   4.153   4.813
 8469TIP3    H225372   5.029   4.120   4.743
 8470TIP3   OH225373   3.861   4.318   4.065
 8470TIP3    H125374   3.842   4.258   3.993
 8470TIP3    H225375   3.845   4.266   4.144
 8471TIP3   OH225376   0.830   4.235   0.938
 8471TIP3    H125377   0.881   4.161   0.972
 8471TIP3    H225378   0.889   4.310   0.945
 8472TIP3   OH225379   2.750   6.008   4.915
 8472TIP3    H125380   2.683   5.985   4.851
 8472TIP3    H225381   2.801   5.928   4.928
 8473TIP3   OH225382   6.563   4.910   2.511
 8473TIP3    H125383   6.638   4.956   2.474
 8473TIP3    H225384   6.526   4.972   2.574
 8474TIP3   OH225385   3.715   3.166   3.120
 8474TIP3    H125386   3.653   3.234   3.145
 8474TIP3    H225387   3.688   3.140   3.032
 8475TIP3   OH225388   1.293   6.737   0.072
 8475TIP3    H125389   1.389   6.736   0.078
 8475TIP3    H225390   1.267   6.646   0.086
 8476TIP3   OH225391   3.103   4.380   4.700
 8476TIP3    H125392   3.136   4.292   4.684
 8476TIP3    H225393   3.041   4.369   4.773
 8477TIP3   OH225394   6.735   5.924   5.718
 8477TIP3    H125395   6.643   5.944   5.737
 8477TIP3    H225396   6.782   5.954   5.795
 8478TIP3   OH225397   2.545   2.502   3.033
 8478TIP3    H125398   2.571   2.547   3.113
 8478TIP3    H225399   2.484   2.562   2.990
 8479TIP3   OH225400   2.648   5.321   5.371
 8479TIP3    H125401   2.575   5.282   5.322
 8479TIP3    H225402   2.726   5.292   5.324
 8480TIP3   OH225403   3.957   2.855   4.335
 8480TIP3    H125404   3.865   2.872   4.318
 8480TIP3    H225405   4.004   2.910   4.271
 8481TIP3   OH225406   6.160   0.901   4.931
 8481TIP3    H125407   6.158   0.869   4.841
 8481TIP3    H225408   6.248   0.938   4.942
 8482TIP3   OH225409   5.416   1.221   5.668
 8482TIP3    H125410   5.338   1.251   5.622
 8482TIP3    H225411   5.382   1.171   5.742
 8483TIP3   OH225412   0.654   2.029   0.805
 8483TIP3    H125413   0.672   1.949   0.756
 8483TIP3    H225414   0.586   2.004   0.868
 8484TIP3   OH225415   6.173   1.878   3.451
 8484TIP3    H125416   6.134   1.800   3.414
 8484TIP3    H225417   6.258   1.849   3.485
 8485TIP3   OH225418   4.054   1.625   0.444
 8485TIP3    H125419   4.072   1.688   0.513
 8485TIP3    H225420   4.012   1.676   0.375
 8486TIP3   OH225421   3.285   6.582   4.371
 8486TIP3    H125422   3.375   6.615   4.364
 8486TIP3    H225423   3.239   6.650   4.421
 8487TIP3   OH225424   6.332   1.476   0.229
 8487TIP3    H125425   6.370   1.561   0.211
 8487TIP3    H225426   6.320   1.435   0.143
 8488TIP3   OH225427   0.475   1.063   0.647
 8488TIP3    H125428   0.382   1.059   0.669
 8488TIP3    H225429   0.477   1.091   0.556
 8489TIP3   OH225430   5.919   6.244   2.268
 8489TIP3    H125431   5.985   6.192   2.315
 8489TIP3    H225432   5.844   6.185   2.259
 8490TIP3   OH225433   3.659   0.831   1.663
 8490TIP3    H125434   3.663   0.865   1.573
 8490TIP3    H225435   3.633   0.906   1.716
 8491TIP3   OH225436   5.394   4.351   3.600
 8491TIP3    H125437   5.341   4.370   3.523
 8491TIP3    H225438   5.479   4.325   3.565
 8492TIP3   OH225439   6.752   0.548   2.862
 8492TIP3    H125440   6.737   0.640   2.842
 8492TIP3    H225441   6.672   0.503   2.832
 8493TIP3   OH225442   4.207   3.038   4.577
 8493TIP3    H125443   4.118   3.034   4.610
 8493TIP3    H225444   4.228   2.948   4.552
 8494TIP3   OH225445   5.272   0.052   2.928
 8494TIP3    H125446   5.258  -0.016   2.993
 8494TIP3    H225447   5.362   0.081   2.943
 8495TIP3   OH225448   4.981   3.161   1.902
 8495TIP3    H125449   5.039   3.114   1.962
 8495TIP3    H225450   5.039   3.202   1.839
 8496TIP3   OH225451   6.439   1.013   0.435
 8496TIP3    H125452   6.345   0.996   0.434
 8496TIP3    H225453   6.450   1.097   0.392
 8497TIP3   OH225454   1.545   3.488   5.217
 8497TIP3    H125455   1.450   3.483   5.225
 8497TIP3    H225456   1.563   3.457   5.128
 8498TIP3   OH225457   4.121   3.366   4.328
 8498TIP3    H125458   4.139   3.459   4.313
 8498TIP3    H225459   4.026   3.361   4.341
 8499TIP3   OH225460   2.145   6.584   2.681
 8499TIP3    H125461   2.068   6.589   2.624
 8499TIP3    H225462   2.218   6.606   2.624
 8500TIP3   OH225463   1.329   1.514   4.951
 8500TIP3    H125464   1.277   1.538   5.028
 8500TIP3    H225465   1.392   1.450   4.983
 8501TIP3   OH225466   5.216   0.604   3.775
 8501TIP3    H125467   5.222   0.597   3.680
 8501TIP3    H225468   5.218   0.699   3.792
 8502TIP3   OH225469   0.148   0.365   1.998
 8502TIP3    H125470   0.089   0.308   2.048
 8502TIP3    H225471   0.147   0.329   1.910
 8503TIP3   OH225472   0.944   5.135   5.796
 8503TIP3    H125473   0.870   5.113   5.739
 8503TIP3    H225474   0.972   5.050   5.831
 8504TIP3   OH225475   5.278   5.345   1.619
 8504TIP3    H125476   5.324   5.409   1.674
 8504TIP3    H225477   5.306   5.365   1.530
 8505TIP3   OH225478   0.013   2.448   0.866
 8505TIP3    H125479   0.020   2.542   0.883
 8505TIP3    H225480   0.103   2.418   0.859
 8506TIP3   OH225481   5.372   3.544   0.277
 8506TIP3    H125482   5.403   3.457   0.254
 8506TIP3    H225483   5.450   3.591   0.307
 8507TIP3   OH225484   2.393   1.125   0.462
 8507TIP3    H125485   2.313   1.131   0.514
 8507TIP3    H225486   2.369   1.163   0.377
 8508TIP3   OH225487   6.444   4.566   2.377
 8508TIP3    H125488   6.538   4.573   2.394
 8508TIP3    H225489   6.412   4.655   2.380
 8509TIP3   OH225490   3.451   5.319   2.442
 8509TIP3    H125491   3.545   5.307   2.424
 8509TIP3    H225492   3.434   5.410   2.421
 8510TIP3   OH225493   0.585   5.861   2.658
 8510TIP3    H125494   0.505   5.814   2.677
 8510TIP3    H225495   0.622   5.816   2.582
 8511TIP3   OH225496   5.084   6.063   1.870
 8511TIP3    H125497   5.171   6.067   1.910
 8511TIP3    H225498   5.072   6.148   1.829
 8512TIP3   OH225499   6.166   5.294   1.965
 8512TIP3    H125500   6.208   5.317   2.047
 8512TIP3    H225501   6.121   5.374   1.938
 8513TIP3   OH225502   3.309   4.945   3.305
 8513TIP3    H125503   3.223   4.977   3.277
 8513TIP3    H225504   3.364   4.953   3.227
 8514TIP3   OH225505   3.604   1.420   0.160
 8514TIP3    H125506   3.557   1.444   0.081
 8514TIP3    H225507   3.668   1.490   0.173
 8515TIP3   OH225508   6.510   5.520   0.153
 8515TIP3    H125509   6.418   5.544   0.157
 8515TIP3    H225510   6.523   5.489   0.063
 8516TIP3   OH225511   7.027   6.200   4.247
 8516TIP3    H125512   6.961   6.180   4.313
 8516TIP3    H225513   7.044   6.294   4.258
 8517TIP3   OH225514   2.903   5.105   5.564
 8517TIP3    H125515   2.988   5.076   5.532
 8517TIP3    H225516   2.840   5.059   5.509
 8518TIP3   OH225517   2.571   6.622   2.605
 8518TIP3    H125518   2.529   6.569   2.672
 8518TIP3    H225519   2.515   6.614   2.528
 8519TIP3   OH225520   5.126   5.121   2.659
 8519TIP3    H125521   5.082   5.073   2.589
 8519TIP3    H225522   5.116   5.213   2.635
 8520TIP3   OH225523   6.354   3.258   2.321
 8520TIP3    H125524   6.427   3.296   2.271
 8520TIP3    H225525   6.381   3.167   2.335
 8521TIP3   OH225526   3.516   3.303   5.368
 8521TIP3    H125527   3.581   3.237   5.343
 8521TIP3    H225528   3.567   3.380   5.391
 8522TIP3   OH225529   4.868   4.333   3.435
 8522TIP3    H125530   4.955   4.364   3.463
 8522TIP3    H225531   4.877   4.318   3.341
 8523TIP3   OH225532   0.776   4.792   5.577
 8523TIP3    H125533   0.861   4.756   5.602
 8523TIP3    H225534   0.762   4.761   5.488
 8524TIP3   OH225535   4.829   4.485   3.706
 8524TIP3    H125536   4.891   4.422   3.670
 8524TIP3    H225537   4.768   4.433   3.758
 8525TIP3   OH225538   4.935   1.948   4.398
 8525TIP3    H125539   4.994   1.986   4.463
 8525TIP3    H225540   4.968   1.859   4.384
 8526TIP3   OH225541   4.172   3.279   0.046
 8526TIP3    H125542   4.130   3.340   0.107
 8526TIP3    H225543   4.218   3.335  -0.016
 8527TIP3   OH225544   2.108   1.124   4.643
 8527TIP3    H125545   2.069   1.093   4.725
 8527TIP3    H225546   2.202   1.120   4.658
 8528TIP3   OH225547   3.129   2.857   1.847
 8528TIP3    H125548   3.125   2.892   1.758
 8528TIP3    H225549   3.039   2.829   1.866
 8529TIP3   OH225550   0.607   6.171   0.545
 8529TIP3    H125551   0.623   6.100   0.607
 8529TIP3    H225552   0.517   6.158   0.516
 8530TIP3   OH225553   4.484   6.216   2.753
 8530TIP3    H125554   4.524   6.153   2.814
 8530TIP3    H225555   4.552   6.234   2.689
 8531TIP3   OH225556   4.448   5.468   0.490
 8531TIP3    H125557   4.501   5.547   0.480
 8531TIP3    H225558   4.501   5.410   0.545
 8532TIP3   OH225559   3.076   4.419   5.202
 8532TIP3    H125560   3.059   4.334   5.243
 8532TIP3    H225561   3.072   4.402   5.108
 8533TIP3   OH225562   2.831   2.852   0.819
 8533TIP3    H125563   2.860   2.925   0.873
 8533TIP3    H225564   2.777   2.893   0.751
 8534TIP3   OH225565   0.473   5.021   3.724
 8534TIP3    H125566   0.519   5.014   3.640
 8534TIP3    H225567   0.442   4.932   3.742
 8535TIP3   OH225568   5.638   4.147   3.886
 8535TIP3    H125569   5.599   4.097   3.958
 8535TIP3    H225570   5.586   4.124   3.809
 8536TIP3   OH225571   3.657   4.005   3.837
 8536TIP3    H125572   3.667   4.038   3.926
 8536TIP3    H225573   3.583   4.053   3.801
 8537TIP3   OH225574   0.210   4.559   4.470
 8537TIP3    H125575   0.164   4.591   4.547
 8537TIP3    H225576   0.178   4.614   4.398
 8538TIP3   OH225577   6.231   2.998   1.338
 8538TIP3    H125578   6.277   3.078   1.310
 8538TIP3    H225579   6.228   3.004   1.433
 8539TIP3   OH225580   7.167   4.129   3.286
 8539TIP3    H125581   7.131   4.069   3.221
 8539TIP3    H225582   7.166   4.079   3.368
 8540TIP3   OH225583   3.036   1.288   5.875
 8540TIP3    H125584   3.069   1.223   5.936
 8540TIP3    H225585   3.115   1.328   5.837
 8541TIP3   OH225586   5.515   0.589   1.583
 8541TIP3    H125587   5.518   0.516   1.522
 8541TIP3    H225588   5.421   0.602   1.601
 8542TIP3   OH225589   5.290   1.067   2.653
 8542TIP3    H125590   5.310   1.081   2.746
 8542TIP3    H225591   5.220   1.130   2.634
 8543TIP3   OH225592   4.222   0.320   0.464
 8543TIP3    H125593   4.184   0.273   0.538
 8543TIP3    H225594   4.185   0.276   0.387
 8544TIP3   OH225595   7.116   5.240   0.035
 8544TIP3    H125596   7.161   5.167   0.078
 8544TIP3    H225597   7.101   5.210  -0.055
 8545TIP3   OH225598   1.961   0.663   5.243
 8545TIP3    H125599   2.037   0.667   5.302
 8545TIP3    H225600   1.907   0.593   5.279
 8546TIP3   OH225601   5.026   4.289   0.230
 8546TIP3    H125602   5.077   4.370   0.220
 8546TIP3    H225603   5.086   4.229   0.276
 8547TIP3   OH225604   5.123   3.361   0.879
 8547TIP3    H125605   5.079   3.445   0.866
 8547TIP3    H225606   5.216   3.380   0.869
 8548TIP3   OH225607   0.615   2.177   2.080
 8548TIP3    H125608   0.541   2.155   2.024
 8548TIP3    H225609   0.629   2.271   2.065
 8549TIP3   OH225610   0.091   3.815   3.078
 8549TIP3    H125611   0.148   3.799   3.153
 8549TIP3    H225612   0.117   3.749   3.013
 8550TIP3   OH225613   1.996   3.103   2.120
 8550TIP3    H125614   1.971   3.186   2.160
 8550TIP3    H225615   1.983   3.117   2.027
 8551TIP3   OH225616   2.732   4.717   2.870
 8551TIP3    H125617   2.661   4.773   2.838
 8551TIP3    H225618   2.721   4.718   2.965
 8552TIP3   OH225619   4.529   0.567   2.254
 8552TIP3    H125620   4.619   0.541   2.274
 8552TIP3    H225621   4.532   0.596   2.163
 8553TIP3   OH225622   4.181   6.341   4.475
 8553TIP3    H125623   4.199   6.251   4.501
 8553TIP3    H225624   4.192   6.341   4.379
 8554TIP3   OH225625   1.299   3.026   0.663
 8554TIP3    H125626   1.220   3.005   0.714
 8554TIP3    H225627   1.352   2.946   0.668
 8555TIP3   OH225628   0.494   4.421   4.314
 8555TIP3    H125629   0.442   4.341   4.301
 8555TIP3    H225630   0.455   4.485   4.255
 8556TIP3   OH225631   3.449   1.244   5.481
 8556TIP3    H125632   3.377   1.188   5.509
 8556TIP3    H225633   3.422   1.332   5.505
 8557TIP3   OH225634   3.265   6.651   5.626
 8557TIP3    H125635   3.332   6.591   5.659
 8557TIP3    H225636   3.204   6.595   5.578
 8558TIP3   OH225637   4.784   0.119   4.298
 8558TIP3    H125638   4.768   0.115   4.203
 8558TIP3    H225639   4.713   0.174   4.331
 8559TIP3   OH225640   3.161   6.732   0.700
 8559TIP3    H125641   3.078   6.780   0.702
 8559TIP3    H225642   3.178   6.716   0.607
 8560TIP3   OH225643   0.095   4.020   4.784
 8560TIP3    H125644   0.008   4.008   4.821
 8560TIP3    H225645   0.155   3.989   4.852
 8561TIP3   OH225646   3.396   5.604   0.329
 8561TIP3    H125647   3.394   5.514   0.361
 8561TIP3    H225648   3.369   5.597   0.237
 8562TIP3   OH225649   2.664   4.036   3.815
 8562TIP3    H125650   2.615   4.002   3.740
 8562TIP3    H225651   2.599   4.041   3.885
 8563TIP3   OH225652   1.122   2.176   4.316
 8563TIP3    H125653   1.153   2.107   4.375
 8563TIP3    H225654   1.028   2.182   4.333
 8564TIP3   OH225655   1.014   6.328   0.375
 8564TIP3    H125656   1.096   6.283   0.394
 8564TIP3    H225657   1.020   6.409   0.425
 8565TIP3   OH225658   1.699   6.152   4.089
 8565TIP3    H125659   1.678   6.159   4.182
 8565TIP3    H225660   1.641   6.216   4.046
 8566TIP3   OH225661   5.918   1.769   3.925
 8566TIP3    H125662   5.841   1.714   3.911
 8566TIP3    H225663   5.992   1.712   3.903
 8567TIP3   OH225664   1.130   6.199   0.126
 8567TIP3    H125665   1.071   6.221   0.198
 8567TIP3    H225666   1.145   6.282   0.080
 8568TIP3   OH225667   2.215   4.156   5.271
 8568TIP3    H125668   2.244   4.241   5.304
 8568TIP3    H225669   2.162   4.177   5.194
 8569TIP3   OH225670   6.906   3.282   5.311
 8569TIP3    H125671   6.900   3.376   5.295
 8569TIP3    H225672   6.869   3.270   5.398
 8570TIP3   OH225673   3.451   3.793   5.839
 8570TIP3    H125674   3.534   3.841   5.843
 8570TIP3    H225675   3.469   3.712   5.886
 8571TIP3   OH225676   6.218   4.008   2.188
 8571TIP3    H125677   6.263   3.924   2.197
 8571TIP3    H225678   6.179   4.005   2.101
 8572TIP3   OH225679   1.822   5.425   4.556
 8572TIP3    H125680   1.813   5.520   4.547
 8572TIP3    H225681   1.899   5.413   4.612
 8573TIP3   OH225682   6.170   5.520   3.812
 8573TIP3    H125683   6.134   5.501   3.899
 8573TIP3    H225684   6.264   5.531   3.827
 8574TIP3   OH225685   3.495   5.163   0.490
 8574TIP3    H125686   3.511   5.215   0.569
 8574TIP3    H225687   3.493   5.227   0.419
 8575TIP3   OH225688   2.173   0.661   2.888
 8575TIP3    H125689   2.172   0.714   2.968
 8575TIP3    H225690   2.228   0.586   2.909
 8576TIP3   OH225691   4.560   4.772   4.436
 8576TIP3    H125692   4.522   4.824   4.507
 8576TIP3    H225693   4.574   4.686   4.474
 8577TIP3   OH225694   4.172   5.031   1.703
 8577TIP3    H125695   4.143   4.981   1.779
 8577TIP3    H225696   4.158   4.973   1.628
 8578TIP3   OH225697   0.173   6.765   0.067
 8578TIP3    H125698   0.123   6.782  -0.012
 8578TIP3    H225699   0.111   6.722   0.127
 8579TIP3   OH225700   1.727   0.240   3.278
 8579TIP3    H125701   1.739   0.145   3.267
 8579TIP3    H225702   1.815   0.274   3.292
 8580TIP3   OH225703   6.576   0.188   5.688
 8580TIP3    H125704   6.597   0.110   5.637
 8580TIP3    H225705   6.492   0.168   5.729
 8581TIP3   OH225706   2.215   5.293   2.691
 8581TIP3    H125707   2.248   5.205   2.708
 8581TIP3    H225708   2.142   5.281   2.630
 8582TIP3   OH225709   2.401   3.939   1.175
 8582TIP3    H125710   2.389   3.923   1.268
 8582TIP3    H225711   2.315   3.967   1.144
 8583TIP3   OH225712   0.977   6.669   5.026
 8583TIP3    H125713   1.029   6.611   4.970
 8583TIP3    H225714   1.024   6.753   5.022
 8584TIP3   OH225715   4.393   3.930   2.668
 8584TIP3    H125716   4.325   3.887   2.722
 8584TIP3    H225717   4.454   3.966   2.732
 8585TIP3   OH225718   3.701   6.450   4.463
 8585TIP3    H125719   3.777   6.394   4.452
 8585TIP3    H225720   3.736   6.533   4.497
 8586TIP3   OH225721   4.586   0.101   2.756
 8586TIP3    H125722   4.568   0.010   2.733
 8586TIP3    H225723   4.668   0.097   2.805
 8587TIP3   OH225724   2.975   2.826   3.853
 8587TIP3    H125725   2.928   2.790   3.777
 8587TIP3    H225726   2.938   2.913   3.865
 8588TIP3   OH225727   0.105   0.273   5.403
 8588TIP3    H125728   0.026   0.249   5.452
 8588TIP3    H225729   0.166   0.304   5.470
 8589TIP3   OH225730   6.817   1.555   3.551
 8589TIP3    H125731   6.731   1.514   3.563
 8589TIP3    H225732   6.855   1.509   3.476
 8590TIP3   OH225733   3.994   5.054   1.973
 8590TIP3    H125734   4.045   5.005   2.038
 8590TIP3    H225735   4.020   5.145   1.986
 8591TIP3   OH225736   3.797   0.070   1.371
 8591TIP3    H125737   3.871   0.043   1.316
 8591TIP3    H225738   3.719   0.044   1.322
 8592TIP3   OH225739   2.446   1.829   4.096
 8592TIP3    H125740   2.506   1.757   4.116
 8592TIP3    H225741   2.460   1.892   4.167
 8593TIP3   OH225742   4.196   4.448   5.300
 8593TIP3    H125743   4.219   4.361   5.266
 8593TIP3    H225744   4.244   4.454   5.383
 8594TIP3   OH225745   3.112   3.004   1.182
 8594TIP3    H125746   3.185   3.023   1.242
 8594TIP3    H225747   3.101   3.084   1.131
 8595TIP3   OH225748   5.328   2.821   1.355
 8595TIP3    H125749   5.297   2.795   1.441
 8595TIP3    H225750   5.423   2.825   1.364
 8596TIP3   OH225751   0.637   1.261   3.835
 8596TIP3    H125752   0.621   1.168   3.848
 8596TIP3    H225753   0.725   1.265   3.797
 8597TIP3   OH225754   0.855   0.071   3.754
 8597TIP3    H125755   0.887   0.025   3.832
 8597TIP3    H225756   0.803   0.143   3.788
 8598TIP3   OH225757   5.179   4.732   3.602
 8598TIP3    H125758   5.134   4.780   3.671
 8598TIP3    H225759   5.252   4.688   3.646
 8599TIP3   OH225760   4.695   1.929   2.732
 8599TIP3    H125761   4.691   1.918   2.827
 8599TIP3    H225762   4.733   1.847   2.700
 8600TIP3   OH225763   2.409   5.290   0.476
 8600TIP3    H125764   2.416   5.336   0.560
 8600TIP3    H225765   2.380   5.202   0.499
 8601TIP3   OH225766   4.321   2.566   0.409
 8601TIP3    H125767   4.363   2.638   0.455
 8601TIP3    H225768   4.387   2.535   0.347
 8602TIP3   OH225769   1.977   6.577   0.524
 8602TIP3    H125770   2.051   6.550   0.577
 8602TIP3    H225771   1.965   6.670   0.544
 8603TIP3   OH225772   4.015   0.972   2.882
 8603TIP3    H125773   3.989   0.959   2.791
 8603TIP3    H225774   4.110   0.967   2.880
 8604TIP3   OH225775   5.879   2.209   3.032
 8604TIP3    H125776   5.791   2.170   3.028
 8604TIP3    H225777   5.895   2.240   2.942
 8605TIP3   OH225778   1.996   2.045   3.990
 8605TIP3    H125779   2.009   2.108   3.919
 8605TIP3    H225780   2.076   2.052   4.043
 8606TIP3   OH225781   1.618   3.852   2.756
 8606TIP3    H125782   1.661   3.888   2.834
 8606TIP3    H225783   1.661   3.768   2.742
 8607TIP3   OH225784   0.471   6.489   2.335
 8607TIP3    H125785   0.465   6.570   2.284
 8607TIP3    H225786   0.557   6.452   2.312
 8608TIP3   OH225787   2.025   6.400   1.507
 8608TIP3    H125788   2.111   6.436   1.529
 8608TIP3    H225789   2.044   6.318   1.461
 8609TIP3   OH225790   5.432   0.595   5.466
 8609TIP3    H125791   5.462   0.508   5.441
 8609TIP3    H225792   5.460   0.605   5.557
 8610TIP3   OH225793   3.358   0.590   0.455
 8610TIP3    H125794   3.440   0.542   0.441
 8610TIP3    H225795   3.343   0.585   0.550
 8611TIP3   OH225796   6.835   3.181   3.801
 8611TIP3    H125797   6.866   3.255   3.748
 8611TIP3    H225798   6.858   3.104   3.750
 8612TIP3   OH225799   0.286   5.554   1.645
 8612TIP3    H125800   0.296   5.543   1.740
 8612TIP3    H225801   0.254   5.643   1.634
 8613TIP3   OH225802   4.296   2.823   1.042
 8613TIP3    H125803   4.340   2.861   0.967
 8613TIP3    H225804   4.272   2.734   1.014
 8614TIP3   OH225805   3.188   0.199   2.229
 8614TIP3    H125806   3.185   0.181   2.135
 8614TIP3    H225807   3.279   0.184   2.254
 8615TIP3   OH225808   1.835   1.082   2.524
 8615TIP3    H125809   1.782   1.036   2.589
 8615TIP3    H225810   1.818   1.175   2.540
 8616TIP3   OH225811   3.212   1.794   2.014
 8616TIP3    H125812   3.190   1.885   1.996
 8616TIP3    H225813   3.167   1.744   1.946
 8617TIP3   OH225814   7.117   1.495   1.949
 8617TIP3    H125815   7.171   1.430   1.995
 8617TIP3    H225816   7.146   1.579   1.984
 8618TIP3   OH225817   6.662   1.306   1.447
 8618TIP3    H125818   6.669   1.359   1.367
 8618TIP3    H225819   6.581   1.257   1.436
 8619TIP3   OH225820   5.418   0.740   4.396
 8619TIP3    H125821   5.376   0.825   4.380
 8619TIP3    H225822   5.502   0.762   4.436
 8620TIP3   OH225823   4.346   0.073   0.334
 8620TIP3    H125824   4.341   0.039   0.423
 8620TIP3    H225825   4.431   0.118   0.330
 8621TIP3   OH225826   1.765   5.920   5.877
 8621TIP3    H125827   1.716   5.908   5.796
 8621TIP3    H225828   1.797   5.832   5.899
 8622TIP3   OH225829   3.001   6.400   0.745
 8622TIP3    H125830   3.038   6.471   0.798
 8622TIP3    H225831   2.976   6.442   0.663
 8623TIP3   OH225832   4.452   5.635   5.150
 8623TIP3    H125833   4.437   5.621   5.056
 8623TIP3    H225834   4.376   5.595   5.192
 8624TIP3   OH225835   5.072   1.721   1.339
 8624TIP3    H125836   5.058   1.815   1.354
 8624TIP3    H225837   5.139   1.696   1.402
 8625TIP3   OH225838   2.172   2.647   3.602
 8625TIP3    H125839   2.138   2.609   3.522
 8625TIP3    H225840   2.265   2.625   3.602
 8626TIP3   OH225841   5.734   2.341   5.414
 8626TIP3    H125842   5.819   2.303   5.437
 8626TIP3    H225843   5.743   2.363   5.321
 8627TIP3   OH225844   6.579   1.468   0.854
 8627TIP3    H125845   6.569   1.373   0.863
 8627TIP3    H225846   6.639   1.492   0.924
 8628TIP3   OH225847   1.665   0.311   4.872
 8628TIP3    H125848   1.712   0.370   4.931
 8628TIP3    H225849   1.645   0.365   4.795
 8629TIP3   OH225850   7.157   2.590   1.773
 8629TIP3    H125851   7.153   2.678   1.737
 8629TIP3    H225852   7.069   2.554   1.760
 8630TIP3   OH225853   2.760   0.498   2.386
 8630TIP3    H125854   2.775   0.577   2.438
 8630TIP3    H225855   2.665   0.488   2.386
 8631TIP3   OH225856   1.896   4.515   4.323
 8631TIP3    H125857   1.979   4.562   4.318
 8631TIP3    H225858   1.870   4.520   4.415
 8632TIP3   OH225859   0.281   3.461   0.836
 8632TIP3    H125860   0.312   3.398   0.772
 8632TIP3    H225861   0.193   3.483   0.808
 8633TIP3   OH225862   6.143   3.359   1.596
 8633TIP3    H125863   6.112   3.274   1.629
 8633TIP3    H225864   6.236   3.344   1.576
 8634TIP3   OH225865   7.231   4.985   0.067
 8634TIP3    H125866   7.195   4.984   0.156
 8634TIP3    H225867   7.182   4.917   0.020
 8635TIP3   OH225868   5.504   2.366   3.331
 8635TIP3    H125869   5.529   2.456   3.353
 8635TIP3    H225870   5.424   2.350   3.381
 8636TIP3   OH225871   0.049   4.275   5.289
 8636TIP3    H125872   0.082   4.190   5.262
 8636TIP3    H225873   0.071   4.334   5.216
 8637TIP3   OH225874   3.635   2.112   4.181
 8637TIP3    H125875   3.562   2.127   4.240
 8637TIP3    H225876   3.692   2.188   4.194
 8638TIP3   OH225877   0.786   0.820   2.252
 8638TIP3    H125878   0.820   0.904   2.285
 8638TIP3    H225879   0.803   0.823   2.158
 8639TIP3   OH225880   4.844   0.630   2.089
 8639TIP3    H125881   4.756   0.616   2.054
 8639TIP3    H225882   4.855   0.560   2.153
 8640TIP3   OH225883   5.520   2.009   2.580
 8640TIP3    H125884   5.600   1.983   2.534
 8640TIP3    H225885   5.549   2.075   2.643
 8641TIP3   OH225886   5.259   2.478   2.249
 8641TIP3    H125887   5.254   2.392   2.207
 8641TIP3    H225888   5.254   2.458   2.343
 8642TIP3   OH225889   0.782   5.148   3.318
 8642TIP3    H125890   0.812   5.214   3.254
 8642TIP3    H225891   0.687   5.150   3.312
 8643TIP3   OH225892   4.767   5.071   0.662
 8643TIP3    H125893   4.751   5.084   0.569
 8643TIP3    H225894   4.855   5.107   0.677
 8644TIP3   OH225895   3.052   5.613   3.853
 8644TIP3    H125896   2.969   5.622   3.901
 8644TIP3    H225897   3.118   5.601   3.921
 8645TIP3   OH225898   0.028   3.433   4.812
 8645TIP3    H125899   0.033   3.528   4.804
 8645TIP3    H225900   0.111   3.407   4.852
 8646TIP3   OH225901   3.513   0.433   5.154
 8646TIP3    H125902   3.508   0.346   5.115
 8646TIP3    H225903   3.421   0.461   5.160
 8647TIP3   OH225904   5.302   4.923   2.604
 8647TIP3    H125905   5.247   4.856   2.563
 8647TIP3    H225906   5.241   4.993   2.628
 8648TIP3   OH225907   6.861   5.428   4.824
 8648TIP3    H125908   6.913   5.359   4.783
 8648TIP3    H225909   6.908   5.449   4.905
 8649TIP3   OH225910   4.858   2.053   4.778
 8649TIP3    H125911   4.792   2.117   4.752
 8649TIP3    H225912   4.811   1.970   4.783
 8650TIP3   OH225913   2.801   5.191   1.922
 8650TIP3    H125914   2.748   5.175   2.000
 8650TIP3    H225915   2.741   5.234   1.861
 8651TIP3   OH225916   0.925   0.919   0.186
 8651TIP3    H125917   0.936   0.825   0.205
 8651TIP3    H225918   0.875   0.952   0.260
 8652TIP3   OH225919   0.386   1.004   3.432
 8652TIP3    H125920   0.409   1.096   3.441
 8652TIP3    H225921   0.467   0.957   3.454
 8653TIP3   OH225922   5.097   0.845   3.765
 8653TIP3    H125923   5.067   0.888   3.844
 8653TIP3    H225924   5.020   0.843   3.708
 8654TIP3   OH225925   4.330   1.184   1.881
 8654TIP3    H125926   4.356   1.256   1.937
 8654TIP3    H225927   4.285   1.123   1.939
 8655TIP3   OH225928   4.103   5.397   0.648
 8655TIP3    H125929   4.020   5.442   0.664
 8655TIP3    H225930   4.109   5.332   0.718
 8656TIP3   OH225931   2.527   3.843   2.345
 8656TIP3    H125932   2.591   3.796   2.291
 8656TIP3    H225933   2.563   3.839   2.433
 8657TIP3   OH225934   3.622   1.731   5.436
 8657TIP3    H125935   3.588   1.816   5.407
 8657TIP3    H225936   3.560   1.703   5.504
 8658TIP3   OH225937   3.354   1.513   5.486
 8658TIP3    H125938   3.385   1.599   5.514
 8658TIP3    H225939   3.262   1.510   5.512
 8659TIP3   OH225940   1.604   3.051   4.286
 8659TIP3    H125941   1.515   3.024   4.309
 8659TIP3    H225942   1.622   3.126   4.342
 8660TIP3   OH225943   1.816   4.762   5.764
 8660TIP3    H125944   1.833   4.773   5.858
 8660TIP3    H225945   1.903   4.753   5.725
 8661TIP3   OH225946   3.665   1.458   4.298
 8661TIP3    H125947   3.724   1.433   4.227
 8661TIP3    H225948   3.698   1.543   4.327
 8662TIP3   OH225949   1.677   6.606   4.383
 8662TIP3    H125950   1.736   6.606   4.307
 8662TIP3    H225951   1.595   6.571   4.348
 8663TIP3   OH225952   1.284   0.455   5.201
 8663TIP3    H125953   1.191   0.441   5.186
 8663TIP3    H225954   1.288   0.525   5.266
 8664TIP3   OH225955   3.203   1.286   4.074
 8664TIP3    H125956   3.175   1.196   4.085
 8664TIP3    H225957   3.265   1.301   4.145
 8665TIP3   OH225958   7.191   1.968   2.519
 8665TIP3    H125959   7.128   1.934   2.455
 8665TIP3    H225960   7.176   1.914   2.597
 8666TIP3   OH225961   6.700   5.009   5.543
 8666TIP3    H125962   6.788   5.047   5.537
 8666TIP3    H225963   6.642   5.082   5.520
 8667TIP3   OH225964   6.731   6.537   2.229
 8667TIP3    H125965   6.673   6.605   2.264
 8667TIP3    H225966   6.813   6.548   2.278
 8668TIP3   OH225967   0.238   1.990   4.728
 8668TIP3    H125968   0.284   1.918   4.684
 8668TIP3    H225969   0.147   1.960   4.734
 8669TIP3   OH225970   6.686   5.014   3.195
 8669TIP3    H125971   6.633   4.960   3.137
 8669TIP3    H225972   6.686   4.968   3.279
 8670TIP3   OH225973   6.212   6.539   0.742
 8670TIP3    H125974   6.298   6.560   0.778
 8670TIP3    H225975   6.156   6.611   0.772
 8671TIP3   OH225976   4.410   1.433   4.876
 8671TIP3    H125977   4.411   1.345   4.913
 8671TIP3    H225978   4.318   1.457   4.871
 8672TIP3   OH225979   1.422   4.133   4.037
 8672TIP3    H125980   1.508   4.136   4.078
 8672TIP3    H225981   1.415   4.045   4.001
 8673TIP3   OH225982   2.238   1.056   3.113
 8673TIP3    H125983   2.256   1.109   3.191
 8673TIP3    H225984   2.167   1.103   3.069
 8674TIP3   OH225985   4.080   6.186   2.518
 8674TIP3    H125986   4.095   6.199   2.612
 8674TIP3    H225987   4.017   6.114   2.514
 8675TIP3   OH225988   2.969   0.989   4.352
 8675TIP3    H125989   2.920   0.982   4.270
 8675TIP3    H225990   3.000   0.900   4.370
 8676TIP3   OH225991   0.441   1.468   0.221
 8676TIP3    H125992   0.453   1.472   0.126
 8676TIP3    H225993   0.442   1.559   0.250
 8677TIP3   OH225994   0.240   1.374   4.469
 8677TIP3    H125995   0.278   1.419   4.394
 8677TIP3    H225996   0.237   1.282   4.444
 8678TIP3   OH225997   2.095   3.758   2.233
 8678TIP3    H125998   2.016   3.717   2.268
 8678TIP3    H225999   2.099   3.843   2.277
 8679TIP3   OH226000   3.872   1.615   3.810
 8679TIP3    H126001   3.795   1.635   3.863
 8679TIP3    H226002   3.921   1.552   3.864
 8680TIP3   OH226003   4.317   4.595   1.309
 8680TIP3    H126004   4.316   4.608   1.404
 8680TIP3    H226005   4.235   4.549   1.290
 8681TIP3   OH226006   5.492   6.522   3.126
 8681TIP3    H126007   5.460   6.567   3.048
 8681TIP3    H226008   5.583   6.499   3.105
 8682TIP3   OH226009   1.509   5.728   5.245
 8682TIP3    H126010   1.452   5.681   5.305
 8682TIP3    H226011   1.597   5.714   5.279
 8683TIP3   OH226012   4.860   6.532   1.773
 8683TIP3    H126013   4.914   6.549   1.697
 8683TIP3    H226014   4.858   6.436   1.780
 8684TIP3   OH226015   1.357   2.302   1.420
 8684TIP3    H126016   1.440   2.340   1.449
 8684TIP3    H226017   1.301   2.304   1.498
 8685TIP3   OH226018   5.776   1.438   4.109
 8685TIP3    H126019   5.742   1.493   4.038
 8685TIP3    H226020   5.706   1.374   4.125
 8686TIP3   OH226021   6.656   3.914   3.571
 8686TIP3    H126022   6.660   3.828   3.612
 8686TIP3    H226023   6.597   3.965   3.627
 8687TIP3   OH226024   5.286   1.966   1.306
 8687TIP3    H126025   5.378   1.991   1.309
 8687TIP3    H226026   5.284   1.888   1.249
 8688TIP3   OH226027   5.877   6.633   4.231
 8688TIP3    H126028   5.946   6.574   4.200
 8688TIP3    H226029   5.871   6.616   4.325
 8689TIP3   OH226030   6.394   4.651   2.642
 8689TIP3    H126031   6.426   4.586   2.579
 8689TIP3    H226032   6.474   4.685   2.683
 8690TIP3   OH226033   4.893   5.549   2.639
 8690TIP3    H126034   4.804   5.545   2.604
 8690TIP3    H226035   4.894   5.484   2.709
 8691TIP3   OH226036   1.012   6.527   5.673
 8691TIP3    H126037   0.933   6.514   5.619
 8691TIP3    H226038   1.021   6.445   5.722
 8692TIP3   OH226039   3.897   4.475   1.010
 8692TIP3    H126040   3.944   4.514   0.936
 8692TIP3    H226041   3.863   4.392   0.975
 8693TIP3   OH226042   5.628   5.753   3.305
 8693TIP3    H126043   5.607   5.660   3.308
 8693TIP3    H226044   5.544   5.795   3.285
 8694TIP3   OH226045   0.861   5.314   3.076
 8694TIP3    H126046   0.892   5.404   3.067
 8694TIP3    H226047   0.769   5.317   3.052
 8695TIP3   OH226048   4.330  -0.009   3.170
 8695TIP3    H126049   4.352   0.040   3.091
 8695TIP3    H226050   4.412  -0.050   3.198
 8696TIP3   OH226051   5.211   0.093   2.394
 8696TIP3    H126052   5.150   0.040   2.343
 8696TIP3    H226053   5.184   0.080   2.485
 8697TIP3   OH226054   6.213   5.658   2.970
 8697TIP3    H126055   6.209   5.645   3.065
 8697TIP3    H226056   6.132   5.619   2.937
 8698TIP3   OH226057   2.832   0.111   0.101
 8698TIP3    H126058   2.750   0.069   0.127
 8698TIP3    H226059   2.836   0.191   0.152
 8699TIP3   OH226060   5.377   2.241   0.722
 8699TIP3    H126061   5.432   2.202   0.790
 8699TIP3    H226062   5.295   2.261   0.766
 8700TIP3   OH226063   2.898   5.685   1.074
 8700TIP3    H126064   2.813   5.728   1.067
 8700TIP3    H226065   2.877   5.593   1.090
 8701TIP3   OH226066   1.079   6.072   2.037
 8701TIP3    H126067   1.085   6.008   1.966
 8701TIP3    H226068   1.023   6.031   2.102
 8702TIP3   OH226069   1.290   1.457   1.359
 8702TIP3    H126070   1.378   1.432   1.332
 8702TIP3    H226071   1.232   1.410   1.299
 8703TIP3   OH226072   0.392   1.013   1.377
 8703TIP3    H126073   0.429   0.983   1.460
 8703TIP3    H226074   0.465   1.054   1.331
 8704TIP3   OH226075   4.721   0.462   3.997
 8704TIP3    H126076   4.788   0.485   4.061
 8704TIP3    H226077   4.696   0.546   3.958
 8705TIP3   OH226078   4.281   4.441   0.346
 8705TIP3    H126079   4.284   4.519   0.291
 8705TIP3    H226080   4.306   4.472   0.433
 8706TIP3   OH226081   1.053   2.864   3.691
 8706TIP3    H126082   1.015   2.782   3.724
 8706TIP3    H226083   1.143   2.841   3.668
 8707TIP3   OH226084   3.515   1.604   4.103
 8707TIP3    H126085   3.456   1.638   4.171
 8707TIP3    H226086   3.576   1.548   4.150
 8708TIP3   OH226087   1.954   6.073   4.242
 8708TIP3    H126088   1.874   6.123   4.227
 8708TIP3    H226089   1.953   6.005   4.175
 8709TIP3   OH226090   2.894   1.436   3.513
 8709TIP3    H126091   2.801   1.456   3.511
 8709TIP3    H226092   2.906   1.385   3.594
 8710TIP3   OH226093   2.972   5.241   2.463
 8710TIP3    H126094   2.918   5.166   2.439
 8710TIP3    H226095   3.046   5.203   2.511
 8711TIP3   OH226096   3.434   2.784   2.635
 8711TIP3    H126097   3.494   2.837   2.687
 8711TIP3    H226098   3.374   2.746   2.699
 8712TIP3   OH226099   6.084   5.745   5.402
 8712TIP3    H126100   6.046   5.704   5.480
 8712TIP3    H226101   6.030   5.713   5.330
 8713TIP3   OH226102   5.251   4.645   2.708
 8713TIP3    H126103   5.291   4.707   2.768
 8713TIP3    H226104   5.158   4.669   2.707
 8714TIP3   OH226105   3.313   3.107   4.329
 8714TIP3    H126106   3.370   3.178   4.299
 8714TIP3    H226107   3.293   3.129   4.420
 8715TIP3   OH226108   3.347   0.640   3.153
 8715TIP3    H126109   3.376   0.644   3.245
 8715TIP3    H226110   3.366   0.728   3.119
 8716TIP3   OH226111   0.398   4.782  -0.021
 8716TIP3    H126112   0.328   4.718  -0.033
 8716TIP3    H226113   0.355   4.857   0.020
 8717TIP3   OH226114   0.153   4.491   5.708
 8717TIP3    H126115   0.107   4.552   5.765
 8717TIP3    H226116   0.246   4.507   5.725
 8718TIP3   OH226117   6.619   5.272   5.449
 8718TIP3    H126118   6.578   5.326   5.516
 8718TIP3    H226119   6.708   5.306   5.442
 8719TIP3   OH226120   1.926   0.350   1.076
 8719TIP3    H126121   1.900   0.315   1.161
 8719TIP3    H226122   1.920   0.276   1.017
 8720TIP3   OH226123   2.816   5.638   3.477
 8720TIP3    H126124   2.900   5.594   3.492
 8720TIP3    H226125   2.789   5.609   3.390
 8721TIP3   OH226126   5.283   2.314   5.861
 8721TIP3    H126127   5.242   2.237   5.821
 8721TIP3    H226128   5.377   2.297   5.854
 8722TIP3   OH226129   0.559   1.505   1.316
 8722TIP3    H126130   0.485   1.566   1.317
 8722TIP3    H226131   0.595   1.513   1.228
 8723TIP3   OH226132   5.908   4.305   2.158
 8723TIP3    H126133   5.892   4.221   2.115
 8723TIP3    H226134   5.876   4.293   2.248
 8724TIP3   OH226135   0.296   5.087   5.758
 8724TIP3    H126136   0.321   5.007   5.711
 8724TIP3    H226137   0.378   5.121   5.793
 8725TIP3   OH226138   6.873   4.020   4.223
 8725TIP3    H126139   6.856   4.008   4.130
 8725TIP3    H226140   6.809   3.965   4.267
 8726TIP3   OH226141   0.840   6.313   0.063
 8726TIP3    H126142   0.778   6.243   0.044
 8726TIP3    H226143   0.829   6.330   0.157
 8727TIP3   OH226144   5.595   4.602   2.651
 8727TIP3    H126145   5.548   4.569   2.575
 8727TIP3    H226146   5.552   4.685   2.672
 8728TIP3   OH226147  -0.002   3.906   4.071
 8728TIP3    H126148   0.039   3.870   3.992
 8728TIP3    H226149  -0.023   3.830   4.124
 8729TIP3   OH226150   0.390   2.901   3.945
 8729TIP3    H126151   0.394   2.911   4.040
 8729TIP3    H226152   0.452   2.966   3.911
 8730TIP3   OH226153   4.105   1.047   1.330
 8730TIP3    H126154   4.065   0.960   1.328
 8730TIP3    H226155   4.104   1.071   1.423
 8731TIP3   OH226156   0.269   4.492   1.442
 8731TIP3    H126157   0.268   4.555   1.370
 8731TIP3    H226158   0.309   4.413   1.403
 8732TIP3   OH226159   4.271   2.064   2.670
 8732TIP3    H126160   4.218   2.135   2.705
 8732TIP3    H226161   4.352   2.107   2.640
 8733TIP3   OH226162   6.896   3.920   5.069
 8733TIP3    H126163   6.880   3.827   5.052
 8733TIP3    H226164   6.989   3.926   5.087
 8734TIP3   OH226165   6.322   4.078   4.135
 8734TIP3    H126166   6.371   4.150   4.095
 8734TIP3    H226167   6.236   4.116   4.154
 8735TIP3   OH226168   4.280   6.600   4.544
 8735TIP3    H126169   4.246   6.512   4.534
 8735TIP3    H226170   4.223   6.654   4.489
 8736TIP3   OH226171   4.800   3.181   1.145
 8736TIP3    H126172   4.831   3.090   1.148
 8736TIP3    H226173   4.880   3.232   1.131
 8737TIP3   OH226174   5.939   1.453   1.388
 8737TIP3    H126175   5.852   1.421   1.364
 8737TIP3    H226176   5.995   1.375   1.385
 8738TIP3   OH226177   5.344   1.720   3.760
 8738TIP3    H126178   5.370   1.771   3.684
 8738TIP3    H226179   5.396   1.641   3.756
 8739TIP3   OH226180   6.368   3.883   1.982
 8739TIP3    H126181   6.409   3.846   1.904
 8739TIP3    H226182   6.329   3.808   2.027
 8740TIP3   OH226183   1.789   3.296   2.717
 8740TIP3    H126184   1.870   3.245   2.723
 8740TIP3    H226185   1.773   3.327   2.807
 8741TIP3   OH226186   0.915   6.347   4.397
 8741TIP3    H126187   0.965   6.327   4.476
 8741TIP3    H226188   0.923   6.442   4.388
 8742TIP3   OH226189   5.839   4.685   3.469
 8742TIP3    H126190   5.888   4.638   3.403
 8742TIP3    H226191   5.893   4.679   3.548
 8743TIP3   OH226192   0.020   6.750   2.333
 8743TIP3    H126193   0.049   6.689   2.401
 8743TIP3    H226194  -0.038   6.811   2.379
 8744TIP3   OH226195   3.804   4.867   5.200
 8744TIP3    H126196   3.880   4.852   5.257
 8744TIP3    H226197   3.763   4.945   5.237
 8745TIP3   OH226198   2.344   4.836   2.365
 8745TIP3    H126199   2.264   4.859   2.413
 8745TIP3    H226200   2.410   4.898   2.398
 8746TIP3   OH226201   4.387   2.376   4.793
 8746TIP3    H126202   4.414   2.287   4.769
 8746TIP3    H226203   4.293   2.377   4.780
 8747TIP3   OH226204   1.522   1.443   1.789
 8747TIP3    H126205   1.452   1.500   1.758
 8747TIP3    H226206   1.531   1.376   1.721
 8748TIP3   OH226207   1.399   0.915   5.567
 8748TIP3    H126208   1.350   0.997   5.561
 8748TIP3    H226209   1.337   0.854   5.607
 8749TIP3   OH226210   3.818   5.069   0.498
 8749TIP3    H126211   3.730   5.041   0.521
 8749TIP3    H226212   3.833   5.148   0.551
 8750TIP3   OH226213   6.364   3.114   2.674
 8750TIP3    H126214   6.457   3.135   2.676
 8750TIP3    H226215   6.352   3.048   2.742
 8751TIP3   OH226216   2.328   5.090   4.324
 8751TIP3    H126217   2.332   5.090   4.419
 8751TIP3    H226218   2.241   5.055   4.304
 8752TIP3   OH226219   0.277   6.556   3.241
 8752TIP3    H126220   0.263   6.479   3.187
 8752TIP3    H226221   0.275   6.523   3.331
 8753TIP3   OH226222   0.063   0.032   1.446
 8753TIP3    H126223   0.123  -0.001   1.513
 8753TIP3    H226224   0.098  -0.003   1.364
 8754TIP3   OH226225   5.293   4.956   4.773
 8754TIP3    H126226   5.214   4.960   4.828
 8754TIP3    H226227   5.268   5.003   4.693
 8755TIP3   OH226228   6.823   1.531   4.516
 8755TIP3    H126229   6.906   1.532   4.563
 8755TIP3    H226230   6.821   1.613   4.468
 8756TIP3   OH226231   6.729   3.055   5.234
 8756TIP3    H126232   6.788   3.073   5.161
 8756TIP3    H226233   6.782   3.075   5.312
 8757TIP3   OH226234   2.505   0.158   2.859
 8757TIP3    H126235   2.566   0.186   2.791
 8757TIP3    H226236   2.538   0.200   2.939
 8758TIP3   OH226237   3.060   4.519   3.471
 8758TIP3    H126238   3.000   4.446   3.459
 8758TIP3    H226239   3.019   4.573   3.539
 8759TIP3   OH226240   1.840   1.806   2.812
 8759TIP3    H126241   1.832   1.752   2.890
 8759TIP3    H226242   1.776   1.770   2.750
 8760TIP3   OH226243   1.897   0.120   5.390
 8760TIP3    H126244   1.877   0.155   5.477
 8760TIP3    H226245   1.991   0.136   5.379
 8761TIP3   OH226246   0.803   3.454   1.610
 8761TIP3    H126247   0.789   3.401   1.689
 8761TIP3    H226248   0.849   3.531   1.641
 8762TIP3   OH226249   2.749   5.442   0.787
 8762TIP3    H126250   2.841   5.468   0.797
 8762TIP3    H226251   2.748   5.349   0.810
 8763TIP3   OH226252   4.681   3.202   4.211
 8763TIP3    H126253   4.718   3.203   4.123
 8763TIP3    H226254   4.640   3.116   4.220
 8764TIP3   OH226255   0.187   2.847   0.098
 8764TIP3    H126256   0.149   2.771   0.053
 8764TIP3    H226257   0.210   2.814   0.185
 8765TIP3   OH226258   0.154   4.263   0.048
 8765TIP3    H126259   0.209   4.218  -0.016
 8765TIP3    H226260   0.194   4.349   0.057
 8766TIP3   OH226261   4.872   2.173   1.673
 8766TIP3    H126262   4.860   2.157   1.767
 8766TIP3    H226263   4.967   2.179   1.662
 8767TIP3   OH226264   3.350   1.209   1.480
 8767TIP3    H126265   3.310   1.252   1.404
 8767TIP3    H226266   3.438   1.247   1.485
 8768TIP3   OH226267   6.872   1.061   1.736
 8768TIP3    H126268   6.833   0.973   1.741
 8768TIP3    H226269   6.940   1.061   1.804
 8769TIP3   OH226270   5.598   2.038   0.822
 8769TIP3    H126271   5.654   1.960   0.829
 8769TIP3    H226272   5.515   2.011   0.860
 8770TIP3   OH226273   0.983   2.066   2.763
 8770TIP3    H126274   0.982   2.009   2.686
 8770TIP3    H226275   0.949   2.149   2.732
 8771TIP3   OH226276   4.465   4.462   4.223
 8771TIP3    H126277   4.377   4.475   4.186
 8771TIP3    H226278   4.486   4.371   4.201
 8772TIP3   OH226279   3.906   3.478   0.538
 8772TIP3    H126280   3.816   3.496   0.566
 8772TIP3    H226281   3.901   3.392   0.495
 8773TIP3   OH226282   0.367   6.114   5.538
 8773TIP3    H126283   0.337   6.205   5.542
 8773TIP3    H226284   0.417   6.101   5.618
 8774TIP3   OH226285   3.848   1.085   0.602
 8774TIP3    H126286   3.901   1.046   0.533
 8774TIP3    H226287   3.824   1.011   0.659
 8775TIP3   OH226288   1.003   2.570   2.579
 8775TIP3    H126289   1.040   2.497   2.627
 8775TIP3    H226290   0.909   2.561   2.589
 8776TIP3   OH226291   0.777   6.645   4.663
 8776TIP3    H126292   0.704   6.706   4.660
 8776TIP3    H226293   0.851   6.698   4.692
 8777TIP3   OH226294   0.301   1.844   5.866
 8777TIP3    H126295   0.230   1.886   5.816
 8777TIP3    H226296   0.368   1.826   5.801
 8778TIP3   OH226297   7.210   3.035   2.141
 8778TIP3    H126298   7.153   3.044   2.065
 8778TIP3    H226299   7.170   2.966   2.194
 8779TIP3   OH226300   5.115   6.114   0.227
 8779TIP3    H126301   5.164   6.091   0.148
 8779TIP3    H226302   5.172   6.089   0.299
 8780TIP3   OH226303   1.021   2.003   5.245
 8780TIP3    H126304   1.071   1.935   5.201
 8780TIP3    H226305   0.933   1.996   5.209
 8781TIP3   OH226306   2.336   5.056   4.580
 8781TIP3    H126307   2.293   4.972   4.600
 8781TIP3    H226308   2.369   5.087   4.664
 8782TIP3   OH226309   0.702   0.861   5.160
 8782TIP3    H126310   0.688   0.768   5.144
 8782TIP3    H226311   0.645   0.882   5.234
 8783TIP3   OH226312   4.622   0.269   2.201
 8783TIP3    H126313   4.528   0.254   2.204
 8783TIP3    H226314   4.642   0.279   2.107
 8784TIP3   OH226315   0.900   3.782   1.429
 8784TIP3    H126316   0.969   3.780   1.362
 8784TIP3    H226317   0.941   3.822   1.505
 8785TIP3   OH226318   1.375   6.204   3.728
 8785TIP3    H126319   1.325   6.251   3.662
 8785TIP3    H226320   1.339   6.235   3.812
 8786TIP3   OH226321   2.289   1.783   4.486
 8786TIP3    H126322   2.379   1.791   4.519
 8786TIP3    H226323   2.264   1.872   4.462
 8787TIP3   OH226324   0.532   2.348   0.680
 8787TIP3    H126325   0.595   2.320   0.746
 8787TIP3    H226326   0.515   2.270   0.627
 8788TIP3   OH226327   6.679   2.403   4.858
 8788TIP3    H126328   6.592   2.414   4.821
 8788TIP3    H226329   6.689   2.478   4.918
 8789TIP3   OH226330   6.737   6.794   0.080
 8789TIP3    H126331   6.735   6.700   0.063
 8789TIP3    H226332   6.826   6.821   0.055
 8790TIP3   OH226333   5.719   5.484   4.115
 8790TIP3    H126334   5.677   5.490   4.030
 8790TIP3    H226335   5.650   5.454   4.175
 8791TIP3   OH226336   6.545   2.813   5.210
 8791TIP3    H126337   6.563   2.891   5.263
 8791TIP3    H226338   6.605   2.747   5.243
 8792TIP3   OH226339   5.713   5.352   2.163
 8792TIP3    H126340   5.723   5.258   2.146
 8792TIP3    H226341   5.636   5.378   2.113
 8793TIP3   OH226342   6.100   4.309   4.911
 8793TIP3    H126343   6.153   4.389   4.912
 8793TIP3    H226344   6.029   4.327   4.850
 8794TIP3   OH226345   2.170   1.565   3.285
 8794TIP3    H126346   2.106   1.536   3.351
 8794TIP3    H226347   2.163   1.501   3.215
 8795TIP3   OH226348   0.742   2.810   1.184
 8795TIP3    H126349   0.647   2.798   1.190
 8795TIP3    H226350   0.758   2.897   1.220
 8796TIP3   OH226351   1.379   3.927   3.873
 8796TIP3    H126352   1.442   3.863   3.840
 8796TIP3    H226353   1.298   3.909   3.825
 8797TIP3   OH226354   2.305   6.549   5.362
 8797TIP3    H126355   2.247   6.620   5.391
 8797TIP3    H226356   2.249   6.471   5.362
 8798TIP3   OH226357   2.253   2.249   1.879
 8798TIP3    H126358   2.227   2.338   1.855
 8798TIP3    H226359   2.181   2.216   1.932
 8799TIP3   OH226360   4.179   1.193   3.919
 8799TIP3    H126361   4.272   1.171   3.924
 8799TIP3    H226362   4.134   1.109   3.914
 8800TIP3   OH226363   3.086   6.239   0.106
 8800TIP3    H126364   3.093   6.296   0.183
 8800TIP3    H226365   3.031   6.166   0.135
 8801TIP3   OH226366   3.608   0.592   3.661
 8801TIP3    H126367   3.670   0.559   3.596
 8801TIP3    H226368   3.583   0.514   3.711
 8802TIP3   OH226369   4.854   5.143   2.237
 8802TIP3    H126370   4.784   5.162   2.175
 8802TIP3    H226371   4.865   5.224   2.287
 8803TIP3   OH226372   0.889   4.283   1.800
 8803TIP3    H126373   0.843   4.366   1.811
 8803TIP3    H226374   0.945   4.297   1.723
 8804TIP3   OH226375   0.281   2.821   1.733
 8804TIP3    H126376   0.208   2.869   1.770
 8804TIP3    H226377   0.358   2.874   1.752
 8805TIP3   OH226378   6.811   4.057   1.658
 8805TIP3    H126379   6.723   4.061   1.621
 8805TIP3    H226380   6.801   4.004   1.738
 8806TIP3   OH226381   4.619   3.354   1.069
 8806TIP3    H126382   4.686   3.294   1.103
 8806TIP3    H226383   4.609   3.420   1.138
 8807TIP3   OH226384   6.312   0.620   0.401
 8807TIP3    H126385   6.381   0.654   0.345
 8807TIP3    H226386   6.332   0.652   0.488
 8808TIP3   OH226387   6.265   3.946   2.566
 8808TIP3    H126388   6.275   3.875   2.503
 8808TIP3    H226389   6.355   3.978   2.580
 8809TIP3   OH226390   6.828   0.168   0.760
 8809TIP3    H126391   6.812   0.215   0.842
 8809TIP3    H226392   6.902   0.110   0.778
 8810TIP3   OH226393   7.038   1.195   3.507
 8810TIP3    H126394   7.038   1.282   3.547
 8810TIP3    H226395   7.087   1.141   3.568
 8811TIP3   OH226396   4.002   3.417   1.146
 8811TIP3    H126397   4.078   3.463   1.181
 8811TIP3    H226398   4.028   3.325   1.147
 8812TIP3   OH226399   1.624   0.108   0.953
 8812TIP3    H126400   1.589   0.197   0.954
 8812TIP3    H226401   1.670   0.099   1.037
 8813TIP3   OH226402   0.028   2.175   0.433
 8813TIP3    H126403   0.111   2.222   0.443
 8813TIP3    H226404   0.024   2.116   0.508
 8814TIP3   OH226405   0.611   0.447   1.767
 8814TIP3    H126406   0.629   0.372   1.710
 8814TIP3    H226407   0.696   0.487   1.781
 8815TIP3   OH226408   0.837   0.687   4.253
 8815TIP3    H126409   0.785   0.680   4.333
 8815TIP3    H226410   0.925   0.712   4.283
 8816TIP3   OH226411   0.609   0.069   1.992
 8816TIP3    H126412   0.529   0.120   1.982
 8816TIP3    H226413   0.679   0.134   2.000
 8817TIP3   OH226414   0.688   6.341   2.681
 8817TIP3    H126415   0.761   6.387   2.722
 8817TIP3    H226416   0.682   6.258   2.729
 8818TIP3   OH226417   7.029   1.244   3.170
 8818TIP3    H126418   6.994   1.158   3.143
 8818TIP3    H226419   7.105   1.223   3.223
 8819TIP3   OH226420   1.443   4.445   2.288
 8819TIP3    H126421   1.497   4.429   2.211
 8819TIP3    H226422   1.353   4.444   2.254
 8820TIP3   OH226423   4.599   5.911   4.426
 8820TIP3    H126424   4.692   5.902   4.447
 8820TIP3    H226425   4.584   6.005   4.420
 8821TIP3   OH226426   4.089   0.842   5.240
 8821TIP3    H126427   3.996   0.861   5.233
 8821TIP3    H226428   4.127   0.925   5.272
 8822TIP3   OH226429   4.705   5.199   5.584
 8822TIP3    H126430   4.690   5.267   5.651
 8822TIP3    H226431   4.799   5.203   5.567
 8823TIP3   OH226432   6.720   2.229   5.317
 8823TIP3    H126433   6.810   2.254   5.294
 8823TIP3    H226434   6.727   2.193   5.405
 8824TIP3   OH226435   0.664   5.934   1.424
 8824TIP3    H126436   0.732   5.945   1.491
 8824TIP3    H226437   0.712   5.900   1.348
 8825TIP3   OH226438   6.125   4.761   5.767
 8825TIP3    H126439   6.080   4.680   5.793
 8825TIP3    H226440   6.054   4.823   5.748
 8826TIP3   OH226441   5.746   6.481   4.641
 8826TIP3    H126442   5.721   6.529   4.561
 8826TIP3    H226443   5.736   6.545   4.711
 8827TIP3   OH226444   6.547   3.450   4.649
 8827TIP3    H126445   6.459   3.486   4.634
 8827TIP3    H226446   6.600   3.491   4.581
 8828TIP3   OH226447   2.559   4.059   3.383
 8828TIP3    H126448   2.545   4.006   3.462
 8828TIP3    H226449   2.609   4.135   3.413
 8829TIP3   OH226450   7.176   2.071   5.557
 8829TIP3    H126451   7.261   2.114   5.561
 8829TIP3    H226452   7.194   1.985   5.520
 8830TIP3   OH226453   5.675   2.220   0.441
 8830TIP3    H126454   5.740   2.290   0.445
 8830TIP3    H226455   5.595   2.260   0.475
 8831TIP3   OH226456   1.432   6.339   3.223
 8831TIP3    H126457   1.343   6.315   3.197
 8831TIP3    H226458   1.478   6.351   3.140
 8832TIP3   OH226459   0.545   6.329   3.341
 8832TIP3    H126460   0.543   6.415   3.383
 8832TIP3    H226461   0.638   6.305   3.340
 8833TIP3   OH226462   5.021   4.874   3.795
 8833TIP3    H126463   4.953   4.925   3.751
 8833TIP3    H226464   4.973   4.818   3.857
 8834TIP3   OH226465   6.951   5.600   0.222
 8834TIP3    H126466   6.967   5.511   0.192
 8834TIP3    H226467   7.024   5.618   0.282
 8835TIP3   OH226468   5.750   6.751   5.822
 8835TIP3    H126469   5.832   6.800   5.821
 8835TIP3    H226470   5.701   6.784   5.747
 8836TIP3   OH226471   0.190   1.062   1.070
 8836TIP3    H126472   0.177   1.157   1.065
 8836TIP3    H226473   0.108   1.025   1.038
 8837TIP3   OH226474   1.893   5.587   5.034
 8837TIP3    H126475   1.837   5.613   4.961
 8837TIP3    H226476   1.982   5.600   5.001
 8838TIP3   OH226477   6.152   3.450   4.130
 8838TIP3    H126478   6.056   3.445   4.129
 8838TIP3    H226479   6.172   3.531   4.178
 8839TIP3   OH226480   1.293   5.731   4.128
 8839TIP3    H126481   1.266   5.663   4.190
 8839TIP3    H226482   1.211   5.776   4.105
 8840TIP3   OH226483   0.662   3.872   4.632
 8840TIP3    H126484   0.742   3.906   4.674
 8840TIP3    H226485   0.669   3.900   4.541
 8841TIP3   OH226486   1.797   3.581   4.517
 8841TIP3    H126487   1.812   3.672   4.491
 8841TIP3    H226488   1.884   3.542   4.518
 8842TIP3   OH226489   5.078   3.226   4.622
 8842TIP3    H126490   5.154   3.191   4.575
 8842TIP3    H226491   5.114   3.266   4.701
 8843TIP3   OH226492   6.749   1.739   4.374
 8843TIP3    H126493   6.788   1.791   4.304
 8843TIP3    H226494   6.693   1.801   4.421
 8844TIP3   OH226495   2.234   1.563   5.052
 8844TIP3    H126496   2.326   1.545   5.070
 8844TIP3    H226497   2.223   1.656   5.073
 8845TIP3   OH226498   3.796   2.343   5.113
 8845TIP3    H126499   3.817   2.410   5.178
 8845TIP3    H226500   3.871   2.284   5.114
 8846TIP3   OH226501   1.984   1.437   0.111
 8846TIP3    H126502   2.064   1.420   0.061
 8846TIP3    H226503   1.961   1.352   0.149
 8847TIP3   OH226504   5.215   5.637   2.005
 8847TIP3    H126505   5.296   5.686   2.015
 8847TIP3    H226506   5.148   5.703   1.987
 8848TIP3   OH226507   2.646   4.021   0.507
 8848TIP3    H126508   2.631   3.985   0.595
 8848TIP3    H226509   2.649   4.116   0.522
 8849TIP3   OH226510   3.011   5.546   0.811
 8849TIP3    H126511   3.033   5.635   0.839
 8849TIP3    H226512   3.053   5.489   0.876
 8850TIP3   OH226513   6.152   4.142   4.577
 8850TIP3    H126514   6.119   4.228   4.605
 8850TIP3    H226515   6.247   4.151   4.580
 8851TIP3   OH226516   2.136   3.764   1.569
 8851TIP3    H126517   2.101   3.792   1.653
 8851TIP3    H226518   2.191   3.688   1.590
 8852TIP3   OH226519   3.814   5.744   2.707
 8852TIP3    H126520   3.787   5.809   2.643
 8852TIP3    H226521   3.901   5.772   2.734
 8853TIP3   OH226522   2.126   4.596   2.322
 8853TIP3    H126523   2.159   4.506   2.322
 8853TIP3    H226524   2.201   4.650   2.344
 8854TIP3   OH226525   3.439   0.983   5.143
 8854TIP3    H126526   3.364   0.964   5.200
 8854TIP3    H226527   3.443   0.908   5.083
 8855TIP3   OH226528   2.029   6.131   1.456
 8855TIP3    H126529   2.103   6.071   1.452
 8855TIP3    H226530   1.952   6.075   1.447
 8856TIP3   OH226531   1.015   1.875   3.396
 8856TIP3    H126532   0.993   1.896   3.306
 8856TIP3    H226533   0.959   1.800   3.418
 8857TIP3   OH226534   3.118   0.805   3.797
 8857TIP3    H126535   3.214   0.807   3.795
 8857TIP3    H226536   3.097   0.718   3.833
 8858TIP3   OH226537   5.105   6.789   1.883
 8858TIP3    H126538   5.061   6.716   1.925
 8858TIP3    H226539   5.196   6.762   1.877
 8859TIP3   OH226540   5.391   6.729   4.261
 8859TIP3    H126541   5.367   6.639   4.280
 8859TIP3    H226542   5.477   6.739   4.301
 8860TIP3   OH226543   2.508   4.821   5.822
 8860TIP3    H126544   2.568   4.755   5.788
 8860TIP3    H226545   2.504   4.887   5.753
 8861TIP3   OH226546   2.424   5.970   2.995
 8861TIP3    H126547   2.469   6.044   3.036
 8861TIP3    H226548   2.332   5.982   3.021
 8862TIP3   OH226549   1.614   4.136   3.076
 8862TIP3    H126550   1.662   4.062   3.112
 8862TIP3    H226551   1.678   4.207   3.069
 8863TIP3   OH226552   3.678   2.951   4.327
 8863TIP3    H126553   3.631   2.959   4.244
 8863TIP3    H226554   3.693   3.042   4.354
 8864TIP3   OH226555   5.437   4.989   0.634
 8864TIP3    H126556   5.440   4.912   0.691
 8864TIP3    H226557   5.422   5.062   0.694
 8865TIP3   OH226558   4.749   4.557   1.210
 8865TIP3    H126559   4.803   4.628   1.176
 8865TIP3    H226560   4.669   4.561   1.157
 8866TIP3   OH226561   0.247   2.529   4.799
 8866TIP3    H126562   0.195   2.576   4.864
 8866TIP3    H226563   0.223   2.437   4.811
 8867TIP3   OH226564   3.187   4.604   0.008
 8867TIP3    H126565   3.281   4.622   0.008
 8867TIP3    H226566   3.181   4.509   0.020
 8868TIP3   OH226567   6.219   5.218   3.954
 8868TIP3    H126568   6.126   5.210   3.973
 8868TIP3    H226569   6.253   5.272   4.025
 8869TIP3   OH226570   4.433   3.473   3.730
 8869TIP3    H126571   4.400   3.524   3.803
 8869TIP3    H226572   4.521   3.447   3.756
 8870TIP3   OH226573   1.452   4.352   3.798
 8870TIP3    H126574   1.462   4.288   3.868
 8870TIP3    H226575   1.447   4.436   3.844
 8871TIP3   OH226576   6.141   2.271   0.684
 8871TIP3    H126577   6.062   2.218   0.687
 8871TIP3    H226578   6.203   2.220   0.632
 8872TIP3   OH226579   5.909   2.291   1.550
 8872TIP3    H126580   5.862   2.373   1.562
 8872TIP3    H226581   5.843   2.232   1.512
 8873TIP3   OH226582   5.592   0.040   2.916
 8873TIP3    H126583   5.579  -0.013   2.837
 8873TIP3    H226584   5.593   0.130   2.885
 8874TIP3   OH226585   3.050   4.981   3.201
 8874TIP3    H126586   3.007   5.003   3.119
 8874TIP3    H226587   3.031   4.888   3.214
 8875TIP3   OH226588   2.867   1.804   4.773
 8875TIP3    H126589   2.874   1.710   4.789
 8875TIP3    H226590   2.885   1.844   4.859
 8876TIP3   OH226591   4.594   1.554   3.689
 8876TIP3    H126592   4.569   1.566   3.781
 8876TIP3    H226593   4.689   1.560   3.689
 8877TIP3   OH226594   3.452   2.103   2.743
 8877TIP3    H126595   3.474   2.195   2.726
 8877TIP3    H226596   3.536   2.058   2.742
 8878TIP3   OH226597   1.036   0.238   3.181
 8878TIP3    H126598   1.038   0.217   3.087
 8878TIP3    H226599   1.016   0.154   3.223
 8879TIP3   OH226600   3.454   2.738   5.891
 8879TIP3    H126601   3.467   2.670   5.825
 8879TIP3    H226602   3.538   2.784   5.895
 8880TIP3   OH226603   2.168   4.811   1.012
 8880TIP3    H126604   2.173   4.816   0.916
 8880TIP3    H226605   2.211   4.728   1.034
 8881TIP3   OH226606   2.649   0.705   5.054
 8881TIP3    H126607   2.580   0.720   5.119
 8881TIP3    H226608   2.654   0.787   5.005
 8882TIP3   OH226609   0.532   6.219   0.959
 8882TIP3    H126610   0.511   6.198   0.868
 8882TIP3    H226611   0.523   6.137   1.006
 8883TIP3   OH226612   6.155   1.060   5.346
 8883TIP3    H126613   6.121   1.034   5.261
 8883TIP3    H226614   6.178   1.152   5.335
 8884TIP3   OH226615   0.065   6.618   3.640
 8884TIP3    H126616   0.074   6.711   3.619
 8884TIP3    H226617   0.057   6.616   3.735
 8885TIP3   OH226618   3.465   0.027   5.532
 8885TIP3    H126619   3.455   0.115   5.567
 8885TIP3    H226620   3.513  -0.021   5.599
 8886TIP3   OH226621   1.879   3.812   0.932
 8886TIP3    H126622   1.817   3.770   0.992
 8886TIP3    H226623   1.863   3.770   0.848
 8887TIP3   OH226624   5.132   1.425   3.716
 8887TIP3    H126625   5.177   1.472   3.646
 8887TIP3    H226626   5.067   1.487   3.748
 8888TIP3   OH226627   3.607   6.110   0.512
 8888TIP3    H126628   3.592   6.017   0.494
 8888TIP3    H226629   3.566   6.125   0.597
 8889TIP3   OH226630   5.698   0.443   0.558
 8889TIP3    H126631   5.736   0.511   0.502
 8889TIP3    H226632   5.727   0.361   0.519
 8890TIP3   OH226633   3.054   1.391   4.958
 8890TIP3    H126634   3.123   1.414   4.895
 8890TIP3    H226635   3.081   1.306   4.993
 8891TIP3   OH226636   1.619   5.070   2.880
 8891TIP3    H126637   1.548   5.020   2.921
 8891TIP3    H226638   1.630   5.031   2.794
 8892TIP3   OH226639   5.479   6.226   3.632
 8892TIP3    H126640   5.508   6.316   3.622
 8892TIP3    H226641   5.394   6.233   3.675
 8893TIP3   OH226642   4.601   0.454   0.144
 8893TIP3    H126643   4.532   0.513   0.172
 8893TIP3    H226644   4.556   0.387   0.093
 8894TIP3   OH226645   1.136   4.047   1.527
 8894TIP3    H126646   1.148   4.006   1.441
 8894TIP3    H226647   1.205   4.011   1.581
 8895TIP3   OH226648   4.373   4.911   1.464
 8895TIP3    H126649   4.421   4.991   1.485
 8895TIP3    H226650   4.429   4.867   1.400
 8896TIP3   OH226651   6.387   3.373   4.311
 8896TIP3    H126652   6.371   3.320   4.388
 8896TIP3    H226653   6.306   3.366   4.259
 8897TIP3   OH226654   2.859   5.708   4.985
 8897TIP3    H126655   2.908   5.628   5.006
 8897TIP3    H226656   2.800   5.719   5.060
 8898TIP3   OH226657   1.875   6.250   3.355
 8898TIP3    H126658   1.872   6.224   3.447
 8898TIP3    H226659   1.809   6.318   3.346
 8899TIP3   OH226660   6.690   6.774   4.187
 8899TIP3    H126661   6.627   6.822   4.134
 8899TIP3    H226662   6.648   6.690   4.205
 8900TIP3   OH226663   6.712   5.795   4.637
 8900TIP3    H126664   6.679   5.720   4.688
 8900TIP3    H226665   6.703   5.869   4.696
 8901TIP3   OH226666   1.311   2.558   3.151
 8901TIP3    H126667   1.292   2.464   3.151
 8901TIP3    H226668   1.318   2.581   3.059
 8902TIP3   OH226669   1.092   5.737   5.157
 8902TIP3    H126670   1.027   5.780   5.101
 8902TIP3    H226671   1.167   5.724   5.100
 8903TIP3   OH226672   3.062   4.409   1.323
 8903TIP3    H126673   3.034   4.321   1.301
 8903TIP3    H226674   3.146   4.397   1.367
 8904TIP3   OH226675   6.657   6.199   3.340
 8904TIP3    H126676   6.709   6.250   3.402
 8904TIP3    H226677   6.718   6.136   3.303
 8905TIP3   OH226678   6.343   0.115   0.983
 8905TIP3    H126679   6.409   0.107   1.051
 8905TIP3    H226680   6.379   0.065   0.909
 8906TIP3   OH226681   2.822   2.254   5.413
 8906TIP3    H126682   2.822   2.275   5.506
 8906TIP3    H226683   2.841   2.337   5.370
 8907TIP3   OH226684   5.422   3.298   1.717
 8907TIP3    H126685   5.418   3.392   1.736
 8907TIP3    H226686   5.417   3.293   1.622
 8908TIP3   OH226687   5.530   5.948   1.673
 8908TIP3    H126688   5.611   5.939   1.622
 8908TIP3    H226689   5.559   5.971   1.761
 8909TIP3   OH226690   0.847   1.435   1.670
 8909TIP3    H126691   0.756   1.421   1.645
 8909TIP3    H226692   0.889   1.350   1.654
 8910TIP3   OH226693   7.182   6.629   4.432
 8910TIP3    H126694   7.142   6.620   4.519
 8910TIP3    H226695   7.230   6.547   4.419
 8911TIP3   OH226696   4.679   3.093   5.527
 8911TIP3    H126697   4.648   3.003   5.531
 8911TIP3    H226698   4.668   3.119   5.435
 8912TIP3   OH226699   4.205   0.729   3.045
 8912TIP3    H126700   4.285   0.706   3.093
 8912TIP3    H226701   4.223   0.815   3.007
 8913TIP3   OH226702   3.722   0.808   2.765
 8913TIP3    H126703   3.806   0.831   2.725
 8913TIP3    H226704   3.676   0.892   2.773
 8914TIP3   OH226705   0.733   3.993   1.371
 8914TIP3    H126706   0.755   3.904   1.397
 8914TIP3    H226707   0.809   4.023   1.321
 8915TIP3   OH226708   5.785   2.720   2.263
 8915TIP3    H126709   5.827   2.656   2.206
 8915TIP3    H226710   5.733   2.667   2.324
 8916TIP3   OH226711   0.443   6.472   1.076
 8916TIP3    H126712   0.476   6.399   1.024
 8916TIP3    H226713   0.505   6.480   1.148
 8917TIP3   OH226714   6.738   0.085   1.221
 8917TIP3    H126715   6.664   0.147   1.224
 8917TIP3    H226716   6.703   0.009   1.175
 8918TIP3   OH226717   0.619   0.435   2.194
 8918TIP3    H126718   0.537   0.389   2.213
 8918TIP3    H226719   0.598   0.493   2.120
 8919TIP3   OH226720   3.813   2.945   3.829
 8919TIP3    H126721   3.798   3.011   3.761
 8919TIP3    H226722   3.853   2.994   3.901
 8920TIP3   OH226723   4.631   2.614   2.927
 8920TIP3    H126724   4.564   2.667   2.884
 8920TIP3    H226725   4.648   2.542   2.866
 8921TIP3   OH226726   3.999   6.524   0.449
 8921TIP3    H126727   3.908   6.520   0.476
 8921TIP3    H226728   4.022   6.433   0.428
 8922TIP3   OH226729   5.811   0.072   5.493
 8922TIP3    H126730   5.760  -0.001   5.528
 8922TIP3    H226731   5.858   0.107   5.568
 8923TIP3   OH226732   6.164   5.971   2.164
 8923TIP3    H126733   6.120   5.887   2.176
 8923TIP3    H226734   6.159   6.014   2.250
 8924TIP3   OH226735   1.261   3.633   5.638
 8924TIP3    H126736   1.349   3.625   5.603
 8924TIP3    H226737   1.272   3.623   5.733
 8925TIP3   OH226738   1.794   0.503   1.737
 8925TIP3    H126739   1.757   0.463   1.815
 8925TIP3    H226740   1.731   0.571   1.713
 8926TIP3   OH226741   2.958   6.537   1.485
 8926TIP3    H126742   2.954   6.460   1.429
 8926TIP3    H226743   3.029   6.519   1.546
 8927TIP3   OH226744   3.202   2.382   4.539
 8927TIP3    H126745   3.238   2.329   4.468
 8927TIP3    H226746   3.226   2.472   4.517
 8928TIP3   OH226747   4.668   0.018   4.559
 8928TIP3    H126748   4.575   0.002   4.573
 8928TIP3    H226749   4.671   0.089   4.496
 8929TIP3   OH226750   6.180   3.933   1.250
 8929TIP3    H126751   6.212   4.021   1.269
 8929TIP3    H226752   6.215   3.912   1.164
 8930TIP3   OH226753   5.279   5.596   0.891
 8930TIP3    H126754   5.208   5.553   0.843
 8930TIP3    H226755   5.293   5.679   0.845
 8931TIP3   OH226756   2.380   1.037   2.148
 8931TIP3    H126757   2.385   0.954   2.196
 8931TIP3    H226758   2.358   1.012   2.059
 8932TIP3   OH226759   3.363   4.552   0.765
 8932TIP3    H126760   3.268   4.557   0.757
 8932TIP3    H226761   3.394   4.538   0.675
 8933TIP3   OH226762   5.440   2.296   5.354
 8933TIP3    H126763   5.422   2.389   5.343
 8933TIP3    H226764   5.534   2.292   5.373
 8934TIP3   OH226765   4.236   3.681   0.483
 8934TIP3    H126766   4.279   3.763   0.505
 8934TIP3    H226767   4.160   3.707   0.430
 8935TIP3   OH226768   2.891   2.646   5.003
 8935TIP3    H126769   2.984   2.669   5.012
 8935TIP3    H226770   2.887   2.553   5.025
 8936TIP3   OH226771   3.455   3.418   2.028
 8936TIP3    H126772   3.473   3.480   1.958
 8936TIP3    H226773   3.388   3.461   2.082
 8937TIP3   OH226774   5.102   5.307   4.242
 8937TIP3    H126775   5.026   5.322   4.299
 8937TIP3    H226776   5.077   5.231   4.190
 8938TIP3   OH226777   2.374   3.089   0.894
 8938TIP3    H126778   2.411   3.122   0.812
 8938TIP3    H226779   2.297   3.039   0.867
 8939TIP3   OH226780   6.938   3.774   1.339
 8939TIP3    H126781   6.907   3.863   1.324
 8939TIP3    H226782   6.959   3.771   1.432
 8940TIP3   OH226783   3.694   4.570   2.206
 8940TIP3    H126784   3.647   4.628   2.146
 8940TIP3    H226785   3.777   4.553   2.161
 8941TIP3   OH226786   2.149   1.597   4.700
 8941TIP3    H126787   2.229   1.636   4.666
 8941TIP3    H226788   2.097   1.671   4.730
 8942TIP3   OH226789   6.569   2.092   3.935
 8942TIP3    H126790   6.527   2.046   4.007
 8942TIP3    H226791   6.648   2.131   3.974
 8943TIP3   OH226792   6.465   4.686   1.074
 8943TIP3    H126793   6.481   4.730   0.991
 8943TIP3    H226794   6.480   4.754   1.140
 8944TIP3   OH226795   0.917   1.690   0.745
 8944TIP3    H126796   0.989   1.753   0.755
 8944TIP3    H226797   0.942   1.616   0.800
 8945TIP3   OH226798   3.332   3.448   5.188
 8945TIP3    H126799   3.251   3.402   5.210
 8945TIP3    H226800   3.398   3.409   5.245
 8946TIP3   OH226801   2.969   6.544   1.015
 8946TIP3    H126802   2.918   6.624   1.030
 8946TIP3    H226803   2.929   6.479   1.073
 8947TIP3   OH226804   0.026   4.280   1.911
 8947TIP3    H126805  -0.053   4.324   1.879
 8947TIP3    H226806   0.098   4.340   1.888
 8948TIP3   OH226807   6.310   0.302   3.455
 8948TIP3    H126808   6.403   0.283   3.446
 8948TIP3    H226809   6.285   0.341   3.371
 8949TIP3   OH226810   0.375   4.645   5.469
 8949TIP3    H126811   0.458   4.653   5.422
 8949TIP3    H226812   0.330   4.573   5.425
 8950TIP3   OH226813   5.896   5.423   0.743
 8950TIP3    H126814   5.862   5.355   0.802
 8950TIP3    H226815   5.844   5.500   0.763
 8951TIP3   OH226816   4.933   4.259   5.637
 8951TIP3    H126817   4.877   4.251   5.559
 8951TIP3    H226818   4.936   4.353   5.654
 8952TIP3   OH226819   4.266   5.387   5.715
 8952TIP3    H126820   4.318   5.329   5.660
 8952TIP3    H226821   4.190   5.409   5.661
 8953TIP3   OH226822   2.835   5.624   3.179
 8953TIP3    H126823   2.867   5.706   3.215
 8953TIP3    H226824   2.904   5.560   3.198
 8954TIP3   OH226825   3.615   5.610   1.454
 8954TIP3    H126826   3.585   5.658   1.531
 8954TIP3    H226827   3.698   5.570   1.482
 8955TIP3   OH226828   1.573   2.964   4.708
 8955TIP3    H126829   1.488   2.926   4.730
 8955TIP3    H226830   1.622   2.891   4.670
 8956TIP3   OH226831   2.143   0.069   3.488
 8956TIP3    H126832   2.159  -0.023   3.464
 8956TIP3    H226833   2.227   0.112   3.473
 8957TIP3   OH226834   5.514   4.137   0.031
 8957TIP3    H126835   5.436   4.192   0.032
 8957TIP3    H226836   5.537   4.129  -0.061
 8958TIP3   OH226837   2.858   5.038   3.571
 8958TIP3    H126838   2.921   5.110   3.572
 8958TIP3    H226839   2.777   5.075   3.606
 8959TIP3   OH226840   3.150   1.975   1.763
 8959TIP3    H126841   3.109   1.997   1.679
 8959TIP3    H226842   3.215   1.908   1.742
 8960TIP3   OH226843   3.585   0.095   5.005
 8960TIP3    H126844   3.579   0.098   5.100
 8960TIP3    H226845   3.521   0.159   4.975
 8961TIP3   OH226846   5.409   1.204   0.091
 8961TIP3    H126847   5.450   1.287   0.067
 8961TIP3    H226848   5.340   1.191   0.026
 8962TIP3   OH226849   3.351   2.014   3.584
 8962TIP3    H126850   3.424   2.075   3.598
 8962TIP3    H226851   3.276   2.056   3.628
 8963TIP3   OH226852   2.355   4.208   2.442
 8963TIP3    H126853   2.389   4.149   2.508
 8963TIP3    H226854   2.419   4.206   2.371
 8964TIP3   OH226855   1.779   4.498   5.765
 8964TIP3    H126856   1.786   4.461   5.853
 8964TIP3    H226857   1.775   4.592   5.779
 8965TIP3   OH226858   1.102   6.147   0.952
 8965TIP3    H126859   1.088   6.119   1.042
 8965TIP3    H226860   1.124   6.067   0.904
 8966TIP3   OH226861   3.287   6.143   3.863
 8966TIP3    H126862   3.282   6.116   3.955
 8966TIP3    H226863   3.234   6.223   3.858
 8967TIP3   OH226864   0.926   3.854   3.924
 8967TIP3    H126865   0.944   3.848   3.831
 8967TIP3    H226866   0.837   3.889   3.929
 8968TIP3   OH226867   3.774   4.639   1.792
 8968TIP3    H126868   3.814   4.708   1.844
 8968TIP3    H226869   3.794   4.558   1.839
 8969TIP3   OH226870   1.641   1.201   1.954
 8969TIP3    H126871   1.716   1.142   1.945
 8969TIP3    H226872   1.678   1.288   1.945
 8970TIP3   OH226873   1.687   0.208   4.385
 8970TIP3    H126874   1.655   0.120   4.402
 8970TIP3    H226875   1.694   0.213   4.290
 8971TIP3   OH226876   5.125   3.277   2.431
 8971TIP3    H126877   5.141   3.274   2.336
 8971TIP3    H226878   5.188   3.341   2.463
 8972TIP3   OH226879   4.766   3.294   2.953
 8972TIP3    H126880   4.720   3.251   2.881
 8972TIP3    H226881   4.777   3.224   3.018
 8973TIP3   OH226882   5.568   0.142   3.509
 8973TIP3    H126883   5.553   0.218   3.566
 8973TIP3    H226884   5.572   0.178   3.421
 8974TIP3   OH226885   5.823   6.770   0.626
 8974TIP3    H126886   5.873   6.790   0.705
 8974TIP3    H226887   5.818   6.853   0.578
 8975TIP3   OH226888   3.033   3.376   0.987
 8975TIP3    H126889   3.083   3.456   0.996
 8975TIP3    H226890   2.975   3.374   1.063
 8976TIP3   OH226891   5.832   5.002   5.039
 8976TIP3    H126892   5.895   4.931   5.038
 8976TIP3    H226893   5.785   4.992   5.122
 8977TIP3   OH226894   3.826   0.772   3.775
 8977TIP3    H126895   3.843   0.678   3.767
 8977TIP3    H226896   3.752   0.788   3.715
 8978TIP3   OH226897   6.403   2.113   4.817
 8978TIP3    H126898   6.343   2.041   4.835
 8978TIP3    H226899   6.393   2.173   4.891
 8979TIP3   OH226900   3.436   4.679   1.005
 8979TIP3    H126901   3.522   4.643   1.026
 8979TIP3    H226902   3.417   4.646   0.917
 8980TIP3   OH226903   3.444   2.109   1.726
 8980TIP3    H126904   3.472   2.180   1.668
 8980TIP3    H226905   3.356   2.134   1.754
 8981TIP3   OH226906   2.297   1.477   5.380
 8981TIP3    H126907   2.347   1.558   5.386
 8981TIP3    H226908   2.213   1.497   5.421
 8982TIP3   OH226909   1.391   1.023   0.864
 8982TIP3    H126910   1.372   0.951   0.804
 8982TIP3    H226911   1.307   1.066   0.878
 8983TIP3   OH226912   2.054   4.972   4.234
 8983TIP3    H126913   1.981   4.960   4.294
 8983TIP3    H226914   2.046   4.901   4.171
 8984TIP3   OH226915   4.032   1.315   1.270
 8984TIP3    H126916   4.090   1.365   1.213
 8984TIP3    H226917   4.075   1.229   1.278
 8985TIP3   OH226918   2.125   1.475   1.139
 8985TIP3    H126919   2.070   1.553   1.141
 8985TIP3    H226920   2.215   1.509   1.134
 8986TIP3   OH226921   5.337   3.856   1.795
 8986TIP3    H126922   5.387   3.878   1.873
 8986TIP3    H226923   5.257   3.815   1.828
 8987TIP3   OH226924   4.533   6.037   4.880
 8987TIP3    H126925   4.589   6.016   4.955
 8987TIP3    H226926   4.537   6.133   4.873
 8988TIP3   OH226927   3.450   0.221   0.125
 8988TIP3    H126928   3.492   0.144   0.164
 8988TIP3    H226929   3.363   0.191   0.100
 8989TIP3   OH226930   1.293   2.831   2.190
 8989TIP3    H126931   1.345   2.899   2.148
 8989TIP3    H226932   1.352   2.755   2.193
 8990TIP3   OH226933   2.272   0.474   4.147
 8990TIP3    H126934   2.332   0.401   4.158
 8990TIP3    H226935   2.327   0.546   4.115
 8991TIP3   OH226936   4.205   2.278   5.729
 8991TIP3    H126937   4.211   2.185   5.749
 8991TIP3    H226938   4.118   2.290   5.692
 8992TIP3   OH226939   4.987   3.620   3.351
 8992TIP3    H126940   4.974   3.540   3.301
 8992TIP3    H226941   4.925   3.614   3.423
 8993TIP3   OH226942   5.489   0.624   2.100
 8993TIP3    H126943   5.432   0.625   2.177
 8993TIP3    H226944   5.535   0.540   2.106
 8994TIP3   OH226945   6.625   6.736   4.597
 8994TIP3    H126946   6.711   6.777   4.604
 8994TIP3    H226947   6.642   6.652   4.553
 8995TIP3   OH226948   3.648   3.402   4.660
 8995TIP3    H126949   3.576   3.458   4.687
 8995TIP3    H226950   3.709   3.460   4.614
 8996TIP3   OH226951   6.743   1.150   2.300
 8996TIP3    H126952   6.827   1.140   2.345
 8996TIP3    H226953   6.766   1.157   2.208
 8997TIP3   OH226954   6.970   2.847   5.414
 8997TIP3    H126955   6.911   2.845   5.489
 8997TIP3    H226956   7.054   2.876   5.449
 8998TIP3   OH226957   0.489   3.700   2.181
 8998TIP3    H126958   0.527   3.787   2.171
 8998TIP3    H226959   0.542   3.657   2.248
 8999TIP3   OH226960   5.552   6.449   5.002
 8999TIP3    H126961   5.572   6.543   4.993
 8999TIP3    H226962   5.628   6.405   4.965
 9000TIP3   OH226963   0.039   3.222   2.472
 9000TIP3    H126964   0.065   3.140   2.428
 9000TIP3    H226965  -0.041   3.200   2.519
 9001TIP3   OH226966   2.475   4.562   3.714
 9001TIP3    H126967   2.496   4.470   3.729
 9001TIP3    H226968   2.421   4.562   3.635
 9002TIP3   OH226969   1.797   2.347   3.222
 9002TIP3    H126970   1.832   2.398   3.149
 9002TIP3    H226971   1.763   2.267   3.180
 9003TIP3   OH226972   6.344   0.938   2.767
 9003TIP3    H126973   6.354   0.937   2.862
 9003TIP3    H226974   6.289   1.014   2.749
 9004TIP3   OH226975   1.445   5.912   2.016
 9004TIP3    H126976   1.511   5.975   1.988
 9004TIP3    H226977   1.369   5.966   2.038
 9005TIP3   OH226978   1.804   0.277   2.249
 9005TIP3    H126979   1.763   0.281   2.163
 9005TIP3    H226980   1.757   0.343   2.301
 9006TIP3   OH226981   3.316   1.625   0.157
 9006TIP3    H126982   3.255   1.577   0.101
 9006TIP3    H226983   3.319   1.574   0.238
 9007TIP3   OH226984   6.937   6.504   2.452
 9007TIP3    H126985   6.946   6.540   2.540
 9007TIP3    H226986   6.972   6.415   2.458
 9008TIP3   OH226987   7.129   5.637   1.790
 9008TIP3    H126988   7.174   5.554   1.776
 9008TIP3    H226989   7.150   5.662   1.880
 9009TIP3   OH226990   1.654   1.905   0.862
 9009TIP3    H126991   1.611   1.825   0.832
 9009TIP3    H226992   1.639   1.968   0.791
 9010TIP3   OH226993   1.777   4.359   3.052
 9010TIP3    H126994   1.799   4.403   3.135
 9010TIP3    H226995   1.862   4.341   3.012
 9011TIP3   OH226996   0.093   2.905   2.467
 9011TIP3    H126997   0.154   2.863   2.406
 9011TIP3    H226998   0.007   2.874   2.441
 9012TIP3   OH226999   5.037   1.771   0.248
 9012TIP3    H127000   5.083   1.816   0.319
 9012TIP3    H227001   4.959   1.734   0.289
 9013TIP3   OH227002   6.826   2.880   5.670
 9013TIP3    H127003   6.802   2.969   5.643
 9013TIP3    H227004   6.744   2.830   5.661
 9014TIP3   OH227005   6.680   6.716   1.442
 9014TIP3    H127006   6.759   6.770   1.450
 9014TIP3    H227007   6.661   6.689   1.531
 9015TIP3   OH227008   4.113   2.207   3.105
 9015TIP3    H127009   4.072   2.271   3.048
 9015TIP3    H227010   4.040   2.172   3.157
 9016TIP3   OH227011   1.514   5.193   5.587
 9016TIP3    H127012   1.588   5.133   5.576
 9016TIP3    H227013   1.507   5.238   5.503
 9017TIP3   OH227014   5.109   2.447   3.839
 9017TIP3    H127015   5.040   2.440   3.905
 9017TIP3    H227016   5.190   2.435   3.887
 9018TIP3   OH227017   4.698   4.847   4.209
 9018TIP3    H127018   4.642   4.829   4.284
 9018TIP3    H227019   4.760   4.775   4.206
 9019TIP3   OH227020   1.864   6.243   3.621
 9019TIP3    H127021   1.873   6.308   3.690
 9019TIP3    H227022   1.771   6.222   3.619
 9020TIP3   OH227023   6.828   1.237   2.749
 9020TIP3    H127024   6.874   1.311   2.788
 9020TIP3    H227025   6.896   1.171   2.736
 9021TIP3   OH227026   6.013   3.015   2.930
 9021TIP3    H127027   6.063   3.090   2.963
 9021TIP3    H227028   5.965   3.049   2.855
 9022TIP3   OH227029   1.551   6.482   3.457
 9022TIP3    H127030   1.497   6.438   3.392
 9022TIP3    H227031   1.639   6.484   3.419
 9023TIP3   OH227032   3.182   6.056   3.381
 9023TIP3    H127033   3.127   6.125   3.346
 9023TIP3    H227034   3.124   6.008   3.441
 9024TIP3   OH227035   6.547   1.214   0.944
 9024TIP3    H127036   6.510   1.203   1.032
 9024TIP3    H227037   6.508   1.144   0.893
 9025TIP3   OH227038   0.718   3.115   3.249
 9025TIP3    H127039   0.761   3.062   3.316
 9025TIP3    H227040   0.761   3.200   3.254
 9026TIP3   OH227041   6.651   4.504   5.770
 9026TIP3    H127042   6.714   4.563   5.729
 9026TIP3    H227043   6.686   4.416   5.753
 9027TIP3   OH227044   3.955   4.575   4.480
 9027TIP3    H127045   4.040   4.538   4.457
 9027TIP3    H227046   3.904   4.570   4.398
 9028TIP3   OH227047   0.596   2.627   3.828
 9028TIP3    H127048   0.557   2.627   3.915
 9028TIP3    H227049   0.687   2.654   3.842
 9029TIP3   OH227050   1.159   2.197   5.444
 9029TIP3    H127051   1.085   2.258   5.448
 9029TIP3    H227052   1.132   2.130   5.382
 9030TIP3   OH227053   5.837   3.454   3.445
 9030TIP3    H127054   5.751   3.430   3.412
 9030TIP3    H227055   5.823   3.471   3.538
 9031TIP3   OH227056   1.745   6.263   0.331
 9031TIP3    H127057   1.791   6.237   0.411
 9031TIP3    H227058   1.664   6.303   0.363
 9032TIP3   OH227059   6.535   4.491   2.904
 9032TIP3    H127060   6.583   4.559   2.858
 9032TIP3    H227061   6.503   4.433   2.834
 9033TIP3   OH227062   3.199   4.829   2.692
 9033TIP3    H127063   3.107   4.804   2.699
 9033TIP3    H227064   3.247   4.756   2.730
 9034TIP3   OH227065   4.343   3.579   5.511
 9034TIP3    H127066   4.393   3.498   5.499
 9034TIP3    H227067   4.286   3.562   5.586
 9035TIP3   OH227068   3.003   3.392   0.348
 9035TIP3    H127069   2.919   3.346   0.351
 9035TIP3    H227070   3.031   3.384   0.257
 9036TIP3   OH227071   5.656   4.653   5.427
 9036TIP3    H127072   5.730   4.677   5.482
 9036TIP3    H227073   5.618   4.576   5.469
 9037TIP3   OH227074   2.715   5.869   2.861
 9037TIP3    H127075   2.702   5.784   2.902
 9037TIP3    H227076   2.689   5.933   2.928
 9038TIP3   OH227077   2.387   0.331   3.792
 9038TIP3    H127078   2.470   0.309   3.835
 9038TIP3    H227079   2.379   0.426   3.802
 9039TIP3   OH227080   6.636   2.341   0.948
 9039TIP3    H127081   6.665   2.294   0.871
 9039TIP3    H227082   6.585   2.415   0.913
 9040TIP3   OH227083   1.802   2.821   2.436
 9040TIP3    H127084   1.791   2.763   2.511
 9040TIP3    H227085   1.766   2.905   2.465
 9041TIP3   OH227086   1.816   3.238   1.388
 9041TIP3    H127087   1.905   3.262   1.413
 9041TIP3    H227088   1.821   3.224   1.293
 9042TIP3   OH227089   1.592   3.572   1.716
 9042TIP3    H127090   1.637   3.490   1.696
 9042TIP3    H227091   1.653   3.641   1.690
 9043TIP3   OH227092   0.119   6.651   3.898
 9043TIP3    H127093   0.134   6.556   3.897
 9043TIP3    H227094   0.078   6.667   3.983
 9044TIP3   OH227095   6.096   2.601   0.726
 9044TIP3    H127096   6.176   2.549   0.720
 9044TIP3    H227097   6.121   2.687   0.694
 9045TIP3   OH227098   3.510   5.299   0.736
 9045TIP3    H127099   3.415   5.289   0.744
 9045TIP3    H227100   3.523   5.393   0.719
 9046TIP3   OH227101   6.648   5.951   0.654
 9046TIP3    H127102   6.625   5.997   0.734
 9046TIP3    H227103   6.577   5.970   0.593
 9047TIP3   OH227104   1.285   2.391   5.580
 9047TIP3    H127105   1.261   2.316   5.525
 9047TIP3    H227106   1.294   2.464   5.520
 9048TIP3   OH227107   6.627   4.959   5.802
 9048TIP3    H127108   6.649   4.948   5.709
 9048TIP3    H227109   6.686   5.028   5.833
 9049TIP3   OH227110   5.669   5.673   0.106
 9049TIP3    H127111   5.671   5.744   0.042
 9049TIP3    H227112   5.705   5.598   0.059
 9050TIP3   OH227113   3.346   5.336   3.197
 9050TIP3    H127114   3.399   5.412   3.174
 9050TIP3    H227115   3.346   5.334   3.292
 9051TIP3   OH227116   7.166   4.646   2.603
 9051TIP3    H127117   7.250   4.692   2.606
 9051TIP3    H227118   7.154   4.614   2.692
 9052TIP3   OH227119   1.159   4.324   4.570
 9052TIP3    H127120   1.231   4.379   4.601
 9052TIP3    H227121   1.082   4.380   4.577
 9053TIP3   OH227122   5.540   6.031   3.410
 9053TIP3    H127123   5.476   6.052   3.478
 9053TIP3    H227124   5.498   5.962   3.359
 9054TIP3   OH227125   0.047   1.747   4.470
 9054TIP3    H127126  -0.035   1.785   4.502
 9054TIP3    H227127   0.034   1.653   4.477
 9055TIP3   OH227128   4.698   4.542   5.454
 9055TIP3    H127129   4.775   4.571   5.405
 9055TIP3    H227130   4.690   4.605   5.526
 9056TIP3   OH227131   0.907   5.890   5.726
 9056TIP3    H127132   0.927   5.861   5.815
 9056TIP3    H227133   0.876   5.980   5.736
 9057TIP3   OH227134   2.256   5.399   1.109
 9057TIP3    H127135   2.277   5.351   1.029
 9057TIP3    H227136   2.253   5.491   1.082
 9058TIP3   OH227137   2.239   0.076   2.091
 9058TIP3    H127138   2.205   0.158   2.056
 9058TIP3    H227139   2.174   0.010   2.065
 9059TIP3   OH227140   5.049   1.843   2.600
 9059TIP3    H127141   5.128   1.897   2.601
 9059TIP3    H227142   5.036   1.822   2.508
 9060TIP3   OH227143   4.386   5.444   2.729
 9060TIP3    H127144   4.295   5.443   2.700
 9060TIP3    H227145   4.421   5.359   2.701
 9061TIP3   OH227146   3.971   4.083   5.258
 9061TIP3    H127147   3.989   4.092   5.164
 9061TIP3    H227148   4.054   4.107   5.300
 9062TIP3   OH227149   4.581   0.943   4.275
 9062TIP3    H127150   4.504   0.979   4.319
 9062TIP3    H227151   4.544   0.892   4.202
 9063TIP3   OH227152   5.827   1.132   3.975
 9063TIP3    H127153   5.829   1.038   3.959
 9063TIP3    H227154   5.799   1.170   3.892
 9064TIP3   OH227155   4.589   0.835   4.680
 9064TIP3    H127156   4.500   0.821   4.710
 9064TIP3    H227157   4.639   0.762   4.716
 9065TIP3   OH227158   4.211   2.570   0.940
 9065TIP3    H127159   4.215   2.495   1.000
 9065TIP3    H227160   4.118   2.578   0.918
 9066TIP3   OH227161   6.199   6.153   0.842
 9066TIP3    H127162   6.252   6.073   0.845
 9066TIP3    H227163   6.111   6.122   0.823
 9067TIP3   OH227164   0.199   5.461   5.014
 9067TIP3    H127165   0.164   5.527   5.074
 9067TIP3    H227166   0.251   5.512   4.951
 9068TIP3   OH227167   0.421   6.580   1.509
 9068TIP3    H127168   0.335   6.544   1.484
 9068TIP3    H227169   0.469   6.504   1.544
 9069TIP3   OH227170   1.158   1.307   2.317
 9069TIP3    H127171   1.142   1.396   2.347
 9069TIP3    H227172   1.129   1.306   2.226
 9070TIP3   OH227173   6.378   3.780   2.849
 9070TIP3    H127174   6.296   3.818   2.819
 9070TIP3    H227175   6.378   3.793   2.944
 9071TIP3   OH227176   2.087   3.084   0.897
 9071TIP3    H127177   2.075   3.171   0.860
 9071TIP3    H227178   2.072   3.025   0.823
 9072TIP3   OH227179   3.941   2.159   2.340
 9072TIP3    H127180   3.930   2.102   2.416
 9072TIP3    H227181   3.853   2.163   2.301
 9073TIP3   OH227182   4.265   2.593   3.463
 9073TIP3    H127183   4.170   2.606   3.472
 9073TIP3    H227184   4.282   2.612   3.371
 9074TIP3   OH227185   7.071   5.161   3.681
 9074TIP3    H127186   7.154   5.165   3.633
 9074TIP3    H227187   7.014   5.107   3.625
 9075TIP3   OH227188   6.742   0.133   4.187
 9075TIP3    H127189   6.655   0.150   4.151
 9075TIP3    H227190   6.755   0.039   4.177
 9076TIP3   OH227191   3.238   0.934   0.524
 9076TIP3    H127192   3.214   1.026   0.535
 9076TIP3    H227193   3.159   0.886   0.551
 9077TIP3   OH227194   5.182   6.400   1.047
 9077TIP3    H127195   5.177   6.336   1.118
 9077TIP3    H227196   5.150   6.353   0.970
 9078TIP3   OH227197   5.208   1.488   5.315
 9078TIP3    H127198   5.221   1.400   5.280
 9078TIP3    H227199   5.267   1.493   5.391
 9079TIP3   OH227200   5.900   6.392   4.419
 9079TIP3    H127201   5.946   6.314   4.388
 9079TIP3    H227202   5.821   6.358   4.460
 9080TIP3   OH227203   5.490   2.425   0.523
 9080TIP3    H127204   5.452   2.363   0.585
 9080TIP3    H227205   5.475   2.511   0.563
 9081TIP3   OH227206   6.311   4.455   3.091
 9081TIP3    H127207   6.311   4.369   3.133
 9081TIP3    H227208   6.325   4.436   2.998
 9082TIP3   OH227209   6.476   2.876   3.549
 9082TIP3    H127210   6.554   2.836   3.512
 9082TIP3    H227211   6.422   2.803   3.577
 9083TIP3   OH227212   2.647   2.814   3.601
 9083TIP3    H127213   2.565   2.862   3.591
 9083TIP3    H227214   2.624   2.740   3.658
 9084TIP3   OH227215   5.519   1.637   1.134
 9084TIP3    H127216   5.509   1.602   1.045
 9084TIP3    H227217   5.431   1.637   1.170
 9085TIP3   OH227218   4.747   0.628   3.118
 9085TIP3    H127219   4.805   0.639   3.193
 9085TIP3    H227220   4.764   0.540   3.085
 9086TIP3   OH227221   5.928   3.213   1.981
 9086TIP3    H127222   6.001   3.272   2.002
 9086TIP3    H227223   5.938   3.195   1.888
 9087TIP3   OH227224   0.683   2.109   0.520
 9087TIP3    H127225   0.772   2.130   0.545
 9087TIP3    H227226   0.641   2.080   0.602
 9088TIP3   OH227227   6.146   2.687   1.399
 9088TIP3    H127228   6.151   2.781   1.382
 9088TIP3    H227229   6.085   2.679   1.472
 9089TIP3   OH227230   0.398   0.482   2.790
 9089TIP3    H127231   0.382   0.539   2.865
 9089TIP3    H227232   0.491   0.461   2.794
 9090TIP3   OH227233   4.576   2.867   4.927
 9090TIP3    H127234   4.559   2.778   4.959
 9090TIP3    H227235   4.666   2.885   4.952
 9091TIP3   OH227236   5.071   5.444   5.584
 9091TIP3    H127237   5.001   5.496   5.545
 9091TIP3    H227238   5.152   5.490   5.559
 9092TIP3   OH227239   2.603   6.371   1.674
 9092TIP3    H127240   2.619   6.415   1.591
 9092TIP3    H227241   2.535   6.306   1.654
 9093TIP3   OH227242   5.058   5.341   0.467
 9093TIP3    H127243   4.989   5.407   0.455
 9093TIP3    H227244   5.079   5.311   0.379
 9094TIP3   OH227245   0.809   0.768   5.436
 9094TIP3    H127246   0.847   0.849   5.403
 9094TIP3    H227247   0.855   0.750   5.518
 9095TIP3   OH227248   4.491   1.983   5.764
 9095TIP3    H127249   4.522   1.916   5.703
 9095TIP3    H227250   4.548   2.058   5.749
 9096TIP3   OH227251   1.778   6.724   5.609
 9096TIP3    H127252   1.788   6.754   5.700
 9096TIP3    H227253   1.714   6.653   5.613
 9097TIP3   OH227254   3.898   2.605   0.409
 9097TIP3    H127255   3.974   2.559   0.372
 9097TIP3    H227256   3.845   2.536   0.449
 9098TIP3   OH227257   2.774   2.503   5.342
 9098TIP3    H127258   2.779   2.576   5.280
 9098TIP3    H227259   2.699   2.524   5.397
 9099TIP3   OH227260   7.048   5.262   2.497
 9099TIP3    H127261   7.067   5.275   2.404
 9099TIP3    H227262   7.081   5.174   2.516
 9100TIP3   OH227263   0.362   2.477   4.544
 9100TIP3    H127264   0.348   2.554   4.488
 9100TIP3    H227265   0.327   2.503   4.629
 9101TIP3   OH227266   1.826   2.448   2.949
 9101TIP3    H127267   1.773   2.451   2.870
 9101TIP3    H227268   1.900   2.391   2.926
 9102TIP3   OH227269   6.670   1.412   4.715
 9102TIP3    H127270   6.720   1.434   4.636
 9102TIP3    H227271   6.697   1.323   4.736
 9103TIP3   OH227272   5.448   6.460   1.050
 9103TIP3    H127273   5.500   6.400   1.105
 9103TIP3    H227274   5.357   6.438   1.070
 9104TIP3   OH227275   4.330   3.964   1.248
 9104TIP3    H127276   4.391   3.941   1.178
 9104TIP3    H227277   4.275   4.033   1.209
 9105TIP3   OH227278   1.924   2.171   0.041
 9105TIP3    H127279   1.900   2.152  -0.049
 9105TIP3    H227280   1.858   2.125   0.093
 9106TIP3   OH227281   6.377   1.731   3.305
 9106TIP3    H127282   6.293   1.692   3.330
 9106TIP3    H227283   6.416   1.758   3.388
 9107TIP3   OH227284   4.205   3.807   4.546
 9107TIP3    H127285   4.253   3.890   4.551
 9107TIP3    H227286   4.113   3.833   4.532
 9108TIP3   OH227287   5.314   6.453   3.339
 9108TIP3    H127288   5.321   6.545   3.311
 9108TIP3    H227289   5.255   6.413   3.275
 9109TIP3   OH227290   4.145   4.084   3.105
 9109TIP3    H127291   4.145   3.996   3.142
 9109TIP3    H227292   4.235   4.097   3.073
 9110TIP3   OH227293   7.105   6.504   5.142
 9110TIP3    H127294   7.047   6.485   5.215
 9110TIP3    H227295   7.193   6.499   5.179
 9111TIP3   OH227296   5.552   0.725   0.794
 9111TIP3    H127297   5.547   0.764   0.707
 9111TIP3    H227298   5.510   0.639   0.784
 9112TIP3   OH227299   2.384   1.800   0.189
 9112TIP3    H127300   2.358   1.725   0.243
 9112TIP3    H227301   2.378   1.875   0.247
 9113TIP3   OH227302   6.521   0.373   5.910
 9113TIP3    H127303   6.595   0.312   5.919
 9113TIP3    H227304   6.544   0.427   5.835
 9114TIP3   OH227305   2.651   3.792   4.738
 9114TIP3    H127306   2.740   3.758   4.726
 9114TIP3    H227307   2.595   3.715   4.733
 9115TIP3   OH227308   3.408   2.614   5.091
 9115TIP3    H127309   3.400   2.521   5.115
 9115TIP3    H227310   3.441   2.656   5.170
 9116TIP3   OH227311   2.110   5.855   3.233
 9116TIP3    H127312   2.082   5.842   3.323
 9116TIP3    H227313   2.178   5.922   3.237
 9117TIP3   OH227314   3.786   4.710   2.449
 9117TIP3    H127315   3.771   4.712   2.354
 9117TIP3    H227316   3.698   4.719   2.487
 9118TIP3   OH227317   5.375   0.777   4.726
 9118TIP3    H127318   5.336   0.692   4.705
 9118TIP3    H227319   5.310   0.840   4.694
 9119TIP3   OH227320   2.088   2.265   2.909
 9119TIP3    H127321   2.179   2.272   2.938
 9119TIP3    H227322   2.092   2.211   2.831
 9120TIP3   OH227323   7.215   0.449   1.084
 9120TIP3    H127324   7.218   0.456   1.179
 9120TIP3    H227325   7.181   0.361   1.067
 9121TIP3   OH227326   2.533   1.789   1.230
 9121TIP3    H127327   2.584   1.797   1.311
 9121TIP3    H227328   2.510   1.880   1.208
 9122TIP3   OH227329   2.142   2.053   0.178
 9122TIP3    H127330   2.054   2.090   0.169
 9122TIP3    H227331   2.150   2.032   0.271
 9123TIP3   OH227332   4.775   2.687   2.200
 9123TIP3    H127333   4.802   2.764   2.150
 9123TIP3    H227334   4.724   2.722   2.273
 9124TIP3   OH227335   2.618   3.794   5.030
 9124TIP3    H127336   2.646   3.876   5.072
 9124TIP3    H227337   2.655   3.799   4.942
 9125TIP3   OH227338   5.785   6.108   3.067
 9125TIP3    H127339   5.828   6.023   3.077
 9125TIP3    H227340   5.693   6.090   3.088
 9126TIP3   OH227341   3.311   4.349   1.845
 9126TIP3    H127342   3.237   4.305   1.886
 9126TIP3    H227343   3.320   4.431   1.893
 9127TIP3   OH227344   7.144   0.808   1.173
 9127TIP3    H127345   7.089   0.775   1.103
 9127TIP3    H227346   7.095   0.791   1.253
 9128TIP3   OH227347   1.745   2.960   1.532
 9128TIP3    H127348   1.805   3.025   1.569
 9128TIP3    H227349   1.783   2.938   1.447
 9129TIP3   OH227350   0.787   3.389   1.099
 9129TIP3    H127351   0.840   3.461   1.065
 9129TIP3    H227352   0.808   3.385   1.192
 9130TIP3   OH227353   0.715   5.217   5.438
 9130TIP3    H127354   0.717   5.147   5.373
 9130TIP3    H227355   0.798   5.263   5.427
 9131TIP3   OH227356   5.223   5.227   0.276
 9131TIP3    H127357   5.270   5.158   0.229
 9131TIP3    H227358   5.235   5.304   0.221
 9132TIP3   OH227359   1.927   0.377   1.956
 9132TIP3    H127360   1.878   0.301   1.924
 9132TIP3    H227361   2.018   0.360   1.929
 9133TIP3   OH227362   7.012   1.493   4.731
 9133TIP3    H127363   6.970   1.552   4.793
 9133TIP3    H227364   7.105   1.518   4.733
 9134TIP3   OH227365   4.691   6.194   0.085
 9134TIP3    H127366   4.711   6.115   0.135
 9134TIP3    H227367   4.698   6.265   0.149
 9135TIP3   OH227368   0.784   6.549   4.123
 9135TIP3    H127369   0.703   6.539   4.171
 9135TIP3    H227370   0.830   6.621   4.167
 9136TIP3   OH227371   5.399   2.733   3.913
 9136TIP3    H127372   5.378   2.704   3.825
 9136TIP3    H227373   5.389   2.828   3.910
 9137TIP3   OH227374   5.524   4.912   5.473
 9137TIP3    H127375   5.598   4.956   5.516
 9137TIP3    H227376   5.565   4.849   5.414
 9138TIP3   OH227377   5.986   1.836   2.023
 9138TIP3    H127378   5.950   1.763   2.073
 9138TIP3    H227379   6.068   1.858   2.067
 9139TIP3   OH227380   3.661   4.999   0.128
 9139TIP3    H127381   3.742   4.948   0.125
 9139TIP3    H227382   3.690   5.090   0.133
 9140TIP3   OH227383   4.443   3.054   1.204
 9140TIP3    H127384   4.354   3.021   1.215
 9140TIP3    H227385   4.453   3.065   1.110
 9141TIP3   OH227386   4.261   2.806   3.219
 9141TIP3    H127387   4.194   2.844   3.162
 9141TIP3    H227388   4.341   2.856   3.199
 9142TIP3   OH227389   2.716   1.918   2.604
 9142TIP3    H127390   2.654   1.991   2.595
 9142TIP3    H227391   2.802   1.961   2.604
 9143TIP3   OH227392   6.578   3.786   5.019
 9143TIP3    H127393   6.652   3.736   5.054
 9143TIP3    H227394   6.593   3.788   4.925
 9144TIP3   OH227395   4.629   3.448   3.357
 9144TIP3    H127396   4.560   3.510   3.383
 9144TIP3    H227397   4.704   3.503   3.335
 9145TIP3   OH227398   7.095   6.284   0.880
 9145TIP3    H127399   7.059   6.225   0.946
 9145TIP3    H227400   7.105   6.368   0.925
 9146TIP3   OH227401   2.897   4.507   2.598
 9146TIP3    H127402   2.883   4.440   2.664
 9146TIP3    H227403   2.968   4.473   2.544
 9147TIP3   OH227404   1.975   5.505   5.691
 9147TIP3    H127405   1.936   5.456   5.618
 9147TIP3    H227406   2.068   5.484   5.687
 9148TIP3   OH227407   1.303   5.666   2.509
 9148TIP3    H127408   1.259   5.736   2.461
 9148TIP3    H227409   1.239   5.595   2.512
 9149TIP3   OH227410   0.922   5.162   0.925
 9149TIP3    H127411   0.827   5.175   0.931
 9149TIP3    H227412   0.940   5.157   0.831
 9150TIP3   OH227413   4.199   5.040   5.332
 9150TIP3    H127414   4.229   5.123   5.370
 9150TIP3    H227415   4.159   4.993   5.406
 9151TIP3   OH227416   0.469   6.662   4.613
 9151TIP3    H127417   0.491   6.596   4.547
 9151TIP3    H227418   0.378   6.644   4.637
 9152TIP3   OH227419   3.191   5.945   1.146
 9152TIP3    H127420   3.147   5.939   1.231
 9152TIP3    H227421   3.283   5.931   1.165
 9153TIP3   OH227422   0.086   2.839   4.217
 9153TIP3    H127423   0.104   2.813   4.308
 9153TIP3    H227424   0.109   2.932   4.214
 9154TIP3   OH227425   0.179   5.786   3.317
 9154TIP3    H127426   0.147   5.763   3.404
 9154TIP3    H227427   0.146   5.875   3.302
 9155TIP3   OH227428   6.015   2.690   4.094
 9155TIP3    H127429   5.995   2.596   4.095
 9155TIP3    H227430   6.014   2.716   4.186
 9156TIP3   OH227431   0.498   3.364   1.100
 9156TIP3    H127432   0.496   3.372   1.196
 9156TIP3    H227433   0.590   3.353   1.079
 9157TIP3   OH227434   0.141   5.946   5.011
 9157TIP3    H127435   0.166   6.029   5.051
 9157TIP3    H227436   0.067   5.915   5.063
 9158TIP3   OH227437   1.605   5.014   2.179
 9158TIP3    H127438   1.521   4.998   2.224
 9158TIP3    H227439   1.643   4.927   2.167
 9159TIP3   OH227440   2.764   5.568   5.373
 9159TIP3    H127441   2.843   5.541   5.420
 9159TIP3    H227442   2.697   5.504   5.398
 9160TIP3   OH227443   5.856   1.318   5.513
 9160TIP3    H127444   5.794   1.282   5.576
 9160TIP3    H227445   5.940   1.278   5.535
 9161TIP3   OH227446   5.018   5.224   1.625
 9161TIP3    H127447   5.034   5.137   1.664
 9161TIP3    H227448   5.106   5.256   1.603
 9162TIP3   OH227449   6.669   3.128   4.027
 9162TIP3    H127450   6.648   3.212   4.069
 9162TIP3    H227451   6.728   3.151   3.955
 9163TIP3   OH227452   4.070   0.284   3.525
 9163TIP3    H127453   4.094   0.254   3.437
 9163TIP3    H227454   4.068   0.380   3.518
 9164TIP3   OH227455   1.653   3.097   3.254
 9164TIP3    H127456   1.610   3.013   3.239
 9164TIP3    H227457   1.588   3.149   3.302
 9165TIP3   OH227458   4.949   1.326   1.416
 9165TIP3    H127459   4.907   1.412   1.408
 9165TIP3    H227460   4.885   1.272   1.462
 9166TIP3   OH227461   4.419   0.982   5.820
 9166TIP3    H127462   4.469   0.938   5.889
 9166TIP3    H227463   4.452   0.943   5.739
 9167TIP3   OH227464   6.066   5.226   0.162
 9167TIP3    H127465   6.080   5.203   0.253
 9167TIP3    H227466   6.151   5.259   0.132
 9168TIP3   OH227467   3.923   4.907   5.436
 9168TIP3    H127468   4.004   4.856   5.445
 9168TIP3    H227469   3.858   4.858   5.487
 9169TIP3   OH227470   2.753   5.016   5.361
 9169TIP3    H127471   2.699   4.991   5.286
 9169TIP3    H227472   2.811   5.084   5.327
 9170TIP3   OH227473   0.860   2.776   5.238
 9170TIP3    H127474   0.862   2.865   5.202
 9170TIP3    H227475   0.807   2.726   5.177
 9171TIP3   OH227476   2.137   0.711   5.451
 9171TIP3    H127477   2.201   0.756   5.506
 9171TIP3    H227478   2.160   0.618   5.459
 9172TIP3   OH227479   1.236   4.783   1.934
 9172TIP3    H127480   1.325   4.760   1.962
 9172TIP3    H227481   1.207   4.850   1.995
 9173TIP3   OH227482   6.533   0.707   4.078
 9173TIP3    H127483   6.484   0.766   4.136
 9173TIP3    H227484   6.500   0.726   3.991
 9174TIP3   OH227485   0.855   6.352   4.812
 9174TIP3    H127486   0.834   6.326   4.902
 9174TIP3    H227487   0.913   6.427   4.822
 9175TIP3   OH227488   6.540   2.249   3.321
 9175TIP3    H127489   6.491   2.271   3.401
 9175TIP3    H227490   6.493   2.175   3.284
 9176TIP3   OH227491   5.327   2.019   1.759
 9176TIP3    H127492   5.300   2.111   1.762
 9176TIP3    H227493   5.256   1.973   1.804
 9177TIP3   OH227494   1.469   0.330   3.796
 9177TIP3    H127495   1.381   0.293   3.787
 9177TIP3    H227496   1.511   0.312   3.712
 9178TIP3   OH227497   5.924   5.822   1.732
 9178TIP3    H127498   6.014   5.823   1.699
 9178TIP3    H227499   5.871   5.798   1.657
 9179TIP3   OH227500   1.140   3.371   0.268
 9179TIP3    H127501   1.105   3.282   0.280
 9179TIP3    H227502   1.111   3.419   0.346
 9180TIP3   OH227503   3.873   4.193   5.712
 9180TIP3    H127504   3.941   4.131   5.739
 9180TIP3    H227505   3.815   4.142   5.656
 9181TIP3   OH227506   2.658   1.072   2.559
 9181TIP3    H127507   2.750   1.100   2.560
 9181TIP3    H227508   2.622   1.112   2.480
 9182TIP3   OH227509   4.041   0.177   3.053
 9182TIP3    H127510   4.017   0.101   3.106
 9182TIP3    H227511   4.078   0.139   2.973
 9183TIP3   OH227512   0.648   2.693   4.354
 9183TIP3    H127513   0.630   2.757   4.423
 9183TIP3    H227514   0.671   2.613   4.401
 9184TIP3   OH227515   2.584   4.901   1.604
 9184TIP3    H127516   2.656   4.959   1.629
 9184TIP3    H227517   2.626   4.816   1.588
 9185TIP3   OH227518   5.506   4.227   2.670
 9185TIP3    H127519   5.516   4.149   2.725
 9185TIP3    H227520   5.596   4.252   2.649
 9186TIP3   OH227521   3.971   5.352   5.689
 9186TIP3    H127522   3.902   5.380   5.629
 9186TIP3    H227523   3.928   5.289   5.747
 9187TIP3   OH227524   5.220   2.770   1.602
 9187TIP3    H127525   5.292   2.718   1.637
 9187TIP3    H227526   5.227   2.854   1.647
 9188TIP3   OH227527   1.420   1.048   3.542
 9188TIP3    H127528   1.515   1.055   3.539
 9188TIP3    H227529   1.388   1.138   3.537
 9189TIP3   OH227530   6.646   2.290   1.677
 9189TIP3    H127531   6.702   2.347   1.730
 9189TIP3    H227532   6.658   2.321   1.588
 9190TIP3   OH227533   1.156   2.668   3.928
 9190TIP3    H127534   1.141   2.626   3.843
 9190TIP3    H227535   1.203   2.603   3.979
 9191TIP3   OH227536   5.017   1.484   3.054
 9191TIP3    H127537   4.926   1.512   3.053
 9191TIP3    H227538   5.067   1.565   3.068
 9192TIP3   OH227539   4.629   0.038   5.439
 9192TIP3    H127540   4.671   0.120   5.464
 9192TIP3    H227541   4.563   0.022   5.506
 9193TIP3   OH227542   4.934   3.122   5.131
 9193TIP3    H127543   4.926   3.124   5.036
 9193TIP3    H227544   4.931   3.214   5.157
 9194TIP3   OH227545   6.184   5.419   0.790
 9194TIP3    H127546   6.210   5.364   0.716
 9194TIP3    H227547   6.089   5.430   0.778
 9195TIP3   OH227548   0.979   3.140   1.187
 9195TIP3    H127549   0.986   3.205   1.257
 9195TIP3    H227550   0.997   3.057   1.229
 9196TIP3   OH227551   6.490   0.683   2.600
 9196TIP3    H127552   6.432   0.759   2.602
 9196TIP3    H227553   6.462   0.629   2.674
 9197TIP3   OH227554   5.263   6.411   1.358
 9197TIP3    H127555   5.291   6.439   1.445
 9197TIP3    H227556   5.275   6.488   1.303
 9198TIP3   OH227557   6.515   5.773   2.573
 9198TIP3    H127558   6.553   5.685   2.567
 9198TIP3    H227559   6.498   5.786   2.666
 9199TIP3   OH227560   0.697   3.214   2.711
 9199TIP3    H127561   0.607   3.242   2.692
 9199TIP3    H227562   0.693   3.179   2.800
 9200TIP3   OH227563   4.292   0.621   5.755
 9200TIP3    H127564   4.200   0.607   5.735
 9200TIP3    H227565   4.310   0.565   5.830
 9201TIP3   OH227566   1.933   0.598   3.102
 9201TIP3    H127567   1.867   0.548   3.149
 9201TIP3    H227568   1.892   0.621   3.019
 9202TIP3   OH227569   0.783   0.484   0.230
 9202TIP3    H127570   0.729   0.547   0.278
 9202TIP3    H227571   0.865   0.531   0.214
 9203TIP3   OH227572   6.189   0.351   5.617
 9203TIP3    H127573   6.116   0.322   5.562
 9203TIP3    H227574   6.207   0.440   5.587
 9204TIP3   OH227575   5.744   4.913   3.352
 9204TIP3    H127576   5.724   4.891   3.261
 9204TIP3    H227577   5.779   4.832   3.389
 9205TIP3   OH227578   0.645   5.856   2.351
 9205TIP3    H127579   0.661   5.827   2.261
 9205TIP3    H227580   0.722   5.827   2.400
 9206TIP3   OH227581   6.419   3.474   0.630
 9206TIP3    H127582   6.338   3.430   0.606
 9206TIP3    H227583   6.395   3.567   0.638
 9207TIP3   OH227584   1.059   0.837   4.301
 9207TIP3    H127585   1.143   0.877   4.327
 9207TIP3    H227586   1.015   0.906   4.251
 9208TIP3   OH227587   3.589   3.578   1.402
 9208TIP3    H127588   3.666   3.549   1.450
 9208TIP3    H227589   3.614   3.571   1.310
 9209TIP3   OH227590   2.924   2.727   4.620
 9209TIP3    H127591   2.946   2.702   4.531
 9209TIP3    H227592   2.832   2.701   4.631
 9210TIP3   OH227593   4.637   5.424   4.476
 9210TIP3    H127594   4.709   5.483   4.454
 9210TIP3    H227595   4.654   5.346   4.424
 9211TIP3   OH227596   5.556   5.241   5.014
 9211TIP3    H127597   5.574   5.148   5.023
 9211TIP3    H227598   5.501   5.248   4.936
 9212TIP3   OH227599   6.061   5.037   5.263
 9212TIP3    H127600   6.131   4.976   5.243
 9212TIP3    H227601   5.991   4.982   5.299
 9213TIP3   OH227602   0.148   0.197   1.770
 9213TIP3    H127603   0.161   0.212   1.677
 9213TIP3    H227604   0.222   0.143   1.797
 9214TIP3   OH227605   0.553   2.861   3.016
 9214TIP3    H127606   0.617   2.917   2.972
 9214TIP3    H227607   0.468   2.902   2.998
 9215TIP3   OH227608   6.342   3.407   2.639
 9215TIP3    H127609   6.256   3.417   2.598
 9215TIP3    H227610   6.352   3.313   2.653
 9216TIP3   OH227611   4.436   5.162   4.812
 9216TIP3    H127612   4.422   5.222   4.885
 9216TIP3    H227613   4.508   5.202   4.762
 9217TIP3   OH227614   3.155   4.376   4.367
 9217TIP3    H127615   3.155   4.296   4.420
 9217TIP3    H227616   3.087   4.430   4.405
 9218TIP3   OH227617   6.383   5.118   4.264
 9218TIP3    H127618   6.293   5.086   4.258
 9218TIP3    H227619   6.409   5.100   4.354
 9219TIP3   OH227620   1.814   2.278   5.728
 9219TIP3    H127621   1.831   2.330   5.807
 9219TIP3    H227622   1.898   2.276   5.682
 9220TIP3   OH227623   6.663   5.269   3.113
 9220TIP3    H127624   6.696   5.254   3.024
 9220TIP3    H227625   6.668   5.184   3.155
 9221TIP3   OH227626   2.115   6.770   0.963
 9221TIP3    H127627   2.064   6.702   1.007
 9221TIP3    H227628   2.055   6.845   0.958
 9222TIP3   OH227629   5.339   0.248   5.316
 9222TIP3    H127630   5.412   0.202   5.275
 9222TIP3    H227631   5.301   0.184   5.376
 9223TIP3   OH227632   6.596   0.689   1.934
 9223TIP3    H127633   6.510   0.658   1.963
 9223TIP3    H227634   6.620   0.757   1.997
 9224TIP3   OH227635   5.351   4.888   1.157
 9224TIP3    H127636   5.356   4.794   1.168
 9224TIP3    H227637   5.337   4.922   1.245
 9225TIP3   OH227638   4.540   4.928   4.936
 9225TIP3    H127639   4.508   4.912   5.025
 9225TIP3    H227640   4.498   5.009   4.910
 9226TIP3   OH227641   6.180   1.297   3.301
 9226TIP3    H127642   6.116   1.352   3.347
 9226TIP3    H227643   6.128   1.251   3.235
 9227TIP3   OH227644   0.617   3.683   3.291
 9227TIP3    H127645   0.588   3.758   3.343
 9227TIP3    H227646   0.609   3.609   3.351
 9228TIP3   OH227647   3.148   5.358   1.013
 9228TIP3    H127648   3.166   5.274   1.055
 9228TIP3    H227649   3.147   5.420   1.086
 9229TIP3   OH227650   4.520   5.734   4.018
 9229TIP3    H127651   4.584   5.803   4.003
 9229TIP3    H227652   4.548   5.692   4.099
 9230TIP3   OH227653   1.090   1.211   3.207
 9230TIP3    H127654   1.110   1.147   3.276
 9230TIP3    H227655   1.157   1.279   3.217
 9231TIP3   OH227656   4.340   2.028   0.586
 9231TIP3    H127657   4.413   1.973   0.613
 9231TIP3    H227658   4.340   2.023   0.491
 9232TIP3   OH227659   3.165   6.335   3.285
 9232TIP3    H127660   3.143   6.411   3.338
 9232TIP3    H227661   3.249   6.358   3.244
 9233TIP3   OH227662   2.041   1.733   2.637
 9233TIP3    H127663   1.982   1.683   2.580
 9233TIP3    H227664   1.982   1.777   2.699
 9234TIP3   OH227665   3.208   4.083   5.306
 9234TIP3    H127666   3.255   4.100   5.388
 9234TIP3    H227667   3.116   4.099   5.328
 9235TIP3   OH227668   5.985   1.172   2.789
 9235TIP3    H127669   6.079   1.189   2.797
 9235TIP3    H227670   5.952   1.249   2.742
 9236TIP3   OH227671   2.826   3.349   1.157
 9236TIP3    H127672   2.827   3.258   1.187
 9236TIP3    H227673   2.734   3.368   1.141
 9237TIP3   OH227674   0.773   2.160   2.966
 9237TIP3    H127675   0.839   2.102   3.004
 9237TIP3    H227676   0.744   2.115   2.887
 9238TIP3   OH227677   2.060   5.800   0.128
 9238TIP3    H127678   2.149   5.809   0.095
 9238TIP3    H227679   2.009   5.865   0.080
 9239TIP3   OH227680   2.426   3.159   1.150
 9239TIP3    H127681   2.511   3.202   1.166
 9239TIP3    H227682   2.428   3.137   1.057
 9240TIP3   OH227683   2.466   0.950   2.970
 9240TIP3    H127684   2.411   0.971   3.045
 9240TIP3    H227685   2.405   0.922   2.902
 9241TIP3   OH227686   2.053   2.473   2.138
 9241TIP3    H127687   2.014   2.539   2.195
 9241TIP3    H227688   2.037   2.390   2.183
 9242TIP3   OH227689   2.199   5.556   2.724
 9242TIP3    H127690   2.217   5.463   2.715
 9242TIP3    H227691   2.205   5.573   2.818
 9243TIP3   OH227692   6.397   0.109   4.820
 9243TIP3    H127693   6.473   0.066   4.780
 9243TIP3    H227694   6.402   0.199   4.791
 9244TIP3   OH227695   0.210   0.378   0.255
 9244TIP3    H127696   0.151   0.358   0.183
 9244TIP3    H227697   0.188   0.314   0.323
 9245TIP3   OH227698   0.475   1.219   3.587
 9245TIP3    H127699   0.415   1.292   3.600
 9245TIP3    H227700   0.556   1.245   3.632
 9246TIP3   OH227701   6.681   5.562   1.916
 9246TIP3    H127702   6.646   5.497   1.855
 9246TIP3    H227703   6.775   5.543   1.918
 9247TIP3   OH227704   1.808   6.583   3.034
 9247TIP3    H127705   1.885   6.561   2.981
 9247TIP3    H227706   1.829   6.667   3.073
 9248TIP3   OH227707   0.431   5.858   0.531
 9248TIP3    H127708   0.410   5.766   0.548
 9248TIP3    H227709   0.516   5.871   0.573
 9249TIP3   OH227710   3.192   5.094   2.596
 9249TIP3    H127711   3.181   5.017   2.653
 9249TIP3    H227712   3.222   5.058   2.513
 9250TIP3   OH227713   3.633   3.687   3.926
 9250TIP3    H127714   3.666   3.611   3.879
 9250TIP3    H227715   3.629   3.756   3.861
 9251TIP3   OH227716   6.814   5.114   2.532
 9251TIP3    H127717   6.838   5.114   2.625
 9251TIP3    H227718   6.882   5.167   2.491
 9252TIP3   OH227719   0.232   4.063   3.769
 9252TIP3    H127720   0.179   4.125   3.821
 9252TIP3    H227721   0.289   4.119   3.717
 9253TIP3   OH227722   6.808   5.046   1.709
 9253TIP3    H127723   6.804   4.992   1.630
 9253TIP3    H227724   6.895   5.029   1.745
 9254TIP3   OH227725   6.054   6.547   4.563
 9254TIP3    H127726   5.988   6.486   4.531
 9254TIP3    H227727   6.118   6.491   4.607
 9255TIP3   OH227728   6.216   0.313   4.238
 9255TIP3    H127729   6.175   0.306   4.151
 9255TIP3    H227730   6.210   0.406   4.260
 9256TIP3   OH227731   4.031   3.684   5.405
 9256TIP3    H127732   3.975   3.621   5.452
 9256TIP3    H227733   4.068   3.633   5.333
 9257TIP3   OH227734   3.168   5.084   5.467
 9257TIP3    H127735   3.231   5.097   5.538
 9257TIP3    H227736   3.207   5.018   5.411
 9258TIP3   OH227737   1.227   0.735   5.707
 9258TIP3    H127738   1.216   0.643   5.730
 9258TIP3    H227739   1.264   0.775   5.786
 9259TIP3   OH227740   4.769   1.541   1.398
 9259TIP3    H127741   4.770   1.617   1.455
 9259TIP3    H227742   4.815   1.570   1.319
 9260TIP3   OH227743   0.076   1.727   2.966
 9260TIP3    H127744   0.161   1.688   2.985
 9260TIP3    H227745   0.015   1.678   3.021
 9261TIP3   OH227746   7.133   4.037   4.342
 9261TIP3    H127747   7.166   3.973   4.278
 9261TIP3    H227748   7.044   4.055   4.313
 9262TIP3   OH227749   0.558   1.952   4.965
 9262TIP3    H127750   0.606   1.890   4.910
 9262TIP3    H227751   0.526   2.018   4.903
 9263TIP3   OH227752   5.657   2.160   1.452
 9263TIP3    H127753   5.678   2.172   1.359
 9263TIP3    H227754   5.624   2.070   1.457
 9264TIP3   OH227755   6.563   4.988   1.853
 9264TIP3    H127756   6.505   5.062   1.835
 9264TIP3    H227757   6.647   5.012   1.814
 9265TIP3   OH227758   2.910   5.002   0.978
 9265TIP3    H127759   2.874   4.913   0.982
 9265TIP3    H227760   2.930   5.023   1.069
 9266TIP3   OH227761   2.707  -0.022   3.393
 9266TIP3    H127762   2.679  -0.080   3.322
 9266TIP3    H227763   2.756   0.048   3.350
 9267TIP3   OH227764   1.770   0.771   2.613
 9267TIP3    H127765   1.749   0.850   2.664
 9267TIP3    H227766   1.687   0.745   2.574
 9268TIP3   OH227767   0.610   3.613   3.798
 9268TIP3    H127768   0.543   3.559   3.755
 9268TIP3    H227769   0.683   3.554   3.812
 9269TIP3   OH227770   5.975   0.542   4.347
 9269TIP3    H127771   5.957   0.545   4.441
 9269TIP3    H227772   5.898   0.582   4.307
 9270TIP3   OH227773   3.162   3.703   4.461
 9270TIP3    H127774   3.254   3.724   4.477
 9270TIP3    H227775   3.164   3.635   4.394
 9271TIP3   OH227776   0.434   5.455   4.572
 9271TIP3    H127777   0.450   5.453   4.477
 9271TIP3    H227778   0.420   5.547   4.592
 9272TIP3   OH227779   5.133   0.459   3.157
 9272TIP3    H127780   5.146   0.492   3.068
 9272TIP3    H227781   5.100   0.535   3.206
 9273TIP3   OH227782   3.903   6.394   4.690
 9273TIP3    H127783   3.961   6.419   4.618
 9273TIP3    H227784   3.952   6.328   4.738
 9274TIP3   OH227785   4.142   1.101   2.157
 9274TIP3    H127786   4.149   1.187   2.200
 9274TIP3    H227787   4.053   1.099   2.124
 9275TIP3   OH227788   6.303   5.835   2.404
 9275TIP3    H127789   6.219   5.791   2.414
 9275TIP3    H227790   6.368   5.769   2.429
 9276TIP3   OH227791   2.816   6.436   5.560
 9276TIP3    H127792   2.777   6.450   5.646
 9276TIP3    H227793   2.741   6.429   5.500
 9277TIP3   OH227794   3.256   2.068   3.330
 9277TIP3    H127795   3.280   2.012   3.404
 9277TIP3    H227796   3.200   2.136   3.369
 9278TIP3   OH227797   5.555   3.562   1.921
 9278TIP3    H127798   5.629   3.533   1.974
 9278TIP3    H227799   5.478   3.525   1.966
 9279TIP3   OH227800   5.296   6.167   5.218
 9279TIP3    H127801   5.335   6.106   5.156
 9279TIP3    H227802   5.259   6.236   5.163
 9280TIP3   OH227803   1.401   4.492   5.726
 9280TIP3    H127804   1.461   4.567   5.730
 9280TIP3    H227805   1.415   4.446   5.808
 9281TIP3   OH227806   5.108   3.429   3.784
 9281TIP3    H127807   5.141   3.499   3.728
 9281TIP3    H227808   5.013   3.434   3.774
 9282TIP3   OH227809   7.018   0.971   2.442
 9282TIP3    H127810   7.019   1.010   2.530
 9282TIP3    H227811   7.087   0.905   2.444
 9283TIP3   OH227812   5.714   6.243   0.495
 9283TIP3    H127813   5.697   6.335   0.513
 9283TIP3    H227814   5.802   6.228   0.530
 9284TIP3   OH227815   2.297   1.313   4.797
 9284TIP3    H127816   2.298   1.409   4.797
 9284TIP3    H227817   2.372   1.289   4.742
 9285TIP3   OH227818   2.146   4.807   0.060
 9285TIP3    H127819   2.061   4.849   0.071
 9285TIP3    H227820   2.202   4.875   0.024
 9286TIP3   OH227821   0.917   1.230   1.483
 9286TIP3    H127822   0.861   1.156   1.461
 9286TIP3    H227823   0.984   1.193   1.540
 9287TIP3   OH227824   2.007   3.089   2.430
 9287TIP3    H127825   1.916   3.080   2.459
 9287TIP3    H227826   2.001   3.115   2.338
 9288TIP3   OH227827   3.987   1.857   0.909
 9288TIP3    H127828   4.022   1.776   0.946
 9288TIP3    H227829   3.926   1.889   0.975
 9289TIP3   OH227830   5.861   0.790   2.530
 9289TIP3    H127831   5.841   0.837   2.611
 9289TIP3    H227832   5.903   0.855   2.474
 9290TIP3   OH227833   3.814   4.319   0.353
 9290TIP3    H127834   3.769   4.242   0.388
 9290TIP3    H227835   3.896   4.285   0.317
 9291TIP3   OH227836   1.324   4.549   3.037
 9291TIP3    H127837   1.265   4.559   3.112
 9291TIP3    H227838   1.352   4.457   3.040
 9292TIP3   OH227839   4.199   3.514   5.769
 9292TIP3    H127840   4.146   3.446   5.729
 9292TIP3    H227841   4.256   3.467   5.829
 9293TIP3   OH227842   5.897   1.859   4.853
 9293TIP3    H127843   5.882   1.770   4.884
 9293TIP3    H227844   5.912   1.911   4.932
 9294TIP3   OH227845   3.718   1.978   1.390
 9294TIP3    H127846   3.698   1.949   1.479
 9294TIP3    H227847   3.642   2.030   1.364
 9295TIP3   OH227848   0.411   6.139   5.273
 9295TIP3    H127849   0.400   6.134   5.368
 9295TIP3    H227850   0.323   6.155   5.239
 9296TIP3   OH227851   1.283   0.996   4.380
 9296TIP3    H127852   1.301   0.993   4.286
 9296TIP3    H227853   1.315   1.082   4.408
 9297TIP3   OH227854   1.871   5.982   1.079
 9297TIP3    H127855   1.839   6.017   0.996
 9297TIP3    H227856   1.802   5.924   1.110
 9298TIP3   OH227857   3.926   2.024   0.167
 9298TIP3    H127858   3.870   2.006   0.091
 9298TIP3    H227859   3.870   2.006   0.242
 9299TIP3   OH227860   0.618   5.596   1.680
 9299TIP3    H127861   0.581   5.509   1.665
 9299TIP3    H227862   0.550   5.642   1.730
 9300TIP3   OH227863   1.936   6.782   2.652
 9300TIP3    H127864   1.900   6.869   2.635
 9300TIP3    H227865   1.858   6.728   2.668
 9301TIP3   OH227866   3.865   4.713   1.489
 9301TIP3    H127867   3.873   4.729   1.583
 9301TIP3    H227868   3.879   4.619   1.479
 9302TIP3   OH227869   0.751   2.625   2.775
 9302TIP3    H127870   0.690   2.552   2.775
 9302TIP3    H227871   0.732   2.672   2.693
 9303TIP3   OH227872   4.054   1.889   3.110
 9303TIP3    H127873   3.969   1.933   3.107
 9303TIP3    H227874   4.056   1.846   3.195
 9304TIP3   OH227875   0.071   5.097   3.535
 9304TIP3    H127876   0.150   5.150   3.536
 9304TIP3    H227877   0.059   5.073   3.443
 9305TIP3   OH227878   5.410   2.665   1.787
 9305TIP3    H127879   5.422   2.676   1.881
 9305TIP3    H227880   5.467   2.591   1.764
 9306TIP3   OH227881   5.168   4.744   1.894
 9306TIP3    H127882   5.126   4.665   1.860
 9306TIP3    H227883   5.232   4.713   1.957
 9307TIP3   OH227884   6.779   1.938   2.317
 9307TIP3    H127885   6.710   1.884   2.278
 9307TIP3    H227886   6.768   1.925   2.411
 9308TIP3   OH227887   5.043   3.901   2.256
 9308TIP3    H127888   4.983   3.896   2.181
 9308TIP3    H227889   4.987   3.884   2.332
 9309TIP3   OH227890   5.908   6.229   5.861
 9309TIP3    H127891   5.849   6.239   5.786
 9309TIP3    H227892   5.872   6.289   5.927
 9310TIP3   OH227893   7.036   1.263   1.249
 9310TIP3    H127894   7.061   1.171   1.239
 9310TIP3    H227895   6.956   1.272   1.198
 9311TIP3   OH227896   0.764   4.984   2.812
 9311TIP3    H127897   0.703   5.006   2.742
 9311TIP3    H227898   0.716   5.003   2.893
 9312TIP3   OH227899   3.479   2.573   3.331
 9312TIP3    H127900   3.573   2.591   3.340
 9312TIP3    H227901   3.474   2.511   3.258
 9313TIP3   OH227902   3.340   6.383   1.603
 9313TIP3    H127903   3.391   6.424   1.534
 9313TIP3    H227904   3.278   6.451   1.631
 9314TIP3   OH227905   1.844   5.936   3.492
 9314TIP3    H127906   1.774   5.983   3.538
 9314TIP3    H227907   1.801   5.857   3.459
 9315TIP3   OH227908   5.951   1.966   4.111
 9315TIP3    H127909   5.938   1.896   4.046
 9315TIP3    H227910   5.956   2.046   4.059
 9316TIP3   OH227911   4.605   4.998   2.041
 9316TIP3    H127912   4.665   4.949   2.098
 9316TIP3    H227913   4.646   5.084   2.033
 9317TIP3   OH227914   1.950   5.364   1.612
 9317TIP3    H127915   1.893   5.314   1.670
 9317TIP3    H227916   1.985   5.300   1.551
 9318TIP3   OH227917   0.729   2.977   4.197
 9318TIP3    H127918   0.805   3.020   4.159
 9318TIP3    H227919   0.754   2.884   4.201
 9319TIP3   OH227920   2.589   3.422   2.836
 9319TIP3    H127921   2.615   3.348   2.780
 9319TIP3    H227922   2.515   3.387   2.887
 9320TIP3   OH227923   6.157   4.942   1.180
 9320TIP3    H127924   6.233   4.910   1.229
 9320TIP3    H227925   6.105   4.989   1.245
 9321TIP3   OH227926   0.100   2.974   5.696
 9321TIP3    H127927   0.018   3.014   5.724
 9321TIP3    H227928   0.168   3.034   5.726
 9322TIP3   OH227929   4.953   1.318   3.269
 9322TIP3    H127930   4.876   1.266   3.245
 9322TIP3    H227931   4.984   1.354   3.186
 9323TIP3   OH227932   0.491   3.739   3.053
 9323TIP3    H127933   0.554   3.707   3.118
 9323TIP3    H227934   0.426   3.669   3.046
 9324TIP3   OH227935   1.455   4.167   3.341
 9324TIP3    H127936   1.464   4.159   3.246
 9324TIP3    H227937   1.501   4.091   3.376
 9325TIP3   OH227938   0.500   0.376   1.378
 9325TIP3    H127939   0.563   0.311   1.345
 9325TIP3    H227940   0.415   0.342   1.351
 9326TIP3   OH227941   5.494   1.512   0.908
 9326TIP3    H127942   5.464   1.428   0.874
 9326TIP3    H227943   5.488   1.572   0.834
 9327TIP3   OH227944   1.511   4.908   3.314
 9327TIP3    H127945   1.471   4.982   3.360
 9327TIP3    H227946   1.457   4.833   3.338
 9328TIP3   OH227947   0.301   4.378   3.186
 9328TIP3    H127948   0.295   4.440   3.259
 9328TIP3    H227949   0.332   4.297   3.226
 9329TIP3   OH227950   4.520   1.149   3.605
 9329TIP3    H127951   4.521   1.184   3.694
 9329TIP3    H227952   4.600   1.097   3.598
 9330TIP3   OH227953   5.267   5.547   4.603
 9330TIP3    H127954   5.341   5.596   4.637
 9330TIP3    H227955   5.281   5.543   4.509
 9331TIP3   OH227956   6.018   6.400   1.379
 9331TIP3    H127957   6.094   6.346   1.401
 9331TIP3    H227958   5.945   6.357   1.423
 9332TIP3   OH227959   4.569   5.087   2.391
 9332TIP3    H127960   4.493   5.144   2.384
 9332TIP3    H227961   4.546   5.011   2.338
 9333TIP3   OH227962   1.795   5.306   1.867
 9333TIP3    H127963   1.809   5.338   1.956
 9333TIP3    H227964   1.708   5.338   1.843
 9334TIP3   OH227965   4.589   5.245   0.885
 9334TIP3    H127966   4.656   5.283   0.942
 9334TIP3    H227967   4.510   5.296   0.904
 9335TIP3   OH227968   0.223   3.573   1.415
 9335TIP3    H127969   0.235   3.657   1.371
 9335TIP3    H227970   0.294   3.569   1.480
 9336TIP3   OH227971   3.139   1.384   3.411
 9336TIP3    H127972   3.051   1.378   3.448
 9336TIP3    H227973   3.183   1.304   3.439
 9337TIP3   OH227974   2.445   3.104   1.926
 9337TIP3    H127975   2.436   3.197   1.903
 9337TIP3    H227976   2.359   3.067   1.907
 9338TIP3   OH227977   2.247   0.604   0.707
 9338TIP3    H127978   2.249   0.605   0.803
 9338TIP3    H227979   2.238   0.512   0.684
 9339TIP3   OH227980   5.116   2.684   5.313
 9339TIP3    H127981   5.031   2.688   5.356
 9339TIP3    H227982   5.127   2.770   5.273
 9340TIP3   OH227983   2.928   5.875   1.742
 9340TIP3    H127984   2.901   5.918   1.661
 9340TIP3    H227985   2.967   5.792   1.713
 9341TIP3   OH227986   3.622   2.792   1.817
 9341TIP3    H127987   3.708   2.754   1.797
 9341TIP3    H227988   3.566   2.764   1.744
 9342TIP3   OH227989   2.000   0.971   5.645
 9342TIP3    H127990   1.908   0.946   5.639
 9342TIP3    H227991   2.001   1.044   5.707
 9343TIP3   OH227992   2.996   2.131   1.921
 9343TIP3    H127993   2.937   2.072   1.967
 9343TIP3    H227994   3.044   2.075   1.860
 9344TIP3   OH227995   1.087   4.154   2.821
 9344TIP3    H127996   1.023   4.225   2.824
 9344TIP3    H227997   1.036   4.077   2.794
 9345TIP3   OH227998   1.336   6.406   4.512
 9345TIP3    H127999   1.268   6.365   4.564
 9345TIP3    H228000   1.306   6.496   4.499
 9346TIP3   OH228001   5.333   0.741   2.606
 9346TIP3    H128002   5.256   0.781   2.566
 9346TIP3    H228003   5.363   0.806   2.670
 9347TIP3   OH228004   2.333   4.529   0.008
 9347TIP3    H128005   2.368   4.559   0.092
 9347TIP3    H228006   2.410   4.524  -0.050
 9348TIP3   OH228007   7.055   2.454   5.582
 9348TIP3    H128008   7.146   2.465   5.556
 9348TIP3    H228009   7.053   2.475   5.675
 9349TIP3   OH228010   6.198   2.286   2.544
 9349TIP3    H128011   6.195   2.359   2.483
 9349TIP3    H228012   6.198   2.327   2.630
 9350TIP3   OH228013   6.640   6.316   1.848
 9350TIP3    H128014   6.599   6.255   1.909
 9350TIP3    H228015   6.709   6.266   1.805
 9351TIP3   OH228016   2.191   6.360   4.023
 9351TIP3    H128017   2.263   6.374   3.962
 9351TIP3    H228018   2.218   6.283   4.074
 9352TIP3   OH228019   6.609   5.102   0.893
 9352TIP3    H128020   6.558   5.087   0.973
 9352TIP3    H228021   6.544   5.126   0.827
 9353TIP3   OH228022   2.011   1.647   1.466
 9353TIP3    H128023   2.105   1.651   1.483
 9353TIP3    H228024   2.004   1.653   1.371
 9354TIP3   OH228025   4.866   0.984   5.610
 9354TIP3    H128026   4.880   0.889   5.612
 9354TIP3    H228027   4.849   1.003   5.518
 9355TIP3   OH228028   7.173   3.169   3.126
 9355TIP3    H128029   7.163   3.257   3.163
 9355TIP3    H228030   7.266   3.149   3.137
 9356TIP3   OH228031   1.285   1.412   3.246
 9356TIP3    H128032   1.318   1.402   3.157
 9356TIP3    H228033   1.239   1.495   3.245
 9357TIP3   OH228034   5.543   3.037   0.013
 9357TIP3    H128035   5.454   3.061  -0.012
 9357TIP3    H228036   5.576   3.114   0.059
 9358TIP3   OH228037   0.401   3.371   3.728
 9358TIP3    H128038   0.308   3.355   3.739
 9358TIP3    H228039   0.429   3.310   3.660
 9359TIP3   OH228040   0.305   1.090   5.317
 9359TIP3    H128041   0.332   1.096   5.225
 9359TIP3    H228042   0.301   1.181   5.347
 9360TIP3   OH228043   1.688   3.188   0.803
 9360TIP3    H128044   1.747   3.204   0.729
 9360TIP3    H228045   1.633   3.266   0.807
 9361TIP3   OH228046   2.098   2.719   0.915
 9361TIP3    H128047   2.090   2.658   0.988
 9361TIP3    H228048   2.191   2.719   0.894
 9362TIP3   OH228049   4.862   5.502   3.731
 9362TIP3    H128050   4.784   5.466   3.688
 9362TIP3    H228051   4.870   5.590   3.695
 9363TIP3   OH228052   2.941   2.274   4.149
 9363TIP3    H128053   2.853   2.257   4.180
 9363TIP3    H228054   2.929   2.314   4.063
 9364TIP3   OH228055   3.101   6.318   3.581
 9364TIP3    H128056   3.133   6.306   3.492
 9364TIP3    H228057   3.005   6.314   3.572
 9365TIP3   OH228058   1.988   4.145   2.637
 9365TIP3    H128059   1.951   4.181   2.557
 9365TIP3    H228060   2.033   4.219   2.678
 9366TIP3   OH228061   0.972   4.927   5.288
 9366TIP3    H128062   1.000   4.868   5.217
 9366TIP3    H228063   0.883   4.951   5.264
 9367TIP3   OH228064   2.160   2.900   5.002
 9367TIP3    H128065   2.228   2.957   5.039
 9367TIP3    H228066   2.084   2.958   4.991
 9368TIP3   OH228067   5.091   3.287   1.675
 9368TIP3    H128068   5.030   3.272   1.602
 9368TIP3    H228069   5.150   3.355   1.643
 9369TIP3   OH228070   2.896   3.702   4.634
 9369TIP3    H128071   2.937   3.727   4.717
 9369TIP3    H228072   2.965   3.713   4.569
 9370TIP3   OH228073   4.090   5.913   1.933
 9370TIP3    H128074   4.027   5.890   2.001
 9370TIP3    H228075   4.128   5.996   1.963
 9371TIP3   OH228076   4.610   4.027   4.999
 9371TIP3    H128077   4.598   3.951   4.941
 9371TIP3    H228078   4.704   4.044   4.996
 9372TIP3   OH228079   0.724   2.820   2.558
 9372TIP3    H128080   0.738   2.735   2.517
 9372TIP3    H228081   0.629   2.830   2.561
 9373TIP3   OH228082   3.591   5.586   1.132
 9373TIP3    H128083   3.586   5.569   1.226
 9373TIP3    H228084   3.505   5.558   1.098
 9374TIP3   OH228085   6.223   5.934   5.842
 9374TIP3    H128086   6.312   5.942   5.809
 9374TIP3    H228087   6.206   5.839   5.842
 9375TIP3   OH228088   3.658   4.857   4.919
 9375TIP3    H128089   3.675   4.940   4.874
 9375TIP3    H228090   3.744   4.824   4.943
 9376TIP3   OH228091   4.713   6.619   2.141
 9376TIP3    H128092   4.623   6.636   2.115
 9376TIP3    H228093   4.766   6.667   2.077
 9377TIP3   OH228094   6.926   4.637   1.895
 9377TIP3    H128095   6.850   4.696   1.902
 9377TIP3    H228096   6.920   4.582   1.973
 9378TIP3   OH228097   0.240   4.103   3.257
 9378TIP3    H128098   0.150   4.107   3.289
 9378TIP3    H228099   0.233   4.092   3.163
 9379TIP3   OH228100   2.333   5.013   0.514
 9379TIP3    H128101   2.343   4.964   0.596
 9379TIP3    H228102   2.329   4.945   0.447
 9380TIP3   OH228103   0.467   2.838   3.309
 9380TIP3    H128104   0.500   2.890   3.236
 9380TIP3    H228105   0.374   2.826   3.290
 9381TIP3   OH228106   6.876   5.106   5.781
 9381TIP3    H128107   6.918   5.191   5.784
 9381TIP3    H228108   6.915   5.063   5.705
 9382TIP3   OH228109   6.470   0.637   0.999
 9382TIP3    H128110   6.416   0.558   0.992
 9382TIP3    H228111   6.410   0.705   1.029
 9383TIP3   OH228112   2.313   4.877   0.283
 9383TIP3    H128113   2.299   4.968   0.257
 9383TIP3    H228114   2.242   4.829   0.240
 9384TIP3   OH228115   2.452   6.494   4.914
 9384TIP3    H128116   2.454   6.489   5.009
 9384TIP3    H228117   2.540   6.523   4.889
 9385TIP3   OH228118   0.426   6.015   2.346
 9385TIP3    H128119   0.434   6.047   2.257
 9385TIP3    H228120   0.500   5.954   2.356
 9386TIP3   OH228121   6.601   4.146   0.523
 9386TIP3    H128122   6.635   4.112   0.606
 9386TIP3    H228123   6.580   4.068   0.472
 9387TIP3   OH228124   1.264   4.104   1.975
 9387TIP3    H128125   1.342   4.050   1.991
 9387TIP3    H228126   1.275   4.135   1.885
 9388TIP3   OH228127   2.773   1.631   1.942
 9388TIP3    H128128   2.716   1.561   1.974
 9388TIP3    H228129   2.713   1.697   1.908
 9389TIP3   OH228130   0.704   6.119   2.854
 9389TIP3    H128131   0.717   6.037   2.806
 9389TIP3    H228132   0.696   6.093   2.946
 9390TIP3   OH228133   0.231   3.798   5.618
 9390TIP3    H128134   0.170   3.834   5.683
 9390TIP3    H228135   0.296   3.868   5.606
 9391TIP3   OH228136   0.414   3.631   0.579
 9391TIP3    H128137   0.370   3.667   0.502
 9391TIP3    H228138   0.370   3.548   0.596
 9392TIP3   OH228139   1.486   5.877   3.046
 9392TIP3    H128140   1.480   5.969   3.018
 9392TIP3    H228141   1.413   5.866   3.106
 9393TIP3   OH228142   2.736   6.022   1.602
 9393TIP3    H128143   2.771   6.084   1.665
 9393TIP3    H228144   2.744   6.066   1.517
 9394TIP3   OH228145   0.445   1.143   1.685
 9394TIP3    H128146   0.503   1.105   1.751
 9394TIP3    H228147   0.503   1.178   1.618
 9395TIP3   OH228148   4.138   5.013   1.018
 9395TIP3    H128149   4.137   4.920   1.039
 9395TIP3    H228150   4.224   5.044   1.047
 9396TIP3   OH228151   0.236   4.252   4.786
 9396TIP3    H128152   0.216   4.164   4.755
 9396TIP3    H228153   0.160   4.304   4.762
 9397TIP3   OH228154   2.445   3.611   1.251
 9397TIP3    H128155   2.360   3.655   1.240
 9397TIP3    H228156   2.424   3.528   1.293
 9398TIP3   OH228157   0.268   2.184   1.664
 9398TIP3    H128158   0.231   2.263   1.704
 9398TIP3    H228159   0.337   2.217   1.606
 9399TIP3   OH228160   3.999   5.963   0.733
 9399TIP3    H128161   4.068   6.018   0.769
 9399TIP3    H228162   3.969   5.910   0.807
 9400TIP3   OH228163   2.496   5.640   4.504
 9400TIP3    H128164   2.575   5.628   4.450
 9400TIP3    H228165   2.529   5.674   4.587
 9401TIP3   OH228166   4.442   4.828   4.665
 9401TIP3    H128167   4.351   4.803   4.677
 9401TIP3    H228168   4.465   4.877   4.744
 9402TIP3   OH228169   2.215   2.276   0.444
 9402TIP3    H128170   2.211   2.238   0.532
 9402TIP3    H228171   2.309   2.289   0.428
 9403TIP3   OH228172   4.652   3.502   4.425
 9403TIP3    H128173   4.606   3.585   4.436
 9403TIP3    H228174   4.648   3.461   4.512
 9404TIP3   OH228175   0.265   1.333   2.348
 9404TIP3    H128176   0.201   1.262   2.337
 9404TIP3    H228177   0.300   1.320   2.436
 9405TIP3   OH228178   0.234   0.380   4.983
 9405TIP3    H128179   0.257   0.288   4.994
 9405TIP3    H228180   0.318   0.426   4.978
 9406TIP3   OH228181   6.650   0.019   4.723
 9406TIP3    H128182   6.665  -0.051   4.660
 9406TIP3    H228183   6.677   0.099   4.677
 9407TIP3   OH228184   0.276   4.888   0.656
 9407TIP3    H128185   0.212   4.957   0.635
 9407TIP3    H228186   0.275   4.883   0.751
 9408TIP3   OH228187   4.035   5.642   5.745
 9408TIP3    H128188   3.986   5.573   5.700
 9408TIP3    H228189   4.111   5.657   5.690
 9409TIP3   OH228190   5.805   0.215   2.029
 9409TIP3    H128191   5.885   0.187   1.985
 9409TIP3    H228192   5.797   0.308   2.007
 9410TIP3   OH228193   2.313   0.456   1.723
 9410TIP3    H128194   2.225   0.492   1.709
 9410TIP3    H228195   2.369   0.533   1.736
 9411TIP3   OH228196   1.273   0.149   1.361
 9411TIP3    H128197   1.230   0.065   1.374
 9411TIP3    H228198   1.270   0.163   1.266
 9412TIP3   OH228199   2.110   3.478   0.488
 9412TIP3    H128200   2.183   3.419   0.504
 9412TIP3    H228201   2.146   3.546   0.431
 9413TIP3   OH228202   3.293   5.850   2.701
 9413TIP3    H128203   3.276   5.821   2.791
 9413TIP3    H228204   3.208   5.843   2.657
 9414TIP3   OH228205   3.245   2.813   1.011
 9414TIP3    H128206   3.189   2.868   1.066
 9414TIP3    H228207   3.324   2.866   0.997
 9415TIP3   OH228208   1.339   6.348   5.350
 9415TIP3    H128209   1.314   6.441   5.348
 9415TIP3    H228210   1.275   6.305   5.293
 9416TIP3   OH228211   3.345   1.213   2.242
 9416TIP3    H128212   3.307   1.299   2.224
 9416TIP3    H228213   3.318   1.160   2.167
 9417TIP3   OH228214   2.824   0.947   3.243
 9417TIP3    H128215   2.904   0.987   3.208
 9417TIP3    H228216   2.845   0.931   3.335
 9418TIP3   OH228217   0.438   4.169   2.804
 9418TIP3    H128218   0.344   4.185   2.796
 9418TIP3    H228219   0.474   4.192   2.718
 9419TIP3   OH228220   6.061   4.022   5.005
 9419TIP3    H128221   6.121   3.948   5.004
 9419TIP3    H228222   6.117   4.099   4.997
 9420TIP3   OH228223   1.751   1.460   0.304
 9420TIP3    H128224   1.788   1.537   0.262
 9420TIP3    H228225   1.658   1.461   0.281
 9421TIP3   OH228226   2.258   4.806   3.715
 9421TIP3    H128227   2.291   4.770   3.632
 9421TIP3    H228228   2.240   4.729   3.769
 9422TIP3   OH228229   6.471   0.172   1.307
 9422TIP3    H128230   6.491   0.084   1.340
 9422TIP3    H228231   6.409   0.207   1.371
 9423TIP3   OH228232   5.250   5.885   3.492
 9423TIP3    H128233   5.169   5.840   3.467
 9423TIP3    H228234   5.221   5.966   3.533
 9424TIP3   OH228235   4.685   6.332   2.176
 9424TIP3    H128236   4.630   6.344   2.253
 9424TIP3    H228237   4.705   6.420   2.146
 9425TIP3   OH228238   4.645   4.906   0.095
 9425TIP3    H128239   4.562   4.901   0.047
 9425TIP3    H228240   4.650   4.822   0.141
 9426TIP3   OH228241   6.600   2.368   3.768
 9426TIP3    H128242   6.608   2.454   3.811
 9426TIP3    H228243   6.624   2.305   3.836
 9427TIP3   OH228244   5.113   5.650   3.406
 9427TIP3    H128245   5.107   5.682   3.316
 9427TIP3    H228246   5.086   5.558   3.401
 9428TIP3   OH228247   5.938   6.036   1.887
 9428TIP3    H128248   6.025   6.032   1.928
 9428TIP3    H228249   5.934   5.959   1.831
 9429TIP3   OH228250   4.771   5.855   4.048
 9429TIP3    H128251   4.740   5.900   4.126
 9429TIP3    H228252   4.866   5.849   4.059
 9430TIP3   OH228253   3.737   0.451   3.473
 9430TIP3    H128254   3.829   0.475   3.484
 9430TIP3    H228255   3.737   0.355   3.476
 9431TIP3   OH228256   6.408   6.065   3.844
 9431TIP3    H128257   6.414   5.976   3.879
 9431TIP3    H228258   6.330   6.063   3.789
 9432TIP3   OH228259   6.182   2.879   0.672
 9432TIP3    H128260   6.205   2.864   0.580
 9432TIP3    H228261   6.118   2.950   0.669
 9433TIP3   OH228262   3.764   5.501   0.188
 9433TIP3    H128263   3.761   5.522   0.282
 9433TIP3    H228264   3.710   5.567   0.146
 9434TIP3   OH228265   0.054   5.825   4.435
 9434TIP3    H128266   0.069   5.870   4.518
 9434TIP3    H228267  -0.030   5.859   4.405
 9435TIP3   OH228268   2.380   4.014   2.665
 9435TIP3    H128269   2.354   3.931   2.704
 9435TIP3    H228270   2.446   4.050   2.724
 9436TIP3   OH228271   0.242   2.642   1.925
 9436TIP3    H128272   0.253   2.706   1.854
 9436TIP3    H228273   0.297   2.675   1.996
 9437TIP3   OH228274   4.190   1.106   4.636
 9437TIP3    H128275   4.152   1.070   4.556
 9437TIP3    H228276   4.142   1.187   4.651
 9438TIP3   OH228277   1.505   5.596   5.749
 9438TIP3    H128278   1.481   5.585   5.841
 9438TIP3    H228279   1.513   5.691   5.737
 9439TIP3   OH228280   5.666   4.996   1.419
 9439TIP3    H128281   5.715   4.968   1.342
 9439TIP3    H228282   5.716   5.070   1.454
 9440TIP3   OH228283   2.329   3.627   2.245
 9440TIP3    H128284   2.314   3.546   2.293
 9440TIP3    H228285   2.242   3.667   2.238
 9441TIP3   OH228286   1.198   0.211   4.530
 9441TIP3    H128287   1.257   0.203   4.455
 9441TIP3    H228288   1.242   0.161   4.599
 9442TIP3   OH228289   5.500   0.750   3.589
 9442TIP3    H128290   5.440   0.811   3.631
 9442TIP3    H228291   5.451   0.714   3.515
 9443TIP3   OH228292   2.052   6.254   0.769
 9443TIP3    H128293   2.061   6.344   0.737
 9443TIP3    H228294   1.991   6.260   0.842
 9444TIP3   OH228295   1.929   1.091   1.408
 9444TIP3    H128296   2.020   1.118   1.397
 9444TIP3    H228297   1.892   1.093   1.320
 9445TIP3   OH228298   4.929   0.851   0.845
 9445TIP3    H128299   4.878   0.789   0.792
 9445TIP3    H228300   4.947   0.924   0.786
 9446TIP3   OH228301   0.417   2.977   1.916
 9446TIP3    H128302   0.435   3.067   1.944
 9446TIP3    H228303   0.354   2.945   1.981
 9447TIP3   OH228304   6.773   5.987   2.227
 9447TIP3    H128305   6.758   5.992   2.321
 9447TIP3    H228306   6.853   6.037   2.212
 9448TIP3   OH228307   6.458   3.229   5.076
 9448TIP3    H128308   6.518   3.245   5.149
 9448TIP3    H228309   6.504   3.265   5.000
 9449TIP3   OH228310   2.399   1.689   0.526
 9449TIP3    H128311   2.454   1.652   0.595
 9449TIP3    H228312   2.316   1.641   0.533
 9450TIP3   OH228313   6.043   6.645   5.578
 9450TIP3    H128314   6.133   6.627   5.551
 9450TIP3    H228315   6.005   6.559   5.594
 9451TIP3   OH228316   4.298   4.925   3.940
 9451TIP3    H128317   4.206   4.909   3.960
 9451TIP3    H228318   4.301   5.016   3.912
 9452TIP3   OH228319   7.043   2.749   0.620
 9452TIP3    H128320   6.999   2.799   0.689
 9452TIP3    H228321   7.133   2.780   0.622
 9453TIP3   OH228322   2.407   2.927   3.517
 9453TIP3    H128323   2.382   2.857   3.458
 9453TIP3    H228324   2.330   2.984   3.522
 9454TIP3   OH228325   5.278   5.905   4.802
 9454TIP3    H128326   5.251   5.910   4.894
 9454TIP3    H228327   5.227   5.833   4.766
 9455TIP3   OH228328   5.560   2.245   5.786
 9455TIP3    H128329   5.618   2.235   5.861
 9455TIP3    H228330   5.556   2.158   5.747
 9456TIP3   OH228331   5.129   5.018   0.431
 9456TIP3    H128332   5.047   4.974   0.409
 9456TIP3    H228333   5.144   5.080   0.360
 9457TIP3   OH228334   3.002   0.302   4.254
 9457TIP3    H128335   2.973   0.217   4.287
 9457TIP3    H228336   3.029   0.285   4.164
 9458TIP3   OH228337   4.582   2.393   0.566
 9458TIP3    H128338   4.576   2.440   0.483
 9458TIP3    H228339   4.493   2.396   0.601
 9459TIP3   OH228340   3.007   4.332   5.721
 9459TIP3    H128341   3.086   4.360   5.768
 9459TIP3    H228342   3.039   4.266   5.659
 9460TIP3   OH228343   6.233   2.167   3.377
 9460TIP3    H128344   6.250   2.256   3.344
 9460TIP3    H228345   6.279   2.110   3.316
 9461TIP3   OH228346   4.847   5.512   0.835
 9461TIP3    H128347   4.824   5.458   0.910
 9461TIP3    H228348   4.788   5.587   0.840
 9462TIP3   OH228349   0.168   5.371   4.751
 9462TIP3    H128350   0.252   5.338   4.719
 9462TIP3    H228351   0.173   5.363   4.846
 9463TIP3   OH228352   2.443   3.163   3.757
 9463TIP3    H128353   2.388   3.130   3.685
 9463TIP3    H228354   2.504   3.224   3.715
 9464TIP3   OH228355   2.247   2.629   1.996
 9464TIP3    H128356   2.253   2.669   1.909
 9464TIP3    H228357   2.175   2.567   1.989
 9465TIP3   OH228358   5.250  -0.007   0.960
 9465TIP3    H128359   5.169   0.004   1.009
 9465TIP3    H228360   5.265   0.079   0.919
 9466TIP3   OH228361   1.566   3.765   0.890
 9466TIP3    H128362   1.555   3.859   0.908
 9466TIP3    H228363   1.640   3.761   0.829
 9467TIP3   OH228364   5.881   2.345   5.173
 9467TIP3    H128365   5.919   2.422   5.130
 9467TIP3    H228366   5.858   2.287   5.100
 9468TIP3   OH228367   6.373   0.637   3.414
 9468TIP3    H128368   6.298   0.615   3.359
 9468TIP3    H228369   6.442   0.659   3.352
 9469TIP3   OH228370   1.175   4.300   0.758
 9469TIP3    H128371   1.086   4.333   0.754
 9469TIP3    H228372   1.216   4.331   0.678
 9470TIP3   OH228373   5.133   0.094   3.375
 9470TIP3    H128374   5.173   0.008   3.362
 9470TIP3    H228375   5.207   0.155   3.374
 9471TIP3   OH228376   7.131   2.397   2.627
 9471TIP3    H128377   7.118   2.492   2.618
 9471TIP3    H228378   7.165   2.370   2.542
 9472TIP3   OH228379   1.444   2.153   3.958
 9472TIP3    H128380   1.410   2.226   3.907
 9472TIP3    H228381   1.539   2.155   3.942
 9473TIP3   OH228382   4.207   1.700   4.798
 9473TIP3    H128383   4.124   1.690   4.751
 9473TIP3    H228384   4.182   1.735   4.884
 9474TIP3   OH228385   3.735   2.497   4.708
 9474TIP3    H128386   3.726   2.421   4.765
 9474TIP3    H228387   3.810   2.545   4.744
 9475TIP3   OH228388   1.519   5.442   4.340
 9475TIP3    H128389   1.603   5.398   4.352
 9475TIP3    H228390   1.517   5.508   4.410
 9476TIP3   OH228391   3.336   4.931   2.979
 9476TIP3    H128392   3.278   5.007   2.991
 9476TIP3    H228393   3.415   4.953   3.028
 9477TIP3   OH228394   6.210   4.666   0.224
 9477TIP3    H128395   6.197   4.661   0.129
 9477TIP3    H228396   6.304   4.677   0.235
 9478TIP3   OH228397   6.956   4.592   4.799
 9478TIP3    H128398   6.934   4.676   4.758
 9478TIP3    H228399   6.949   4.609   4.893
 9479TIP3   OH228400   0.926   5.878   0.499
 9479TIP3    H128401   0.925   5.919   0.412
 9479TIP3    H228402   1.018   5.879   0.526
 9480TIP3   OH228403   2.831   6.095   4.555
 9480TIP3    H128404   2.825   6.133   4.643
 9480TIP3    H228405   2.909   6.039   4.559
 9481TIP3   OH228406   6.951   6.818   2.362
 9481TIP3    H128407   6.946   6.732   2.403
 9481TIP3    H228408   6.971   6.800   2.270
 9482TIP3   OH228409   6.239   1.850   0.773
 9482TIP3    H128410   6.325   1.834   0.812
 9482TIP3    H228411   6.204   1.763   0.756
 9483TIP3   OH228412   0.609   5.486   4.869
 9483TIP3    H128413   0.522   5.518   4.846
 9483TIP3    H228414   0.632   5.533   4.949
 9484TIP3   OH228415   3.637   3.170   0.654
 9484TIP3    H128416   3.607   3.248   0.700
 9484TIP3    H228417   3.731   3.166   0.672
 9485TIP3   OH228418   5.845   1.955   4.591
 9485TIP3    H128419   5.900   1.946   4.669
 9485TIP3    H228420   5.760   1.919   4.618
 9486TIP3   OH228421   1.665   6.003  -0.013
 9486TIP3    H128422   1.676   5.958   0.071
 9486TIP3    H228423   1.755   6.024  -0.040
 9487TIP3   OH228424   4.432   6.407   1.161
 9487TIP3    H128425   4.427   6.476   1.095
 9487TIP3    H228426   4.497   6.439   1.224
 9488TIP3   OH228427   3.896   1.107   2.045
 9488TIP3    H128428   3.829   1.174   2.040
 9488TIP3    H228429   3.891   1.061   1.961
 9489TIP3   OH228430   5.786   2.548   0.143
 9489TIP3    H128431   5.692   2.535   0.155
 9489TIP3    H228432   5.823   2.460   0.139
 9490TIP3   OH228433   0.775   3.897   1.906
 9490TIP3    H128434   0.715   3.822   1.900
 9490TIP3    H228435   0.721   3.973   1.885
 9491TIP3   OH228436   3.032   1.940   2.680
 9491TIP3    H128437   3.044   2.019   2.628
 9491TIP3    H228438   3.052   1.868   2.620
 9492TIP3   OH228439   5.031   4.500   0.530
 9492TIP3    H128440   5.051   4.593   0.528
 9492TIP3    H228441   4.940   4.495   0.560
 9493TIP3   OH228442   2.344   4.555   4.400
 9493TIP3    H128443   2.396   4.635   4.407
 9493TIP3    H228444   2.307   4.558   4.312
 9494TIP3   OH228445   1.534   6.407   2.766
 9494TIP3    H128446   1.520   6.497   2.737
 9494TIP3    H228447   1.598   6.371   2.704
 9495TIP3   OH228448   0.084   6.615   0.292
 9495TIP3    H128449   0.091   6.593   0.385
 9495TIP3    H228450   0.023   6.551   0.257
 9496TIP3   OH228451   2.794   6.586   1.717
 9496TIP3    H128452   2.712   6.550   1.751
 9496TIP3    H228453   2.825   6.521   1.653
 9497TIP3   OH228454   4.407   3.311   5.458
 9497TIP3    H128455   4.433   3.228   5.500
 9497TIP3    H228456   4.333   3.287   5.403
 9498TIP3   OH228457   4.627   3.765   1.006
 9498TIP3    H128458   4.611   3.849   0.962
 9498TIP3    H228459   4.559   3.707   0.972
 9499TIP3   OH228460   0.144   5.809   5.754
 9499TIP3    H128461   0.185   5.754   5.821
 9499TIP3    H228462   0.201   5.801   5.678
 9500TIP3   OH228463   4.020   0.660   5.687
 9500TIP3    H128464   3.958   0.733   5.693
 9500TIP3    H228465   4.032   0.646   5.593
 9501TIP3   OH228466   0.284   5.327   3.273
 9501TIP3    H128467   0.199   5.365   3.250
 9501TIP3    H228468   0.286   5.330   3.369
 9502TIP3   OH228469   1.524   2.297   0.573
 9502TIP3    H128470   1.571   2.318   0.492
 9502TIP3    H228471   1.519   2.380   0.620
 9503TIP3   OH228472   5.864   3.233   0.992
 9503TIP3    H128473   5.889   3.280   1.071
 9503TIP3    H228474   5.919   3.270   0.923
 9504TIP3   OH228475   1.666   0.820   0.739
 9504TIP3    H128476   1.683   0.835   0.646
 9504TIP3    H228477   1.752   0.818   0.780
 9505TIP3   OH228478   3.846   3.301   1.388
 9505TIP3    H128479   3.890   3.375   1.346
 9505TIP3    H228480   3.910   3.230   1.382
 9506TIP3   OH228481   3.147   3.251   5.240
 9506TIP3    H128482   3.080   3.227   5.176
 9506TIP3    H228483   3.220   3.191   5.222
 9507TIP3   OH228484   4.268   2.520   5.454
 9507TIP3    H128485   4.316   2.585   5.505
 9507TIP3    H228486   4.328   2.495   5.383
 9508TIP3   OH228487   5.400   3.333   4.226
 9508TIP3    H128488   5.323   3.324   4.283
 9508TIP3    H228489   5.363   3.342   4.138
 9509TIP3   OH228490   1.813   5.636   5.869
 9509TIP3    H128491   1.757   5.563   5.895
 9509TIP3    H228492   1.861   5.603   5.793
 9510TIP3   OH228493   1.361   4.824   4.666
 9510TIP3    H128494   1.285   4.860   4.712
 9510TIP3    H228495   1.340   4.836   4.573
 9511TIP3   OH228496   2.543   5.444   1.480
 9511TIP3    H128497   2.491   5.373   1.443
 9511TIP3    H228498   2.585   5.405   1.556
 9512TIP3   OH228499   1.156   4.485   2.846
 9512TIP3    H128500   1.243   4.491   2.885
 9512TIP3    H228501   1.098   4.528   2.910
 9513TIP3   OH228502   2.837   0.797   5.636
 9513TIP3    H128503   2.744   0.778   5.623
 9513TIP3    H228504   2.871   0.720   5.682
 9514TIP3   OH228505   4.332   2.675   2.104
 9514TIP3    H128506   4.319   2.762   2.065
 9514TIP3    H228507   4.420   2.649   2.076
 9515TIP3   OH228508   2.069   3.302   1.280
 9515TIP3    H128509   2.112   3.224   1.245
 9515TIP3    H228510   2.068   3.364   1.208
 9516TIP3   OH228511   4.431   4.269   3.884
 9516TIP3    H128512   4.406   4.342   3.827
 9516TIP3    H228513   4.360   4.264   3.949
 9517TIP3   OH228514   0.684   0.827   4.857
 9517TIP3    H128515   0.648   0.743   4.884
 9517TIP3    H228516   0.764   0.837   4.909
 9518TIP3   OH228517   5.125   6.138   4.242
 9518TIP3    H128518   5.088   6.085   4.313
 9518TIP3    H228519   5.213   6.160   4.272
 9519TIP3   OH228520   1.243   6.753   2.214
 9519TIP3    H128521   1.222   6.837   2.173
 9519TIP3    H228522   1.158   6.710   2.223
 9520TIP3   OH228523   3.618   5.495   5.159
 9520TIP3    H128524   3.641   5.458   5.244
 9520TIP3    H228525   3.632   5.589   5.169
 9521TIP3   OH228526   0.640   3.649   1.953
 9521TIP3    H128527   0.601   3.684   2.034
 9521TIP3    H228528   0.580   3.579   1.926
 9522TIP3   OH228529   4.331   3.707   1.380
 9522TIP3    H128530   4.260   3.707   1.445
 9522TIP3    H228531   4.328   3.794   1.341
 9523TIP3   OH228532   0.337   5.927   3.609
 9523TIP3    H128533   0.322   6.020   3.595
 9523TIP3    H228534   0.388   5.899   3.533
 9524TIP3   OH228535   1.893   1.465   0.551
 9524TIP3    H128536   1.835   1.490   0.479
 9524TIP3    H228537   1.910   1.372   0.537
 9525TIP3   OH228538   2.940   4.292   4.923
 9525TIP3    H128539   2.870   4.233   4.894
 9525TIP3    H228540   3.004   4.234   4.965
 9526TIP3   OH228541   4.803   6.557  -0.005
 9526TIP3    H128542   4.813   6.639  -0.055
 9526TIP3    H228543   4.874   6.559   0.058
 9527TIP3   OH228544   2.614   1.158   1.818
 9527TIP3    H128545   2.673   1.083   1.807
 9527TIP3    H228546   2.627   1.210   1.739
 9528TIP3   OH228547   0.249   0.558   3.217
 9528TIP3    H128548   0.191   0.484   3.203
 9528TIP3    H228549   0.321   0.522   3.270
 9529TIP3   OH228550   5.483   6.721   1.501
 9529TIP3    H128551   5.421   6.740   1.430
 9529TIP3    H228552   5.569   6.736   1.461
 9530TIP3   OH228553   6.098   0.464   0.282
 9530TIP3    H128554   6.117   0.382   0.327
 9530TIP3    H228555   6.154   0.529   0.324
 9531TIP3   OH228556   4.149   4.788   4.655
 9531TIP3    H128557   4.084   4.818   4.591
 9531TIP3    H228558   4.143   4.851   4.726
 9532TIP3   OH228559   3.955   2.099   1.504
 9532TIP3    H128560   4.039   2.088   1.461
 9532TIP3    H228561   3.893   2.051   1.449
 9533TIP3   OH228562   1.604   5.356   3.654
 9533TIP3    H128563   1.620   5.265   3.630
 9533TIP3    H228564   1.671   5.376   3.719
 9534TIP3   OH228565   5.605   4.732   2.190
 9534TIP3    H128566   5.691   4.692   2.193
 9534TIP3    H228567   5.610   4.806   2.251
 9535TIP3   OH228568   3.139   5.842   0.911
 9535TIP3    H128569   3.100   5.924   0.878
 9535TIP3    H228570   3.143   5.855   1.006
 9536TIP3   OH228571   4.182   6.651   1.171
 9536TIP3    H128572   4.133   6.576   1.204
 9536TIP3    H228573   4.216   6.623   1.086
 9537TIP3   OH228574   4.106   4.047   5.833
 9537TIP3    H128575   4.074   3.965   5.870
 9537TIP3    H228576   4.184   4.067   5.885
 9538TIP3   OH228577   2.372   1.692   5.622
 9538TIP3    H128578   2.286   1.731   5.605
 9538TIP3    H228579   2.407   1.743   5.695
 9539TIP3   OH228580   2.153   3.597   3.381
 9539TIP3    H128581   2.112   3.661   3.322
 9539TIP3    H228582   2.109   3.610   3.465
 9540TIP3   OH228583   4.924   2.388   4.894
 9540TIP3    H128584   4.967   2.375   4.979
 9540TIP3    H228585   4.862   2.315   4.887
 9541TIP3   OH228586   3.525   3.956   1.909
 9541TIP3    H128587   3.457   3.911   1.959
 9541TIP3    H228588   3.477   4.020   1.856
 9542TIP3   OH228589   0.989   4.134   5.151
 9542TIP3    H128590   1.058   4.186   5.192
 9542TIP3    H228591   1.016   4.043   5.163
 9543TIP3   OH228592   6.654   5.004   2.840
 9543TIP3    H128593   6.728   5.065   2.849
 9543TIP3    H228594   6.580   5.052   2.877
 9544TIP3   OH228595   5.614   2.866   1.158
 9544TIP3    H128596   5.592   2.798   1.222
 9544TIP3    H228597   5.546   2.858   1.090
 9545TIP3   OH228598   2.985   1.148   2.094
 9545TIP3    H128599   2.907   1.093   2.087
 9545TIP3    H228600   3.010   1.140   2.186
 9546TIP3   OH228601   0.977   0.520   3.164
 9546TIP3    H128602   1.046   0.560   3.110
 9546TIP3    H228603   1.011   0.433   3.186
 9547TIP3   OH228604   5.254   3.713   2.831
 9547TIP3    H128605   5.311   3.697   2.755
 9547TIP3    H228606   5.239   3.808   2.830
 9548TIP3   OH228607   6.107   4.254   4.315
 9548TIP3    H128608   6.191   4.299   4.306
 9548TIP3    H228609   6.107   4.219   4.405
 9549TIP3   OH228610   1.575   4.444   1.365
 9549TIP3    H128611   1.587   4.457   1.459
 9549TIP3    H228612   1.480   4.444   1.353
 9550TIP3   OH228613   2.366   3.793   0.290
 9550TIP3    H128614   2.431   3.751   0.346
 9550TIP3    H228615   2.383   3.759   0.203
 9551TIP3   OH228616   1.428   0.474   0.464
 9551TIP3    H128617   1.441   0.447   0.374
 9551TIP3    H228618   1.516   0.482   0.500
 9552TIP3   OH228619   5.035   0.687   3.292
 9552TIP3    H128620   4.982   0.758   3.327
 9552TIP3    H228621   5.009   0.610   3.343
 9553TIP3   OH228622   4.165   6.718   5.273
 9553TIP3    H128623   4.092   6.657   5.268
 9553TIP3    H228624   4.236   6.675   5.227
 9554TIP3   OH228625   2.516   0.873   5.611
 9554TIP3    H128626   2.514   0.965   5.638
 9554TIP3    H228627   2.429   0.857   5.574
 9555TIP3   OH228628   5.787   0.306   1.060
 9555TIP3    H128629   5.864   0.361   1.045
 9555TIP3    H228630   5.776   0.257   0.979
 9556TIP3   OH228631   0.720   6.107   5.308
 9556TIP3    H128632   0.644   6.059   5.276
 9556TIP3    H228633   0.686   6.192   5.335
 9557TIP3   OH228634   3.378   5.968   3.162
 9557TIP3    H128635   3.355   5.990   3.252
 9557TIP3    H228636   3.298   5.985   3.112
 9558TIP3   OH228637   2.845   5.496   1.517
 9558TIP3    H128638   2.766   5.507   1.570
 9558TIP3    H228639   2.841   5.567   1.454
 9559TIP3   OH228640   6.137   4.346   0.632
 9559TIP3    H128641   6.160   4.422   0.685
 9559TIP3    H228642   6.143   4.377   0.541
 9560TIP3   OH228643   7.104   6.323   0.440
 9560TIP3    H128644   7.187   6.279   0.424
 9560TIP3    H228645   7.078   6.356   0.354
 9561TIP3   OH228646   1.695   1.143   3.626
 9561TIP3    H128647   1.738   1.177   3.547
 9561TIP3    H228648   1.668   1.222   3.675
 9562TIP3   OH228649   1.342   3.760   0.716
 9562TIP3    H128650   1.414   3.702   0.743
 9562TIP3    H228651   1.356   3.772   0.622
 9563TIP3   OH228652   3.321   5.096   0.213
 9563TIP3    H128653   3.323   5.166   0.147
 9563TIP3    H228654   3.261   5.031   0.177
 9564TIP3   OH228655   5.133   1.815   4.950
 9564TIP3    H128656   5.179   1.770   5.020
 9564TIP3    H228657   5.061   1.861   4.994
 9565TIP3   OH228658   3.830   0.871   4.021
 9565TIP3    H128659   3.826   0.828   3.935
 9565TIP3    H228660   3.764   0.824   4.074
 9566TIP3   OH228661   5.868   1.028   0.075
 9566TIP3    H128662   5.783   1.026   0.118
 9566TIP3    H228663   5.929   1.060   0.141
 9567TIP3   OH228664   6.285   1.211   2.749
 9567TIP3    H128665   6.272   1.270   2.823
 9567TIP3    H228666   6.380   1.205   2.740
 9568TIP3   OH228667   1.950   2.082   1.232
 9568TIP3    H128668   2.028   2.081   1.176
 9568TIP3    H228669   1.899   2.006   1.202
 9569TIP3   OH228670   0.536   0.928   5.380
 9569TIP3    H128671   0.470   0.997   5.369
 9569TIP3    H228672   0.496   0.867   5.442
 9570TIP3   OH228673   0.726   3.831   5.619
 9570TIP3    H128674   0.786   3.837   5.694
 9570TIP3    H228675   0.748   3.907   5.565
 9571TIP3   OH228676   6.914   4.479   1.044
 9571TIP3    H128677   6.898   4.497   1.136
 9571TIP3    H228678   6.828   4.456   1.008
 9572TIP3   OH228679   1.271   4.104   2.394
 9572TIP3    H128680   1.259   4.159   2.471
 9572TIP3    H228681   1.360   4.069   2.403
 9573TIP3   OH228682   3.742   5.094   3.724
 9573TIP3    H128683   3.695   5.151   3.785
 9573TIP3    H228684   3.834   5.099   3.752
 9574TIP3   OH228685   1.635   4.563   4.087
 9574TIP3    H128686   1.617   4.582   4.179
 9574TIP3    H228687   1.679   4.478   4.088
 9575TIP3   OH228688   5.972   1.478   3.458
 9575TIP3    H128689   5.950   1.475   3.551
 9575TIP3    H228690   5.898   1.523   3.417
 9576TIP3   OH228691   6.902   6.462   1.522
 9576TIP3    H128692   6.869   6.486   1.435
 9576TIP3    H228693   6.997   6.456   1.511
 9577TIP3   OH228694   2.131   0.866   4.018
 9577TIP3    H128695   2.060   0.927   3.999
 9577TIP3    H228696   2.096   0.780   3.997
 9578TIP3   OH228697   4.325   0.148   0.984
 9578TIP3    H128698   4.235   0.118   0.972
 9578TIP3    H228699   4.342   0.135   1.078
 9579TIP3   OH228700   3.124   2.693   5.342
 9579TIP3    H128701   3.120   2.679   5.247
 9579TIP3    H228702   3.067   2.769   5.357
 9580TIP3   OH228703   1.109   5.143   3.081
 9580TIP3    H128704   1.019   5.170   3.097
 9580TIP3    H228705   1.148   5.132   3.168
 9581TIP3   OH228706   2.360   6.352   0.934
 9581TIP3    H128707   2.273   6.349   0.895
 9581TIP3    H228708   2.371   6.443   0.962
 9582TIP3   OH228709   5.992   2.685   4.751
 9582TIP3    H128710   5.906   2.671   4.710
 9582TIP3    H228711   6.027   2.762   4.707
 9583TIP3   OH228712   3.140   2.209   5.319
 9583TIP3    H128713   3.160   2.208   5.412
 9583TIP3    H228714   3.068   2.146   5.309
 9584TIP3   OH228715   1.263   2.117   2.818
 9584TIP3    H128716   1.218   2.137   2.900
 9584TIP3    H228717   1.194   2.087   2.759
 9585TIP3   OH228718   6.120   4.271   2.857
 9585TIP3    H128719   6.052   4.205   2.872
 9585TIP3    H228720   6.188   4.225   2.808
 9586TIP3   OH228721   4.299   2.834   0.501
 9586TIP3    H128722   4.247   2.873   0.431
 9586TIP3    H228723   4.239   2.829   0.575
 9587TIP3   OH228724   0.596   2.609   0.889
 9587TIP3    H128725   0.690   2.604   0.907
 9587TIP3    H228726   0.560   2.528   0.925
 9588TIP3   OH228727   4.628   5.322   4.748
 9588TIP3    H128728   4.612   5.376   4.671
 9588TIP3    H228729   4.712   5.279   4.730
 9589TIP3   OH228730   2.022   4.090   1.438
 9589TIP3    H128731   1.987   4.014   1.392
 9589TIP3    H228732   2.089   4.125   1.379
 9590TIP3   OH228733   4.018   3.902   2.479
 9590TIP3    H128734   3.986   3.841   2.544
 9590TIP3    H228735   3.985   3.987   2.507
 9591TIP3   OH228736   1.338   1.538   3.730
 9591TIP3    H128737   1.277   1.500   3.793
 9591TIP3    H228738   1.306   1.626   3.714
 9592TIP3   OH228739   2.111   4.503   4.509
 9592TIP3    H128740   2.115   4.427   4.567
 9592TIP3    H228741   2.195   4.501   4.463
 9593TIP3   OH228742   0.882   6.623   5.440
 9593TIP3    H128743   0.803   6.665   5.474
 9593TIP3    H228744   0.953   6.684   5.462
 9594TIP3   OH228745   5.741   6.576   0.117
 9594TIP3    H128746   5.708   6.587   0.028
 9594TIP3    H228747   5.836   6.581   0.108
 9595TIP3   OH228748   1.946   5.581   0.290
 9595TIP3    H128749   2.008   5.634   0.240
 9595TIP3    H228750   1.962   5.605   0.381
 9596TIP3   OH228751   0.086   1.514   0.239
 9596TIP3    H128752   0.180   1.506   0.257
 9596TIP3    H228753   0.079   1.509   0.144
 9597TIP3   OH228754   2.985   3.103   0.862
 9597TIP3    H128755   3.034   3.068   0.788
 9597TIP3    H228756   2.998   3.198   0.856
 9598TIP3   OH228757   6.179   3.660   1.804
 9598TIP3    H128758   6.192   3.707   1.722
 9598TIP3    H228759   6.091   3.687   1.833
 9599TIP3   OH228760   3.266   3.073   2.140
 9599TIP3    H128761   3.331   3.006   2.120
 9599TIP3    H228762   3.292   3.107   2.226
 9600TIP3   OH228763   3.062   5.202   5.846
 9600TIP3    H128764   3.125   5.165   5.784
 9600TIP3    H228765   2.988   5.230   5.791
 9601TIP3   OH228766   7.116   3.454   3.175
 9601TIP3    H128767   7.084   3.450   3.086
 9601TIP3    H228768   7.190   3.515   3.171
 9602TIP3   OH228769   1.964   2.545   4.645
 9602TIP3    H128770   1.909   2.552   4.567
 9602TIP3    H228771   2.044   2.502   4.614
 9603TIP3   OH228772   3.574   5.279   3.005
 9603TIP3    H128773   3.481   5.269   2.984
 9603TIP3    H228774   3.601   5.357   2.956
 9604TIP3   OH228775   6.868   4.042   0.265
 9604TIP3    H128776   6.814   4.118   0.283
 9604TIP3    H228777   6.946   4.054   0.319
 9605TIP3   OH228778   3.013   2.239   3.411
 9605TIP3    H128779   2.993   2.330   3.431
 9605TIP3    H228780   2.992   2.191   3.491
 9606TIP3   OH228781   1.063   1.442   2.102
 9606TIP3    H128782   1.152   1.444   2.067
 9606TIP3    H228783   1.008   1.474   2.030
 9607TIP3   OH228784   6.711   0.508   2.489
 9607TIP3    H128785   6.685   0.600   2.492
 9607TIP3    H228786   6.780   0.505   2.422
 9608TIP3   OH228787   1.928   4.424   4.057
 9608TIP3    H128788   1.926   4.336   4.096
 9608TIP3    H228789   1.941   4.483   4.130
 9609TIP3   OH228790   3.823   1.336   0.687
 9609TIP3    H128791   3.807   1.321   0.780
 9609TIP3    H228792   3.817   1.249   0.647
 9610TIP3   OH228793   0.331   6.286   3.835
 9610TIP3    H128794   0.386   6.355   3.873
 9610TIP3    H228795   0.385   6.247   3.767
 9611TIP3   OH228796   1.520   1.868   3.255
 9611TIP3    H128797   1.525   1.822   3.339
 9611TIP3    H228798   1.600   1.920   3.253
 9612TIP3   OH228799   1.614   0.660   1.090
 9612TIP3    H128800   1.538   0.707   1.056
 9612TIP3    H228801   1.686   0.724   1.086
 9613TIP3   OH228802   4.385   6.600   3.426
 9613TIP3    H128803   4.343   6.521   3.460
 9613TIP3    H228804   4.317   6.668   3.434
 9614TIP3   OH228805   4.029   5.207   2.400
 9614TIP3    H128806   3.945   5.181   2.362
 9614TIP3    H228807   4.045   5.295   2.365
 9615TIP3   OH228808   1.463   0.260   0.283
 9615TIP3    H128809   1.532   0.198   0.261
 9615TIP3    H228810   1.401   0.210   0.336
 9616TIP3   OH228811   6.201   3.534   3.814
 9616TIP3    H128812   6.291   3.518   3.842
 9616TIP3    H228813   6.160   3.448   3.817
 9617TIP3   OH228814   2.222   0.330   1.969
 9617TIP3    H128815   2.247   0.345   1.878
 9617TIP3    H228816   2.278   0.389   2.019
 9618TIP3   OH228817   4.166   0.565   1.329
 9618TIP3    H128818   4.152   0.473   1.307
 9618TIP3    H228819   4.228   0.564   1.402
 9619TIP3   OH228820   0.064   0.456   1.668
 9619TIP3    H128821   0.116   0.490   1.740
 9619TIP3    H228822   0.116   0.474   1.590
 9620TIP3   OH228823   2.739   1.019   2.090
 9620TIP3    H128824   2.775   0.939   2.052
 9620TIP3    H228825   2.647   1.018   2.064
 9621TIP3   OH228826   0.288   1.812   3.848
 9621TIP3    H128827   0.247   1.725   3.849
 9621TIP3    H228828   0.293   1.835   3.756
 9622TIP3   OH228829   4.458   2.274   0.048
 9622TIP3    H128830   4.368   2.295   0.022
 9622TIP3    H228831   4.466   2.180   0.035
 9623TIP3   OH228832   4.839   6.706   2.357
 9623TIP3    H128833   4.915   6.648   2.353
 9623TIP3    H228834   4.787   6.683   2.280
 9624TIP3   OH228835   2.306   5.135   0.203
 9624TIP3    H128836   2.302   5.200   0.274
 9624TIP3    H228837   2.254   5.174   0.133
 9625TIP3   OH228838   4.602   4.721   0.614
 9625TIP3    H128839   4.602   4.790   0.680
 9625TIP3    H228840   4.516   4.679   0.624
 9626TIP3   OH228841   3.412   6.180   4.624
 9626TIP3    H128842   3.455   6.203   4.542
 9626TIP3    H228843   3.484   6.157   4.683
 9627TIP3   OH228844   6.112   0.117   4.879
 9627TIP3    H128845   6.106   0.025   4.905
 9627TIP3    H228846   6.203   0.128   4.852
 9628TIP3   OH228847   1.539   0.154   5.080
 9628TIP3    H128848   1.527   0.222   5.014
 9628TIP3    H228849   1.495   0.189   5.158
 9629TIP3   OH228850   0.141   6.184   5.133
 9629TIP3    H128851   0.121   6.197   5.226
 9629TIP3    H228852   0.153   6.272   5.099
 9630TIP3   OH228853   5.901   3.758   1.795
 9630TIP3    H128854   5.819   3.773   1.841
 9630TIP3    H228855   5.891   3.806   1.712
 9631TIP3   OH228856   4.615   0.087   0.274
 9631TIP3    H128857   4.630   0.028   0.200
 9631TIP3    H228858   4.608   0.174   0.234
 9632TIP3   OH228859   5.892   0.209   3.592
 9632TIP3    H128860   5.937   0.273   3.646
 9632TIP3    H228861   5.811   0.252   3.565
 9633TIP3   OH228862   6.957   5.061   5.483
 9633TIP3    H128863   6.938   5.047   5.390
 9633TIP3    H228864   7.048   5.034   5.493
 9634TIP3   OH228865   1.317   1.297   3.541
 9634TIP3    H128866   1.321   1.379   3.590
 9634TIP3    H228867   1.230   1.295   3.503
 9635TIP3   OH228868   4.928   3.448   5.136
 9635TIP3    H128869   4.897   3.538   5.144
 9635TIP3    H228870   4.851   3.394   5.153
 9636TIP3   OH228871   2.818   0.672   3.570
 9636TIP3    H128872   2.723   0.655   3.567
 9636TIP3    H228873   2.833   0.707   3.658
 9637TIP3   OH228874   2.612   5.251   4.980
 9637TIP3    H128875   2.567   5.227   5.061
 9637TIP3    H228876   2.705   5.250   5.003
 9638TIP3   OH228877   6.568   3.081   0.650
 9638TIP3    H128878   6.620   3.009   0.613
 9638TIP3    H228879   6.620   3.113   0.723
 9639TIP3   OH228880   2.524   3.368   5.782
 9639TIP3    H128881   2.611   3.378   5.820
 9639TIP3    H228882   2.485   3.455   5.788
 9640TIP3   OH228883   0.719   3.491   4.948
 9640TIP3    H128884   0.647   3.525   4.894
 9640TIP3    H228885   0.798   3.532   4.912
 9641TIP3   OH228886   3.410   1.956   4.025
 9641TIP3    H128887   3.493   1.992   4.057
 9641TIP3    H228888   3.434   1.910   3.945
 9642TIP3   OH228889   1.018   0.605   2.461
 9642TIP3    H128890   0.987   0.642   2.544
 9642TIP3    H228891   0.942   0.559   2.425
 9643TIP3   OH228892   4.411   4.534   3.338
 9643TIP3    H128893   4.340   4.519   3.401
 9643TIP3    H228894   4.439   4.624   3.355
 9644TIP3   OH228895   5.725   0.872   2.106
 9644TIP3    H128896   5.685   0.795   2.064
 9644TIP3    H228897   5.710   0.858   2.200
 9645TIP3   OH228898   5.542   2.376   1.753
 9645TIP3    H128899   5.502   2.374   1.840
 9645TIP3    H228900   5.477   2.335   1.696
 9646TIP3   OH228901   5.528   0.461   4.383
 9646TIP3    H128902   5.582   0.430   4.456
 9646TIP3    H228903   5.457   0.510   4.424
 9647TIP3   OH228904   6.883   3.845   0.613
 9647TIP3    H128905   6.948   3.805   0.556
 9647TIP3    H228906   6.928   3.920   0.652
 9648TIP3   OH228907   6.477   0.252   0.285
 9648TIP3    H128908   6.413   0.252   0.214
 9648TIP3    H228909   6.513   0.163   0.285
 9649TIP3   OH228910   6.746   1.837   4.670
 9649TIP3    H128911   6.716   1.928   4.682
 9649TIP3    H228912   6.698   1.787   4.736
 9650TIP3   OH228913   4.972   5.961   0.995
 9650TIP3    H128914   4.915   5.884   0.990
 9650TIP3    H228915   4.926   6.019   1.056
 9651TIP3   OH228916   5.497   0.422   0.761
 9651TIP3    H128917   5.443   0.475   0.702
 9651TIP3    H228918   5.579   0.411   0.715
 9652TIP3   OH228919   3.891   3.256   5.289
 9652TIP3    H128920   3.806   3.221   5.316
 9652TIP3    H228921   3.872   3.345   5.259
 9653TIP3   OH228922   3.123   4.851   2.406
 9653TIP3    H128923   3.201   4.899   2.379
 9653TIP3    H228924   3.133   4.840   2.501
 9654TIP3   OH228925   5.014   5.339   5.175
 9654TIP3    H128926   5.060   5.303   5.251
 9654TIP3    H228927   4.930   5.368   5.209
 9655TIP3   OH228928   1.919   6.285   2.354
 9655TIP3    H128929   1.940   6.220   2.287
 9655TIP3    H228930   1.973   6.259   2.429
 9656TIP3   OH228931   4.722   1.782   5.620
 9656TIP3    H128932   4.716   1.718   5.549
 9656TIP3    H228933   4.800   1.834   5.599
 9657TIP3   OH228934   1.148   3.092   5.275
 9657TIP3    H128935   1.135   3.175   5.322
 9657TIP3    H228936   1.093   3.029   5.322
 9658TIP3   OH228937   5.958   4.636   4.201
 9658TIP3    H128938   5.974   4.643   4.295
 9658TIP3    H228939   5.863   4.642   4.192
 9659TIP3   OH228940   5.252   1.275   2.329
 9659TIP3    H128941   5.188   1.327   2.280
 9659TIP3    H228942   5.274   1.330   2.404
 9660TIP3   OH228943   2.830   6.645   3.394
 9660TIP3    H128944   2.921   6.616   3.393
 9660TIP3    H228945   2.789   6.593   3.464
 9661TIP3   OH228946   3.228   5.026   4.736
 9661TIP3    H128947   3.237   4.963   4.664
 9661TIP3    H228948   3.316   5.059   4.751
 9662TIP3   OH228949   2.907   0.719   4.695
 9662TIP3    H128950   2.811   0.727   4.690
 9662TIP3    H228951   2.935   0.798   4.741
 9663TIP3   OH228952   6.126   5.963   0.360
 9663TIP3    H128953   6.129   5.970   0.265
 9663TIP3    H228954   6.218   5.966   0.387
 9664TIP3   OH228955   0.579   5.623   1.248
 9664TIP3    H128956   0.658   5.673   1.227
 9664TIP3    H228957   0.507   5.682   1.225
 9665TIP3   OH228958   3.834   4.995   1.763
 9665TIP3    H128959   3.866   4.994   1.853
 9665TIP3    H228960   3.808   5.085   1.747
 9666TIP3   OH228961   4.900   5.440   3.028
 9666TIP3    H128962   4.921   5.527   3.062
 9666TIP3    H228963   4.982   5.410   2.988
 9667TIP3   OH228964   2.697   3.858   0.006
 9667TIP3    H128965   2.790   3.876   0.000
 9667TIP3    H228966   2.657   3.942   0.028
 9668TIP3   OH228967   6.221   6.613   1.044
 9668TIP3    H128968   6.232   6.623   1.138
 9668TIP3    H228969   6.301   6.649   1.006
 9669TIP3   OH228970   1.485   5.665   4.502
 9669TIP3    H128971   1.428   5.685   4.427
 9669TIP3    H228972   1.425   5.662   4.577
 9670TIP3   OH228973   2.150   4.049   0.211
 9670TIP3    H128974   2.189   4.124   0.167
 9670TIP3    H228975   2.194   4.045   0.296
 9671TIP3   OH228976   3.280   0.240   5.341
 9671TIP3    H128977   3.301   0.254   5.433
 9671TIP3    H228978   3.227   0.161   5.339
 9672TIP3   OH228979   0.727   3.376   1.875
 9672TIP3    H128980   0.806   3.325   1.892
 9672TIP3    H228981   0.742   3.459   1.921
 9673TIP3   OH228982   2.584   0.779   2.620
 9673TIP3    H128983   2.662   0.725   2.607
 9673TIP3    H228984   2.615   0.869   2.612
 9674TIP3   OH228985   4.232   2.835   4.148
 9674TIP3    H128986   4.181   2.915   4.161
 9674TIP3    H228987   4.305   2.862   4.092
 9675TIP3   OH228988   0.947   4.345   5.497
 9675TIP3    H128989   1.003   4.398   5.441
 9675TIP3    H228990   0.996   4.336   5.579
 9676TIP3   OH228991   5.404   2.889   2.943
 9676TIP3    H128992   5.480   2.926   2.899
 9676TIP3    H228993   5.438   2.812   2.989
 9677TIP3   OH228994   1.464   5.060   3.766
 9677TIP3    H128995   1.402   5.114   3.815
 9677TIP3    H228996   1.497   4.997   3.829
 9678TIP3   OH228997   3.433   3.574   4.691
 9678TIP3    H128998   3.476   3.658   4.676
 9678TIP3    H228999   3.423   3.537   4.603
 9679TIP3   OH229000   2.014   2.613   1.619
 9679TIP3    H129001   2.030   2.557   1.695
 9679TIP3    H229002   1.995   2.551   1.548
 9680TIP3   OH229003   2.945   5.048   1.245
 9680TIP3    H129004   2.859   5.045   1.287
 9680TIP3    H229005   2.980   4.960   1.256
 9681TIP3   OH229006   6.694   3.621   0.914
 9681TIP3    H129007   6.777   3.608   0.960
 9681TIP3    H229008   6.660   3.533   0.899
 9682TIP3   OH229009   4.315   1.412   5.437
 9682TIP3    H129010   4.236   1.394   5.488
 9682TIP3    H229011   4.383   1.426   5.502
 9683TIP3   OH229012   4.259   3.023   5.520
 9683TIP3    H129013   4.191   3.040   5.585
 9683TIP3    H229014   4.223   2.955   5.463
 9684TIP3   OH229015   0.377   5.621   4.877
 9684TIP3    H129016   0.392   5.679   4.952
 9684TIP3    H229017   0.389   5.677   4.800
 9685TIP3   OH229018   5.281   5.513   4.329
 9685TIP3    H129019   5.217   5.452   4.292
 9685TIP3    H229020   5.364   5.465   4.326
 9686TIP3   OH229021   5.749   1.231   1.687
 9686TIP3    H129022   5.730   1.312   1.736
 9686TIP3    H229023   5.721   1.161   1.746
 9687TIP3   OH229024   5.140   4.252   3.017
 9687TIP3    H129025   5.135   4.261   2.922
 9687TIP3    H229026   5.233   4.256   3.038
 9688TIP3   OH229027   2.950   3.622   4.161
 9688TIP3    H129028   2.998   3.572   4.227
 9688TIP3    H229029   2.890   3.559   4.122
 9689TIP3   OH229030   0.860   1.669   3.445
 9689TIP3    H129031   0.850   1.580   3.477
 9689TIP3    H229032   0.786   1.717   3.483
 9690TIP3   OH229033   4.138   2.401   0.246
 9690TIP3    H129034   4.162   2.308   0.253
 9690TIP3    H229035   4.201   2.446   0.302
 9691TIP3   OH229036   4.095   4.250   0.334
 9691TIP3    H129037   4.156   4.317   0.365
 9691TIP3    H229038   4.150   4.175   0.313
 9692TIP3   OH229039   2.961   1.950   0.050
 9692TIP3    H129040   2.985   1.858   0.037
 9692TIP3    H229041   2.985   1.968   0.141
 9693TIP3   OH229042   6.146   2.064   5.496
 9693TIP3    H129043   6.146   1.987   5.554
 9693TIP3    H229044   6.238   2.088   5.490
 9694TIP3   OH229045   0.682   1.586   2.399
 9694TIP3    H129046   0.685   1.586   2.495
 9694TIP3    H229047   0.752   1.526   2.373
 9695TIP3   OH229048   3.958   6.630   2.299
 9695TIP3    H129049   4.037   6.628   2.353
 9695TIP3    H229050   3.950   6.721   2.270
 9696TIP3   OH229051   1.472   4.340   0.096
 9696TIP3    H129052   1.498   4.257   0.136
 9696TIP3    H229053   1.463   4.400   0.169
 9697TIP3   OH229054   1.523   5.192   5.119
 9697TIP3    H129055   1.565   5.277   5.104
 9697TIP3    H229056   1.498   5.162   5.032
 9698TIP3   OH229057   1.401   0.741   5.086
 9698TIP3    H129058   1.377   0.701   5.003
 9698TIP3    H229059   1.330   0.802   5.106
 9699TIP3   OH229060   1.189   4.221   1.102
 9699TIP3    H129061   1.254   4.206   1.034
 9699TIP3    H229062   1.128   4.147   1.095
 9700TIP3   OH229063   2.957   0.881   0.301
 9700TIP3    H129064   2.907   0.826   0.240
 9700TIP3    H229065   2.989   0.953   0.248
 9701TIP3   OH229066   1.236   5.193   1.291
 9701TIP3    H129067   1.203   5.229   1.373
 9701TIP3    H229068   1.166   5.210   1.228
 9702TIP3   OH229069   6.085   2.482   4.911
 9702TIP3    H129070   6.080   2.513   5.002
 9702TIP3    H229071   6.064   2.560   4.858
 9703TIP3   OH229072   6.922   1.187   5.749
 9703TIP3    H129073   6.964   1.198   5.834
 9703TIP3    H229074   6.933   1.272   5.706
 9704TIP3   OH229075   2.251   3.135   4.822
 9704TIP3    H129076   2.222   3.154   4.911
 9704TIP3    H229077   2.176   3.160   4.767
 9705TIP3   OH229078   2.712   4.109   2.873
 9705TIP3    H129079   2.679   4.112   2.962
 9705TIP3    H229080   2.805   4.133   2.881
 9706TIP3   OH229081   0.005   2.970   0.479
 9706TIP3    H129082   0.091   2.956   0.518
 9706TIP3    H229083   0.023   2.976   0.385
 9707TIP3   OH229084   1.681   2.094   2.072
 9707TIP3    H129085   1.606   2.132   2.119
 9707TIP3    H229086   1.739   2.169   2.055
 9708TIP3   OH229087   6.706   4.745   2.181
 9708TIP3    H129088   6.679   4.837   2.185
 9708TIP3    H229089   6.671   4.713   2.097
 9709TIP3   OH229090   2.676   3.492   5.253
 9709TIP3    H129091   2.756   3.543   5.241
 9709TIP3    H229092   2.606   3.552   5.228
 9710TIP3   OH229093   4.467   6.217   0.331
 9710TIP3    H129094   4.528   6.184   0.397
 9710TIP3    H229095   4.508   6.299   0.300
 9711TIP3   OH229096   6.747   2.792   2.027
 9711TIP3    H129097   6.654   2.802   2.004
 9711TIP3    H229098   6.781   2.881   2.031
 9712TIP3   OH229099   2.009   6.612   3.520
 9712TIP3    H129100   1.939   6.630   3.583
 9712TIP3    H229101   2.052   6.697   3.507
 9713TIP3   OH229102   5.439   1.671   2.536
 9713TIP3    H129103   5.403   1.729   2.604
 9713TIP3    H229104   5.393   1.697   2.456
 9714TIP3   OH229105   4.398   0.730   0.855
 9714TIP3    H129106   4.366   0.710   0.943
 9714TIP3    H229107   4.359   0.816   0.834
 9715TIP3   OH229108   1.859   4.033   5.200
 9715TIP3    H129109   1.937   4.000   5.245
 9715TIP3    H229110   1.814   4.086   5.266
 9716TIP3   OH229111   0.334   5.186   2.175
 9716TIP3    H129112   0.276   5.244   2.225
 9716TIP3    H229113   0.361   5.119   2.237
 9717TIP3   OH229114   0.691   4.805   0.632
 9717TIP3    H129115   0.608   4.773   0.597
 9717TIP3    H229116   0.693   4.898   0.610
 9718TIP3   OH229117   3.926   1.660   4.734
 9718TIP3    H129118   3.849   1.700   4.693
 9718TIP3    H229119   3.890   1.589   4.787
 9719TIP3   OH229120   6.357   2.542   1.250
 9719TIP3    H129121   6.281   2.484   1.251
 9719TIP3    H229122   6.340   2.604   1.321
 9720TIP3   OH229123   0.302   2.924   2.933
 9720TIP3    H129124   0.243   2.959   3.000
 9720TIP3    H229125   0.292   2.983   2.858
 9721TIP3   OH229126   5.805   2.766   3.700
 9721TIP3    H129127   5.734   2.728   3.649
 9721TIP3    H229128   5.775   2.759   3.791
 9722TIP3   OH229129   2.355   3.836   3.192
 9722TIP3    H129130   2.262   3.845   3.210
 9722TIP3    H229131   2.395   3.911   3.236
 9723TIP3   OH229132   6.902   5.084   5.219
 9723TIP3    H129133   6.841   5.141   5.173
 9723TIP3    H229134   6.984   5.092   5.170
 9724TIP3   OH229135   3.194   0.941   3.082
 9724TIP3    H129136   3.275   0.911   3.041
 9724TIP3    H229137   3.198   1.037   3.073
 9725TIP3   OH229138   5.913   2.107   0.151
 9725TIP3    H129139   5.909   2.048   0.076
 9725TIP3    H229140   5.922   2.194   0.112
 9726TIP3   OH229141   2.389   4.315   4.628
 9726TIP3    H129142   2.385   4.353   4.540
 9726TIP3    H229143   2.350   4.228   4.618
 9727TIP3   OH229144   1.601   5.498   5.504
 9727TIP3    H129145   1.527   5.451   5.465
 9727TIP3    H229146   1.574   5.515   5.594
 9728TIP3   OH229147   2.446   6.729   1.610
 9728TIP3    H129148   2.378   6.697   1.669
 9728TIP3    H229149   2.439   6.673   1.533
 9729TIP3   OH229150   2.040   2.545   0.047
 9729TIP3    H129151   2.070   2.610  -0.016
 9729TIP3    H229152   2.085   2.464   0.021
 9730TIP3   OH229153   2.418   0.193   4.484
 9730TIP3    H129154   2.503   0.192   4.528
 9730TIP3    H229155   2.387   0.103   4.488
 9731TIP3   OH229156   1.176   2.798   2.958
 9731TIP3    H129157   1.094   2.751   2.974
 9731TIP3    H229158   1.193   2.785   2.865
 9732TIP3   OH229159   3.972   0.773   4.934
 9732TIP3    H129160   4.010   0.859   4.915
 9732TIP3    H229161   3.923   0.786   5.015
 9733TIP3   OH229162   3.796   2.991   5.511
 9733TIP3    H129163   3.757   3.033   5.435
 9733TIP3    H229164   3.878   2.953   5.478
 9734TIP3   OH229165   1.457   2.341   1.697
 9734TIP3    H129166   1.362   2.337   1.691
 9734TIP3    H229167   1.484   2.386   1.617
 9735TIP3   OH229168   6.335   5.560   2.718
 9735TIP3    H129169   6.306   5.648   2.692
 9735TIP3    H229170   6.333   5.561   2.813
 9736TIP3   OH229171   5.346   3.806   4.868
 9736TIP3    H129172   5.409   3.877   4.881
 9736TIP3    H229173   5.305   3.825   4.784
 9737TIP3   OH229174   0.067   6.450   5.767
 9737TIP3    H129175   0.126   6.442   5.692
 9737TIP3    H229176   0.061   6.362   5.803
 9738TIP3   OH229177   6.321   4.174   1.278
 9738TIP3    H129178   6.310   4.227   1.199
 9738TIP3    H229179   6.320   4.238   1.349
 9739TIP3   OH229180   0.001   2.160   1.881
 9739TIP3    H129181   0.040   2.248   1.879
 9739TIP3    H229182   0.076   2.101   1.873
 9740TIP3   OH229183   5.823   2.970   2.337
 9740TIP3    H129184   5.916   2.966   2.359
 9740TIP3    H229185   5.803   2.883   2.302
 9741TIP3   OH229186   2.177   0.586   4.869
 9741TIP3    H129187   2.269   0.611   4.883
 9741TIP3    H229188   2.155   0.623   4.784
 9742TIP3   OH229189   7.146   0.849   0.044
 9742TIP3    H129190   7.118   0.790   0.114
 9742TIP3    H229191   7.232   0.880   0.071
 9743TIP3   OH229192   0.942   4.910   4.460
 9743TIP3    H129193   0.957   4.862   4.378
 9743TIP3    H229194   0.937   5.002   4.434
 9744TIP3   OH229195   1.466   4.063   0.171
 9744TIP3    H129196   1.541   4.023   0.214
 9744TIP3    H229197   1.437   3.997   0.108
 9745TIP3   OH229198   6.901   3.035   4.722
 9745TIP3    H129199   6.834   3.087   4.678
 9745TIP3    H229200   6.956   3.001   4.652
 9746TIP3   OH229201   6.315   3.192   3.818
 9746TIP3    H129202   6.267   3.190   3.735
 9746TIP3    H229203   6.406   3.177   3.793
 9747TIP3   OH229204   7.083   4.630   3.147
 9747TIP3    H129205   7.062   4.540   3.175
 9747TIP3    H229206   7.002   4.679   3.162
 9748TIP3   OH229207   4.518   6.338   4.871
 9748TIP3    H129208   4.565   6.412   4.833
 9748TIP3    H229209   4.426   6.367   4.874
 9749TIP3   OH229210   1.195   2.343   3.304
 9749TIP3    H129211   1.124   2.393   3.265
 9749TIP3    H229212   1.151   2.271   3.350
   7.21220   6.79974   5.88873   0.00000   0.00000  -2.40407   0.00000  -2.40407  -3.39987
