Title
29212
    1ASP      N    1   2.298   2.955   5.409 -0.6515 -0.2488  0.1821
    1ASP    HT1    2   2.203   2.920   5.430  0.6612 -3.1071  2.0231
    1ASP    HT2    3   2.290   3.058   5.413 -0.1182 -0.1429 -1.1292
    1ASP    HT3    4   2.359   2.918   5.485  1.6455 -1.3482 -2.0659
    1ASP     CA    5   2.354   2.911   5.279 -0.3921 -0.2031 -0.4553
    1ASP     HA    6   2.351   2.803   5.271 -0.2417 -0.1967 -0.6139
    1ASP     CB    7   2.271   2.982   5.164  0.1784  0.2581  0.3711
    1ASP    HB1    8   2.325   2.974   5.068 -1.4802  1.2597 -0.6940
    1ASP    HB2    9   2.264   3.092   5.180 -2.1813  0.4345 -1.2709
    1ASP     CG   10   2.137   2.918   5.145  0.1831  0.7894  0.2308
    1ASP    OD1   11   2.062   2.954   5.050 -0.8687 -0.3025 -0.5872
    1ASP    OD2   12   2.098   2.830   5.227 -0.0156  0.3307 -0.1299
    1ASP      C   13   2.498   2.955   5.271  0.0809 -0.5740 -0.1820
    1ASP      O   14   2.528   3.070   5.280 -0.0177  0.1672  0.7858
    2GLY      N   15   2.592   2.859   5.253  0.7130 -0.3760  0.2420
    2GLY     HN   16   2.567   2.764   5.238  0.7143 -0.4741  0.8346
    2GLY     CA   17   2.731   2.884   5.236 -0.1973  0.3238  0.1770
    2GLY    HA1   18   2.770   2.784   5.231  0.1778  0.2195  3.0685
    2GLY    HA2   19   2.761   2.935   5.327  1.5248 -0.4935  0.1080
    2GLY      C   20   2.770   2.973   5.112  0.2902  0.2360  0.2846
    2GLY      O   21   2.694   2.980   5.016  0.2953 -0.5399  0.2044
    3ASP      N   22   2.888   3.041   5.110  0.3714  0.0124  0.2457
    3ASP     HN   23   2.951   3.056   5.186  0.4212  3.0418 -0.2878
    3ASP     CA   24   2.916   3.124   4.990  0.4565  0.8572 -0.2016
    3ASP     HA   25   2.833   3.193   4.985 -1.5861 -1.4430  0.1829
    3ASP     CB   26   3.043   3.207   5.021  0.4399 -0.5027  0.7899
    3ASP    HB1   27   3.072   3.249   4.922 -3.1082  1.3022  0.3699
    3ASP    HB2   28   3.118   3.134   5.058  2.5812  1.3806  0.4220
    3ASP     CG   29   3.026   3.316   5.122  0.5097 -0.3236  0.2551
    3ASP    OD1   30   2.912   3.360   5.152 -0.1600  0.2823 -0.2198
    3ASP    OD2   31   3.131   3.375   5.162 -0.1195 -0.3988 -0.0155
    3ASP      C   32   2.924   3.055   4.854  0.7178 -0.0627 -0.3341
    3ASP      O   33   3.005   2.968   4.842  0.1320 -0.4428  0.2971
    4GLY      N   34   2.841   3.087   4.753  0.7443  0.2580 -0.2941
    4GLY     HN   35   2.789   3.171   4.762  0.4517  0.1636 -1.0351
    4GLY     CA   36   2.846   3.021   4.621  0.1828  0.1484  0.2679
    4GLY    HA1   37   2.753   3.050   4.575 -0.0123  0.5933  0.9441
    4GLY    HA2   38   2.860   2.914   4.635 -0.9827 -0.5780 -3.1943
    4GLY      C   39   2.967   3.073   4.533  0.3762  0.5139  0.4456
    4GLY      O   40   3.031   3.173   4.563  0.7814  0.2215 -0.2082
    5PRO      N   41   2.995   3.005   4.425  0.3282 -0.0411 -0.2316
    5PRO     CD   42   2.926   2.876   4.394 -0.5020  0.1047 -0.6525
    5PRO    HD1   43   2.818   2.884   4.414 -0.6600 -0.2581 -1.3340
    5PRO    HD2   44   2.980   2.800   4.455  0.4298  1.3324  0.1032
    5PRO     CA   45   3.073   3.051   4.311 -0.0365  0.3588 -0.3662
    5PRO     HA   46   3.166   3.079   4.359 -0.4389 -1.3027  1.4779
    5PRO     CB   47   3.073   2.930   4.217  0.3884 -0.3547  0.5781
    5PRO    HB1   48   3.152   2.858   4.245  0.6985  0.3947  1.6767
    5PRO    HB2   49   3.076   2.956   4.109 -0.7744  0.5719  0.7420
    5PRO     CG   50   2.947   2.855   4.246 -0.0202 -1.0673  0.2252
    5PRO    HG1   51   2.858   2.896   4.194 -1.0451 -1.6568  1.4526
    5PRO    HG2   52   2.959   2.748   4.220  2.3570 -1.1474  1.3698
    5PRO      C   53   3.014   3.169   4.251  0.8919  0.5381  1.0613
    5PRO      O   54   2.891   3.180   4.236 -0.5355  0.1508 -1.2577
    6GLY      N   55   3.103   3.258   4.205 -0.6776 -0.4589 -0.6903
    6GLY     HN   56   3.200   3.251   4.228 -0.8201  0.8676  0.4447
    6GLY     CA   57   3.088   3.384   4.131  0.2059  0.1601 -0.3466
    6GLY    HA1   58   3.189   3.422   4.127 -0.1803  1.2050 -0.6120
    6GLY    HA2   59   3.023   3.448   4.189  0.3571  0.8457 -0.9206
    6GLY      C   60   3.033   3.361   3.997  0.1716 -0.1607  0.3348
    6GLY      O   61   3.017   3.249   3.947 -0.1795  0.5279  0.2609
    7ASP      N   62   3.009   3.476   3.931  0.4748  0.3974 -0.1639
    7ASP     HN   63   3.031   3.556   3.985 -3.1465  1.5583 -0.1451
    7ASP     CA   64   2.945   3.488   3.801  0.6178 -0.9303 -0.0006
    7ASP     HA   65   2.849   3.439   3.802 -1.3983  2.7082  0.3219
    7ASP     CB   66   2.924   3.644   3.785  0.6148  0.3216 -0.5861
    7ASP    HB1   67   2.891   3.668   3.682 -2.6460  1.2203  0.5283
    7ASP    HB2   68   3.023   3.693   3.797  0.3091  0.3991  2.2713
    7ASP     CG   69   2.829   3.709   3.881  0.7528 -0.4813 -0.0461
    7ASP    OD1   70   2.843   3.831   3.905  0.4598  0.3970  0.6496
    7ASP    OD2   71   2.729   3.647   3.926  0.7950  0.2019  0.2034
    7ASP      C   72   3.036   3.435   3.690  0.7123  0.4758  0.0299
    7ASP      O   73   3.150   3.478   3.681  0.2409  0.1320 -1.0600
    8PRO      N   74   2.994   3.348   3.595 -0.2247  0.3215  0.6640
    8PRO     CD   75   2.862   3.289   3.589  0.1971 -0.1995 -0.1890
    8PRO    HD1   76   2.783   3.363   3.615  2.3100  2.1157  0.0269
    8PRO    HD2   77   2.871   3.203   3.659  4.1558  0.8129  0.8025
    8PRO     CA   78   3.077   3.324   3.478 -0.3442  0.2720  0.3711
    8PRO     HA   79   3.177   3.290   3.499  0.2021  1.1438 -0.7182
    8PRO     CB   80   2.996   3.214   3.404  0.2702  0.3119  0.3323
    8PRO    HB1   81   3.021   3.114   3.446  0.2988 -1.5520 -3.6400
    8PRO    HB2   82   3.012   3.200   3.295  1.3119 -2.7101  0.7827
    8PRO     CG   83   2.851   3.237   3.440 -0.0660  0.2431  1.0292
    8PRO    HG1   84   2.809   3.318   3.377 -0.0093 -2.0149 -2.1654
    8PRO    HG2   85   2.785   3.148   3.440  1.2459 -0.8565  3.7360
    8PRO      C   86   3.101   3.448   3.397  0.4321 -0.2128 -0.5453
    8PRO      O   87   3.016   3.540   3.402  0.7350 -0.1879 -0.3019
    9GLY      N   88   3.212   3.451   3.324  0.2478 -0.3563 -0.0261
    9GLY     HN   89   3.267   3.367   3.327 -1.9238 -1.8610  0.0912
    9GLY     CA   90   3.241   3.561   3.231 -1.0470 -0.0935 -0.5236
    9GLY    HA1   91   3.348   3.563   3.221 -0.9323  1.1902  0.6414
    9GLY    HA2   92   3.199   3.647   3.282 -1.9228 -1.1289  0.5779
    9GLY      C   93   3.174   3.552   3.099 -0.0645 -0.0724 -0.0525
    9GLY      O   94   3.065   3.500   3.081 -0.7570  0.5063 -0.2703
   10ASP      N   95   3.239   3.610   2.998 -0.3167  0.8814  0.1187
   10ASP     HN   96   3.327   3.652   3.017  1.2514 -2.5961  1.5012
   10ASP     CA   97   3.180   3.633   2.861  0.2699 -0.1564  0.0051
   10ASP     HA   98   3.090   3.688   2.882  1.2794  0.7439  2.3213
   10ASP     CB   99   3.282   3.726   2.771  0.1354  0.1419 -0.0460
   10ASP    HB1  100   3.258   3.740   2.664 -1.0099 -0.8320  0.0608
   10ASP    HB2  101   3.381   3.675   2.774 -0.2478 -1.0288 -3.3238
   10ASP     CG  102   3.300   3.864   2.831 -0.5030  0.3867  0.1407
   10ASP    OD1  103   3.236   3.889   2.935 -0.1477 -0.0384 -0.5839
   10ASP    OD2  104   3.375   3.944   2.778  0.0963  0.4367 -0.1221
   10ASP      C  105   3.152   3.503   2.783  0.2871 -0.0173 -0.1592
   10ASP      O  106   3.222   3.402   2.801 -0.0544 -0.0008 -0.1551
   11GLY      N  107   3.041   3.499   2.698 -0.4063  0.0605 -0.3805
   11GLY     HN  108   2.992   3.585   2.705  0.3140  0.4456  0.0572
   11GLY     CA  109   2.977   3.391   2.617 -0.1712  0.2527  0.1817
   11GLY    HA1  110   2.969   3.304   2.680 -0.3693 -1.2180 -1.7984
   11GLY    HA2  111   3.044   3.371   2.535 -2.4429  0.8850 -1.9330
   11GLY      C  112   2.837   3.432   2.563  0.3861 -0.2413  0.3464
   11GLY    OT1  113   2.737   3.385   2.622  0.0103  0.6756 -0.1814
   11GLY    OT2  114   2.817   3.509   2.463 -0.4625  0.7563  0.3893
   12SOD    SOD  115   0.478   5.730   0.847 -0.0043 -0.0526 -0.6653
   13SOD    SOD  116   4.038   6.095   5.461 -0.0872  0.7904  0.3829
   14SOD    SOD  117   1.869   2.471   0.352  0.5586 -0.4729  0.2000
   15SOD    SOD  118   2.777   6.046   4.410  0.0236 -0.0215 -0.2208
   16SOD    SOD  119   1.625   2.273   2.638  0.4524 -0.5183 -0.1122
   17SOD    SOD  120   3.320   3.353   5.528  0.1944 -0.0057 -0.2863
   18SOD    SOD  121   3.680   2.585   5.386 -0.0797  0.0206 -0.1056
   19SOD    SOD  122   3.500   1.283   0.781  0.1386  0.1412  0.1905
   20SOD    SOD  123   6.751   4.516   4.017 -0.5511  0.9994 -0.0293
   21SOD    SOD  124   5.947   6.657   4.984 -0.0223  0.4257 -0.0033
   22SOD    SOD  125   5.647   0.614   3.687  0.0910 -0.0385  0.4438
   23SOD    SOD  126   2.610   3.465   5.446  0.2880  0.2288  0.5843
   24SOD    SOD  127   5.657   2.345   0.978  0.0443 -0.0826  0.1051
   25SOD    SOD  128   2.151   0.072   4.543  0.3001 -0.1448  0.3764
   26SOD    SOD  129   5.970   3.025   2.874  0.3594  0.4729 -0.3709
   27SOD    SOD  130   4.600   1.808   5.803  0.1711  0.5878 -0.0972
   28SOD    SOD  131   3.826   5.476   1.754  0.4163 -0.3938  0.2017
   29SOD    SOD  132   7.104   0.188   4.033  0.1065 -0.2539  0.2246
   30SOD    SOD  133   0.512   1.222   2.785  0.4538  0.0437  0.2246
   31SOD    SOD  134   2.663   1.734   5.557  0.3790  0.2572  0.5592
   32SOD    SOD  135   5.290   6.161   3.965 -0.2641  0.2993 -0.4266
   33SOD    SOD  136   1.847   3.135   3.124  0.0479  0.2052 -0.2728
   34SOD    SOD  137   0.084   3.777   5.334  0.0213 -0.2786  0.3077
   35SOD    SOD  138   4.165   4.426   3.376 -0.2563 -0.5236 -0.1123
   36SOD    SOD  139   6.471   1.963   3.387 -0.0642 -0.9187  0.1075
   37SOD    SOD  140   0.041   3.393   0.732 -0.3182 -0.6172 -0.3385
   38SOD    SOD  141   2.747   3.156   1.878  0.3790  0.6651 -0.5073
   39SOD    SOD  142   2.710   0.358   4.179  0.3242 -0.7721  0.3544
   40SOD    SOD  143   1.885   3.793   0.465  0.4759 -0.1177 -0.3253
   41SOD    SOD  144   0.093   6.040   1.196 -0.6466  0.5777 -0.0095
   42SOD    SOD  145   6.537   2.624   5.865 -0.3445  0.1579  0.0211
   43CLA    CLA  146   1.438   4.971   4.251 -0.1410 -0.0133  0.1704
   44CLA    CLA  147   3.874   3.786   3.378 -0.2681 -0.2005 -0.3420
   45CLA    CLA  148   0.456   1.289   5.438 -0.2246 -0.2443  0.1445
   46CLA    CLA  149   6.459   2.553   3.244 -0.0651  0.0572 -0.2186
   47CLA    CLA  150   4.648   5.851   4.602  0.2979  0.5872 -0.1924
   48CLA    CLA  151   6.303   0.049   3.490  0.0517  0.1480 -0.3065
   49CLA    CLA  152   0.959   5.817   0.058 -0.2420  0.0236 -0.1228
   50CLA    CLA  153   4.635   0.747   3.185 -0.4318  0.1245 -0.3823
   51CLA    CLA  154   5.747   4.485   2.975 -0.6413  0.2662  0.7820
   52CLA    CLA  155   6.071   0.484   4.001 -0.3133 -0.0373 -0.2556
   53CLA    CLA  156   0.117   3.767   5.787  0.4955 -0.2913 -0.1224
   54CLA    CLA  157   3.483   0.393   2.895  0.2130  0.2010  0.1747
   55CLA    CLA  158   6.211   6.233   0.835 -0.2659  0.5190 -0.0252
   56CLA    CLA  159   3.790   3.058   4.980 -0.1645 -0.3760 -0.0410
   57CLA    CLA  160   4.527   5.049   0.833 -0.0446 -0.0138 -0.0645
   58CLA    CLA  161   7.060   2.332   4.739  0.0758  0.2632 -0.0168
   59CLA    CLA  162   6.572   6.606   3.751  0.0814  0.1834 -0.3864
   60CLA    CLA  163   5.526   2.479   3.408 -0.1790 -0.0472  0.0429
   61CLA    CLA  164   5.029   4.607   0.764  0.0585  0.5484  0.2783
   62CLA    CLA  165   6.751   2.933   5.056 -0.1192 -0.0990 -0.0375
   63CLA    CLA  166   2.539   2.445   5.517 -0.3424  0.1267 -0.2159
   64CLA    CLA  167   1.933   5.406   1.053  0.3392  0.2999  0.1894
   65CLA    CLA  168   2.801   0.365   3.586  0.2970 -0.1530  0.0424
   66CLA    CLA  169   5.546   6.412   1.733 -0.1406 -0.3727  0.0275
   67CLA    CLA  170   6.303   5.442   1.399  0.1884  0.2414 -0.1168
   68CLA    CLA  171   1.928   2.611   1.819 -0.0377 -0.1935 -0.2439
   69CLA    CLA  172   2.412   2.929   0.991  0.2828  0.0811 -0.4073
   70TIP3   OH2  173   0.001   6.301   2.492  0.2230  0.2490 -0.8643
   70TIP3    H1  174   0.091   6.278   2.514 -0.9797 -1.4710  3.2562
   70TIP3    H2  175  -0.007   6.393   2.516  0.6764  0.1827 -0.4498
   71TIP3   OH2  176   5.152   4.147   2.255 -0.3641  0.2581  0.7868
   71TIP3    H1  177   5.213   4.206   2.210 -0.9027 -0.8509 -1.6022
   71TIP3    H2  178   5.195   4.062   2.252 -0.8391 -0.0128  1.5608
   72TIP3   OH2  179   3.265   3.364   1.081  0.1516 -0.1134  0.2075
   72TIP3    H1  180   3.172   3.376   1.097  0.6359  0.6951  3.0403
   72TIP3    H2  181   3.282   3.412   1.000 -1.6438  1.1027  0.4895
   73TIP3   OH2  182   2.349   1.888   3.384 -0.2782  0.0865 -0.4898
   73TIP3    H1  183   2.391   1.802   3.385  1.5738  0.9457 -1.0140
   73TIP3    H2  184   2.257   1.870   3.404 -0.1611 -2.1398 -1.6808
   74TIP3   OH2  185   2.690   3.079   1.444 -0.3800  1.0260  0.6689
   74TIP3    H1  186   2.633   3.015   1.401 -1.2496  1.3161  1.3616
   74TIP3    H2  187   2.739   3.120   1.372  0.5324 -0.7143  0.2453
   75TIP3   OH2  188   4.100   1.362   2.792  0.1751 -0.4763  0.1588
   75TIP3    H1  189   4.038   1.395   2.857  1.0942 -0.4242  1.0404
   75TIP3    H2  190   4.046   1.337   2.718 -0.7581  0.9130  0.3305
   76TIP3   OH2  191   0.793   5.901   5.785 -0.7432 -0.0613 -0.1582
   76TIP3    H1  192   0.740   5.829   5.820 -1.5198 -1.0884 -3.1528
   76TIP3    H2  193   0.729   5.966   5.758 -0.1787  0.6306  0.1440
   77TIP3   OH2  194   1.400   6.681   0.199  0.0055  0.6835 -0.4984
   77TIP3    H1  195   1.369   6.755   0.145 -1.4908  1.0807  0.8408
   77TIP3    H2  196   1.402   6.715   0.288 -0.2985 -0.7890  0.0960
   78TIP3   OH2  197   4.613   6.746   2.203  0.0781 -0.1286  0.1443
   78TIP3    H1  198   4.541   6.771   2.144 -0.3609 -1.8247 -0.0874
   78TIP3    H2  199   4.619   6.651   2.195 -0.1977 -0.4892  3.0917
   79TIP3   OH2  200   1.471   0.058   0.553 -0.4086 -0.0734  0.5267
   79TIP3    H1  201   1.450   0.034   0.463  0.1618  0.9018  0.1029
   79TIP3    H2  202   1.496  -0.024   0.595  0.3042 -0.4134 -0.5013
   80TIP3   OH2  203   4.826   1.159   5.148 -0.3313 -0.2024  0.0165
   80TIP3    H1  204   4.867   1.210   5.218 -0.5105 -0.3719  0.2453
   80TIP3    H2  205   4.792   1.224   5.088  1.0509 -0.0418 -0.6455
   81TIP3   OH2  206   1.496   0.221   4.870  0.0765  0.3695  0.3114
   81TIP3    H1  207   1.500   0.218   4.965  1.5706  0.5048  0.2695
   81TIP3    H2  208   1.429   0.157   4.846  0.6336 -0.6352  1.3852
   82TIP3   OH2  209   1.994   4.534   2.420  0.0471 -0.0734 -0.0775
   82TIP3    H1  210   2.072   4.531   2.476  0.5011  0.6184 -0.6431
   82TIP3    H2  211   1.931   4.587   2.469 -0.0523 -0.6026  0.3663
   83TIP3   OH2  212   6.216   1.234   0.122 -0.0230 -0.3515  0.2350
   83TIP3    H1  213   6.233   1.287   0.044 -1.4988 -1.1521 -0.6567
   83TIP3    H2  214   6.229   1.144   0.093  1.1431 -0.5927  1.3996
   84TIP3   OH2  215   1.688   4.689   4.686  0.3003  0.1201  1.0577
   84TIP3    H1  216   1.684   4.744   4.608  1.8348  2.0891  2.2679
   84TIP3    H2  217   1.746   4.617   4.662  0.3080  0.3932  0.2236
   85TIP3   OH2  218   0.608   2.065   5.380  0.1646 -0.0843  0.5037
   85TIP3    H1  219   0.544   2.131   5.409  0.0281  0.8540 -1.7311
   85TIP3    H2  220   0.678   2.116   5.339  0.2043 -1.2727 -1.0262
   86TIP3   OH2  221   5.248   1.165   3.753  0.1554  0.2061 -0.8708
   86TIP3    H1  222   5.270   1.072   3.756 -0.2337  0.0802 -1.6954
   86TIP3    H2  223   5.314   1.203   3.695  1.2273  0.7278  0.6199
   87TIP3   OH2  224   6.345   3.494   1.474  0.0118  0.1257 -0.0334
   87TIP3    H1  225   6.273   3.437   1.447  0.7883 -0.7856 -0.2266
   87TIP3    H2  226   6.329   3.510   1.567 -0.5101  0.0510 -0.1048
   88TIP3   OH2  227   0.357   3.503   4.528 -0.4621 -0.0506 -0.1170
   88TIP3    H1  228   0.268   3.540   4.530 -0.4902 -0.1031 -0.3806
   88TIP3    H2  229   0.401   3.543   4.603 -0.2842  1.0507 -0.7865
   89TIP3   OH2  230   4.531   3.946   3.507  0.2395  0.0480  0.2436
   89TIP3    H1  231   4.442   3.936   3.473 -0.7386  1.3345  2.2674
   89TIP3    H2  232   4.533   3.891   3.585  0.0155  2.6651  2.2036
   90TIP3   OH2  233   4.582   2.688   4.068  0.5657 -0.1663 -0.5510
   90TIP3    H1  234   4.563   2.598   4.096  0.5529  0.1586  0.5540
   90TIP3    H2  235   4.500   2.720   4.032  0.3545 -0.3491 -0.2352
   91TIP3   OH2  236   2.621   6.143   0.454  0.0638 -0.1424 -0.4314
   91TIP3    H1  237   2.669   6.140   0.371  0.8217 -0.6823  0.0155
   91TIP3    H2  238   2.668   6.082   0.511  0.3214  1.1592  0.8052
   92TIP3   OH2  239   6.961   4.433   3.450 -0.2245  0.2568  0.5309
   92TIP3    H1  240   6.868   4.428   3.473 -0.2559  0.4671  0.4549
   92TIP3    H2  241   6.979   4.352   3.403  0.1173 -0.7298  2.2717
   93TIP3   OH2  242   2.753   6.671   3.184  0.5306 -0.6024 -0.5452
   93TIP3    H1  243   2.674   6.673   3.239  0.1522 -1.3210 -1.0409
   93TIP3    H2  244   2.826   6.677   3.246  0.0923 -0.1629 -0.0600
   94TIP3   OH2  245   4.584   1.769   1.596 -0.1658  0.1919 -0.0152
   94TIP3    H1  246   4.516   1.731   1.540 -2.0295  0.5329  1.8578
   94TIP3    H2  247   4.648   1.806   1.536 -2.2738  0.9395 -1.9173
   95TIP3   OH2  248   6.293   4.878   0.732  0.5972 -0.0809  0.5188
   95TIP3    H1  249   6.210   4.923   0.748  1.1824  0.6114  1.7550
   95TIP3    H2  250   6.319   4.906   0.645  1.0644  2.2609  1.3303
   96TIP3   OH2  251   6.127   6.597   0.059  0.0060  0.0075 -0.4523
   96TIP3    H1  252   6.039   6.631   0.077 -0.6129 -1.9137  0.3845
   96TIP3    H2  253   6.183   6.642   0.122 -0.6518  0.0647  0.1070
   97TIP3   OH2  254   2.125   4.331   0.023 -0.1238 -0.1174 -0.0463
   97TIP3    H1  255   2.096   4.341   0.114  0.6548  0.4215  0.1500
   97TIP3    H2  256   2.188   4.403   0.010  0.2035 -0.5389 -0.8316
   98TIP3   OH2  257   1.560   3.411   4.916 -0.1636  0.3838 -0.5537
   98TIP3    H1  258   1.600   3.325   4.926  1.5109  1.0959 -0.8400
   98TIP3    H2  259   1.631   3.473   4.931 -1.2816  1.7237 -0.5825
   99TIP3   OH2  260   7.163   1.164   1.855  0.0857  0.2886  0.2489
   99TIP3    H1  261   7.197   1.250   1.830  0.2190  0.3889  0.7496
   99TIP3    H2  262   7.072   1.163   1.823 -0.8311  1.6971  2.5468
  100TIP3   OH2  263   3.848   6.705   1.589  0.0704 -0.3042  0.1284
  100TIP3    H1  264   3.777   6.644   1.568 -0.0986  0.5611 -2.0053
  100TIP3    H2  265   3.817   6.790   1.558  1.3916  0.3926  0.6551
  101TIP3   OH2  266   3.538   4.291   1.851 -0.1894  0.3962  0.0702
  101TIP3    H1  267   3.599   4.222   1.875 -1.0381 -0.4179 -0.0452
  101TIP3    H2  268   3.589   4.372   1.857  1.0820 -0.3168 -0.7165
  102TIP3   OH2  269   3.915   1.881   0.473 -0.1065 -0.4498  0.0774
  102TIP3    H1  270   3.869   1.960   0.504 -0.1849 -1.1263  1.8150
  102TIP3    H2  271   3.908   1.885   0.378 -0.3307  1.5093  0.1254
  103TIP3   OH2  272   3.632   0.120   2.181  0.1655  0.1058  0.0583
  103TIP3    H1  273   3.685   0.074   2.246  0.4862 -0.0446 -0.3021
  103TIP3    H2  274   3.695   0.170   2.130 -0.2096  1.1969  0.6372
  104TIP3   OH2  275   3.755   5.210   2.084 -0.2414  0.3001 -0.2797
  104TIP3    H1  276   3.691   5.224   2.154 -0.3168 -1.5477  0.0689
  104TIP3    H2  277   3.831   5.172   2.127  1.0056  2.0955 -0.7591
  105TIP3   OH2  278   6.265   4.152   0.056 -0.0091  0.3060  0.0372
  105TIP3    H1  279   6.268   4.213  -0.017 -0.2118  1.3816  0.8920
  105TIP3    H2  280   6.172   4.128   0.063  0.2282 -1.0394 -1.0149
  106TIP3   OH2  281   1.741   4.933   3.163  0.4856  0.2183  0.4541
  106TIP3    H1  282   1.823   4.956   3.119 -0.4437  1.8219 -0.5710
  106TIP3    H2  283   1.689   4.888   3.096  0.6795 -1.2127  1.2356
  107TIP3   OH2  284   4.365   4.957   4.222  1.1271  0.2808 -0.0663
  107TIP3    H1  285   4.399   4.953   4.133 -1.4116  0.0895 -1.1342
  107TIP3    H2  286   4.425   5.016   4.268  1.5198  1.8712 -2.4065
  108TIP3   OH2  287   6.217   0.702   4.730 -0.1099  0.4326  0.1121
  108TIP3    H1  288   6.212   0.699   4.634 -2.5779 -1.6307  0.1818
  108TIP3    H2  289   6.297   0.750   4.749  0.2230  1.2861 -2.9791
  109TIP3   OH2  290   5.994   3.251   4.953  0.1080 -0.1195 -0.1883
  109TIP3    H1  291   5.960   3.291   5.033 -1.0283  0.0235 -0.7288
  109TIP3    H2  292   5.917   3.218   4.908  0.9708 -3.1319  0.2921
  110TIP3   OH2  293   6.250   5.066   2.863  0.0008 -0.0369 -0.2354
  110TIP3    H1  294   6.181   5.132   2.861 -0.0284 -0.0147  0.7941
  110TIP3    H2  295   6.305   5.085   2.788 -1.6483 -0.6503 -1.6654
  111TIP3   OH2  296   3.181   6.231   4.287  0.2632  0.1764  0.2465
  111TIP3    H1  297   3.191   6.218   4.193  0.5510  0.6323  0.2103
  111TIP3    H2  298   3.154   6.322   4.296 -1.8094 -0.4137  0.4863
  112TIP3   OH2  299   4.071   2.844   1.237 -0.4411 -0.3469  0.1617
  112TIP3    H1  300   4.035   2.926   1.268  0.1729  0.0345 -0.1149
  112TIP3    H2  301   4.003   2.807   1.181 -0.0902  0.7596 -1.0217
  113TIP3   OH2  302   4.834   2.901   2.135 -0.4417  0.3249 -0.1412
  113TIP3    H1  303   4.930   2.900   2.125 -0.1139  5.0098  0.2489
  113TIP3    H2  304   4.817   2.972   2.197 -4.2246 -0.6464  0.1881
  114TIP3   OH2  305   5.859   1.604   3.457  0.4350  0.4107  0.4059
  114TIP3    H1  306   5.907   1.563   3.528  0.8867  0.3968  0.0989
  114TIP3    H2  307   5.924   1.614   3.387 -0.5391 -1.6754 -0.8669
  115TIP3   OH2  308   2.509   5.019   5.164 -0.3983 -0.1103  0.0251
  115TIP3    H1  309   2.602   5.001   5.182 -0.1378 -2.3349 -2.7597
  115TIP3    H2  310   2.511   5.088   5.098 -1.0338  2.8837  2.8903
  116TIP3   OH2  311   6.254   0.703   0.971 -0.3191  0.1867 -0.3194
  116TIP3    H1  312   6.223   0.647   0.900 -2.1329  0.7073  0.0186
  116TIP3    H2  313   6.268   0.788   0.929 -0.4280  0.2419 -0.2419
  117TIP3   OH2  314   2.237   4.471   0.973  0.4062 -0.0795  0.2739
  117TIP3    H1  315   2.171   4.520   1.023  0.9381  0.5432  0.3774
  117TIP3    H2  316   2.287   4.538   0.927 -0.0757 -0.6379 -1.1311
  118TIP3   OH2  317   1.753   4.966   0.723  0.3859  0.2809 -0.0311
  118TIP3    H1  318   1.668   5.007   0.707  1.6069  2.3106 -1.9785
  118TIP3    H2  319   1.810   5.038   0.749  2.1762 -0.4490 -1.6762
  119TIP3   OH2  320   0.369   6.362   3.958 -0.2162  0.2802 -0.2632
  119TIP3    H1  321   0.334   6.274   3.974  0.2378 -0.2680 -2.0413
  119TIP3    H2  322   0.462   6.348   3.943  0.1788  1.3078  1.0882
  120TIP3   OH2  323   4.931   5.162   5.440  0.0789  0.1442 -0.0360
  120TIP3    H1  324   4.933   5.257   5.449 -1.2382  0.3579 -1.5445
  120TIP3    H2  325   4.851   5.135   5.485  0.1240 -0.1681 -0.1371
  121TIP3   OH2  326   2.468   5.372   1.055 -0.0506 -0.0018  0.6158
  121TIP3    H1  327   2.376   5.352   1.066 -0.0150  0.1387  1.1723
  121TIP3    H2  328   2.474   5.407   0.966 -0.6632  0.7029  0.8365
  122TIP3   OH2  329   3.367   3.470   5.291  0.3155  0.3179 -0.2759
  122TIP3    H1  330   3.432   3.477   5.222  0.1328  0.3935 -0.4407
  122TIP3    H2  331   3.289   3.434   5.248  0.6272 -0.9203  0.1689
  123TIP3   OH2  332   2.496   0.588   0.455 -0.4174 -0.5941 -0.2959
  123TIP3    H1  333   2.561   0.543   0.508 -1.4452  0.1861  1.7708
  123TIP3    H2  334   2.450   0.518   0.408 -1.5178 -1.7456  2.2787
  124TIP3   OH2  335   2.047   2.032   2.749 -0.5570  0.0106 -0.1634
  124TIP3    H1  336   2.049   2.049   2.655 -1.0005 -2.3827 -0.6794
  124TIP3    H2  337   1.957   2.004   2.767 -0.5424  0.6368  1.0321
  125TIP3   OH2  338   7.153   4.415   4.601 -0.0961 -0.6639 -0.0863
  125TIP3    H1  339   7.165   4.385   4.511 -1.0403 -2.1292  0.2343
  125TIP3    H2  340   7.239   4.445   4.628  0.8247 -2.6040 -0.6674
  126TIP3   OH2  341   4.260   0.046   1.708 -0.0828 -0.0664  0.1657
  126TIP3    H1  342   4.231   0.003   1.627 -1.0852  2.8217 -1.1193
  126TIP3    H2  343   4.217   0.131   1.707  2.0004  1.1242  2.4527
  127TIP3   OH2  344   2.937   0.699   2.175  0.3216  0.2648 -0.7347
  127TIP3    H1  345   2.901   0.777   2.133  0.1671  0.1705 -0.7767
  127TIP3    H2  346   2.943   0.722   2.267  0.2595  0.3206 -0.7446
  128TIP3   OH2  347   1.426   0.440   0.781  0.0339  0.1675  0.4234
  128TIP3    H1  348   1.493   0.381   0.816 -0.2730  0.6893  1.9888
  128TIP3    H2  349   1.398   0.491   0.857 -0.5617  1.4942 -0.6504
  129TIP3   OH2  350   4.290   5.489   2.517 -0.1841  0.3855 -0.0817
  129TIP3    H1  351   4.272   5.457   2.605  3.2634  1.3948  1.1453
  129TIP3    H2  352   4.304   5.410   2.465  1.4386 -0.2422  1.2285
  130TIP3   OH2  353   5.920   3.586   1.844 -0.0913  0.0638  0.3898
  130TIP3    H1  354   5.825   3.599   1.840  0.2576  3.3802 -0.4132
  130TIP3    H2  355   5.955   3.675   1.847  3.0140 -1.0755  0.6617
  131TIP3   OH2  356   1.668   0.482   2.988 -0.3037 -1.0019  0.6331
  131TIP3    H1  357   1.747   0.488   2.934  0.5634 -0.1731  1.9299
  131TIP3    H2  358   1.690   0.419   3.056 -0.9155 -1.0706  0.7732
  132TIP3   OH2  359   3.128   2.765   5.027  0.3183 -0.2927 -0.0020
  132TIP3    H1  360   3.091   2.840   4.980 -0.1474 -0.2330  0.4501
  132TIP3    H2  361   3.210   2.747   4.983  0.2537  0.2541 -0.3507
  133TIP3   OH2  362   2.424   1.986   0.568  0.2125  0.4401  0.7130
  133TIP3    H1  363   2.334   1.987   0.534  0.6368 -1.0521 -0.5894
  133TIP3    H2  364   2.435   2.073   0.607 -1.5439  0.9326  0.2519
  134TIP3   OH2  365   4.489   2.062   0.211  0.1448  0.1075 -0.4762
  134TIP3    H1  366   4.533   2.133   0.163 -0.6077  1.0198  0.1325
  134TIP3    H2  367   4.557   2.026   0.268  0.1762  1.4519  0.4061
  135TIP3   OH2  368   5.051   2.081   0.980 -0.4269 -0.4412 -0.6518
  135TIP3    H1  369   5.081   2.141   0.912  0.1585  0.8119  0.6601
  135TIP3    H2  370   5.111   2.096   1.053 -1.7107 -0.9276  0.5392
  136TIP3   OH2  371   2.112   1.725   0.420 -0.2498 -0.3791  0.1383
  136TIP3    H1  372   2.049   1.674   0.471 -1.3169 -0.4199 -1.1590
  136TIP3    H2  373   2.103   1.692   0.331  2.0957 -0.8093  0.0080
  137TIP3   OH2  374   0.474   0.081   5.384 -0.2361  0.3167  0.3303
  137TIP3    H1  375   0.567   0.087   5.406 -0.1784 -0.9578  0.4813
  137TIP3    H2  376   0.468   0.006   5.325 -0.6085  2.6039 -2.8525
  138TIP3   OH2  377   3.991   4.058   2.526 -0.3717 -0.2635 -0.7674
  138TIP3    H1  378   3.993   4.149   2.495 -1.6272  0.0889  0.0714
  138TIP3    H2  379   3.900   4.031   2.515 -0.5739 -0.5840  1.2041
  139TIP3   OH2  380   0.475   1.047   5.208 -0.4339 -0.1254 -0.4653
  139TIP3    H1  381   0.458   1.113   5.275 -0.4040 -0.6537  0.0731
  139TIP3    H2  382   0.393   0.999   5.200  0.3662 -1.9373  1.3081
  140TIP3   OH2  383   1.671   1.291   0.777 -0.1697 -0.2597 -0.7154
  140TIP3    H1  384   1.747   1.249   0.737 -0.2562 -1.4680  0.3170
  140TIP3    H2  385   1.615   1.219   0.806 -0.4282  0.5347  0.9294
  141TIP3   OH2  386   5.507   3.982   2.956  0.0492  0.4260 -0.3903
  141TIP3    H1  387   5.534   4.059   3.006 -1.7014  0.7176  0.1831
  141TIP3    H2  388   5.431   3.948   3.003  1.1648 -2.0738 -0.2531
  142TIP3   OH2  389   6.800   5.589   2.627 -0.5648 -0.6093 -0.1806
  142TIP3    H1  390   6.850   5.654   2.677 -0.9913 -1.8123  1.9392
  142TIP3    H2  391   6.710   5.618   2.632 -0.4431  0.0561 -1.5789
  143TIP3   OH2  392   2.065   4.832   5.640  0.1115 -0.2314 -0.1521
  143TIP3    H1  393   2.025   4.882   5.568  0.3235  0.9600  0.5250
  143TIP3    H2  394   2.024   4.746   5.635  1.0434 -0.6051 -2.4796
  144TIP3   OH2  395   6.308   3.918   3.130 -0.0344  0.2883 -0.4390
  144TIP3    H1  396   6.293   4.011   3.150  1.9950  0.8120 -1.1093
  144TIP3    H2  397   6.352   3.884   3.207 -3.4331 -0.9964  1.1253
  145TIP3   OH2  398   7.046   0.524   2.125  0.8885  0.1445 -0.7213
  145TIP3    H1  399   6.966   0.550   2.170  1.5853  0.0452  0.6057
  145TIP3    H2  400   7.057   0.432   2.148  1.9484  0.4349 -0.0051
  146TIP3   OH2  401   6.161   5.667   2.690  0.1995  0.4608 -0.1539
  146TIP3    H1  402   6.122   5.609   2.625 -0.2056 -0.6033  0.9862
  146TIP3    H2  403   6.235   5.708   2.646 -0.1046 -0.1839 -1.2838
  147TIP3   OH2  404   6.163   4.040   1.207  0.2324 -0.1887 -0.3362
  147TIP3    H1  405   6.165   4.133   1.185 -0.4423 -0.2160 -0.5297
  147TIP3    H2  406   6.228   4.031   1.276 -0.2080  0.5654  0.2007
  148TIP3   OH2  407   1.723   0.912   5.512 -0.3079 -0.4856 -0.7344
  148TIP3    H1  408   1.784   0.875   5.575 -1.0389 -2.2060 -1.0049
  148TIP3    H2  409   1.637   0.906   5.555 -0.3507  1.9537 -0.3334
  149TIP3   OH2  410   6.133   4.623   3.868 -0.6021 -0.0061 -0.5362
  149TIP3    H1  411   6.111   4.567   3.942 -1.2378  1.7570  0.6682
  149TIP3    H2  412   6.101   4.575   3.791 -0.3095 -1.6732  0.3386
  150TIP3   OH2  413   6.324   5.951   5.142  0.0736 -1.0786 -0.2867
  150TIP3    H1  414   6.409   5.911   5.158 -0.4965 -2.3269 -0.3235
  150TIP3    H2  415   6.336   6.042   5.170  0.1288 -2.2212  4.2773
  151TIP3   OH2  416   3.819   6.176   2.811 -0.6753 -0.4753  0.5142
  151TIP3    H1  417   3.900   6.212   2.774 -1.2474  0.1085 -0.1819
  151TIP3    H2  418   3.848   6.098   2.859  0.5349  0.7261  1.8179
  152TIP3   OH2  419   3.074   3.876   2.417 -0.0679  0.1148  0.2875
  152TIP3    H1  420   3.053   3.815   2.346 -0.3317 -0.0479  0.5037
  152TIP3    H2  421   3.003   3.865   2.480  0.5843 -0.3468  0.9665
  153TIP3   OH2  422   2.736   5.101   3.032 -0.3167  0.1267 -0.4926
  153TIP3    H1  423   2.727   5.118   3.126  1.4674 -2.3515  0.2188
  153TIP3    H2  424   2.674   5.030   3.014 -0.4054  0.3599 -1.1364
  154TIP3   OH2  425   6.540   5.273   4.346  0.4768  0.5226  0.6145
  154TIP3    H1  426   6.533   5.309   4.434 -0.2928  3.1792 -0.4551
  154TIP3    H2  427   6.472   5.317   4.296 -0.1322 -2.0344 -1.0074
  155TIP3   OH2  428   1.179   0.103   3.175 -0.5093  0.3134  0.2249
  155TIP3    H1  429   1.146   0.178   3.127  1.0492  0.2154 -1.0542
  155TIP3    H2  430   1.176   0.030   3.113 -0.0278 -0.2033  0.7825
  156TIP3   OH2  431   3.471   2.217   2.512  0.7506 -0.0371  0.1027
  156TIP3    H1  432   3.493   2.145   2.571 -1.2991 -1.1954 -0.4303
  156TIP3    H2  433   3.533   2.208   2.439  1.4277 -0.3582  0.7036
  157TIP3   OH2  434   2.155   5.938   5.064  0.7333  0.2200  0.2349
  157TIP3    H1  435   2.128   6.007   5.003  0.7962  1.1178  1.1756
  157TIP3    H2  436   2.213   5.882   5.013  0.3758  0.6499 -0.6650
  158TIP3   OH2  437   0.286   1.598   2.428 -0.2285 -0.2773  0.2142
  158TIP3    H1  438   0.377   1.627   2.433  0.0996 -1.2544  0.1783
  158TIP3    H2  439   0.278   1.561   2.339 -0.5669 -0.4670  0.3221
  159TIP3   OH2  440   3.230   4.841   2.691 -0.0716  0.2899  0.0104
  159TIP3    H1  441   3.202   4.864   2.779  1.1522 -0.8047  0.7266
  159TIP3    H2  442   3.325   4.854   2.692  0.4984 -2.9725 -0.0266
  160TIP3   OH2  443   2.820   0.197   4.062  0.1225 -0.3910  0.0276
  160TIP3    H1  444   2.852   0.108   4.076 -1.4433 -1.0643 -0.5525
  160TIP3    H2  445   2.804   0.203   3.968  1.7092  1.0624 -0.2164
  161TIP3   OH2  446   1.935   5.114   1.209 -0.1621  0.2181 -0.3106
  161TIP3    H1  447   2.006   5.105   1.271 -0.8206  0.2563  0.4634
  161TIP3    H2  448   1.953   5.196   1.163  0.4860  0.0358 -0.3832
  162TIP3   OH2  449   0.429   5.715   3.002  0.7016  0.1850  0.1202
  162TIP3    H1  450   0.393   5.628   3.017 -1.8360  1.2908  1.0157
  162TIP3    H2  451   0.456   5.714   2.910  0.2719 -1.3619 -0.0200
  163TIP3   OH2  452   1.198   3.880   1.907 -0.1583 -0.5929  0.3791
  163TIP3    H1  453   1.252   3.928   1.844  0.6520  0.4718  1.8158
  163TIP3    H2  454   1.261   3.845   1.970 -0.9863 -1.2491  0.8559
  164TIP3   OH2  455   4.986   1.031   2.632 -0.2571  0.0132 -0.1290
  164TIP3    H1  456   5.061   0.986   2.592  0.6997  0.8950  0.6042
  164TIP3    H2  457   4.991   1.007   2.724 -2.4922 -2.0663 -0.4670
  165TIP3   OH2  458   4.506   4.217   3.679 -0.5055 -0.9393 -0.0537
  165TIP3    H1  459   4.548   4.134   3.704  1.6274 -0.5069 -1.9031
  165TIP3    H2  460   4.430   4.190   3.628  0.9138 -1.8388 -1.7975
  166TIP3   OH2  461   1.489   0.202   1.651 -0.3209  0.1975 -0.2292
  166TIP3    H1  462   1.495   0.109   1.630 -2.1081 -0.2181  0.9052
  166TIP3    H2  463   1.547   0.214   1.726 -0.5154 -0.1237 -0.0288
  167TIP3   OH2  464   3.660   1.847   3.242 -0.3738  0.1979 -0.0268
  167TIP3    H1  465   3.702   1.768   3.207 -0.4995 -0.5047  1.3243
  167TIP3    H2  466   3.567   1.833   3.226 -0.5882 -0.8273  1.8088
  168TIP3   OH2  467   0.689   2.970   0.620 -0.1581  0.7061  0.5193
  168TIP3    H1  468   0.713   2.898   0.678  0.2431 -0.1322 -0.6521
  168TIP3    H2  469   0.646   2.928   0.546 -1.2558  1.8109  0.4901
  169TIP3   OH2  470   6.258   1.987   0.682 -0.1982  0.0039  0.0524
  169TIP3    H1  471   6.169   1.989   0.718 -0.2787  2.0236 -0.1560
  169TIP3    H2  472   6.307   1.930   0.742 -1.4460 -0.5315  0.5945
  170TIP3   OH2  473   6.870   1.578   3.538  0.0321 -0.2894 -0.3372
  170TIP3    H1  474   6.917   1.662   3.541  0.4897 -0.5265 -0.6466
  170TIP3    H2  475   6.930   1.516   3.578 -1.8774  0.1855  3.7190
  171TIP3   OH2  476   6.539   6.047   5.869  0.3020  0.2517 -0.2717
  171TIP3    H1  477   6.562   6.130   5.829  0.8744  0.6958  0.9579
  171TIP3    H2  478   6.621   6.012   5.904 -0.2130  0.0098  0.7550
  172TIP3   OH2  479   5.410   3.363   3.763  0.0865 -0.6177 -0.2459
  172TIP3    H1  480   5.348   3.412   3.709  1.1770  0.1320 -0.8562
  172TIP3    H2  481   5.449   3.299   3.703  0.0346 -0.9838  0.0984
  173TIP3   OH2  482   2.244   2.108   1.339  0.0086 -0.0277  0.3518
  173TIP3    H1  483   2.183   2.106   1.266 -0.5807 -0.7554  0.8495
  173TIP3    H2  484   2.189   2.105   1.417  0.6886 -1.7122  0.8036
  174TIP3   OH2  485   4.373   2.137   4.607  0.2299 -0.0440  0.1056
  174TIP3    H1  486   4.293   2.137   4.659 -1.4697  0.7621 -2.3676
  174TIP3    H2  487   4.410   2.224   4.619  0.2428 -0.0969  0.4725
  175TIP3   OH2  488   6.031   0.449   2.084  0.0455  0.0220 -0.0988
  175TIP3    H1  489   5.969   0.487   2.022  0.0870 -0.9313 -0.7624
  175TIP3    H2  490   6.116   0.454   2.040  0.0285 -0.9417 -0.2776
  176TIP3   OH2  491   6.930   5.111   3.747  0.5430 -0.0082 -0.4422
  176TIP3    H1  492   6.913   5.181   3.809 -0.0522 -2.1549  1.9803
  176TIP3    H2  493   7.020   5.126   3.717  0.4938  1.6383  0.1357
  177TIP3   OH2  494   5.769   1.114   4.929  1.1411 -0.2500  0.1732
  177TIP3    H1  495   5.695   1.067   4.967  0.5455  0.4528 -0.0886
  177TIP3    H2  496   5.749   1.119   4.835  1.8114 -0.5623  0.0084
  178TIP3   OH2  497   4.430   1.980   4.402 -0.6221 -0.0399  0.0532
  178TIP3    H1  498   4.336   1.989   4.388 -0.8254 -1.7457  0.0100
  178TIP3    H2  499   4.446   2.023   4.486 -1.3760  0.5585 -0.0977
  179TIP3   OH2  500   4.242   0.573   1.048  0.0324  0.0193 -0.1003
  179TIP3    H1  501   4.248   0.621   1.130  2.9214  0.8944 -0.7073
  179TIP3    H2  502   4.226   0.640   0.981 -0.5559 -0.4630 -0.4567
  180TIP3   OH2  503   3.640   0.635   0.106 -0.3293 -0.6970 -0.4471
  180TIP3    H1  504   3.657   0.572   0.036  2.3624 -0.9112  0.2832
  180TIP3    H2  505   3.633   0.720   0.061 -0.3955 -1.0556 -1.1232
  181TIP3   OH2  506   1.073   6.238   0.847 -0.2746 -0.1067 -0.4639
  181TIP3    H1  507   1.104   6.263   0.935 -1.3516 -0.0731 -0.0852
  181TIP3    H2  508   1.136   6.172   0.818  0.9315  0.9300 -0.2734
  182TIP3   OH2  509   2.555   6.221   1.821 -0.2985  0.0156  0.2556
  182TIP3    H1  510   2.541   6.176   1.738  1.7830  0.8058 -0.5954
  182TIP3    H2  511   2.562   6.314   1.796 -1.1337  0.4514  1.5353
  183TIP3   OH2  512   0.431   2.853   3.675  0.1131 -0.2281 -0.0813
  183TIP3    H1  513   0.461   2.920   3.614 -1.4779  0.7206  0.1208
  183TIP3    H2  514   0.402   2.902   3.752 -0.7313 -1.1724  0.2259
  184TIP3   OH2  515   0.054   1.014   3.086  0.3134 -0.3022 -0.3129
  184TIP3    H1  516   0.097   0.929   3.074 -0.4715 -0.9494  1.2036
  184TIP3    H2  517  -0.017   1.014   3.021 -1.7662 -2.2852  1.7883
  185TIP3   OH2  518   2.151   4.144   5.052 -0.1371 -0.0554  0.1770
  185TIP3    H1  519   2.221   4.208   5.041 -0.3706  0.1593 -0.0860
  185TIP3    H2  520   2.086   4.188   5.107 -0.3938  0.0186 -0.1747
  186TIP3   OH2  521   6.310   3.523   5.349 -0.2401  0.1011 -0.3968
  186TIP3    H1  522   6.277   3.523   5.439 -0.9110  0.2537 -0.6423
  186TIP3    H2  523   6.389   3.577   5.353 -0.2363  0.0620  0.1119
  187TIP3   OH2  524   5.053   0.122   3.104  0.0381 -0.5453 -0.1216
  187TIP3    H1  525   5.001   0.152   3.178  0.7513  0.5392 -0.0487
  187TIP3    H2  526   5.067   0.029   3.120  2.1389  0.0954  2.3279
  188TIP3   OH2  527   2.288   0.728   0.091 -0.5648 -0.4858  0.2465
  188TIP3    H1  528   2.364   0.686   0.131  0.7671  0.3082 -1.3299
  188TIP3    H2  529   2.274   0.806   0.145 -0.7277 -1.0023  0.9693
  189TIP3   OH2  530   3.181   3.857   2.023 -0.3194 -0.1010  0.5358
  189TIP3    H1  531   3.124   3.902   2.085  0.5691 -0.5409  1.7107
  189TIP3    H2  532   3.154   3.890   1.937 -1.4633  0.6497  1.1563
  190TIP3   OH2  533   4.239   5.650   4.021  0.0811 -0.0594 -0.4318
  190TIP3    H1  534   4.228   5.663   4.115  0.9094  2.4532 -0.6112
  190TIP3    H2  535   4.151   5.626   3.990 -0.2694 -0.5940  0.9301
  191TIP3   OH2  536   1.548   2.460   2.265  0.2228 -0.1694 -0.0407
  191TIP3    H1  537   1.534   2.396   2.335  0.6578 -0.9519 -0.6464
  191TIP3    H2  538   1.605   2.415   2.203  1.2395  1.1256 -0.0754
  192TIP3   OH2  539   4.730   1.376   0.603  0.6162 -0.0645 -0.0722
  192TIP3    H1  540   4.771   1.444   0.549  1.8722 -1.9968 -1.7207
  192TIP3    H2  541   4.653   1.418   0.641  0.7296  1.9300 -1.8777
  193TIP3   OH2  542   6.790   1.348   3.195  0.4821 -0.2828 -0.0173
  193TIP3    H1  543   6.812   1.301   3.276  1.5843  0.1172 -0.0637
  193TIP3    H2  544   6.713   1.302   3.161 -1.3257  0.7789  2.3066
  194TIP3   OH2  545   0.799   5.056   5.246  0.5112  0.1094  0.6639
  194TIP3    H1  546   0.774   5.024   5.333  2.4881 -0.8672  0.9304
  194TIP3    H2  547   0.853   5.133   5.264  1.0227 -0.1663  0.3346
  195TIP3   OH2  548   1.842   3.440   4.322  0.2120 -0.4142  0.3867
  195TIP3    H1  549   1.903   3.424   4.394 -1.0487 -0.8947  1.3988
  195TIP3    H2  550   1.889   3.413   4.244  0.2166 -3.9021  1.4302
  196TIP3   OH2  551   2.348   3.912   5.040 -0.9068 -0.6526  0.0640
  196TIP3    H1  552   2.327   3.881   5.128 -1.3248  2.3906  1.1641
  196TIP3    H2  553   2.303   3.996   5.033  3.0679  1.6668 -1.1073
  197TIP3   OH2  554   0.690   5.504   3.018  0.0113 -0.0921 -0.1645
  197TIP3    H1  555   0.684   5.591   3.058  0.9405 -0.8697  1.7853
  197TIP3    H2  556   0.605   5.463   3.038  0.3751 -0.3833  0.8420
  198TIP3   OH2  557   2.787   0.890   0.553  0.5922 -0.6558 -0.6839
  198TIP3    H1  558   2.802   0.965   0.610 -0.8995 -1.1472  0.3978
  198TIP3    H2  559   2.864   0.888   0.496  1.9773  0.0649  1.0645
  199TIP3   OH2  560   1.003   4.593   3.907 -0.1793  0.5224 -0.2679
  199TIP3    H1  561   1.069   4.646   3.950  0.5400 -0.3078 -0.3108
  199TIP3    H2  562   0.967   4.539   3.977  0.6290 -0.4628 -0.5818
  200TIP3   OH2  563   1.248   1.900   2.652 -0.7845  0.0036  0.2039
  200TIP3    H1  564   1.247   1.865   2.741  0.3754  0.5329  0.4418
  200TIP3    H2  565   1.156   1.902   2.625 -1.2293  0.6004  1.6931
  201TIP3   OH2  566   3.551   6.744   3.858  0.3093 -0.0525  0.0560
  201TIP3    H1  567   3.619   6.807   3.833 -0.9633  1.3365 -0.0584
  201TIP3    H2  568   3.550   6.680   3.787  0.1094  1.0782 -1.0006
  202TIP3   OH2  569   0.480   6.161   4.188  0.2242  0.0725  0.6509
  202TIP3    H1  570   0.453   6.203   4.270  0.5290 -0.4657  1.0266
  202TIP3    H2  571   0.503   6.235   4.131  1.0711  0.4118  1.4156
  203TIP3   OH2  572   2.018   6.532   3.889 -0.0564  0.0578 -0.0319
  203TIP3    H1  573   2.071   6.572   3.821 -0.7697  0.8225 -0.1616
  203TIP3    H2  574   2.081   6.495   3.951  0.6331  1.1232 -0.0730
  204TIP3   OH2  575   3.785   0.721   2.783  0.2562  0.3513 -0.1998
  204TIP3    H1  576   3.804   0.809   2.818  0.5403  0.7444 -1.3054
  204TIP3    H2  577   3.783   0.665   2.860  0.7928  1.2099  0.4627
  205TIP3   OH2  578   5.115   2.935   4.809 -0.7253 -0.2346  0.0769
  205TIP3    H1  579   5.033   2.983   4.795 -1.1948 -0.7647  0.9778
  205TIP3    H2  580   5.176   2.976   4.747 -1.6019  0.3036 -0.4688
  206TIP3   OH2  581   2.670   3.132   2.576 -0.3666 -0.0117 -0.5016
  206TIP3    H1  582   2.706   3.220   2.588  0.6995 -0.5609  0.6486
  206TIP3    H2  583   2.671   3.118   2.482 -0.0227  0.9939 -0.6623
  207TIP3   OH2  584   1.844   0.156   3.677  0.0372 -0.1015  0.4384
  207TIP3    H1  585   1.795   0.074   3.682 -1.7350  0.9481  1.1166
  207TIP3    H2  586   1.850   0.186   3.767  0.8391  0.4347  0.2183
  208TIP3   OH2  587   4.606   4.617   1.765 -0.3098  0.3802  0.2409
  208TIP3    H1  588   4.554   4.580   1.694 -0.8249  0.7631  0.4178
  208TIP3    H2  589   4.592   4.711   1.760  1.9246  0.7137 -0.9390
  209TIP3   OH2  590   4.024   5.318   2.344 -0.0356 -0.0258 -0.2970
  209TIP3    H1  591   3.989   5.407   2.348  1.5535  0.5982  0.7775
  209TIP3    H2  592   4.099   5.324   2.285 -0.2093 -0.7563 -0.5977
  210TIP3   OH2  593   3.793   2.490   1.022  0.2235 -0.6779  0.1109
  210TIP3    H1  594   3.699   2.494   1.007  0.0481  0.6695  1.3345
  210TIP3    H2  595   3.831   2.469   0.937 -1.0425  0.9443 -0.8900
  211TIP3   OH2  596   1.371   1.462   4.246  0.6719  0.0916  0.7726
  211TIP3    H1  597   1.401   1.519   4.176  0.0171 -0.2027  0.2417
  211TIP3    H2  598   1.285   1.497   4.270  1.0860  0.4676  1.7494
  212TIP3   OH2  599   6.490   2.465   1.651 -0.9832 -0.1496 -0.5767
  212TIP3    H1  600   6.482   2.538   1.712 -1.8241  0.3091 -1.2151
  212TIP3    H2  601   6.562   2.490   1.593 -0.7344 -0.2080 -0.2986
  213TIP3   OH2  602   4.307   3.159   3.008  0.4927  0.4404  0.1663
  213TIP3    H1  603   4.342   3.071   3.020  1.0742  0.5958 -0.3971
  213TIP3    H2  604   4.378   3.217   3.036  1.2272  0.7856 -2.2358
  214TIP3   OH2  605   0.907   2.913   2.630  0.2305 -0.3999  0.3573
  214TIP3    H1  606   0.907   2.884   2.721  1.2482 -0.6333  0.3001
  214TIP3    H2  607   0.971   2.856   2.587 -1.6813 -1.6578 -0.9743
  215TIP3   OH2  608   5.950   4.905   1.989  0.4865  0.8387 -0.0555
  215TIP3    H1  609   5.864   4.883   1.953  1.2629 -0.2665 -1.2941
  215TIP3    H2  610   5.947   4.874   2.080  0.3617 -1.3937 -0.7698
  216TIP3   OH2  611   0.687   1.324   1.177 -0.2292  0.9290 -0.1702
  216TIP3    H1  612   0.708   1.347   1.268 -0.7956 -0.0422  0.2243
  216TIP3    H2  613   0.595   1.300   1.179  0.6141 -2.9324 -0.1331
  217TIP3   OH2  614   4.929   6.099   3.760 -0.1662 -0.5569  0.2072
  217TIP3    H1  615   4.873   6.098   3.838 -2.3082  1.5444 -1.1320
  217TIP3    H2  616   4.923   6.189   3.728  0.1823 -1.4464 -2.6749
  218TIP3   OH2  617   4.507   3.516   3.627 -0.6637  0.2223  0.3209
  218TIP3    H1  618   4.567   3.531   3.554 -0.5106  2.5793  0.8460
  218TIP3    H2  619   4.433   3.470   3.588  0.1158  0.0139 -0.9831
  219TIP3   OH2  620   3.498   5.947   1.174 -0.0662 -0.3226 -0.2543
  219TIP3    H1  621   3.515   5.856   1.200  0.7782 -0.3589 -0.8992
  219TIP3    H2  622   3.416   5.942   1.125 -1.2587 -0.3721  1.6251
  220TIP3   OH2  623   6.718   4.749   0.174  0.4181  0.0917  0.5447
  220TIP3    H1  624   6.718   4.827   0.119  1.0308  1.4729  2.4005
  220TIP3    H2  625   6.685   4.679   0.117 -0.3033  1.7193 -1.1319
  221TIP3   OH2  626   4.252   4.446   5.807  0.2047 -0.1097 -0.6469
  221TIP3    H1  627   4.201   4.374   5.769  0.3154 -0.5335 -0.0163
  221TIP3    H2  628   4.329   4.403   5.846  0.1888  0.3314 -0.1159
  222TIP3   OH2  629   4.143   5.084   5.730 -0.4636  0.7907  0.2730
  222TIP3    H1  630   4.228   5.117   5.701 -0.6643  2.9724  1.8591
  222TIP3    H2  631   4.084   5.104   5.657  0.5009 -1.8573 -1.3578
  223TIP3   OH2  632   6.712   2.638   1.617 -0.3566  0.3030 -0.1302
  223TIP3    H1  633   6.728   2.679   1.702 -0.6844  1.8908 -0.7985
  223TIP3    H2  634   6.797   2.602   1.592 -0.4885 -1.1206  1.3167
  224TIP3   OH2  635   2.655   0.342   1.431 -0.1383 -0.2483 -0.6934
  224TIP3    H1  636   2.581   0.381   1.479  0.2024 -2.0010  1.4078
  224TIP3    H2  637   2.614   0.279   1.371 -0.4039 -1.0513  0.3004
  225TIP3   OH2  638   2.041   0.783   5.380  0.1153  0.5460 -0.2510
  225TIP3    H1  639   2.060   0.804   5.471 -1.4820  1.7156 -0.1438
  225TIP3    H2  640   2.020   0.867   5.340  1.2038  0.1228 -1.8356
  226TIP3   OH2  641   6.665   3.763   5.730 -0.0622 -0.3338 -0.4850
  226TIP3    H1  642   6.711   3.845   5.715 -0.6709  0.1213  0.1002
  226TIP3    H2  643   6.575   3.780   5.705 -0.4185 -0.4994  0.6128
  227TIP3   OH2  644   1.202   1.186   2.831 -0.1793 -0.1094 -0.0784
  227TIP3    H1  645   1.195   1.222   2.920 -0.3451  1.2961 -0.6429
  227TIP3    H2  646   1.295   1.162   2.823  0.4767  2.3373 -0.4517
  228TIP3   OH2  647   1.881   0.422   2.155  0.0546 -0.3705 -0.1972
  228TIP3    H1  648   1.793   0.386   2.169  0.5247 -1.9248 -0.9275
  228TIP3    H2  649   1.920   0.364   2.089  2.4582 -1.2039  1.7698
  229TIP3   OH2  650   6.724   2.631   3.475  0.1361 -0.3792  0.1537
  229TIP3    H1  651   6.687   2.716   3.500 -1.2852 -0.8042 -0.3941
  229TIP3    H2  652   6.648   2.578   3.451  1.1168 -1.2345 -1.2569
  230TIP3   OH2  653   3.331   6.308   3.309  0.3710 -0.3924 -0.5582
  230TIP3    H1  654   3.239   6.329   3.326  0.5020 -0.0764 -0.2420
  230TIP3    H2  655   3.334   6.290   3.215  0.1425  0.4091 -0.7258
  231TIP3   OH2  656   6.483   6.771   2.603  0.1637 -0.1141 -0.7552
  231TIP3    H1  657   6.460   6.812   2.520  2.7530  1.3353 -0.8393
  231TIP3    H2  658   6.541   6.698   2.579  0.6124  0.0711 -0.2617
  232TIP3   OH2  659   4.543   5.593   0.423  0.3179 -0.0207 -0.6382
  232TIP3    H1  660   4.514   5.591   0.514  1.7672 -2.0667 -0.1613
  232TIP3    H2  661   4.502   5.672   0.387 -4.3045 -1.5987  0.4230
  233TIP3   OH2  662   7.135   6.527   3.882 -0.0490  0.3019  1.1616
  233TIP3    H1  663   7.169   6.496   3.799 -0.4923 -1.2544  1.5146
  233TIP3    H2  664   7.203   6.584   3.918  1.3933 -1.2815  1.0298
  234TIP3   OH2  665   3.250   2.932   4.730  0.1303  0.0453 -0.3783
  234TIP3    H1  666   3.167   2.973   4.757  0.5892 -0.3989  1.9479
  234TIP3    H2  667   3.317   2.994   4.758  0.6656 -0.6411 -0.1067
  235TIP3   OH2  668   5.663   3.769   3.179 -0.1490 -0.2198  0.8202
  235TIP3    H1  669   5.613   3.829   3.123  0.9659  1.5438  1.6531
  235TIP3    H2  670   5.680   3.819   3.259  3.0411 -0.6683  0.5453
  236TIP3   OH2  671   3.469   1.675   1.511  0.1620  0.0934  0.3153
  236TIP3    H1  672   3.413   1.653   1.436 -1.6810  0.2161  1.5707
  236TIP3    H2  673   3.558   1.673   1.476 -0.6326  0.3812 -1.9214
  237TIP3   OH2  674   6.636   0.062   2.339  0.0195 -0.1226 -0.1381
  237TIP3    H1  675   6.662   0.135   2.282 -0.0447 -0.6881 -0.9048
  237TIP3    H2  676   6.578   0.009   2.285 -0.4397 -0.4044  0.6266
  238TIP3   OH2  677   0.514   1.464   0.899  0.1954  0.0237 -0.1117
  238TIP3    H1  678   0.478   1.379   0.924  0.5226 -0.1732 -0.3042
  238TIP3    H2  679   0.607   1.447   0.882  0.4463  0.5741  0.6320
  239TIP3   OH2  680   7.022   2.084   2.734  0.1073 -0.1859 -0.1006
  239TIP3    H1  681   7.034   2.100   2.828  0.0675  0.0572 -0.1359
  239TIP3    H2  682   6.986   1.996   2.729 -1.3512  0.3615  0.2026
  240TIP3   OH2  683   6.845   4.688   2.893 -0.5021 -1.0919  0.1894
  240TIP3    H1  684   6.780   4.721   2.831  0.8861 -0.9316 -1.2741
  240TIP3    H2  685   6.828   4.735   2.974 -1.4885 -0.2210 -0.4947
  241TIP3   OH2  686   4.307   5.843   3.446  0.0795  0.4469  0.2350
  241TIP3    H1  687   4.402   5.831   3.453  0.0733 -0.8077 -1.2605
  241TIP3    H2  688   4.293   5.935   3.471  1.1873 -0.2565  4.1538
  242TIP3   OH2  689   2.367   6.397   3.464 -0.0981 -0.1511 -0.3331
  242TIP3    H1  690   2.273   6.405   3.481  0.1075 -0.3276  0.9487
  242TIP3    H2  691   2.408   6.457   3.526  0.5364  1.9534 -2.6569
  243TIP3   OH2  692   7.065   1.650   5.315  0.2031  0.1619 -0.4350
  243TIP3    H1  693   7.136   1.641   5.251  1.1088 -0.3939  0.5988
  243TIP3    H2  694   7.052   1.562   5.349 -0.1369  0.4658  0.2523
  244TIP3   OH2  695   6.087   5.508   4.811  0.4537 -0.2433  0.0061
  244TIP3    H1  696   6.143   5.451   4.863 -1.4111 -1.3914  0.8516
  244TIP3    H2  697   6.125   5.506   4.723  0.7128 -2.4373  0.1274
  245TIP3   OH2  698   6.163   2.147   3.580  0.5743  0.0939 -1.0894
  245TIP3    H1  699   6.222   2.220   3.594  0.1038  0.5516 -1.4463
  245TIP3    H2  700   6.116   2.137   3.663  1.3747 -0.4854 -0.6957
  246TIP3   OH2  701   2.728   6.319   1.472 -0.2327 -0.0406 -0.8929
  246TIP3    H1  702   2.808   6.333   1.521 -0.7387 -1.0562  0.2763
  246TIP3    H2  703   2.697   6.407   1.451  0.9479  0.3670 -1.0038
  247TIP3   OH2  704   3.717   3.251   2.771  0.0273 -0.1363 -0.3176
  247TIP3    H1  705   3.744   3.160   2.760 -0.3228 -0.1141 -1.5345
  247TIP3    H2  706   3.632   3.246   2.814  2.2855 -0.1746  4.8040
  248TIP3   OH2  707   4.493   4.573   4.008  0.5792 -0.0723 -0.3586
  248TIP3    H1  708   4.397   4.567   4.011  0.5504 -0.6076 -1.6176
  248TIP3    H2  709   4.514   4.562   3.915  1.8381  0.4764 -0.1462
  249TIP3   OH2  710   4.224   1.940   3.291 -0.2461  0.9286  0.1112
  249TIP3    H1  711   4.163   1.867   3.304 -1.1056  1.5262 -0.4594
  249TIP3    H2  712   4.310   1.902   3.309 -0.5666 -0.4762 -1.0605
  250TIP3   OH2  713   5.763   5.138   4.888  0.6040 -0.2807  0.1194
  250TIP3    H1  714   5.852   5.149   4.854  0.5271 -1.5286 -0.5351
  250TIP3    H2  715   5.706   5.171   4.819  0.5216 -0.4347  0.1146
  251TIP3   OH2  716   2.976   1.186   1.389  0.3006 -0.1403 -0.2834
  251TIP3    H1  717   2.930   1.102   1.387 -0.6565  0.3580 -2.2794
  251TIP3    H2  718   3.067   1.164   1.371  0.0690 -0.7718 -0.7459
  252TIP3   OH2  719   2.229   2.533   3.155  0.0599  0.0204 -0.0764
  252TIP3    H1  720   2.190   2.544   3.068 -2.4170 -0.6092  0.8792
  252TIP3    H2  721   2.279   2.451   3.149 -0.8312 -0.4936 -0.6862
  253TIP3   OH2  722   2.242   2.957   4.043  0.6113 -0.1377 -0.3568
  253TIP3    H1  723   2.306   2.896   4.007  0.4125 -0.0691 -0.8379
  253TIP3    H2  724   2.258   2.956   4.137 -1.2035 -3.1063  0.0497
  254TIP3   OH2  725   2.014   6.607   0.245 -0.6145 -0.1075 -0.0352
  254TIP3    H1  726   2.081   6.578   0.183 -0.8474 -0.6951 -0.0151
  254TIP3    H2  727   1.956   6.532   0.254 -0.8560  0.1461  0.5253
  255TIP3   OH2  728   1.536   1.681   0.888  0.6695 -0.2812 -0.0071
  255TIP3    H1  729   1.541   1.758   0.831 -0.6158 -0.5122 -0.4633
  255TIP3    H2  730   1.579   1.709   0.969  0.0984  0.9751 -0.1086
  256TIP3   OH2  731   5.947   3.772   2.922 -0.6940  0.1051 -0.1328
  256TIP3    H1  732   5.926   3.747   2.832 -1.0022  0.4593 -0.1598
  256TIP3    H2  733   6.030   3.820   2.915 -1.4066  1.3346 -0.4092
  257TIP3   OH2  734   1.882   5.081   1.751 -0.5181 -0.1706  0.3174
  257TIP3    H1  735   1.833   5.128   1.683 -0.2415 -1.5980 -0.9330
  257TIP3    H2  736   1.849   5.117   1.834 -1.6035  0.9111 -0.5478
  258TIP3   OH2  737   5.041   1.421   1.042  0.0036 -0.5592 -0.6930
  258TIP3    H1  738   4.990   1.424   0.961 -0.8599  1.1111 -0.1404
  258TIP3    H2  739   5.006   1.346   1.090  0.3914 -1.4484 -1.7524
  259TIP3   OH2  740   1.666   3.536   0.817 -0.0566  0.1496 -0.0765
  259TIP3    H1  741   1.572   3.518   0.823 -0.0924  0.4680  0.3389
  259TIP3    H2  742   1.678   3.569   0.728 -0.1576 -0.9308 -0.5031
  260TIP3   OH2  743   5.943   5.197   2.228  0.0212  0.7536 -0.4546
  260TIP3    H1  744   5.902   5.126   2.277  0.7813  0.0179 -0.8812
  260TIP3    H2  745   5.877   5.223   2.164  0.6047 -1.2100 -1.9165
  261TIP3   OH2  746   5.342   4.899   2.254  0.4949 -0.1691 -0.0059
  261TIP3    H1  747   5.320   4.839   2.326  0.6961 -0.7398 -0.4095
  261TIP3    H2  748   5.338   4.844   2.176 -1.9323  0.9102 -0.7484
  262TIP3   OH2  749   0.217   4.508   0.240 -0.2706 -0.7050  0.1534
  262TIP3    H1  750   0.258   4.458   0.311 -2.1941 -1.6648  0.6644
  262TIP3    H2  751   0.131   4.532   0.274 -0.3782  0.7875 -1.0535
  263TIP3   OH2  752   6.619   5.513   0.661 -0.5093  0.5619  0.0809
  263TIP3    H1  753   6.531   5.525   0.624  0.0324 -0.3069 -1.6186
  263TIP3    H2  754   6.639   5.421   0.644  1.4819  1.2053 -1.4074
  264TIP3   OH2  755   6.819   1.050   4.100  0.5939 -0.1461  0.1460
  264TIP3    H1  756   6.793   1.139   4.078 -0.3437  0.1252  2.1446
  264TIP3    H2  757   6.746   0.995   4.071  0.0515  0.0431  1.0967
  265TIP3   OH2  758   2.577   2.943   4.470  0.6241 -0.4186  0.5851
  265TIP3    H1  759   2.587   3.006   4.398  1.7220 -0.6186  0.5575
  265TIP3    H2  760   2.520   2.988   4.533  0.2145  0.0257 -0.0863
  266TIP3   OH2  761   3.110   1.763   3.323 -0.9284  0.0201  0.4037
  266TIP3    H1  762   3.049   1.826   3.361 -1.0877 -1.1507  2.1993
  266TIP3    H2  763   3.161   1.731   3.397  2.1759  1.2148 -1.0806
  267TIP3   OH2  764   6.432   0.883   1.686  0.0331  0.1286 -0.0650
  267TIP3    H1  765   6.363   0.835   1.640  0.3689  0.0475 -0.4941
  267TIP3    H2  766   6.483   0.815   1.730 -1.1064  0.2979  1.6083
  268TIP3   OH2  767   3.675   3.785   4.120  0.0811 -0.2058  0.0442
  268TIP3    H1  768   3.594   3.826   4.087 -0.3868 -0.9705  0.2076
  268TIP3    H2  769   3.662   3.692   4.103  1.9789 -0.1579 -2.2246
  269TIP3   OH2  770   2.111   3.810   3.003  0.0504  0.4118  0.1781
  269TIP3    H1  771   2.151   3.725   3.019  0.3205  0.1052 -1.8568
  269TIP3    H2  772   2.072   3.835   3.087  0.1085 -1.6264  0.8497
  270TIP3   OH2  773   5.888   1.086   5.562 -0.6937 -0.2405  0.1964
  270TIP3    H1  774   5.836   1.142   5.619 -0.2090 -1.2186  1.6625
  270TIP3    H2  775   5.977   1.090   5.599 -0.1903 -0.2824 -0.9609
  271TIP3   OH2  776   3.524   3.704   4.646 -0.8925 -0.7119 -0.8166
  271TIP3    H1  777   3.567   3.620   4.657 -0.6787 -0.6398 -1.1122
  271TIP3    H2  778   3.430   3.683   4.648 -0.9015 -0.7312  1.0440
  272TIP3   OH2  779   5.184   5.628   2.534 -0.1417  0.3286 -0.1356
  272TIP3    H1  780   5.249   5.567   2.568 -0.1520 -0.9006 -2.1599
  272TIP3    H2  781   5.156   5.678   2.611  2.0676 -0.1259  1.0616
  273TIP3   OH2  782   5.635   6.181   1.535  0.2462  0.3327 -0.2124
  273TIP3    H1  783   5.625   6.242   1.608 -0.1434  0.1710 -0.1295
  273TIP3    H2  784   5.650   6.237   1.459 -1.4596  0.6182 -0.3846
  274TIP3   OH2  785   6.007   3.747   4.422  0.2000 -0.1149  0.1337
  274TIP3    H1  786   6.003   3.841   4.444  3.3217  0.5585 -1.6979
  274TIP3    H2  787   6.013   3.704   4.507  0.9837  1.5315  0.9748
  275TIP3   OH2  788   5.556   4.179   4.151  0.8558  0.7480 -0.0203
  275TIP3    H1  789   5.519   4.100   4.191 -0.7483  0.9306 -1.0674
  275TIP3    H2  790   5.521   4.251   4.202 -1.5609  1.0122 -1.8434
  276TIP3   OH2  791   6.284   6.153   0.184 -0.2444 -0.8733  0.7587
  276TIP3    H1  792   6.222   6.082   0.170  0.5098 -1.6510  1.2454
  276TIP3    H2  793   6.266   6.216   0.114 -1.5525 -1.0896  0.8826
  277TIP3   OH2  794   1.264   1.506   3.918  0.0722  0.3000  0.9476
  277TIP3    H1  795   1.245   1.529   3.827 -0.0326 -0.5811  0.7395
  277TIP3    H2  796   1.206   1.562   3.969 -1.3090 -0.5837  0.3998
  278TIP3   OH2  797   1.361   4.035   3.414 -0.3564 -0.1013 -0.2003
  278TIP3    H1  798   1.365   4.080   3.330 -0.4526 -0.2740 -0.2989
  278TIP3    H2  799   1.288   4.076   3.460 -0.4090 -0.1165 -0.2683
  279TIP3   OH2  800   1.494   4.428   0.895 -0.1535 -0.0942 -0.2440
  279TIP3    H1  801   1.453   4.459   0.976 -0.9465 -0.3282 -0.5437
  279TIP3    H2  802   1.587   4.442   0.908 -0.3606  0.8566  0.2931
  280TIP3   OH2  803   0.697   1.446   4.866 -0.4872 -0.0770  0.0214
  280TIP3    H1  804   0.727   1.401   4.946  0.1689 -1.0446 -0.7431
  280TIP3    H2  805   0.701   1.539   4.888 -1.2765 -0.3464  1.4461
  281TIP3   OH2  806   3.736   6.098   3.241 -0.4874 -0.2256 -0.0776
  281TIP3    H1  807   3.659   6.127   3.193  0.1719 -1.9445 -2.3659
  281TIP3    H2  808   3.799   6.170   3.232 -0.4996 -0.3806 -1.5633
  282TIP3   OH2  809   0.867   4.490   2.906 -0.1979 -0.3579 -0.2123
  282TIP3    H1  810   0.824   4.555   2.961  0.1899 -0.7155  0.5357
  282TIP3    H2  811   0.941   4.536   2.867  0.1793 -0.3814  0.4534
  283TIP3   OH2  812   1.880   4.905   0.283 -0.8112  0.0326  0.4293
  283TIP3    H1  813   1.940   4.944   0.219  0.5095 -0.9925  0.9993
  283TIP3    H2  814   1.909   4.939   0.367 -0.6036 -0.9393  0.7711
  284TIP3   OH2  815   3.926   3.246   4.480 -0.0267  0.1802  0.3049
  284TIP3    H1  816   3.926   3.182   4.408  0.2793  0.6417 -0.1134
  284TIP3    H2  817   3.865   3.314   4.452 -0.6503 -0.1098  0.9238
  285TIP3   OH2  818   6.287   3.918   3.469  0.1517  0.1374 -0.4748
  285TIP3    H1  819   6.335   3.999   3.488 -0.1810  0.1762  0.2689
  285TIP3    H2  820   6.202   3.931   3.512  0.2002 -0.7203 -0.1057
  286TIP3   OH2  821   6.085   2.830   2.155  0.5005  0.2438 -0.1183
  286TIP3    H1  822   6.007   2.814   2.102 -1.1284  1.7097  1.6486
  286TIP3    H2  823   6.082   2.761   2.223  0.4840  0.5618  0.2071
  287TIP3   OH2  824   7.166   4.839   3.884 -0.0433  0.1060 -0.3357
  287TIP3    H1  825   7.167   4.818   3.978 -1.0708 -1.1992 -0.5839
  287TIP3    H2  826   7.242   4.794   3.848 -0.1747 -0.1787 -0.2642
  288TIP3   OH2  827   3.763   2.662   4.931 -0.3832 -0.1752  0.2450
  288TIP3    H1  828   3.695   2.701   4.877 -0.5489 -0.5089  0.2102
  288TIP3    H2  829   3.842   2.667   4.877  0.2717  2.7418  1.3343
  289TIP3   OH2  830   3.848   0.618   3.241  0.4259  0.0946 -0.2354
  289TIP3    H1  831   3.895   0.648   3.163 -0.2489 -0.4035 -0.8556
  289TIP3    H2  832   3.887   0.534   3.262  0.6053  0.2274 -0.0474
  290TIP3   OH2  833   2.218   2.037   0.170  0.0668  0.5862  0.2185
  290TIP3    H1  834   2.149   1.971   0.159 -0.0333  0.3342  2.0539
  290TIP3    H2  835   2.272   2.029   0.092 -0.3829 -1.1591  0.0542
  291TIP3   OH2  836   1.834   4.021   5.550  0.2087 -0.5581  0.2362
  291TIP3    H1  837   1.801   3.997   5.636  0.9285 -1.7535  0.2135
  291TIP3    H2  838   1.899   4.089   5.567  0.4679 -0.9053  0.6717
  292TIP3   OH2  839   5.125   1.300   0.122  0.1503 -0.0364 -0.2718
  292TIP3    H1  840   5.084   1.214   0.121  1.4361 -0.8191  2.6973
  292TIP3    H2  841   5.052   1.362   0.114 -1.0067 -1.3690 -0.4125
  293TIP3   OH2  842   6.741   6.412   1.749  0.0765 -0.7831 -0.4320
  293TIP3    H1  843   6.728   6.328   1.793  0.3465 -1.3360 -1.3803
  293TIP3    H2  844   6.836   6.420   1.740  0.0015 -0.9584 -1.4319
  294TIP3   OH2  845   0.493   5.856   3.215  0.8370  0.1574  0.2073
  294TIP3    H1  846   0.463   5.811   3.137 -0.7728 -0.9331  1.3756
  294TIP3    H2  847   0.469   5.948   3.200 -1.6571 -0.4046  0.3487
  295TIP3   OH2  848   6.338   3.371   0.927  0.2080 -0.2926  0.0416
  295TIP3    H1  849   6.262   3.430   0.925 -1.3346 -2.1938 -1.5839
  295TIP3    H2  850   6.389   3.396   0.850 -0.7561 -1.3980 -0.9881
  296TIP3   OH2  851   4.807   2.598   2.212  0.1728 -0.4511  0.1867
  296TIP3    H1  852   4.848   2.685   2.209 -0.0690 -0.3364  0.1396
  296TIP3    H2  853   4.762   2.596   2.296  2.5534 -1.6371  1.5402
  297TIP3   OH2  854   2.430   6.288   4.118  0.4461  0.0695 -0.5469
  297TIP3    H1  855   2.373   6.324   4.050  0.7228  2.4313  0.3594
  297TIP3    H2  856   2.374   6.232   4.170 -0.6539  0.9887 -0.6994
  298TIP3   OH2  857   5.263   6.118   4.334 -0.6800  0.0471  0.2507
  298TIP3    H1  858   5.256   6.057   4.407  0.0423 -1.3416 -0.7951
  298TIP3    H2  859   5.173   6.136   4.308 -0.9003 -1.8208 -0.4001
  299TIP3   OH2  860   2.117   2.575   2.361  0.4151  0.1924  0.7146
  299TIP3    H1  861   2.212   2.564   2.359  0.2672 -1.7682  1.6458
  299TIP3    H2  862   2.098   2.636   2.290  2.4194  1.2123  0.9951
  300TIP3   OH2  863   2.047   5.083   4.214  0.4715  0.5482 -0.4052
  300TIP3    H1  864   1.984   5.144   4.253  0.5053  1.2794 -1.4665
  300TIP3    H2  865   2.132   5.123   4.228  0.9087 -1.0270  2.1378
  301TIP3   OH2  866   0.429   3.286   5.514  0.1477 -0.5703 -0.2953
  301TIP3    H1  867   0.442   3.195   5.487  0.2088 -0.0498 -2.1563
  301TIP3    H2  868   0.516   3.325   5.508 -0.3118  0.2426 -2.1337
  302TIP3   OH2  869   0.470   4.908   0.885 -0.1343  0.4081 -0.4251
  302TIP3    H1  870   0.386   4.925   0.843 -0.2007  0.9790 -0.0726
  302TIP3    H2  871   0.450   4.844   0.954 -0.0749 -0.3112 -1.0595
  303TIP3   OH2  872   1.187   5.017   2.998 -0.5143  0.0887  0.4620
  303TIP3    H1  873   1.157   4.973   3.078  0.8284  0.9524  1.4970
  303TIP3    H2  874   1.269   4.974   2.976  0.6030  1.6833  1.2481
  304TIP3   OH2  875   1.991   6.137   3.453 -0.4226 -0.0791  0.2895
  304TIP3    H1  876   2.007   6.085   3.374  0.8165  1.5477 -0.5972
  304TIP3    H2  877   1.986   6.072   3.524  1.3653 -1.4078 -0.7101
  305TIP3   OH2  878   5.080   1.966   1.586  0.0661  0.2691 -0.1273
  305TIP3    H1  879   5.067   1.920   1.669  0.3863  1.5984  0.6871
  305TIP3    H2  880   5.045   1.906   1.520 -1.7925 -0.1049  1.1138
  306TIP3   OH2  881   3.027   0.413   2.343  0.0842  0.2093  0.1820
  306TIP3    H1  882   2.943   0.377   2.313  1.2162 -2.0834 -0.4354
  306TIP3    H2  883   3.013   0.434   2.435 -1.0006 -0.7198  0.2486
  307TIP3   OH2  884   0.456   3.441   0.226  0.4178  0.2694 -0.2568
  307TIP3    H1  885   0.383   3.380   0.214 -0.4021  0.6852  2.1539
  307TIP3    H2  886   0.532   3.396   0.188 -0.1827 -2.2280  1.2793
  308TIP3   OH2  887   3.267   4.313   3.670  0.4338  0.2686 -0.1817
  308TIP3    H1  888   3.270   4.299   3.765 -0.6926  1.2314  0.0152
  308TIP3    H2  889   3.243   4.227   3.635  0.8717 -0.1031  0.3862
  309TIP3   OH2  890   3.873   1.346   3.311  0.1238 -0.0959  0.5445
  309TIP3    H1  891   3.841   1.433   3.337  1.0996  0.1392  0.9826
  309TIP3    H2  892   3.820   1.324   3.233 -0.8072  0.4568  0.9977
  310TIP3   OH2  893   3.834   0.746   3.463 -0.2231  0.6805  0.4717
  310TIP3    H1  894   3.831   0.688   3.540  3.9707 -1.4699 -0.6710
  310TIP3    H2  895   3.817   0.688   3.389  0.6387  1.6705 -0.5236
  311TIP3   OH2  896   4.384   2.617   1.995  0.1489 -0.3661  0.5676
  311TIP3    H1  897   4.422   2.530   1.990  2.5017  0.6259 -3.4545
  311TIP3    H2  898   4.459   2.675   2.006 -0.8331  1.3199 -1.0060
  312TIP3   OH2  899   0.417   3.139   0.408  0.1649  0.3427 -0.6586
  312TIP3    H1  900   0.331   3.164   0.376  0.4416  2.5714  0.1705
  312TIP3    H2  901   0.400   3.071   0.473 -1.2667  2.3958  1.2503
  313TIP3   OH2  902   3.373   2.125   3.912  0.6066  0.0351  0.4567
  313TIP3    H1  903   3.345   2.093   3.826  1.2678  0.2860  0.1434
  313TIP3    H2  904   3.292   2.152   3.954  0.3821  0.9781 -0.5256
  314TIP3   OH2  905   0.733   3.833   0.295 -0.1021  0.2716 -0.5067
  314TIP3    H1  906   0.702   3.898   0.359  0.1869  1.6251 -1.7064
  314TIP3    H2  907   0.824   3.817   0.319  0.0246  0.8260 -0.6232
  315TIP3   OH2  908   2.242   3.572   0.141 -0.0247  0.2225  0.2140
  315TIP3    H1  909   2.333   3.561   0.168 -0.2726  0.8846  1.3977
  315TIP3    H2  910   2.192   3.573   0.223 -1.2086 -0.9320 -0.4503
  316TIP3   OH2  911   6.462   0.669   2.818 -0.2223 -0.7837 -0.0410
  316TIP3    H1  912   6.508   0.748   2.847 -0.2108 -1.5466  2.1920
  316TIP3    H2  913   6.526   0.623   2.763  0.0021  0.4093 -0.8019
  317TIP3   OH2  914   0.074   4.308   1.627  0.4367 -0.0485  0.7377
  317TIP3    H1  915   0.074   4.369   1.553  1.3577 -0.1916  0.5996
  317TIP3    H2  916   0.108   4.227   1.589 -0.2682 -0.4968  1.0432
  318TIP3   OH2  917   2.212   3.648   3.425  0.0123  0.5039 -0.7123
  318TIP3    H1  918   2.287   3.667   3.368 -0.4698  1.8698 -0.9271
  318TIP3    H2  919   2.217   3.714   3.494 -0.1145 -0.3796  0.1606
  319TIP3   OH2  920   4.144   6.449   5.851 -0.1998  0.1203  0.1258
  319TIP3    H1  921   4.056   6.472   5.821  0.4541  1.8059 -0.6195
  319TIP3    H2  922   4.189   6.420   5.772  0.4232  0.9654  0.1609
  320TIP3   OH2  923   6.269   2.649   2.428  0.4272  0.5842  0.3138
  320TIP3    H1  924   6.254   2.712   2.499 -0.2572  1.3463 -0.4737
  320TIP3    H2  925   6.182   2.635   2.390  0.1962 -2.3389  1.6349
  321TIP3   OH2  926   0.287   3.363   2.214  0.5430  0.1764 -0.3993
  321TIP3    H1  927   0.337   3.370   2.133  0.2117  1.5159 -0.5122
  321TIP3    H2  928   0.266   3.454   2.237 -1.5270 -0.3085 -0.1687
  322TIP3   OH2  929   4.167   2.107   2.599 -0.5502  0.2523 -0.1079
  322TIP3    H1  930   4.125   2.074   2.519 -0.3053  0.9006 -0.5128
  322TIP3    H2  931   4.226   2.037   2.626 -1.1651 -0.2682 -0.0826
  323TIP3   OH2  932   4.762   3.796   4.675 -0.3726 -0.3011 -0.6511
  323TIP3    H1  933   4.705   3.850   4.620  0.2766  0.5840 -0.4893
  323TIP3    H2  934   4.783   3.720   4.622 -1.2566 -0.3619 -0.9178
  324TIP3   OH2  935   0.773   6.699   3.837  0.2031 -0.0582  0.0622
  324TIP3    H1  936   0.857   6.746   3.842 -0.2392  0.7573 -0.0570
  324TIP3    H2  937   0.797   6.612   3.805  1.1719 -0.3016  1.3803
  325TIP3   OH2  938   6.404   1.210   1.522  0.2951 -0.8515 -0.2206
  325TIP3    H1  939   6.481   1.161   1.550  1.0854  0.7556  0.5309
  325TIP3    H2  940   6.399   1.284   1.582 -1.5030 -0.5849 -0.6303
  326TIP3   OH2  941   4.996   1.643   2.101  0.3304 -0.6010 -0.0024
  326TIP3    H1  942   4.906   1.673   2.096  0.5803  0.0015 -1.4192
  326TIP3    H2  943   4.991   1.557   2.142 -0.7553 -0.0806  0.9990
  327TIP3   OH2  944   1.640   2.656   2.833  0.1020  0.0869  0.7565
  327TIP3    H1  945   1.617   2.622   2.919 -1.3031 -2.5820 -0.5538
  327TIP3    H2  946   1.564   2.636   2.778  0.9787  1.6457 -1.1417
  328TIP3   OH2  947   0.254   6.180   1.506  0.6976  0.0932  0.2822
  328TIP3    H1  948   0.324   6.146   1.562  0.5437  0.1898  0.5362
  328TIP3    H2  949   0.262   6.275   1.511  0.8378  0.0985 -0.0587
  329TIP3   OH2  950   6.012   1.412   4.480 -0.0716 -0.0798 -0.0653
  329TIP3    H1  951   6.073   1.386   4.411  0.1000  0.4952 -0.1419
  329TIP3    H2  952   5.928   1.422   4.436 -0.0336 -0.0434 -0.1303
  330TIP3   OH2  953   3.912   0.223   0.246 -0.1484 -0.1409  0.5372
  330TIP3    H1  954   3.989   0.183   0.287 -0.4090 -0.6304  0.5555
  330TIP3    H2  955   3.908   0.311   0.284  0.3564 -0.1380  0.5943
  331TIP3   OH2  956   6.269   3.891   0.139 -0.2575  0.0176 -0.1382
  331TIP3    H1  957   6.287   3.983   0.119  3.0981 -0.1255  1.5553
  331TIP3    H2  958   6.289   3.844   0.058 -1.2172  0.6489 -0.7691
  332TIP3   OH2  959   1.411   1.101   1.287 -0.0992 -0.0434  0.2867
  332TIP3    H1  960   1.340   1.038   1.280  0.7072 -0.8674 -0.8998
  332TIP3    H2  961   1.422   1.115   1.381 -0.9358 -0.9414  0.5306
  333TIP3   OH2  962   5.900   1.760   1.548  0.2484  0.3249 -0.2373
  333TIP3    H1  963   5.805   1.766   1.560  0.3511  0.7533  0.4600
  333TIP3    H2  964   5.925   1.679   1.591  0.2301  0.3566 -0.1661
  334TIP3   OH2  965   4.278   1.143   2.875  0.4904 -0.5893 -0.2064
  334TIP3    H1  966   4.238   1.059   2.853 -0.7360 -0.1765  0.3797
  334TIP3    H2  967   4.213   1.209   2.850  0.6064  0.0731  1.1546
  335TIP3   OH2  968   6.570   6.288   3.631 -0.4768  0.4208 -0.1454
  335TIP3    H1  969   6.652   6.301   3.583 -0.9557  0.2085 -1.0529
  335TIP3    H2  970   6.561   6.366   3.685  0.1878  0.5725 -0.2478
  336TIP3   OH2  971   5.752   3.539   1.509 -0.7595  0.1960  0.4601
  336TIP3    H1  972   5.717   3.618   1.552 -1.9513  0.9104 -1.6564
  336TIP3    H2  973   5.847   3.552   1.509 -0.8349  0.8780  1.5007
  337TIP3   OH2  974   4.461   6.046   2.314 -0.2102  0.0819 -0.2426
  337TIP3    H1  975   4.400   6.004   2.375 -0.9974 -1.0376 -1.7232
  337TIP3    H2  976   4.545   6.002   2.329 -0.3734 -0.1142  0.1105
  338TIP3   OH2  977   1.370   4.594   0.508 -0.2108 -0.0493 -0.6295
  338TIP3    H1  978   1.393   4.624   0.596 -2.0508 -1.7750  0.5348
  338TIP3    H2  979   1.314   4.663   0.472  0.1045  0.4156 -0.2347
  339TIP3   OH2  980   5.242   3.344   4.767  0.2270  0.0517 -0.7089
  339TIP3    H1  981   5.250   3.358   4.672  1.8912 -0.1154 -0.6232
  339TIP3    H2  982   5.321   3.296   4.790  1.2675  2.5080  1.2231
  340TIP3   OH2  983   6.480   0.732   0.775  0.3587  0.3464 -0.3686
  340TIP3    H1  984   6.550   0.788   0.742  0.5162 -0.5724 -1.6489
  340TIP3    H2  985   6.421   0.792   0.821  1.4553  1.2768 -0.1324
  341TIP3   OH2  986   2.817   2.513   2.839  0.3389  0.4678  0.3243
  341TIP3    H1  987   2.762   2.590   2.854  1.6948  1.4873  0.2060
  341TIP3    H2  988   2.895   2.528   2.893  0.8011 -0.6453 -0.0050
  342TIP3   OH2  989   0.107   2.394   1.606  0.4038  0.0420  0.0302
  342TIP3    H1  990   0.097   2.448   1.685 -0.4879  0.4327 -0.3306
  342TIP3    H2  991   0.162   2.321   1.634  1.1901  0.8472  0.6725
  343TIP3   OH2  992   0.568   5.669   4.171  0.1755 -0.7266 -0.0241
  343TIP3    H1  993   0.650   5.694   4.215 -0.6120 -0.9203  1.6456
  343TIP3    H2  994   0.545   5.745   4.119  1.6645 -0.8501 -0.9222
  344TIP3   OH2  995   6.049   5.256   2.835  0.5126  0.1636  0.3241
  344TIP3    H1  996   5.993   5.257   2.913  0.9626  1.8326  0.6695
  344TIP3    H2  997   6.081   5.346   2.828 -0.2701  0.3149 -2.3335
  345TIP3   OH2  998   2.272   3.335   0.623  0.0443  0.1411  0.0148
  345TIP3    H1  999   2.258   3.300   0.535 -1.5310 -1.1770  0.7389
  345TIP3    H2 1000   2.289   3.258   0.676  0.8009  0.9110  0.9091
  346TIP3   OH2 1001   3.632   3.536   5.828 -0.1898 -0.4055  0.8785
  346TIP3    H1 1002   3.721   3.560   5.803  0.3425 -1.4515  1.6897
  346TIP3    H2 1003   3.595   3.617   5.864 -0.0879  0.4183 -0.7752
  347TIP3   OH2 1004   0.336   3.422   3.530 -0.2638  0.1121  0.0842
  347TIP3    H1 1005   0.411   3.460   3.577 -0.0186 -0.7076  0.3708
  347TIP3    H2 1006   0.304   3.493   3.475  2.7147 -0.3311 -2.4922
  348TIP3   OH2 1007   6.513   3.115   4.690  0.9391 -0.0176  0.0611
  348TIP3    H1 1008   6.560   3.081   4.615  0.2983  0.1927 -0.4429
  348TIP3    H2 1009   6.490   3.038   4.742 -2.2668 -0.7054 -2.0680
  349TIP3   OH2 1010   5.448   1.568   1.195  0.3827  0.4852 -0.1721
  349TIP3    H1 1011   5.537   1.592   1.170  0.1024  0.2607 -1.4599
  349TIP3    H2 1012   5.448   1.472   1.196  0.2414  0.4855  0.1803
  350TIP3   OH2 1013   5.136   1.777   4.380 -0.0534 -0.4500 -0.5445
  350TIP3    H1 1014   5.111   1.837   4.310 -1.3182  0.6608  0.7706
  350TIP3    H2 1015   5.231   1.780   4.382 -0.0783  1.3363 -0.6996
  351TIP3   OH2 1016   6.307   2.632   5.804 -0.3549 -0.5601 -0.2898
  351TIP3    H1 1017   6.259   2.564   5.756 -0.0102  0.1211 -1.6296
  351TIP3    H2 1018   6.274   2.625   5.893 -0.2983 -2.5291 -0.3605
  352TIP3   OH2 1019   6.315   6.374   3.798 -0.2760 -0.5050 -0.2109
  352TIP3    H1 1020   6.382   6.440   3.816  0.4850 -1.7096  1.6175
  352TIP3    H2 1021   6.270   6.362   3.881 -2.1574 -0.4331 -1.1699
  353TIP3   OH2 1022   4.702   5.067   5.600 -0.0249  0.2976 -0.3660
  353TIP3    H1 1023   4.702   4.981   5.641  2.9324 -0.0324 -0.7798
  353TIP3    H2 1024   4.696   5.129   5.673  0.0989 -0.2664  0.1294
  354TIP3   OH2 1025   7.114   4.863   4.844  0.0423 -0.0219  0.8116
  354TIP3    H1 1026   7.106   4.898   4.932  0.7987 -0.5584  1.1046
  354TIP3    H2 1027   7.115   4.768   4.856  1.4448 -0.0862  0.3617
  355TIP3   OH2 1028   0.559   4.632   4.688 -0.2781 -0.0282  0.0194
  355TIP3    H1 1029   0.535   4.542   4.663 -0.9612  0.1040  0.1751
  355TIP3    H2 1030   0.477   4.671   4.718 -0.0607  0.7766 -0.4136
  356TIP3   OH2 1031   6.543   1.175   3.224 -0.0143  0.2287 -0.3626
  356TIP3    H1 1032   6.538   1.110   3.295  0.6590 -0.7976 -1.2227
  356TIP3    H2 1033   6.475   1.239   3.246 -0.3331 -0.4667  0.8056
  357TIP3   OH2 1034   6.232   3.240   2.131  0.1646  1.1651 -0.0167
  357TIP3    H1 1035   6.230   3.174   2.062 -1.4217  1.6227 -0.4447
  357TIP3    H2 1036   6.244   3.323   2.085 -0.7552  1.4584  0.2409
  358TIP3   OH2 1037   6.843   0.972   0.886  0.0479 -0.0918 -0.4543
  358TIP3    H1 1038   6.842   1.062   0.918  0.5965 -0.2314 -0.0344
  358TIP3    H2 1039   6.866   0.919   0.962 -0.9472 -0.6617 -0.5298
  359TIP3   OH2 1040   4.984   2.324   3.110 -0.1396 -0.1612 -0.7311
  359TIP3    H1 1041   4.906   2.277   3.080 -0.8034  0.4326  0.0367
  359TIP3    H2 1042   5.057   2.267   3.085 -0.9186 -1.6265  0.2261
  360TIP3   OH2 1043   6.461   1.712   5.456  0.4090 -0.1237  0.2613
  360TIP3    H1 1044   6.426   1.768   5.526  0.3283  0.3598 -0.1589
  360TIP3    H2 1045   6.532   1.763   5.418  1.5154 -1.0547  1.0256
  361TIP3   OH2 1046   4.298   5.177   2.512  0.0230  0.1804 -0.3340
  361TIP3    H1 1047   4.221   5.122   2.501 -1.0175  1.5576 -0.1014
  361TIP3    H2 1048   4.354   5.127   2.571 -1.6617  0.0868  1.2811
  362TIP3   OH2 1049   3.896   5.035   3.521 -0.3328  0.2133  0.0072
  362TIP3    H1 1050   3.834   5.039   3.594 -0.3204  0.2503  0.0158
  362TIP3    H2 1051   3.969   4.983   3.555 -0.8000 -0.7062 -0.3322
  363TIP3   OH2 1052   1.568   5.556   1.349 -0.2070  0.3892 -0.4087
  363TIP3    H1 1053   1.619   5.619   1.399 -2.4557  2.5101 -0.6159
  363TIP3    H2 1054   1.568   5.590   1.260 -1.4033  0.0803 -0.5431
  364TIP3   OH2 1055   4.762   1.391   4.668  0.0476  0.0804  1.0252
  364TIP3    H1 1056   4.677   1.371   4.628  0.6160  0.2533 -0.3287
  364TIP3    H2 1057   4.768   1.486   4.665  1.2432  0.0010 -1.0665
  365TIP3   OH2 1058   2.734   0.601   5.116 -0.0713  0.3213  0.2671
  365TIP3    H1 1059   2.749   0.559   5.200 -0.0430  1.7075  0.9811
  365TIP3    H2 1060   2.668   0.669   5.134  0.5722  1.2138 -0.6276
  366TIP3   OH2 1061   0.062   0.328   2.828 -0.1462 -0.6923 -0.0188
  366TIP3    H1 1062   0.080   0.314   2.735  0.6185 -0.4599  0.0841
  366TIP3    H2 1063   0.087   0.419   2.844  0.7013 -1.0213  0.6244
  367TIP3   OH2 1064   3.392   0.651   5.723 -0.3977  0.6011 -0.2364
  367TIP3    H1 1065   3.324   0.652   5.790 -0.5603  2.9523 -0.3295
  367TIP3    H2 1066   3.347   0.620   5.644 -0.7511 -0.1256  0.2463
  368TIP3   OH2 1067   0.003   0.297   4.826  0.0205 -0.1662 -0.2305
  368TIP3    H1 1068   0.088   0.340   4.821  0.2144 -0.5641 -0.3196
  368TIP3    H2 1069  -0.060   0.366   4.801  0.2701  0.2548  0.2801
  369TIP3   OH2 1070   6.844   6.302   3.567 -0.0111  0.1797 -0.2384
  369TIP3    H1 1071   6.923   6.343   3.530 -0.2853 -0.0525 -1.1106
  369TIP3    H2 1072   6.861   6.298   3.661  0.3584  1.5657 -0.2164
  370TIP3   OH2 1073   2.785   4.454   1.537  0.4090  0.0919 -0.0082
  370TIP3    H1 1074   2.711   4.444   1.596  0.4503 -1.7405 -0.2135
  370TIP3    H2 1075   2.755   4.516   1.470 -0.9821 -0.7294 -0.1715
  371TIP3   OH2 1076   6.262   0.568   0.043  0.2871  0.0360  0.0210
  371TIP3    H1 1077   6.243   0.499   0.106  0.4969 -1.3126 -1.3459
  371TIP3    H2 1078   6.329   0.622   0.086  0.9155 -1.2352  0.6907
  372TIP3   OH2 1079   5.749   1.177   3.323 -0.1598 -0.1732  0.0075
  372TIP3    H1 1080   5.658   1.167   3.296 -0.0884  0.0095 -0.3061
  372TIP3    H2 1081   5.800   1.138   3.251  0.0107 -0.2518  0.1687
  373TIP3   OH2 1082   2.338   3.096   3.713  0.1817  0.3139 -0.3706
  373TIP3    H1 1083   2.287   3.036   3.657  0.7600  0.6604 -1.2854
  373TIP3    H2 1084   2.386   3.038   3.772 -0.5212 -0.0523 -0.1347
  374TIP3   OH2 1085   0.237   3.855   1.899  0.0505 -0.0257 -0.0526
  374TIP3    H1 1086   0.283   3.936   1.921 -0.9101  0.2812  0.8967
  374TIP3    H2 1087   0.158   3.856   1.953 -0.7104 -0.8941 -1.0970
  375TIP3   OH2 1088   3.021   0.777   0.439  0.4678 -0.1339 -0.2336
  375TIP3    H1 1089   3.039   0.802   0.348  0.1787  0.5288 -0.1128
  375TIP3    H2 1090   3.084   0.827   0.491 -0.2179  0.4874  0.0212
  376TIP3   OH2 1091   4.115   3.974   4.082  0.1443 -0.3271  0.5277
  376TIP3    H1 1092   4.110   3.892   4.129 -0.1682 -0.3277  0.4937
  376TIP3    H2 1093   4.024   4.000   4.067  0.2076  0.7697  1.8264
  377TIP3   OH2 1094   1.625   0.576   0.603  0.2682 -0.3770 -0.3365
  377TIP3    H1 1095   1.563   0.535   0.663 -0.5605  2.0426  0.5821
  377TIP3    H2 1096   1.691   0.616   0.660 -0.5761  2.0419 -0.9237
  378TIP3   OH2 1097   2.972   0.697   2.991 -0.7279 -0.1305  0.3075
  378TIP3    H1 1098   2.913   0.691   3.066  1.1892 -0.0491  1.9016
  378TIP3    H2 1099   3.020   0.779   3.005 -0.7874  0.2170 -1.3765
  379TIP3   OH2 1100   4.309   5.509   1.689  0.1169 -0.3177  0.2206
  379TIP3    H1 1101   4.381   5.447   1.706 -0.2917 -0.8902 -0.0868
  379TIP3    H2 1102   4.319   5.533   1.597 -0.0869 -0.4044  0.1745
  380TIP3   OH2 1103   0.117   0.286   2.568  0.5025  0.5834 -0.8269
  380TIP3    H1 1104   0.077   0.215   2.517 -1.5390  1.2688 -0.2676
  380TIP3    H2 1105   0.106   0.363   2.513 -1.0524  1.1949  0.2830
  381TIP3   OH2 1106   3.465   1.484   5.590  0.6081 -0.4429 -0.0747
  381TIP3    H1 1107   3.422   1.529   5.662  0.5867 -2.1527  1.0493
  381TIP3    H2 1108   3.474   1.550   5.521 -2.4682  0.3757  0.1716
  382TIP3   OH2 1109   0.313   1.093   1.355  0.4843 -0.2234 -0.2746
  382TIP3    H1 1110   0.332   1.105   1.262  0.1675  1.2851 -0.1654
  382TIP3    H2 1111   0.302   0.999   1.365  1.4058 -0.4998 -1.5931
  383TIP3   OH2 1112   0.673   5.258   4.713  0.2358  0.3127  0.2078
  383TIP3    H1 1113   0.691   5.339   4.665 -1.3185 -0.2846 -1.4981
  383TIP3    H2 1114   0.687   5.281   4.805 -0.7228  2.6725 -0.1692
  384TIP3   OH2 1115   1.835   6.687   5.773 -0.0146  0.4998 -0.1442
  384TIP3    H1 1116   1.828   6.595   5.751  3.1948 -0.0093  0.4634
  384TIP3    H2 1117   1.834   6.690   5.868  1.3157  0.8986 -0.1253
  385TIP3   OH2 1118   1.774   2.953   5.868  0.1340 -0.3741  0.6006
  385TIP3    H1 1119   1.686   2.971   5.903  0.3156  0.4978  0.6373
  385TIP3    H2 1120   1.773   2.990   5.780  0.8290  0.7215  1.0303
  386TIP3   OH2 1121   4.243   1.290   4.568 -0.2298 -0.2062  0.3075
  386TIP3    H1 1122   4.160   1.260   4.606 -1.1007 -0.7344 -1.8927
  386TIP3    H2 1123   4.220   1.370   4.521  0.6568  0.0395  0.2741
  387TIP3   OH2 1124   5.606   6.402   1.339  1.2765  0.4422  0.2572
  387TIP3    H1 1125   5.625   6.340   1.268  1.2253 -0.0082  0.6299
  387TIP3    H2 1126   5.546   6.465   1.300 -1.0797 -1.4269  0.6285
  388TIP3   OH2 1127   5.801   3.192   1.619  0.8048  0.1213  0.0832
  388TIP3    H1 1128   5.812   3.192   1.524  3.2403  0.8549  0.3073
  388TIP3    H2 1129   5.792   3.099   1.642 -0.2231 -0.0305 -0.8814
  389TIP3   OH2 1130   2.831  -0.006   0.925 -0.8806  1.0509  0.0622
  389TIP3    H1 1131   2.771   0.061   0.891  0.3753  1.7928 -0.8177
  389TIP3    H2 1132   2.899   0.044   0.971 -0.2596  0.3332 -0.0521
  390TIP3   OH2 1133   5.638   4.853   0.366  0.2045  0.4302  0.3742
  390TIP3    H1 1134   5.592   4.773   0.344  1.7012 -0.3829  0.0381
  390TIP3    H2 1135   5.633   4.859   0.461 -0.3368  0.2161  0.3621
  391TIP3   OH2 1136   1.579   4.651   1.257 -0.1397 -0.4546 -0.3338
  391TIP3    H1 1137   1.512   4.661   1.190 -1.4412  0.2946  1.0033
  391TIP3    H2 1138   1.532   4.620   1.334  1.5760 -3.0546 -0.1957
  392TIP3   OH2 1139   0.094   5.802   5.127  0.1274 -0.4476  0.4436
  392TIP3    H1 1140   0.088   5.777   5.035  0.0785 -0.1879  0.3752
  392TIP3    H2 1141   0.060   5.726   5.175  0.6758 -0.8103  0.2783
  393TIP3   OH2 1142   7.209   3.354   5.511 -0.2609 -0.1894  0.4121
  393TIP3    H1 1143   7.149   3.355   5.586 -1.0165  1.6913 -0.1603
  393TIP3    H2 1144   7.154   3.332   5.436  0.2186 -0.6772  0.1946
  394TIP3   OH2 1145   3.790   3.730   3.698 -0.2829 -0.1294  0.0282
  394TIP3    H1 1146   3.743   3.809   3.723 -0.5551 -0.2285 -0.1635
  394TIP3    H2 1147   3.809   3.742   3.605  0.6824  0.2159  0.2629
  395TIP3   OH2 1148   0.708   5.357   1.454  0.0302  0.5994 -0.4113
  395TIP3    H1 1149   0.636   5.295   1.442 -1.4350  1.7522  1.7413
  395TIP3    H2 1150   0.787   5.307   1.432 -1.3156 -1.0165 -1.8479
  396TIP3   OH2 1151   2.305   0.403   3.177 -0.2058  0.4720  0.0411
  396TIP3    H1 1152   2.276   0.327   3.227 -1.7949 -0.1095 -1.6370
  396TIP3    H2 1153   2.394   0.420   3.208 -0.1303 -1.5330  1.0841
  397TIP3   OH2 1154   4.373   1.672   1.381 -0.0072  0.6101 -0.4309
  397TIP3    H1 1155   4.300   1.683   1.320  0.9563 -2.0654 -2.2783
  397TIP3    H2 1156   4.432   1.610   1.337  2.9036  1.8251  1.3985
  398TIP3   OH2 1157   5.182   3.941   4.991  0.1377  0.7431  0.3127
  398TIP3    H1 1158   5.151   3.928   4.902 -0.2054  1.6433  0.2929
  398TIP3    H2 1159   5.223   4.027   4.990  0.5949  0.5428  0.9022
  399TIP3   OH2 1160   3.692   1.930   4.136 -0.5762 -0.2832 -0.1061
  399TIP3    H1 1161   3.611   1.891   4.102 -0.8578  0.1538  0.0627
  399TIP3    H2 1162   3.695   2.017   4.097 -0.2486 -0.2553 -0.0186
  400TIP3   OH2 1163   6.925   4.361   2.191  0.0392 -0.8074  0.5739
  400TIP3    H1 1164   7.001   4.366   2.248  0.0895  0.9145  0.4120
  400TIP3    H2 1165   6.955   4.394   2.107 -0.9481  0.2618  0.6083
  401TIP3   OH2 1166   5.268   2.243   4.854 -0.1432 -0.4469 -0.4087
  401TIP3    H1 1167   5.259   2.153   4.824  1.1022  0.0309 -2.3750
  401TIP3    H2 1168   5.311   2.235   4.939  0.4722 -1.6946 -0.8164
  402TIP3   OH2 1169   4.110   3.869   3.535 -0.1531  0.3364  0.2268
  402TIP3    H1 1170   4.174   3.875   3.464 -0.0736  0.8591  0.3423
  402TIP3    H2 1171   4.029   3.842   3.492 -0.4033  1.7546 -0.2468
  403TIP3   OH2 1172   5.625   5.278   5.097 -0.0437  0.1104  0.9635
  403TIP3    H1 1173   5.626   5.207   5.161 -1.0604  0.0350  0.9076
  403TIP3    H2 1174   5.685   5.249   5.028 -0.4126 -0.6787  0.9650
  404TIP3   OH2 1175   4.301   6.435   3.618  0.0023 -0.0396 -0.3858
  404TIP3    H1 1176   4.292   6.529   3.606 -2.0703 -0.1495 -0.0939
  404TIP3    H2 1177   4.285   6.398   3.531  0.8309 -0.1521 -0.5041
  405TIP3   OH2 1178   7.182   5.588   4.771 -0.2620 -0.0344 -0.4077
  405TIP3    H1 1179   7.089   5.578   4.790 -0.6527  3.6990  0.3388
  405TIP3    H2 1180   7.195   5.682   4.759  3.3660 -0.4371 -0.9551
  406TIP3   OH2 1181   2.907   0.140   5.194  0.3040  0.7220  0.2289
  406TIP3    H1 1182   2.990   0.091   5.193  0.2446  0.6064  0.7479
  406TIP3    H2 1183   2.896   0.169   5.104  0.5110  0.0637 -0.0155
  407TIP3   OH2 1184   3.290   3.160   5.660 -0.1543  0.2417 -0.2349
  407TIP3    H1 1185   3.293   3.100   5.734  0.4349 -0.4869 -0.8416
  407TIP3    H2 1186   3.315   3.107   5.585  1.2078  1.4369 -0.6652
  408TIP3   OH2 1187   4.993   6.183   1.943  0.1832  0.0468  0.4489
  408TIP3    H1 1188   4.946   6.106   1.974  0.7043 -0.0888  0.9184
  408TIP3    H2 1189   5.034   6.155   1.861 -0.6587  0.2102 -0.0419
  409TIP3   OH2 1190   5.164   3.380   2.000 -0.3739 -0.5495 -0.0458
  409TIP3    H1 1191   5.186   3.333   2.080 -0.2901 -3.0549 -1.4387
  409TIP3    H2 1192   5.108   3.452   2.029  0.3797 -0.8215  2.3266
  410TIP3   OH2 1193   5.683   2.611   0.638 -0.8053 -0.0513 -0.2586
  410TIP3    H1 1194   5.777   2.591   0.644 -0.3654  2.1735  2.0180
  410TIP3    H2 1195   5.641   2.525   0.633  1.3185 -1.1415 -0.5840
  411TIP3   OH2 1196   5.156   6.254   3.794  0.1330  0.1974 -0.2585
  411TIP3    H1 1197   5.108   6.337   3.798  0.6396  0.5969 -1.7862
  411TIP3    H2 1198   5.096   6.194   3.749  1.0997  0.7900 -2.4772
  412TIP3   OH2 1199   3.280   0.307   2.338  0.1612  0.2760  0.0301
  412TIP3    H1 1200   3.316   0.378   2.283 -0.1018  2.0367  2.0038
  412TIP3    H2 1201   3.188   0.331   2.350  0.1032 -0.3273  0.8387
  413TIP3   OH2 1202   0.533   1.779   2.268 -0.0249 -0.0336 -0.4570
  413TIP3    H1 1203   0.619   1.749   2.240  0.2491 -0.0237  0.3393
  413TIP3    H2 1204   0.477   1.767   2.191  0.7707  0.3671 -1.1158
  414TIP3   OH2 1205   5.472   4.333   4.702 -0.2090 -0.1245 -0.3278
  414TIP3    H1 1206   5.507   4.421   4.686 -0.7591 -0.1143 -1.5909
  414TIP3    H2 1207   5.539   4.289   4.754  0.2749  0.8928 -0.0689
  415TIP3   OH2 1208   4.330   1.507   1.010 -0.0416 -0.1644  0.3485
  415TIP3    H1 1209   4.416   1.479   1.041  1.6178  1.8073 -2.0569
  415TIP3    H2 1210   4.313   1.589   1.058  0.0049  0.0722 -0.0333
  416TIP3   OH2 1211   1.905   5.795   4.255  0.3143  0.1332 -0.5996
  416TIP3    H1 1212   1.823   5.804   4.303  2.1350 -0.5881  3.0573
  416TIP3    H2 1213   1.885   5.735   4.184 -2.3252 -0.0016  0.1647
  417TIP3   OH2 1214   5.050   1.728   5.410  1.2641  0.0769 -0.0750
  417TIP3    H1 1215   4.970   1.695   5.451  1.0797  1.6935  0.9496
  417TIP3    H2 1216   5.079   1.656   5.353 -1.9352  0.0800 -1.9739
  418TIP3   OH2 1217   7.160   5.781   4.476 -0.5426 -0.4573  0.4019
  418TIP3    H1 1218   7.215   5.788   4.399 -0.7609  0.2796  0.3036
  418TIP3    H2 1219   7.103   5.706   4.459  0.3302 -1.1300  0.4455
  419TIP3   OH2 1220   0.340   0.997   5.774 -0.0590  0.1081 -0.5133
  419TIP3    H1 1221   0.393   0.960   5.844 -1.4121 -0.2587  0.3468
  419TIP3    H2 1222   0.398   0.997   5.697  1.0482 -0.6119  0.3013
  420TIP3   OH2 1223   4.842   5.754   0.259 -0.0297 -0.5952  0.0474
  420TIP3    H1 1224   4.792   5.702   0.323  0.5583  0.3104  1.2665
  420TIP3    H2 1225   4.779   5.771   0.189 -1.3008  0.0739  1.3057
  421TIP3   OH2 1226   0.788   0.411   5.000  0.0409 -1.0703 -0.5821
  421TIP3    H1 1227   0.860   0.395   5.061  0.0904  3.3001  0.8996
  421TIP3    H2 1228   0.709   0.393   5.051  0.0562 -1.4849 -0.6976
  422TIP3   OH2 1229   2.041   0.065   3.493 -0.5829  0.0159 -0.1935
  422TIP3    H1 1230   1.988  -0.002   3.449 -0.3954  0.8593 -1.7779
  422TIP3    H2 1231   1.994   0.082   3.575 -1.9229 -0.3635 -0.8559
  423TIP3   OH2 1232   6.081   0.048   2.662 -0.0196  0.2141 -0.1554
  423TIP3    H1 1233   6.064   0.082   2.575  0.1765 -0.0450 -0.2953
  423TIP3    H2 1234   6.146   0.107   2.699  0.4855 -0.1300 -0.4796
  424TIP3   OH2 1235   0.321   0.028   4.133 -0.4231  0.1474 -0.1708
  424TIP3    H1 1236   0.271   0.079   4.197  0.0367 -0.7319  0.9105
  424TIP3    H2 1237   0.363   0.094   4.078 -0.6757  0.9228  0.5394
  425TIP3   OH2 1238   2.852   2.507   4.944  0.2674  0.3934  0.7179
  425TIP3    H1 1239   2.800   2.511   5.024 -1.8186  0.7250 -0.5752
  425TIP3    H2 1240   2.875   2.414   4.936 -0.5792  0.1480  1.0438
  426TIP3   OH2 1241   0.211   2.003   0.029 -0.1410 -0.1871 -0.1038
  426TIP3    H1 1242   0.261   2.082   0.051  2.1658 -1.3847 -0.6763
  426TIP3    H2 1243   0.207   1.954   0.111 -0.2612 -0.1477 -0.0865
  427TIP3   OH2 1244   4.916   6.050   0.578 -0.2764 -0.1570  0.0949
  427TIP3    H1 1245   4.995   6.104   0.571  0.6342 -1.3126  1.0003
  427TIP3    H2 1246   4.896   6.026   0.487 -0.6156  1.5333 -0.3054
  428TIP3   OH2 1247   3.849   4.600   0.309  0.4193  0.8918  0.0445
  428TIP3    H1 1248   3.938   4.610   0.342  1.0723 -2.2098 -0.4879
  428TIP3    H2 1249   3.811   4.531   0.363 -0.8208  0.5055 -1.2530
  429TIP3   OH2 1250   0.325   3.290   4.327 -0.4182  0.7500 -0.0317
  429TIP3    H1 1251   0.331   3.373   4.375 -0.3543  1.0845 -0.6090
  429TIP3    H2 1252   0.403   3.288   4.273 -0.7993  0.6718 -0.5831
  430TIP3   OH2 1253   1.353   4.185   1.259  0.2782 -0.0467 -0.5456
  430TIP3    H1 1254   1.344   4.091   1.275 -0.3534  0.2745  1.1630
  430TIP3    H2 1255   1.387   4.191   1.170 -0.4679 -1.8664 -0.9926
  431TIP3   OH2 1256   1.947   5.905   1.369  0.5370 -0.1398 -0.0320
  431TIP3    H1 1257   1.928   5.991   1.332 -0.4222  0.5797  1.9731
  431TIP3    H2 1258   2.041   5.906   1.386  0.5066  0.5955  0.1339
  432TIP3   OH2 1259   0.051   4.340   1.280  0.0033 -0.0794  0.0761
  432TIP3    H1 1260   0.055   4.419   1.225 -1.0908  0.2131  0.3981
  432TIP3    H2 1261   0.120   4.283   1.244  0.2730  0.6888 -0.6734
  433TIP3   OH2 1262   4.090   0.844   1.786  0.6982 -0.3069  0.1260
  433TIP3    H1 1263   4.018   0.880   1.735 -0.6084  0.6270  2.4831
  433TIP3    H2 1264   4.169   0.869   1.737 -0.4941 -0.4951 -1.9816
  434TIP3   OH2 1265   0.982   6.692   1.895  0.5090  0.1885  0.0713
  434TIP3    H1 1266   0.988   6.777   1.939 -0.7808  0.8159 -0.9063
  434TIP3    H2 1267   0.988   6.714   1.801  2.2137 -1.0147 -0.1435
  435TIP3   OH2 1268   3.522   2.902   0.495 -0.1572 -0.0918  0.0437
  435TIP3    H1 1269   3.602   2.945   0.464 -1.4717  2.2763 -0.2754
  435TIP3    H2 1270   3.494   2.956   0.569 -2.8182  0.7455 -1.4404
  436TIP3   OH2 1271   6.358   2.082   2.061  0.2094 -0.5127  0.1726
  436TIP3    H1 1272   6.270   2.108   2.033  0.6316  0.6127 -0.1868
  436TIP3    H2 1273   6.389   2.024   1.993  0.1593 -0.0238 -0.2755
  437TIP3   OH2 1274   2.698   4.749   2.132  0.2810  0.1753 -0.2643
  437TIP3    H1 1275   2.614   4.785   2.161  0.1580 -0.2458 -0.0770
  437TIP3    H2 1276   2.727   4.694   2.205  0.4711 -0.0773 -0.5264
  438TIP3   OH2 1277   3.353   5.076   4.777  0.8104  0.0090  0.5818
  438TIP3    H1 1278   3.300   5.151   4.802 -1.2539 -1.2868  0.3873
  438TIP3    H2 1279   3.380   5.095   4.687  1.3056  1.0171  0.9316
  439TIP3   OH2 1280   4.207   5.224   0.284 -0.4385  0.2647 -0.2717
  439TIP3    H1 1281   4.176   5.271   0.361 -2.1972 -0.7623 -0.3189
  439TIP3    H2 1282   4.290   5.184   0.313 -0.3709  1.0073  0.6332
  440TIP3   OH2 1283   0.817   4.389   4.757  0.7844 -0.3157  0.1737
  440TIP3    H1 1284   0.871   4.467   4.742 -0.2943  0.5041  0.4602
  440TIP3    H2 1285   0.793   4.359   4.670  1.5442 -0.5906  0.0466
  441TIP3   OH2 1286   2.327   1.948   5.526  0.3106  0.2090  0.3310
  441TIP3    H1 1287   2.406   1.936   5.474 -0.8373  0.3388 -1.5313
  441TIP3    H2 1288   2.314   2.043   5.527 -0.2006  0.1456  0.0084
  442TIP3   OH2 1289   5.078   4.797   1.052 -0.0702 -0.2894 -0.0234
  442TIP3    H1 1290   5.070   4.787   0.957 -0.0514 -0.9748  0.0399
  442TIP3    H2 1291   5.061   4.709   1.087  1.3967 -0.3814  0.5099
  443TIP3   OH2 1292   1.641   1.093   4.029 -0.2887 -0.5677 -0.2669
  443TIP3    H1 1293   1.609   1.139   4.107  0.3301  0.7819 -0.7716
  443TIP3    H2 1294   1.562   1.058   3.988 -0.9334  0.9889 -0.4296
  444TIP3   OH2 1295   2.214   4.916   2.286  0.4722 -0.0747 -0.3110
  444TIP3    H1 1296   2.143   4.880   2.234 -0.6332 -0.6680  1.5161
  444TIP3    H2 1297   2.186   5.005   2.307  0.5736 -0.0763 -0.1590
  445TIP3   OH2 1298   1.639   2.140   0.201 -0.1680 -0.0978 -0.2991
  445TIP3    H1 1299   1.577   2.212   0.215  0.0620  0.1284 -0.4226
  445TIP3    H2 1300   1.585   2.063   0.187 -0.4184 -0.0567  0.4027
  446TIP3   OH2 1301   6.804   0.783   1.671 -0.2594  0.0953 -0.0066
  446TIP3    H1 1302   6.738   0.796   1.602 -1.2462 -1.0622  0.6658
  446TIP3    H2 1303   6.812   0.688   1.678 -1.0970  0.1353  2.2864
  447TIP3   OH2 1304   3.519   6.201   3.662  0.2130  0.4218 -0.5749
  447TIP3    H1 1305   3.591   6.258   3.633  0.0236  0.9288 -0.0658
  447TIP3    H2 1306   3.491   6.157   3.582 -0.1600  1.6331 -1.1398
  448TIP3   OH2 1307   2.051   2.141   1.558  0.5229 -0.9375  0.4395
  448TIP3    H1 1308   2.027   2.233   1.568  1.0765 -0.4302 -2.1380
  448TIP3    H2 1309   2.139   2.135   1.595  0.0392 -0.7484  1.6878
  449TIP3   OH2 1310   0.153   2.863   2.928 -0.0600 -0.0372  0.0526
  449TIP3    H1 1311   0.245   2.873   2.952 -0.3376 -1.4146  1.9542
  449TIP3    H2 1312   0.139   2.927   2.859  1.7664  1.7469  1.2273
  450TIP3   OH2 1313   2.381   2.587   5.804 -0.1285 -0.5654 -0.0004
  450TIP3    H1 1314   2.435   2.551   5.734  0.1668 -0.0219 -0.0540
  450TIP3    H2 1315   2.319   2.645   5.760 -0.0224 -0.3170  0.1734
  451TIP3   OH2 1316   5.052   5.290   2.072 -0.0638 -0.4196 -0.1289
  451TIP3    H1 1317   5.069   5.337   2.154  1.9188  1.0251 -1.2708
  451TIP3    H2 1318   5.078   5.200   2.091 -1.8290 -0.6636  1.4576
  452TIP3   OH2 1319   1.949   1.931   2.271 -0.1795 -0.1316  0.2248
  452TIP3    H1 1320   2.017   1.865   2.257 -0.3017  0.0784 -1.6016
  452TIP3    H2 1321   1.873   1.898   2.223 -0.7617  0.5652  0.6412
  453TIP3   OH2 1322   1.265   4.347   1.679  0.5436  0.5898  0.4097
  453TIP3    H1 1323   1.325   4.273   1.681  0.4170  0.4915  0.6535
  453TIP3    H2 1324   1.318   4.420   1.646  0.5032  0.2502 -0.4299
  454TIP3   OH2 1325   5.661   5.109   1.365 -0.2107 -0.3798  0.3019
  454TIP3    H1 1326   5.750   5.085   1.387 -0.0845  0.3260  0.5776
  454TIP3    H2 1327   5.616   5.025   1.352  0.9444 -0.7593 -1.7582
  455TIP3   OH2 1328   3.487   3.130   3.007 -0.3521 -0.3368  0.1070
  455TIP3    H1 1329   3.514   3.040   2.988  0.9842  0.1745 -0.5044
  455TIP3    H2 1330   3.483   3.173   2.922 -1.9178 -0.0477  0.3061
  456TIP3   OH2 1331   2.596   1.087   4.002  0.1562 -0.1455 -0.1379
  456TIP3    H1 1332   2.607   1.022   3.932  1.4778  0.7623 -0.8203
  456TIP3    H2 1333   2.552   1.040   4.072  1.3689 -1.8620 -0.4767
  457TIP3   OH2 1334   3.950   5.970   2.303 -0.2746 -0.6379  0.3501
  457TIP3    H1 1335   3.926   6.020   2.381  0.1086  1.0333 -0.5689
  457TIP3    H2 1336   4.042   5.991   2.288 -0.3048 -1.0665 -0.4746
  458TIP3   OH2 1337   3.614   1.489   3.409  0.5548  0.8507  0.3208
  458TIP3    H1 1338   3.663   1.409   3.429 -0.4479  0.8827  3.2910
  458TIP3    H2 1339   3.624   1.544   3.486 -0.2036  2.9330 -0.9690
  459TIP3   OH2 1340   0.531   6.173   5.108  0.9341 -0.2261  0.1119
  459TIP3    H1 1341   0.505   6.203   5.195 -0.3694  0.4791 -0.4927
  459TIP3    H2 1342   0.452   6.132   5.073  0.9640  0.9008 -1.3302
  460TIP3   OH2 1343   3.678   5.006   4.716  1.1161  0.2912 -0.2258
  460TIP3    H1 1344   3.600   4.973   4.671 -0.0590  2.1965  0.2889
  460TIP3    H2 1345   3.740   5.024   4.646 -0.1785  1.8978 -1.0411
  461TIP3   OH2 1346   7.105   4.198   3.922 -0.2764  0.7847  0.6097
  461TIP3    H1 1347   7.129   4.168   3.834 -2.1022  1.2172 -0.0721
  461TIP3    H2 1348   7.178   4.170   3.977  1.2006  1.0137 -1.1209
  462TIP3   OH2 1349   6.228   2.274   4.868 -0.0217 -0.0689 -0.1735
  462TIP3    H1 1350   6.303   2.225   4.833  0.0404 -0.0270 -0.1010
  462TIP3    H2 1351   6.194   2.323   4.793  0.8980  1.0255  0.0969
  463TIP3   OH2 1352   4.115   0.502   2.668 -0.4265  0.0922 -0.0732
  463TIP3    H1 1353   4.156   0.433   2.615  0.4397  1.6212 -1.4596
  463TIP3    H2 1354   4.039   0.459   2.707 -1.0325 -1.1607 -2.4290
  464TIP3   OH2 1355   6.833   0.674   3.869  0.2859 -0.3301 -0.0075
  464TIP3    H1 1356   6.844   0.610   3.799 -0.3728 -0.7070  0.2277
  464TIP3    H2 1357   6.747   0.656   3.905  0.6973 -0.2673  1.0372
  465TIP3   OH2 1358   0.526   5.838   1.721  0.0817  0.5026 -0.0218
  465TIP3    H1 1359   0.522   5.778   1.646  0.5806  1.0712 -0.5095
  465TIP3    H2 1360   0.474   5.794   1.789 -0.2481 -0.0952 -0.6430
  466TIP3   OH2 1361   0.856   5.160   5.824 -0.4364 -0.0712  0.0056
  466TIP3    H1 1362   0.830   5.164   5.915  0.7219  1.1976  0.3158
  466TIP3    H2 1363   0.901   5.076   5.815 -2.3083 -1.1389  0.0582
  467TIP3   OH2 1364   0.166   4.362   3.858 -0.3683 -0.3253 -0.5685
  467TIP3    H1 1365   0.123   4.358   3.773  1.4274  1.6227 -1.6267
  467TIP3    H2 1366   0.156   4.453   3.887 -2.0630 -1.1928  1.9818
  468TIP3   OH2 1367   2.881   5.434   4.247 -0.0423 -0.3393  1.0658
  468TIP3    H1 1368   2.935   5.377   4.303 -0.2078 -1.7167 -0.1056
  468TIP3    H2 1369   2.817   5.374   4.207 -0.0591  0.6311 -0.4255
  469TIP3   OH2 1370   6.202   5.913   3.402  0.7548 -0.2904 -0.6988
  469TIP3    H1 1371   6.176   5.977   3.469 -1.1001 -0.3847 -1.2650
  469TIP3    H2 1372   6.292   5.890   3.425  0.5425  0.4812  1.1243
  470TIP3   OH2 1373   3.844   2.676   2.016 -0.1997 -0.6730 -0.9093
  470TIP3    H1 1374   3.794   2.598   2.037 -0.7798  0.1510  1.0278
  470TIP3    H2 1375   3.935   2.650   2.025 -0.3193 -1.5028 -1.8741
  471TIP3   OH2 1376   4.384   6.743   2.045 -0.5585 -0.3155  0.2330
  471TIP3    H1 1377   4.294   6.773   2.048 -0.3966  0.1439  0.5521
  471TIP3    H2 1378   4.386   6.667   2.103 -1.0709 -1.2497 -0.9264
  472TIP3   OH2 1379   0.085   0.643   1.535  0.5275 -0.1039  0.2182
  472TIP3    H1 1380   0.070   0.558   1.494  1.8962 -1.3239  2.0760
  472TIP3    H2 1381   0.180   0.647   1.549  0.2855  0.8189  1.9685
  473TIP3   OH2 1382   0.591   4.478   3.866 -0.1738 -0.4316 -0.4329
  473TIP3    H1 1383   0.637   4.438   3.940 -0.3132  0.6187  0.2452
  473TIP3    H2 1384   0.585   4.408   3.801  1.4818 -0.8993 -0.1389
  474TIP3   OH2 1385   4.214   5.474   5.244 -0.4938  0.1323  0.0737
  474TIP3    H1 1386   4.150   5.472   5.173 -0.1124 -0.4457 -0.2647
  474TIP3    H2 1387   4.265   5.394   5.232 -1.5820 -0.9481  2.0834
  475TIP3   OH2 1388   4.104   6.037   1.869  0.2182 -0.4499  0.5809
  475TIP3    H1 1389   4.032   6.088   1.834  1.2822  0.1022 -0.8726
  475TIP3    H2 1390   4.182   6.074   1.829  1.0775 -2.9781 -0.2976
  476TIP3   OH2 1391   6.402   0.211   2.003 -0.2418 -0.4025  0.6962
  476TIP3    H1 1392   6.372   0.124   2.030 -0.7266 -0.7080 -0.7144
  476TIP3    H2 1393   6.407   0.261   2.084  1.2435 -2.0762  1.7232
  477TIP3   OH2 1394   4.048   1.326   2.508  0.3603  0.0529 -0.0539
  477TIP3    H1 1395   4.093   1.245   2.534  1.3293  0.0814 -1.5295
  477TIP3    H2 1396   4.031   1.315   2.414 -1.3975  0.6946  0.1425
  478TIP3   OH2 1397   1.344   5.044   3.237 -0.0522 -0.0463  0.2103
  478TIP3    H1 1398   1.296   5.122   3.208  0.1309 -0.0507 -0.1100
  478TIP3    H2 1399   1.428   5.078   3.267  0.6653 -0.2853 -1.4618
  479TIP3   OH2 1400   4.446   4.442   5.294 -0.3832  0.1902 -0.0576
  479TIP3    H1 1401   4.535   4.409   5.282 -0.6437 -0.3128 -0.7099
  479TIP3    H2 1402   4.393   4.388   5.235 -0.8238  1.8018 -1.2110
  480TIP3   OH2 1403   0.286   6.363   3.131  0.3482  0.3642  0.5405
  480TIP3    H1 1404   0.253   6.375   3.220  1.0213  1.0128  0.7115
  480TIP3    H2 1405   0.285   6.450   3.092  2.6807  0.6195  0.8700
  481TIP3   OH2 1406   4.226   6.178   5.133 -0.8571  0.2703 -0.0697
  481TIP3    H1 1407   4.281   6.133   5.069  0.9511  1.2441  0.7294
  481TIP3    H2 1408   4.167   6.111   5.166  0.5559 -1.0932 -0.2216
  482TIP3   OH2 1409   0.562   0.752   2.237 -0.5176  0.1939 -0.6272
  482TIP3    H1 1410   0.567   0.664   2.200 -0.2674 -0.1347  0.1704
  482TIP3    H2 1411   0.637   0.757   2.297 -1.0240  0.6468 -0.0250
  483TIP3   OH2 1412   5.741   4.460   3.849 -0.4999  0.2570  1.0968
  483TIP3    H1 1413   5.761   4.502   3.765 -1.5658 -0.5060  0.4234
  483TIP3    H2 1414   5.699   4.377   3.824 -0.7909 -0.0003  2.3911
  484TIP3   OH2 1415   1.820   4.696   2.594  0.0633 -0.3259  0.0190
  484TIP3    H1 1416   1.761   4.722   2.665  0.2384 -1.4664  0.5905
  484TIP3    H2 1417   1.838   4.778   2.548 -1.4429  0.1602  0.2244
  485TIP3   OH2 1418   3.273   1.449   3.640 -0.0546 -0.3472 -0.1536
  485TIP3    H1 1419   3.361   1.425   3.668  0.7572  0.6094 -1.7391
  485TIP3    H2 1420   3.247   1.380   3.580  0.3744  0.2992 -1.0970
  486TIP3   OH2 1421   4.432   2.951   3.136  0.1691 -0.0449  0.6148
  486TIP3    H1 1422   4.511   2.910   3.100 -0.4202 -0.6752  0.0112
  486TIP3    H2 1423   4.369   2.880   3.144 -0.6511  0.6119  0.1944
  487TIP3   OH2 1424   1.745   1.839   1.322 -0.5160  0.7752  0.2826
  487TIP3    H1 1425   1.835   1.812   1.340 -0.0864  0.4024 -2.1126
  487TIP3    H2 1426   1.741   1.930   1.354  0.8815  0.9759 -0.0150
  488TIP3   OH2 1427   4.618   6.790   5.791  0.4432 -0.1601 -0.0664
  488TIP3    H1 1428   4.532   6.748   5.801 -0.0983  0.8747 -0.2389
  488TIP3    H2 1429   4.627   6.844   5.870  1.7323 -1.5924  0.8211
  489TIP3   OH2 1430   6.552   2.494   5.658 -0.1361 -0.3432 -0.2748
  489TIP3    H1 1431   6.625   2.548   5.626  0.1195 -2.0824 -2.9097
  489TIP3    H2 1432   6.475   2.532   5.616 -0.6253  0.6951  1.4855
  490TIP3   OH2 1433   3.540   4.194   4.808 -0.0179 -0.0700  0.4798
  490TIP3    H1 1434   3.463   4.177   4.754  0.8266 -0.2618 -0.6936
  490TIP3    H2 1435   3.588   4.111   4.807  1.7644  0.8987 -1.3955
  491TIP3   OH2 1436   2.590   2.458   2.022 -0.2936  0.0761  0.1739
  491TIP3    H1 1437   2.595   2.553   2.013  1.2992  0.0039  0.0399
  491TIP3    H2 1438   2.631   2.440   2.107  1.4504 -0.6427 -0.7822
  492TIP3   OH2 1439   6.641   4.303   3.171  0.0284  0.6898 -0.7176
  492TIP3    H1 1440   6.627   4.268   3.083 -0.0651  3.3961 -1.8854
  492TIP3    H2 1441   6.633   4.398   3.160 -0.1160  1.1083  2.2598
  493TIP3   OH2 1442   1.150   0.464   2.888 -0.4763 -0.4105 -0.1337
  493TIP3    H1 1443   1.236   0.422   2.888  0.5790  1.6461  0.1777
  493TIP3    H2 1444   1.164   0.549   2.846 -2.3154  0.0477  0.0961
  494TIP3   OH2 1445   6.569   2.220   5.772 -0.2506  0.1446 -0.6117
  494TIP3    H1 1446   6.551   2.314   5.780  0.0973  0.0990  0.8893
  494TIP3    H2 1447   6.661   2.211   5.796 -0.4858 -0.6828  0.0211
  495TIP3   OH2 1448   3.579   0.201   3.205  0.8094 -0.2688 -0.2693
  495TIP3    H1 1449   3.493   0.166   3.182  1.1795 -1.5617  0.2413
  495TIP3    H2 1450   3.616   0.230   3.122 -0.6762  1.6940 -0.3298
  496TIP3   OH2 1451   6.060   3.918   3.615 -0.3914  0.5987  0.0562
  496TIP3    H1 1452   6.077   3.864   3.692 -0.7237  1.5175  0.7933
  496TIP3    H2 1453   6.030   4.001   3.651  1.3788  1.7546 -1.0053
  497TIP3   OH2 1454   3.048   6.026   4.397  0.3015 -0.3700  0.0620
  497TIP3    H1 1455   3.067   6.042   4.489 -1.0643  0.2085  0.2708
  497TIP3    H2 1456   3.104   6.087   4.349  1.3483 -0.9903  0.4790
  498TIP3   OH2 1457   5.054   0.676   1.785  0.1135 -0.1382  0.0747
  498TIP3    H1 1458   5.086   0.638   1.703  0.4935  3.1326 -1.4699
  498TIP3    H2 1459   4.959   0.670   1.778  0.1631 -1.2061  0.1279
  499TIP3   OH2 1460   1.639   0.954   1.382 -0.3053  0.1244 -0.0526
  499TIP3    H1 1461   1.720   0.926   1.339 -0.5675  0.0770 -0.5166
  499TIP3    H2 1462   1.572   0.947   1.315 -0.9435 -1.0525  0.6773
  500TIP3   OH2 1463   0.075   2.915   1.900  0.1651  0.3773  0.1473
  500TIP3    H1 1464   0.070   2.901   1.994  3.0559  0.4206  0.4196
  500TIP3    H2 1465   0.040   2.835   1.861  0.2667 -0.2449  1.3026
  501TIP3   OH2 1466   3.786   4.985   5.643  0.0615  0.0666  0.1457
  501TIP3    H1 1467   3.829   5.067   5.620 -1.3051  0.7571 -0.0179
  501TIP3    H2 1468   3.699   5.011   5.673  0.0374 -1.2191  1.3177
  502TIP3   OH2 1469   1.810   5.699   2.592 -0.5220  0.5126 -0.1458
  502TIP3    H1 1470   1.788   5.654   2.673  1.0537  2.9191  1.7678
  502TIP3    H2 1471   1.903   5.681   2.579 -0.8453 -0.2078 -1.7333
  503TIP3   OH2 1472   2.394   1.384   2.893 -0.1288 -0.1324 -0.5303
  503TIP3    H1 1473   2.425   1.474   2.890 -0.0698 -0.1411 -0.2135
  503TIP3    H2 1474   2.383   1.359   2.801 -0.0740  0.1719 -0.6193
  504TIP3   OH2 1475   6.384   1.365   4.152  0.3437 -0.0980  0.0523
  504TIP3    H1 1476   6.397   1.308   4.076 -0.5637  0.1222 -0.2809
  504TIP3    H2 1477   6.442   1.329   4.220  1.1741 -0.2939 -0.7369
  505TIP3   OH2 1478   2.794   0.924   2.958 -0.0585 -0.7259  0.3371
  505TIP3    H1 1479   2.844   0.913   3.038  0.9354 -1.7866 -0.3998
  505TIP3    H2 1480   2.850   0.977   2.901  0.1230 -1.6759 -0.3866
  506TIP3   OH2 1481   5.323   4.337   5.582  0.5209 -0.8752  0.1169
  506TIP3    H1 1482   5.334   4.360   5.674  1.7619  0.8027 -0.3896
  506TIP3    H2 1483   5.383   4.263   5.568 -1.2997 -2.6256  1.0997
  507TIP3   OH2 1484   5.184   1.105   1.269  0.3408  0.1195 -0.2584
  507TIP3    H1 1485   5.174   1.053   1.348 -1.4465 -2.3772 -1.9921
  507TIP3    H2 1486   5.256   1.064   1.222 -0.7986 -0.6350 -1.4348
  508TIP3   OH2 1487   1.480   3.712   3.938  0.1821  0.9416 -0.5980
  508TIP3    H1 1488   1.461   3.804   3.961  1.0457  0.7961  0.8411
  508TIP3    H2 1489   1.437   3.662   4.007  0.4701  0.2997 -0.8836
  509TIP3   OH2 1490   3.196   1.125   2.812  0.4580 -0.5592 -0.0034
  509TIP3    H1 1491   3.163   1.184   2.744  2.1935 -0.5385 -0.8891
  509TIP3    H2 1492   3.161   1.160   2.894 -0.2785  0.4239 -0.7219
  510TIP3   OH2 1493   7.029   3.849   4.699 -0.1600  0.0629 -0.3246
  510TIP3    H1 1494   6.991   3.890   4.777 -1.4255 -0.5262 -0.5925
  510TIP3    H2 1495   7.116   3.822   4.727 -0.2640  0.6374  0.6269
  511TIP3   OH2 1496   0.597   6.654   3.364  0.0924  0.4941 -0.7556
  511TIP3    H1 1497   0.534   6.712   3.321 -0.3897 -0.5144 -1.4464
  511TIP3    H2 1498   0.612   6.694   3.450 -1.0091  1.0817 -0.8164
  512TIP3   OH2 1499   1.135   1.099   2.432 -0.3553  0.0196 -0.4028
  512TIP3    H1 1500   1.103   1.011   2.453  0.1804 -0.7383 -2.4707
  512TIP3    H2 1501   1.225   1.101   2.464 -0.6133  0.1071  0.3337
  513TIP3   OH2 1502   2.193   2.894   2.205 -0.2099  0.2897 -0.0378
  513TIP3    H1 1503   2.221   2.911   2.295 -0.7665  0.8886  0.0288
  513TIP3    H2 1504   2.108   2.936   2.198 -0.3677 -0.1337 -0.7188
  514TIP3   OH2 1505   2.121   5.076   2.000 -0.0921  0.0958 -0.1172
  514TIP3    H1 1506   2.105   4.987   1.969  0.2480 -0.1541  0.4067
  514TIP3    H2 1507   2.034   5.113   2.013 -0.2476 -0.5139  0.6492
  515TIP3   OH2 1508   6.854   6.050   4.986 -0.5709  0.4819 -0.3111
  515TIP3    H1 1509   6.931   5.994   4.992 -0.2807  0.9272  0.2661
  515TIP3    H2 1510   6.874   6.111   4.915  0.1137  1.3277  0.5774
  516TIP3   OH2 1511   5.110   2.130   3.503 -0.6521 -0.2800 -0.5262
  516TIP3    H1 1512   5.150   2.049   3.472 -0.8974 -0.5600 -0.1143
  516TIP3    H2 1513   5.094   2.115   3.596 -1.7280 -0.1726 -0.6806
  517TIP3   OH2 1514   5.425   4.349   0.827 -0.2141  0.4086 -0.7051
  517TIP3    H1 1515   5.422   4.298   0.746 -0.7331 -1.3363  0.3741
  517TIP3    H2 1516   5.518   4.352   0.849 -0.1753 -0.0267 -0.8004
  518TIP3   OH2 1517   0.602   2.865   2.557  0.2140  0.0647  0.1711
  518TIP3    H1 1518   0.584   2.905   2.642  2.9464  0.8152  0.4962
  518TIP3    H2 1519   0.696   2.879   2.543  0.4749 -2.6451 -1.6238
  519TIP3   OH2 1520   4.496   1.508   3.529  0.0989 -0.0834 -0.2720
  519TIP3    H1 1521   4.514   1.423   3.569 -0.0820  0.7662  1.7615
  519TIP3    H2 1522   4.551   1.569   3.579 -0.2396  1.0718 -1.2770
  520TIP3   OH2 1523   5.648   1.691   0.623  0.3449 -0.6224  0.6806
  520TIP3    H1 1524   5.577   1.661   0.566  0.9496  0.2173 -0.5386
  520TIP3    H2 1525   5.727   1.657   0.583  0.7943  0.1280  0.9100
  521TIP3   OH2 1526   4.163   5.607   2.986 -0.5702  0.2457 -0.6855
  521TIP3    H1 1527   4.153   5.647   3.072 -0.1216 -1.7547  0.3597
  521TIP3    H2 1528   4.102   5.655   2.930 -1.0804  1.4086  0.8103
  522TIP3   OH2 1529   3.170   1.313   0.455  0.4283  0.0227 -0.7378
  522TIP3    H1 1530   3.121   1.382   0.409  1.7515  0.6888 -1.2032
  522TIP3    H2 1531   3.244   1.294   0.397  0.5261 -1.2398 -0.2345
  523TIP3   OH2 1532   5.870   6.094   0.343 -0.1588 -0.8491 -0.0309
  523TIP3    H1 1533   5.962   6.068   0.332  0.7803  1.4714  1.5418
  523TIP3    H2 1534   5.867   6.133   0.430 -2.8678 -1.5583  0.2822
  524TIP3   OH2 1535   5.076   2.277   0.767 -0.4275  0.3456 -0.3494
  524TIP3    H1 1536   5.046   2.315   0.850  2.4522 -1.9720  1.9718
  524TIP3    H2 1537   5.164   2.311   0.755  0.6647 -2.2850 -0.3273
  525TIP3   OH2 1538   4.071   3.149   2.525 -0.5378  0.3364 -0.1295
  525TIP3    H1 1539   4.023   3.109   2.453 -0.6365  0.5730 -0.1947
  525TIP3    H2 1540   4.020   3.226   2.549 -0.6055  0.1572  0.3172
  526TIP3   OH2 1541   0.213   1.904   2.804 -0.6617  0.2930  0.0110
  526TIP3    H1 1542   0.291   1.943   2.763 -0.3898  0.2163  0.4482
  526TIP3    H2 1543   0.164   1.866   2.731  0.6493 -1.3295 -0.0757
  527TIP3   OH2 1544   1.227   2.771   1.273 -0.6102  0.5235  0.3536
  527TIP3    H1 1545   1.263   2.703   1.217 -1.6961  0.5906 -0.4599
  527TIP3    H2 1546   1.134   2.776   1.248 -1.0149  0.8904  1.8166
  528TIP3   OH2 1547   6.594   0.107   2.618  0.1041 -0.2813 -0.1107
  528TIP3    H1 1548   6.591   0.103   2.522  0.4659  2.2168 -0.3006
  528TIP3    H2 1549   6.596   0.201   2.638  0.1352 -0.7357  2.3584
  529TIP3   OH2 1550   5.683   3.649   3.673 -0.3888 -0.0601  0.3877
  529TIP3    H1 1551   5.753   3.594   3.708 -0.7500 -0.5565  0.3392
  529TIP3    H2 1552   5.698   3.647   3.578 -1.3160 -1.3616  0.2425
  530TIP3   OH2 1553   6.239   0.381   4.232 -0.5587 -0.1724  0.3976
  530TIP3    H1 1554   6.176   0.416   4.169 -0.6106 -0.6336  0.1897
  530TIP3    H2 1555   6.185   0.354   4.306 -0.5689 -0.2442  0.3641
  531TIP3   OH2 1556   5.122   5.884   2.407 -0.0189 -0.5898 -0.3411
  531TIP3    H1 1557   5.152   5.883   2.316  0.3654 -1.2700 -0.2164
  531TIP3    H2 1558   5.158   5.804   2.445  1.2099  0.4984  0.8642
  532TIP3   OH2 1559   7.196   0.922   5.474 -0.4970 -0.3597  0.5849
  532TIP3    H1 1560   7.268   0.858   5.475 -0.2329 -0.0664  0.8940
  532TIP3    H2 1561   7.129   0.883   5.529 -0.6667 -0.7380  0.1154
  533TIP3   OH2 1562   1.734   3.677   2.416  0.1267 -0.0793 -0.0133
  533TIP3    H1 1563   1.707   3.748   2.358 -1.3580 -0.1643  0.5290
  533TIP3    H2 1564   1.720   3.597   2.365  0.6832 -0.0444 -0.2189
  534TIP3   OH2 1565   6.140   4.741   5.456  0.0657 -0.3125 -0.0115
  534TIP3    H1 1566   6.074   4.692   5.407  0.3216 -0.8865  0.2111
  534TIP3    H2 1567   6.089   4.796   5.516 -0.2210 -0.4352 -0.1386
  535TIP3   OH2 1568   6.737   3.032   0.094  0.6926 -0.1901 -0.1663
  535TIP3    H1 1569   6.797   3.002   0.163  0.3279  1.1537  0.7686
  535TIP3    H2 1570   6.700   3.113   0.128  2.1221  1.7311 -2.8353
  536TIP3   OH2 1571   0.613   6.397   1.620 -0.1502 -0.0605  0.0103
  536TIP3    H1 1572   0.623   6.344   1.699 -0.1512 -0.8381 -0.4966
  536TIP3    H2 1573   0.526   6.375   1.587  0.0885 -0.2180 -0.5367
  537TIP3   OH2 1574   5.810   2.831   5.312  0.5257 -0.2416  0.2285
  537TIP3    H1 1575   5.865   2.791   5.245 -1.5031  0.6654 -2.1465
  537TIP3    H2 1576   5.722   2.798   5.294 -0.5874  2.3126  0.4924
  538TIP3   OH2 1577   2.900   1.851   3.495  0.2754 -0.0979  0.2299
  538TIP3    H1 1578   2.814   1.889   3.508  0.5595  0.4929  0.4126
  538TIP3    H2 1579   2.943   1.857   3.580  0.2647 -0.9867  0.3058
  539TIP3   OH2 1580   1.528   2.381   0.255 -0.2961  0.1719  0.2717
  539TIP3    H1 1581   1.437   2.400   0.236 -0.0016  1.1763 -0.1894
  539TIP3    H2 1582   1.540   2.408   0.347 -0.5782 -0.4366  0.4938
  540TIP3   OH2 1583   2.464   0.693   1.730  0.8121 -0.4040 -0.0349
  540TIP3    H1 1584   2.501   0.618   1.776 -0.7226 -0.9539  0.3488
  540TIP3    H2 1585   2.378   0.664   1.701  0.2859  1.1340 -0.1032
  541TIP3   OH2 1586   6.471   1.044   3.444 -0.1215 -0.2420  0.4784
  541TIP3    H1 1587   6.382   1.013   3.427 -0.1471  0.7259 -1.4384
  541TIP3    H2 1588   6.510   0.976   3.498 -1.4393 -1.5948 -0.2055
  542TIP3   OH2 1589   5.749   2.010   2.611 -0.3603 -0.4245 -0.1217
  542TIP3    H1 1590   5.696   2.004   2.690 -0.7760  0.1348 -0.3497
  542TIP3    H2 1591   5.735   2.100   2.580 -0.1603 -0.6239 -0.8009
  543TIP3   OH2 1592   5.062   5.356   5.231  0.3099 -0.2897 -0.9011
  543TIP3    H1 1593   5.014   5.290   5.281 -0.7836  0.3094 -1.1539
  543TIP3    H2 1594   5.091   5.419   5.296  1.2792 -0.9453 -0.6702
  544TIP3   OH2 1595   6.939   6.497   5.528  0.1093  0.8991 -0.1653
  544TIP3    H1 1596   7.029   6.494   5.495  0.3396  0.6217  0.4587
  544TIP3    H2 1597   6.930   6.417   5.580 -0.4726  0.9657 -0.1579
  545TIP3   OH2 1598   5.634   2.929   4.290 -0.7160 -0.2816  0.0104
  545TIP3    H1 1599   5.696   2.883   4.346 -0.5096  0.5652  0.4800
  545TIP3    H2 1600   5.651   3.022   4.304 -4.1558  0.1806  2.6755
  546TIP3   OH2 1601   4.423   6.559   1.716  0.9579  0.5923  0.0613
  546TIP3    H1 1602   4.338   6.600   1.730 -0.1334 -1.4009 -0.2843
  546TIP3    H2 1603   4.477   6.591   1.788 -0.0560  1.9548  0.2493
  547TIP3   OH2 1604   1.329   2.603   2.201 -0.1591  0.6154  0.1775
  547TIP3    H1 1605   1.350   2.669   2.135  1.4443 -0.1647 -0.1304
  547TIP3    H2 1606   1.413   2.563   2.223 -0.9061 -0.3516  1.4080
  548TIP3   OH2 1607   4.493   4.091   0.637  0.3287 -0.1086 -0.3995
  548TIP3    H1 1608   4.502   4.185   0.647  1.5384 -0.3091  0.5222
  548TIP3    H2 1609   4.398   4.077   0.636  0.1303  1.1287 -0.7698
  549TIP3   OH2 1610   5.279   1.800   1.186 -0.7162 -0.0584  0.9062
  549TIP3    H1 1611   5.196   1.762   1.157 -0.8601  0.0620  1.1646
  549TIP3    H2 1612   5.341   1.727   1.183 -0.4379  0.1955 -0.8772
  550TIP3   OH2 1613   3.580   5.905   0.470  0.1956  0.0427  0.6642
  550TIP3    H1 1614   3.572   6.000   0.476 -1.0758 -0.0118  0.1133
  550TIP3    H2 1615   3.496   5.875   0.435  0.0290 -1.4176  2.1223
  551TIP3   OH2 1616   0.035   0.326   5.808 -0.2383  0.4430 -0.0934
  551TIP3    H1 1617   0.042   0.422   5.803 -0.1462  0.4530  0.2076
  551TIP3    H2 1618  -0.011   0.301   5.729  1.3434  0.5723 -1.1059
  552TIP3   OH2 1619   5.741   0.841   1.858  0.0841  0.1361 -0.5550
  552TIP3    H1 1620   5.721   0.885   1.775 -1.2519  1.0071  0.1901
  552TIP3    H2 1621   5.676   0.875   1.919  1.0330 -0.5031  0.8604
  553TIP3   OH2 1622   1.248   4.746   4.791 -0.1237  0.0939  0.2585
  553TIP3    H1 1623   1.214   4.691   4.862  1.6746 -0.3289  0.8322
  553TIP3    H2 1624   1.207   4.711   4.712 -0.3810 -0.9278  0.8293
  554TIP3   OH2 1625   4.603   2.898   2.327  0.1973  0.3324 -0.5581
  554TIP3    H1 1626   4.581   2.806   2.317  0.2571  0.5094 -2.7252
  554TIP3    H2 1627   4.582   2.938   2.243  1.0027  2.1320  0.0297
  555TIP3   OH2 1628   5.976   5.221   1.920 -0.4630 -0.0394 -0.0632
  555TIP3    H1 1629   5.968   5.139   1.970  0.2782  0.2825  0.6075
  555TIP3    H2 1630   5.893   5.265   1.933 -1.1462 -1.0069 -1.0269
  556TIP3   OH2 1631   2.169   0.479   5.643 -0.2303 -0.0321 -0.3831
  556TIP3    H1 1632   2.253   0.526   5.640  0.4195 -1.0355  1.0907
  556TIP3    H2 1633   2.121   0.522   5.713 -1.1661  0.8219 -1.5086
  557TIP3   OH2 1634   0.805   4.362   2.677  0.2016 -0.4189  0.1597
  557TIP3    H1 1635   0.809   4.391   2.768 -0.5887  1.5606 -0.3770
  557TIP3    H2 1636   0.894   4.336   2.656  0.6214  0.1320  1.1797
  558TIP3   OH2 1637   2.829   0.871   5.863 -0.0384 -0.2527 -0.0892
  558TIP3    H1 1638   2.735   0.889   5.859 -0.2105 -1.0588 -4.5206
  558TIP3    H2 1639   2.834   0.777   5.883 -0.1766 -0.2715 -0.1434
  559TIP3   OH2 1640   4.813   1.555   2.646  0.0154  0.0364  0.5912
  559TIP3    H1 1641   4.797   1.502   2.567  2.5615  0.0437 -0.0068
  559TIP3    H2 1642   4.894   1.601   2.628 -1.2103  2.8969  1.8141
  560TIP3   OH2 1643   0.521   1.411   0.026  0.0146  0.2708 -0.1804
  560TIP3    H1 1644   0.518   1.483   0.089 -1.6182  0.4931 -0.4607
  560TIP3    H2 1645   0.559   1.338   0.075  1.0001  1.1012  0.3307
  561TIP3   OH2 1646   3.701   1.396   1.669  0.0300  0.0612  0.0356
  561TIP3    H1 1647   3.735   1.405   1.580 -0.4291  0.2136 -0.1260
  561TIP3    H2 1648   3.778   1.374   1.721  0.7804  2.3319  0.0193
  562TIP3   OH2 1649   2.936   1.650   0.829  0.5066 -0.0589 -0.4972
  562TIP3    H1 1650   2.973   1.570   0.792  1.1581 -0.2615  0.5565
  562TIP3    H2 1651   2.903   1.624   0.915  2.2511  1.1101  0.5997
  563TIP3   OH2 1652   1.969   3.149   4.635  0.1880  0.7163 -0.0459
  563TIP3    H1 1653   2.006   3.216   4.578 -0.5593 -0.7781 -2.4237
  563TIP3    H2 1654   2.043   3.119   4.687  1.1220  1.4821 -0.8849
  564TIP3   OH2 1655   0.689   2.496   0.125  0.1004  0.6299  0.6205
  564TIP3    H1 1656   0.657   2.414   0.089  1.3589  0.1493  0.5435
  564TIP3    H2 1657   0.668   2.562   0.059  2.5476 -0.2624 -1.1802
  565TIP3   OH2 1658   5.880   0.991   3.171 -0.4622 -0.1479 -0.0632
  565TIP3    H1 1659   5.914   1.022   3.087  0.1491  0.0994  0.2661
  565TIP3    H2 1660   5.886   0.896   3.166 -1.0121 -0.1611 -0.5361
  566TIP3   OH2 1661   6.195   1.319   5.144 -0.1523 -0.0018 -0.9288
  566TIP3    H1 1662   6.101   1.321   5.127 -0.3989 -0.6544  0.2478
  566TIP3    H2 1663   6.207   1.376   5.220  0.0597 -1.5896  0.2926
  567TIP3   OH2 1664   4.857   6.063   1.668 -0.1371  0.1388  0.4535
  567TIP3    H1 1665   4.880   6.144   1.623  1.1163 -0.0560  0.6936
  567TIP3    H2 1666   4.876   5.993   1.605 -3.2951  0.0689 -0.5794
  568TIP3   OH2 1667   2.149   2.257   4.367 -0.0319  0.5698 -0.5245
  568TIP3    H1 1668   2.065   2.298   4.387  0.1157  1.0540 -0.8868
  568TIP3    H2 1669   2.208   2.330   4.349  0.2043  0.1929 -1.3036
  569TIP3   OH2 1670   0.973   3.310   1.640 -0.8080  0.3833 -0.5494
  569TIP3    H1 1671   0.918   3.347   1.709 -0.8513  0.2851 -0.5310
  569TIP3    H2 1672   0.931   3.227   1.618 -0.2201 -0.0733  0.0334
  570TIP3   OH2 1673   6.898   1.849   5.134 -0.1393  0.0931 -0.8290
  570TIP3    H1 1674   6.943   1.799   5.203 -0.2936  2.2606  0.9485
  570TIP3    H2 1675   6.830   1.789   5.103  1.3852 -1.7977 -0.7657
  571TIP3   OH2 1676   0.993   0.304   1.765  0.0274 -0.1252 -0.2042
  571TIP3    H1 1677   0.912   0.253   1.772 -0.1732  0.2277  0.0815
  571TIP3    H2 1678   1.058   0.241   1.732 -0.3452 -0.4250 -0.3778
  572TIP3   OH2 1679   2.106   0.416   2.502  0.2783 -0.4033  0.8617
  572TIP3    H1 1680   2.063   0.500   2.490 -2.4089 -1.5464  1.8412
  572TIP3    H2 1681   2.175   0.433   2.567  1.1673  1.3957 -0.4649
  573TIP3   OH2 1682   2.984   2.497   4.506 -0.1507 -0.0617  0.1061
  573TIP3    H1 1683   2.892   2.471   4.497 -0.1116 -0.1159 -0.1577
  573TIP3    H2 1684   3.030   2.417   4.529 -0.0210 -0.2523 -0.7681
  574TIP3   OH2 1685   0.164   4.530   2.465 -0.0029  0.1559 -0.1074
  574TIP3    H1 1686   0.241   4.500   2.513  0.8596  0.8307 -1.0291
  574TIP3    H2 1687   0.186   4.619   2.438  0.2568 -0.6968 -3.1255
  575TIP3   OH2 1688   0.371   0.727   1.531  0.1355  0.1120 -0.0044
  575TIP3    H1 1689   0.413   0.650   1.569  0.4937  0.5441  0.4896
  575TIP3    H2 1690   0.405   0.800   1.582  0.8169  0.7374 -1.3039
  576TIP3   OH2 1691   0.625   1.546   3.926  0.4187  0.5988 -0.1284
  576TIP3    H1 1692   0.537   1.576   3.946  0.9600  1.2787  1.4237
  576TIP3    H2 1693   0.671   1.549   4.010  1.5141 -1.1831 -0.6041
  577TIP3   OH2 1694   0.511   3.845   0.655  0.3290  0.1782  0.2211
  577TIP3    H1 1695   0.532   3.906   0.584  0.5238 -0.8930 -0.6685
  577TIP3    H2 1696   0.469   3.899   0.722 -1.8625  0.8709 -1.6085
  578TIP3   OH2 1697   6.469   5.414   0.211 -0.6389  0.6342  0.2079
  578TIP3    H1 1698   6.375   5.432   0.215 -0.6693  0.4653  0.2340
  578TIP3    H2 1699   6.475   5.326   0.175 -0.5563 -0.0726  1.8877
  579TIP3   OH2 1700   0.195   5.978   2.520 -0.6298 -0.8331 -0.0304
  579TIP3    H1 1701   0.239   6.058   2.491 -0.2622 -1.3087 -0.8169
  579TIP3    H2 1702   0.226   5.966   2.610 -1.0850  0.1745  0.2791
  580TIP3   OH2 1703   2.062   4.429   3.716  0.1190 -0.1397  0.2223
  580TIP3    H1 1704   2.008   4.497   3.758 -0.2977 -1.0510  1.2172
  580TIP3    H2 1705   2.064   4.358   3.780 -0.9582 -1.8037 -1.4979
  581TIP3   OH2 1706   2.375   6.491   1.586 -0.1678  0.0429  0.3361
  581TIP3    H1 1707   2.397   6.576   1.546  0.6778 -0.8653 -1.2062
  581TIP3    H2 1708   2.351   6.435   1.512  2.4698 -2.0153  0.8788
  582TIP3   OH2 1709   3.870   6.574   0.862 -0.3709  0.7222  0.0083
  582TIP3    H1 1710   3.911   6.495   0.826 -0.6548  0.2996  0.5909
  582TIP3    H2 1711   3.887   6.569   0.956 -1.1486  0.8977  0.1675
  583TIP3   OH2 1712   3.497   2.710   2.193 -0.2364 -0.1004 -0.0303
  583TIP3    H1 1713   3.568   2.696   2.256  0.4923  0.9549 -0.5896
  583TIP3    H2 1714   3.542   2.724   2.110 -1.0755  1.1796 -0.2934
  584TIP3   OH2 1715   0.672   4.215   2.499  0.2831  0.1965  0.4785
  584TIP3    H1 1716   0.739   4.187   2.437  0.3789 -1.7960  1.4176
  584TIP3    H2 1717   0.721   4.262   2.567  0.2528  1.7929 -0.5323
  585TIP3   OH2 1718   3.245   5.226   5.658  0.6785  0.0100 -0.1095
  585TIP3    H1 1719   3.245   5.131   5.667  0.1476  0.0730  0.6488
  585TIP3    H2 1720   3.336   5.251   5.667  0.9549 -0.5020 -1.2804
  586TIP3   OH2 1721   3.671   4.937   1.958  0.4364  0.4832 -0.2109
  586TIP3    H1 1722   3.696   4.864   2.015  3.0934  1.4180 -0.0451
  586TIP3    H2 1723   3.664   5.012   2.017  0.2082  0.8781 -0.7294
  587TIP3   OH2 1724   3.470   4.886   1.286 -0.1644 -0.5709 -0.4699
  587TIP3    H1 1725   3.426   4.818   1.235 -0.2282  0.5098 -1.9207
  587TIP3    H2 1726   3.476   4.961   1.226  3.1251 -0.4555 -0.2042
  588TIP3   OH2 1727   3.678   0.226   1.450 -0.0086 -0.1617 -0.0190
  588TIP3    H1 1728   3.705   0.141   1.416 -0.5243  0.4147 -2.0162
  588TIP3    H2 1729   3.582   0.225   1.445 -0.1499 -0.2376  1.9934
  589TIP3   OH2 1730   2.390   4.446   4.463  0.0800 -0.4913 -0.2161
  589TIP3    H1 1731   2.484   4.462   4.455  0.3753 -2.2785 -0.8715
  589TIP3    H2 1732   2.383   4.365   4.514 -1.0192 -1.1038 -1.2761
  590TIP3   OH2 1733   0.540   3.841   2.579  0.2934 -0.0607 -0.1381
  590TIP3    H1 1734   0.598   3.905   2.617 -0.6972  1.4711 -1.0884
  590TIP3    H2 1735   0.463   3.840   2.636  0.3264 -0.4432 -0.0954
  591TIP3   OH2 1736   6.374   4.975   1.312  0.5256  0.3131  0.0887
  591TIP3    H1 1737   6.322   5.039   1.359 -0.0269  0.3740 -0.5785
  591TIP3    H2 1738   6.464   5.007   1.317  0.1074  1.8431 -1.3139
  592TIP3   OH2 1739   6.657   3.228   4.247  0.4092 -0.2852 -0.0956
  592TIP3    H1 1740   6.707   3.299   4.207 -0.6527  0.7482  0.3614
  592TIP3    H2 1741   6.589   3.272   4.298 -2.1692 -1.6054 -2.1754
  593TIP3   OH2 1742   4.661   5.797   3.775  0.1286 -0.2200 -0.0677
  593TIP3    H1 1743   4.723   5.755   3.715 -0.0677  1.1407 -1.2875
  593TIP3    H2 1744   4.575   5.772   3.741  0.0028 -0.4814  0.4321
  594TIP3   OH2 1745   6.424   2.253   4.654 -0.2925  0.7093  0.0304
  594TIP3    H1 1746   6.484   2.324   4.630 -0.2262  0.2142 -1.3591
  594TIP3    H2 1747   6.481   2.178   4.670 -0.5166  0.1661 -1.5578
  595TIP3   OH2 1748   3.081   3.692   4.460 -0.0547  0.3255 -0.1255
  595TIP3    H1 1749   3.156   3.734   4.417  0.0515  0.3256  0.0598
  595TIP3    H2 1750   3.120   3.639   4.529 -0.1617 -0.3261 -0.5567
  596TIP3   OH2 1751   3.143   4.852   5.407  0.0736  0.1504  0.1252
  596TIP3    H1 1752   3.138   4.859   5.502 -1.6536 -2.5485  0.3072
  596TIP3    H2 1753   3.073   4.793   5.383  1.7972 -0.9575 -2.6359
  597TIP3   OH2 1754   4.330   3.053   1.491 -0.5313 -0.3171 -0.2755
  597TIP3    H1 1755   4.251   3.012   1.525 -1.7716  0.7689 -1.7042
  597TIP3    H2 1756   4.362   2.992   1.424 -1.0953 -0.0176 -0.8270
  598TIP3   OH2 1757   4.635   4.331   0.993 -0.5650 -0.0376 -0.2986
  598TIP3    H1 1758   4.714   4.352   0.942 -0.1231 -0.5861  0.1468
  598TIP3    H2 1759   4.645   4.239   1.016 -2.7354 -0.9790 -2.6762
  599TIP3   OH2 1760   3.430   1.719   5.070  0.3744  0.1745  0.5937
  599TIP3    H1 1761   3.435   1.802   5.119  1.0518  1.0453 -0.8918
  599TIP3    H2 1762   3.488   1.732   4.995 -1.1383 -0.8563 -0.8269
  600TIP3   OH2 1763   4.743   0.916   2.955  0.1945 -0.4108 -0.0077
  600TIP3    H1 1764   4.706   0.877   3.034  0.0263 -0.7707 -0.2637
  600TIP3    H2 1765   4.667   0.946   2.905  0.3572  1.6694  0.8938
  601TIP3   OH2 1766   2.529   0.386   4.516 -0.2101 -0.2560 -0.2095
  601TIP3    H1 1767   2.568   0.431   4.591  0.6633 -0.6236 -0.4281
  601TIP3    H2 1768   2.463   0.447   4.483  0.1350  0.3551  0.2137
  602TIP3   OH2 1769   3.201   3.506   5.662  0.0137 -0.1740 -0.3649
  602TIP3    H1 1770   3.136   3.556   5.612 -0.0217  0.1845  0.0337
  602TIP3    H2 1771   3.154   3.475   5.739  0.0885 -0.6624 -0.5132
  603TIP3   OH2 1772   5.553   1.464   5.697 -0.4174  0.8656  0.1948
  603TIP3    H1 1773   5.477   1.476   5.640 -1.9052 -0.4424  1.7656
  603TIP3    H2 1774   5.580   1.553   5.720 -0.9045  1.3694 -1.1134
  604TIP3   OH2 1775   3.018   4.807   3.827 -0.1328 -0.1455 -0.4176
  604TIP3    H1 1776   3.038   4.713   3.823  0.9743  0.1289 -2.1368
  604TIP3    H2 1777   3.065   4.838   3.904  0.9746 -0.6954 -0.8456
  605TIP3   OH2 1778   4.627   2.913   0.762  0.4203 -0.2323  0.5392
  605TIP3    H1 1779   4.637   2.851   0.835  1.7163  0.4459  0.9832
  605TIP3    H2 1780   4.639   2.860   0.684  2.4469 -0.4576  0.9330
  606TIP3   OH2 1781   0.122   6.377   5.278  0.1483  0.1867  0.3492
  606TIP3    H1 1782   0.101   6.352   5.368  1.9517  0.7202  0.9530
  606TIP3    H2 1783   0.119   6.472   5.278  2.4619  0.3252  0.5205
  607TIP3   OH2 1784   5.712   1.020   2.530  0.0345 -0.1894  0.1251
  607TIP3    H1 1785   5.673   0.934   2.514 -0.1946  0.1078 -1.0199
  607TIP3    H2 1786   5.721   1.059   2.443  1.1445  0.5143  0.5375
  608TIP3   OH2 1787   4.019   2.746   0.814 -0.2233  0.4189  0.5065
  608TIP3    H1 1788   4.017   2.651   0.822  0.7832  0.4929  2.1744
  608TIP3    H2 1789   4.111   2.769   0.830  0.0887  1.5360 -2.2266
  609TIP3   OH2 1790   4.379   0.321   0.329  0.1882 -0.3499 -0.3758
  609TIP3    H1 1791   4.329   0.403   0.329  0.4085 -0.1731  1.3020
  609TIP3    H2 1792   4.470   0.349   0.345  0.5327 -0.8106 -1.4414
  610TIP3   OH2 1793   2.796   1.362   2.939 -0.0149  0.3208 -0.1107
  610TIP3    H1 1794   2.748   1.444   2.936  0.9564  0.8999 -0.0699
  610TIP3    H2 1795   2.743   1.301   2.887 -1.1073  0.7623  0.4517
  611TIP3   OH2 1796   1.020   5.914   4.325 -0.3009 -0.0831  0.5109
  611TIP3    H1 1797   1.004   5.930   4.232 -0.2788  0.8749  0.6566
  611TIP3    H2 1798   1.090   5.849   4.326 -0.5270 -0.3539 -0.1371
  612TIP3   OH2 1799   0.390   6.251   0.428  0.2759 -0.0109 -0.2263
  612TIP3    H1 1800   0.301   6.232   0.398 -0.2564  0.5383  0.9713
  612TIP3    H2 1801   0.429   6.165   0.443 -0.4120 -0.2472  0.2570
  613TIP3   OH2 1802   3.565   0.303   5.021 -0.3460 -0.1236  0.2922
  613TIP3    H1 1803   3.591   0.357   5.096 -0.5440  1.8599 -1.0098
  613TIP3    H2 1804   3.645   0.255   4.998  0.2707  0.7411  0.5669
  614TIP3   OH2 1805   4.638   6.410   0.876 -0.4962  0.2696  0.1066
  614TIP3    H1 1806   4.676   6.339   0.825  0.9466  0.1190  1.3314
  614TIP3    H2 1807   4.633   6.375   0.965 -2.2947  0.7788  0.2528
  615TIP3   OH2 1808   1.764   3.844   2.625 -0.3165 -0.2821 -0.2922
  615TIP3    H1 1809   1.673   3.848   2.654 -0.5723  1.0950 -1.2060
  615TIP3    H2 1810   1.759   3.815   2.534  0.0525  0.9594 -0.7239
  616TIP3   OH2 1811   0.175   1.474   4.926 -0.3198 -0.6046 -0.2248
  616TIP3    H1 1812   0.179   1.399   4.867  1.4658 -0.5914 -0.1927
  616TIP3    H2 1813   0.193   1.550   4.870  0.5378 -0.5046  0.1662
  617TIP3   OH2 1814   1.479   3.656   1.030  1.0817  0.1186  0.3336
  617TIP3    H1 1815   1.483   3.680   0.938  1.2832  0.7212  0.4970
  617TIP3    H2 1816   1.450   3.564   1.030  0.7330  0.2249 -0.3104
  618TIP3   OH2 1817   5.697   0.751   4.694 -0.2018  0.1480 -0.1540
  618TIP3    H1 1818   5.619   0.779   4.646  0.5797  0.3070 -1.3749
  618TIP3    H2 1819   5.733   0.832   4.730  0.7654  0.4644 -1.7221
  619TIP3   OH2 1820   1.954   0.513   3.281  0.2383  0.4303  0.0475
  619TIP3    H1 1821   1.866   0.481   3.303  0.2149  1.2554  1.2269
  619TIP3    H2 1822   2.012   0.466   3.341  0.5407  0.3642 -0.2923
  620TIP3   OH2 1823   6.554   3.648   4.168  0.2392 -0.0805 -0.4201
  620TIP3    H1 1824   6.610   3.572   4.150  0.6477 -0.1764  1.1270
  620TIP3    H2 1825   6.499   3.621   4.242 -1.7237  0.1090 -1.7432
  621TIP3   OH2 1826   6.618   3.042   1.610  0.7158  0.9618 -0.3624
  621TIP3    H1 1827   6.629   2.982   1.684  0.4121 -0.4211 -1.3894
  621TIP3    H2 1828   6.530   3.078   1.621  0.0619 -0.4224 -0.8530
  622TIP3   OH2 1829   3.093   1.131   2.209  0.0072  0.0765 -0.2804
  622TIP3    H1 1830   3.002   1.141   2.179 -0.0540 -0.6289 -0.3285
  622TIP3    H2 1831   3.096   1.184   2.289 -0.2179  0.7775 -0.7238
  623TIP3   OH2 1832   1.630   6.237   5.488 -0.2093 -0.2563 -0.2246
  623TIP3    H1 1833   1.541   6.207   5.509 -0.4061  0.8943  0.7168
  623TIP3    H2 1834   1.681   6.218   5.566  0.0880  0.1550 -0.3141
  624TIP3   OH2 1835   3.406   6.131   2.582 -0.3741 -0.0090 -0.3754
  624TIP3    H1 1836   3.403   6.036   2.569  2.0397 -0.1698 -0.1663
  624TIP3    H2 1837   3.410   6.142   2.677 -0.5259  0.3059 -0.4056
  625TIP3   OH2 1838   3.106   5.541   1.317  0.2292  0.3673  0.3190
  625TIP3    H1 1839   3.149   5.618   1.355  0.2192 -0.4604  2.0972
  625TIP3    H2 1840   3.016   5.544   1.350  0.5928 -1.1064  1.5648
  626TIP3   OH2 1841   0.828   6.299   0.195 -0.2489 -0.0214  0.0051
  626TIP3    H1 1842   0.734   6.315   0.208 -0.2933  0.1339 -0.4743
  626TIP3    H2 1843   0.832   6.213   0.153 -0.0388 -1.0941  2.0967
  627TIP3   OH2 1844   5.460   0.241   0.909 -0.2910 -0.0735 -0.2200
  627TIP3    H1 1845   5.555   0.225   0.911 -0.4245 -1.3474 -2.0260
  627TIP3    H2 1846   5.425   0.183   0.977  0.3062  1.4825  1.4965
  628TIP3   OH2 1847   5.909   0.052   1.589  0.0550 -0.6137 -0.3029
  628TIP3    H1 1848   5.916   0.130   1.644  0.9468 -0.9413  0.0673
  628TIP3    H2 1849   5.872  -0.015   1.647 -0.8550 -0.4367 -0.6623
  629TIP3   OH2 1850   0.794   3.744   0.046  0.4200  0.1291  0.3479
  629TIP3    H1 1851   0.850   3.816   0.016  1.9804 -0.0064  2.7128
  629TIP3    H2 1852   0.721   3.786   0.091 -1.2082  0.2841 -2.2311
  630TIP3   OH2 1853   4.605   1.907   0.467  0.3588 -0.6488  0.5231
  630TIP3    H1 1854   4.646   1.831   0.508  1.6350 -0.0083  0.4813
  630TIP3    H2 1855   4.672   1.976   0.470  0.2663 -0.3480 -1.9774
  631TIP3   OH2 1856   2.476   1.413   4.936  0.1685  0.0866 -0.0781
  631TIP3    H1 1857   2.385   1.385   4.945  0.6067 -3.0944 -3.4453
  631TIP3    H2 1858   2.527   1.336   4.961  2.0286  1.6257  1.1932
  632TIP3   OH2 1859   6.272   1.860   1.867  0.7240  0.3388  0.1472
  632TIP3    H1 1860   6.257   1.770   1.837  0.2293  0.6792 -0.6762
  632TIP3    H2 1861   6.226   1.867   1.950  1.0143 -0.2577  0.3576
  633TIP3   OH2 1862   6.318   0.334   3.832  0.5131  0.0282 -0.0187
  633TIP3    H1 1863   6.380   0.394   3.873  0.4383  0.2199 -0.1805
  633TIP3    H2 1864   6.245   0.329   3.894  1.0519 -0.8535  0.5615
  634TIP3   OH2 1865   4.727   6.026   1.904 -0.1012 -0.0889  0.0222
  634TIP3    H1 1866   4.769   6.017   1.818 -1.3235 -1.9022 -0.4449
  634TIP3    H2 1867   4.793   5.994   1.966 -0.8192 -3.4150 -0.7466
  635TIP3   OH2 1868   0.753   4.001   2.093  0.0441 -0.0954 -0.2348
  635TIP3    H1 1869   0.761   4.097   2.092 -1.2866  0.0393 -1.8059
  635TIP3    H2 1870   0.760   3.976   2.001  0.2794 -1.5162  0.1532
  636TIP3   OH2 1871   4.572   2.881   5.488 -0.3994  0.0134 -0.1815
  636TIP3    H1 1872   4.594   2.799   5.531 -2.1839 -1.0816 -1.2177
  636TIP3    H2 1873   4.511   2.856   5.418 -1.4321  2.2725 -0.1756
  637TIP3   OH2 1874   2.763   5.539   2.245 -0.3657  0.2646  0.0361
  637TIP3    H1 1875   2.804   5.625   2.255 -0.3093  0.4621 -1.6292
  637TIP3    H2 1876   2.761   5.524   2.151 -1.6566 -0.9570  0.2215
  638TIP3   OH2 1877   2.196   4.033   2.684  0.4590  0.5567  0.2644
  638TIP3    H1 1878   2.122   3.973   2.692  0.0172  1.1347  0.6355
  638TIP3    H2 1879   2.267   3.980   2.647  0.7687 -0.7854  2.5757
  639TIP3   OH2 1880   5.619   5.281   3.742 -0.5252 -0.0644 -0.2197
  639TIP3    H1 1881   5.676   5.352   3.772 -0.1394 -0.5452  0.2152
  639TIP3    H2 1882   5.593   5.235   3.822  0.3218 -1.2147 -0.5727
  640TIP3   OH2 1883   0.307   6.722   5.647 -0.3493  0.1227 -0.0779
  640TIP3    H1 1884   0.358   6.796   5.677 -0.6316  0.9746 -1.5987
  640TIP3    H2 1885   0.306   6.730   5.551  0.3864 -2.3489 -0.3696
  641TIP3   OH2 1886   0.234   0.833   1.299  0.3384  0.5622 -0.1431
  641TIP3    H1 1887   0.287   0.783   1.361 -0.6709 -0.3464  0.0112
  641TIP3    H2 1888   0.174   0.769   1.261 -0.8108  1.6024 -0.1482
  642TIP3   OH2 1889   2.459   0.123   5.211  0.0272  0.1828 -0.3365
  642TIP3    H1 1890   2.535   0.071   5.186 -0.5996 -0.2079 -1.5435
  642TIP3    H2 1891   2.432   0.088   5.295  0.7511 -0.1438 -0.2306
  643TIP3   OH2 1892   6.473   6.719   2.873 -0.0836  0.9796 -0.4710
  643TIP3    H1 1893   6.482   6.754   2.785  0.2814  1.8918 -0.0878
  643TIP3    H2 1894   6.506   6.629   2.867 -1.8892  0.3541 -1.6782
  644TIP3   OH2 1895   6.166   2.306   2.842  0.0715 -0.2928 -0.1407
  644TIP3    H1 1896   6.108   2.309   2.918 -0.7388 -1.3312 -0.7095
  644TIP3    H2 1897   6.254   2.317   2.879 -0.4350  0.9006  0.7615
  645TIP3   OH2 1898   5.814   4.184   5.195 -0.1264 -0.2029 -0.3769
  645TIP3    H1 1899   5.889   4.137   5.231 -0.7358 -0.2329  0.8926
  645TIP3    H2 1900   5.853   4.250   5.137  0.9165  0.1722  0.7122
  646TIP3   OH2 1901   0.864   1.357   0.363 -0.1068 -0.3850 -0.6000
  646TIP3    H1 1902   0.952   1.394   0.362 -0.0147 -0.4624  1.4255
  646TIP3    H2 1903   0.854   1.320   0.451 -0.2824 -4.9435 -2.2609
  647TIP3   OH2 1904   4.264   4.220   3.239  0.1222  0.5818  0.4433
  647TIP3    H1 1905   4.345   4.213   3.289  0.5611  1.5589 -0.0997
  647TIP3    H2 1906   4.263   4.143   3.183  0.4557  0.3464  0.7592
  648TIP3   OH2 1907   4.778   3.025   3.874  0.0720 -0.2360  0.1159
  648TIP3    H1 1908   4.717   3.098   3.858  1.1876  0.4674 -1.1942
  648TIP3    H2 1909   4.862   3.068   3.893  0.4116 -1.1825  0.8103
  649TIP3   OH2 1910   0.488   4.575   2.060  0.0604 -0.3764  0.1720
  649TIP3    H1 1911   0.492   4.553   1.967 -0.6804  0.6450 -0.1173
  649TIP3    H2 1912   0.434   4.653   2.064  0.6071 -0.0340  1.4064
  650TIP3   OH2 1913   6.662   4.555   4.228 -0.2778 -0.8403 -0.2728
  650TIP3    H1 1914   6.732   4.604   4.271  0.8706 -0.2868 -2.5895
  650TIP3    H2 1915   6.606   4.524   4.299 -0.4641  2.8944  1.3966
  651TIP3   OH2 1916   6.954   5.928   1.175  0.0010  0.0379 -0.0443
  651TIP3    H1 1917   7.024   5.932   1.110 -0.7560 -0.3835 -0.9192
  651TIP3    H2 1918   6.930   6.019   1.191  0.1445  0.1435 -0.4218
  652TIP3   OH2 1919   1.456   4.198   0.399  0.2079 -0.2281 -0.0519
  652TIP3    H1 1920   1.392   4.269   0.396  1.8822  1.3035 -2.7953
  652TIP3    H2 1921   1.408   4.125   0.439 -2.8435  1.1954 -0.8232
  653TIP3   OH2 1922   6.973   1.394   2.739  0.0062  0.1279 -0.8673
  653TIP3    H1 1923   7.001   1.324   2.680  1.5575  1.2836 -1.5518
  653TIP3    H2 1924   7.054   1.435   2.769 -0.7802  0.2396  1.2873
  654TIP3   OH2 1925   1.164   1.152   4.061  0.1370  0.6278 -0.3160
  654TIP3    H1 1926   1.071   1.173   4.058  0.1471  0.6489 -0.4971
  654TIP3    H2 1927   1.182   1.108   3.978  0.4291  1.2291 -0.5821
  655TIP3   OH2 1928   5.946   6.002   1.904 -0.0741 -0.0324  0.4217
  655TIP3    H1 1929   5.908   5.924   1.946  0.7878 -0.8331 -0.2593
  655TIP3    H2 1930   5.870   6.051   1.872 -0.7589  0.4858  2.6472
  656TIP3   OH2 1931   4.474   3.482   2.755  0.2706 -0.7496 -0.1031
  656TIP3    H1 1932   4.454   3.550   2.820 -0.7205  1.5419 -2.5852
  656TIP3    H2 1933   4.401   3.421   2.761  0.5977 -1.0164  1.4345
  657TIP3   OH2 1934   1.084   1.876   3.851 -0.0348 -0.4358 -0.2385
  657TIP3    H1 1935   1.173   1.884   3.886  0.3057  0.8794 -1.3537
  657TIP3    H2 1936   1.028   1.891   3.927  0.6983  0.3132  0.1791
  658TIP3   OH2 1937   1.643   6.197   4.212 -0.1636 -0.3218 -0.2069
  658TIP3    H1 1938   1.718   6.257   4.218 -0.3950 -0.0511 -0.0248
  658TIP3    H2 1939   1.586   6.221   4.284 -1.4883  0.9300 -1.5946
  659TIP3   OH2 1940   6.621   3.877   0.532 -0.2448  0.3856  0.7525
  659TIP3    H1 1941   6.601   3.809   0.468 -0.2592  1.1722 -0.1003
  659TIP3    H2 1942   6.540   3.926   0.541 -0.1023  0.5770  1.0109
  660TIP3   OH2 1943   2.204   5.254   5.294  0.4124 -0.2643 -0.0679
  660TIP3    H1 1944   2.270   5.282   5.230  1.7166  1.3412  1.8482
  660TIP3    H2 1945   2.252   5.246   5.376 -1.4803 -0.6890  1.0560
  661TIP3   OH2 1946   1.092   2.411   1.441  0.2476  0.1051  0.2081
  661TIP3    H1 1947   1.111   2.331   1.490 -0.1501  0.5366  1.0924
  661TIP3    H2 1948   1.171   2.464   1.450 -0.2835  0.7270  1.5179
  662TIP3   OH2 1949   4.482   3.772   3.719  0.1586  0.3130 -0.5844
  662TIP3    H1 1950   4.505   3.681   3.700  2.1428  0.0400  2.4680
  662TIP3    H2 1951   4.388   3.770   3.738 -0.2481 -0.6573 -2.4611
  663TIP3   OH2 1952   1.271   6.015   5.767  0.2967  0.1687  0.2207
  663TIP3    H1 1953   1.184   6.053   5.771 -0.1247 -0.8094  0.8541
  663TIP3    H2 1954   1.284   5.974   5.853  1.1167 -0.2564 -0.0881
  664TIP3   OH2 1955   0.680   2.192   5.027 -0.1902 -0.4874 -0.3340
  664TIP3    H1 1956   0.719   2.229   5.106  0.1163 -0.4965 -0.4784
  664TIP3    H2 1957   0.659   2.268   4.973  2.8414 -0.5389 -1.7756
  665TIP3   OH2 1958   2.343   4.151   3.795 -0.0047 -0.0387  0.7504
  665TIP3    H1 1959   2.434   4.161   3.824 -0.1987 -0.7727  1.6767
  665TIP3    H2 1960   2.304   4.237   3.812  0.4200  0.1669  0.7088
  666TIP3   OH2 1961   2.192   2.053   4.180 -0.5986 -0.2204  0.4232
  666TIP3    H1 1962   2.170   2.128   4.235 -0.2456  1.6820 -1.8632
  666TIP3    H2 1963   2.124   2.052   4.113  0.9528 -0.1239 -1.2305
  667TIP3   OH2 1964   4.848   2.274   0.469 -0.1391  0.5218 -0.5076
  667TIP3    H1 1965   4.770   2.302   0.515 -0.6804 -0.1597 -0.9806
  667TIP3    H2 1966   4.819   2.198   0.417  1.4511 -1.6793  1.5761
  668TIP3   OH2 1967   2.478   2.649   5.029  0.7584  0.3289  0.0327
  668TIP3    H1 1968   2.386   2.660   5.006  1.1423 -0.3733 -1.9631
  668TIP3    H2 1969   2.488   2.555   5.045  1.2064  0.3586 -0.0561
  669TIP3   OH2 1970   3.553   5.748   0.721 -0.2885 -0.5398 -0.2560
  669TIP3    H1 1971   3.563   5.819   0.784  2.6587  0.4391 -1.6291
  669TIP3    H2 1972   3.547   5.791   0.636 -0.3939 -1.8862 -0.9622
  670TIP3   OH2 1973   1.519   6.479   0.077  0.7071 -0.0802 -0.4332
  670TIP3    H1 1974   1.488   6.405   0.129  2.0197 -0.0077  0.5169
  670TIP3    H2 1975   1.465   6.553   0.105  1.7441  0.0781  1.2889
  671TIP3   OH2 1976   0.201   1.230   5.823 -0.2218 -0.2317 -0.2916
  671TIP3    H1 1977   0.200   1.293   5.752  0.4632 -1.2655 -1.2482
  671TIP3    H2 1978   0.253   1.157   5.790  0.3043 -0.6452  1.3483
  672TIP3   OH2 1979   3.271   5.230   3.390 -0.2583  0.3565  0.5660
  672TIP3    H1 1980   3.355   5.277   3.384  0.1694 -0.2122  1.7394
  672TIP3    H2 1981   3.296   5.140   3.410 -1.0939 -0.2448 -0.9714
  673TIP3   OH2 1982   3.830   6.298   4.107  0.2858  0.5656  0.0808
  673TIP3    H1 1983   3.830   6.347   4.025  0.3747  0.4013 -0.0206
  673TIP3    H2 1984   3.751   6.326   4.153 -0.4008 -0.2046 -0.5933
  674TIP3   OH2 1985   6.424   1.178   5.285  0.7432  0.0527  0.0185
  674TIP3    H1 1986   6.369   1.254   5.269  0.9853  0.7995  2.3876
  674TIP3    H2 1987   6.363   1.108   5.309  0.6113 -0.1151 -0.7989
  675TIP3   OH2 1988   3.507   6.375   1.910 -0.2286  0.2475  0.0876
  675TIP3    H1 1989   3.469   6.432   1.977 -0.6386  0.6261 -0.4519
  675TIP3    H2 1990   3.600   6.370   1.932 -0.2332  0.9260  0.2838
  676TIP3   OH2 1991   2.942   1.264   5.072  0.2552 -0.2930 -0.2394
  676TIP3    H1 1992   3.035   1.288   5.074 -0.1336  1.3638  2.1228
  676TIP3    H2 1993   2.941   1.172   5.100  1.2599 -0.9400 -2.1474
  677TIP3   OH2 1994   1.743   4.171   3.507 -0.2158 -0.1490 -0.0977
  677TIP3    H1 1995   1.825   4.221   3.502 -0.4394  0.1206 -2.0473
  677TIP3    H2 1996   1.674   4.236   3.494 -0.7559 -0.4166  1.2677
  678TIP3   OH2 1997   1.441   4.952   1.744 -0.3323 -0.3061 -0.2165
  678TIP3    H1 1998   1.368   4.909   1.789  0.6348 -1.3142  0.4577
  678TIP3    H2 1999   1.407   4.974   1.657 -1.4716 -0.6041  0.1390
  679TIP3   OH2 2000   6.264   4.138   0.395 -0.2048  0.7977 -0.3770
  679TIP3    H1 2001   6.287   4.216   0.344  0.9214  0.8085  0.1144
  679TIP3    H2 2002   6.173   4.151   0.420 -0.0737  1.8822 -0.4318
  680TIP3   OH2 2003   0.502   3.012   5.583  0.6585  0.0883  0.0010
  680TIP3    H1 2004   0.437   2.989   5.649  0.1858  0.0718 -0.4674
  680TIP3    H2 2005   0.508   2.934   5.527  0.4579  0.3983 -0.4563
  681TIP3   OH2 2006   2.296   6.052   0.767 -0.1735 -0.1628  0.6623
  681TIP3    H1 2007   2.278   6.134   0.721  1.5183 -0.7681 -1.1839
  681TIP3    H2 2008   2.388   6.059   0.792 -0.4616 -0.8274  1.9945
  682TIP3   OH2 2009   0.715   4.639   5.286 -0.3756  0.1218 -0.0391
  682TIP3    H1 2010   0.728   4.651   5.380  0.7706 -1.2265  0.0141
  682TIP3    H2 2011   0.801   4.658   5.247 -0.6150 -0.1288 -0.7135
  683TIP3   OH2 2012   5.891   2.690   1.756 -0.2213 -0.2743  0.2725
  683TIP3    H1 2013   5.885   2.680   1.661  0.9774  0.8546  0.0479
  683TIP3    H2 2014   5.860   2.780   1.772  1.9881  0.4842  0.6151
  684TIP3   OH2 2015   0.690   6.657   1.537 -0.0781 -0.6315  0.2605
  684TIP3    H1 2016   0.627   6.705   1.590 -0.9778 -0.2516 -1.0775
  684TIP3    H2 2017   0.675   6.565   1.559 -0.5775 -0.4926  0.5176
  685TIP3   OH2 2018   5.938   5.966   1.128  1.1077 -0.1654  0.5476
  685TIP3    H1 2019   5.843   5.959   1.136  1.1757 -1.1515  0.5572
  685TIP3    H2 2020   5.968   5.988   1.216  1.0311 -1.6050  0.9494
  686TIP3   OH2 2021   2.115   3.657   1.136 -0.1267 -0.0724 -0.1351
  686TIP3    H1 2022   2.119   3.570   1.096  0.1909  0.7570 -2.0265
  686TIP3    H2 2023   2.205   3.677   1.160 -0.0735  0.0716 -0.4575
  687TIP3   OH2 2024   7.065   5.414   3.141  0.8166  0.2668  0.4682
  687TIP3    H1 2025   6.980   5.371   3.130  0.2720  1.4571 -0.1860
  687TIP3    H2 2026   7.089   5.442   3.053  1.9335 -0.1146  0.6360
  688TIP3   OH2 2027   1.638   2.682   0.924  0.0535  0.0780  0.1144
  688TIP3    H1 2028   1.674   2.741   0.989 -1.2708  0.4339  0.5589
  688TIP3    H2 2029   1.556   2.651   0.962 -1.6422  1.5966 -2.0022
  689TIP3   OH2 2030   0.656   0.668   3.620  0.9519 -0.0870 -0.0028
  689TIP3    H1 2031   0.600   0.698   3.691 -1.2730  0.4747 -1.8967
  689TIP3    H2 2032   0.596   0.641   3.551  2.9905  0.5871 -2.1873
  690TIP3   OH2 2033   3.082   2.538   1.132 -0.0168 -0.7018 -0.2619
  690TIP3    H1 2034   3.157   2.598   1.131 -1.5455  1.3380 -0.0359
  690TIP3    H2 2035   3.006   2.595   1.123 -1.5018 -2.8434 -2.5192
  691TIP3   OH2 2036   6.272   2.126   2.624 -0.1598  0.0848  0.1460
  691TIP3    H1 2037   6.206   2.095   2.561 -0.6035  0.3971  0.4545
  691TIP3    H2 2038   6.234   2.205   2.662  0.1977  0.0170  0.6550
  692TIP3   OH2 2039   1.820   6.403   4.226 -0.0536  0.1940 -0.1358
  692TIP3    H1 2040   1.781   6.473   4.173 -1.6377 -1.8998 -1.9375
  692TIP3    H2 2041   1.908   6.434   4.246  0.8749  1.0128 -4.5024
  693TIP3   OH2 2042   6.547   1.583   1.525 -0.0178  0.1169 -0.3881
  693TIP3    H1 2043   6.468   1.534   1.547 -0.2008  1.5889  2.7605
  693TIP3    H2 2044   6.616   1.542   1.576  0.7371  0.4545 -1.1093
  694TIP3   OH2 2045   4.249   2.795   1.039  0.2255  0.1436 -0.6005
  694TIP3    H1 2046   4.294   2.714   1.065 -1.2983 -1.0341 -1.4755
  694TIP3    H2 2047   4.184   2.809   1.108  0.0667  0.2559 -0.7719
  695TIP3   OH2 2048   4.237   6.500   5.062  0.0571 -0.1436 -0.4957
  695TIP3    H1 2049   4.220   6.573   5.123 -0.8114 -0.1334 -0.7422
  695TIP3    H2 2050   4.327   6.474   5.082 -0.3042 -0.3423  1.0183
  696TIP3   OH2 2051   5.482   0.416   3.247 -0.1379  0.3246  0.3332
  696TIP3    H1 2052   5.420   0.360   3.295 -0.6137  1.7068  1.3859
  696TIP3    H2 2053   5.565   0.403   3.292 -0.1437  0.1204  0.2862
  697TIP3   OH2 2054   1.427   2.987   4.662  0.0314  0.0984 -0.2291
  697TIP3    H1 2055   1.367   2.975   4.736 -1.4886  1.0790 -1.2435
  697TIP3    H2 2056   1.390   3.060   4.612  0.2405 -1.3163 -2.6649
  698TIP3   OH2 2057   4.982   2.708   4.536  0.3635 -0.5316  0.1462
  698TIP3    H1 2058   4.993   2.789   4.486 -0.1859  0.2241  1.1959
  698TIP3    H2 2059   5.066   2.664   4.529  1.2462  0.9515  0.9240
  699TIP3   OH2 2060   1.921   4.500   3.199 -0.4915 -0.3820  0.6450
  699TIP3    H1 2061   1.895   4.427   3.142 -0.2802 -0.4163  0.5927
  699TIP3    H2 2062   1.844   4.557   3.201  0.0179  0.4278 -0.9416
  700TIP3   OH2 2063   0.252   4.883   5.187 -0.8979  0.2597 -0.3875
  700TIP3    H1 2064   0.327   4.859   5.132 -0.3197  0.7452  0.1667
  700TIP3    H2 2065   0.241   4.809   5.246 -0.5783  0.3665 -0.1915
  701TIP3   OH2 2066   6.448   5.363   3.418  0.0492 -0.2676 -0.1646
  701TIP3    H1 2067   6.382   5.303   3.383 -0.3385 -0.3866  0.7597
  701TIP3    H2 2068   6.532   5.319   3.401 -0.2473 -1.2195  0.7700
  702TIP3   OH2 2069   1.654   6.797   3.007  0.2994  0.2319 -0.0365
  702TIP3    H1 2070   1.746   6.793   2.979  0.4964  1.8552  0.2890
  702TIP3    H2 2071   1.650   6.738   3.082  1.2250  0.5959  0.3185
  703TIP3   OH2 2072   5.550   2.089   1.257  0.6314 -0.2186 -0.2489
  703TIP3    H1 2073   5.599   2.153   1.207  1.1727 -0.1907  0.3108
  703TIP3    H2 2074   5.597   2.081   1.340 -0.9753  0.6974  0.7921
  704TIP3   OH2 2075   3.767   0.348   2.107  0.1552 -0.2296  0.1241
  704TIP3    H1 2076   3.718   0.405   2.047  1.5370  0.1441 -0.6924
  704TIP3    H2 2077   3.768   0.395   2.190 -2.5567 -1.1582  0.7648
  705TIP3   OH2 2078   6.892   6.710   5.057  0.2226 -0.1074 -0.3500
  705TIP3    H1 2079   6.797   6.722   5.054  0.0247 -1.4181 -3.2114
  705TIP3    H2 2080   6.907   6.627   5.011  2.5863 -1.6613  2.8193
  706TIP3   OH2 2081   6.733   3.464   4.083  0.2676  0.2149 -0.2558
  706TIP3    H1 2082   6.724   3.455   3.988 -0.3174  1.1525 -0.2912
  706TIP3    H2 2083   6.827   3.456   4.099  0.5657  1.7524 -1.1039
  707TIP3   OH2 2084   5.677   2.087   4.936 -0.4124 -0.3591  0.1678
  707TIP3    H1 2085   5.700   2.118   5.023  0.0909 -0.7096  0.1644
  707TIP3    H2 2086   5.757   2.045   4.903 -0.0954  1.1262 -1.0820
  708TIP3   OH2 2087   7.102   6.006   5.062  0.3638  0.2219  0.1666
  708TIP3    H1 2088   7.142   6.093   5.066  0.3236  0.2275  0.5088
  708TIP3    H2 2089   7.175   5.945   5.073  0.1962  0.2451  1.5205
  709TIP3   OH2 2090   5.709   6.056   4.192 -0.5087  0.7543 -0.3227
  709TIP3    H1 2091   5.679   5.971   4.223 -0.5865  0.3183 -1.5416
  709TIP3    H2 2092   5.653   6.075   4.116  1.2072  0.6644 -1.6720
  710TIP3   OH2 2093   4.464   6.046   4.970  0.4385  0.1384 -0.3641
  710TIP3    H1 2094   4.450   6.083   4.883 -1.1058  0.4792 -0.0105
  710TIP3    H2 2095   4.553   6.010   4.968  0.1184 -0.6532 -2.3564
  711TIP3   OH2 2096   2.424   1.084   0.381  0.5155  0.2357 -0.3436
  711TIP3    H1 2097   2.503   1.133   0.359  2.6552 -3.1357 -0.9372
  711TIP3    H2 2098   2.441   1.050   0.469 -1.6341  1.7284  0.7561
  712TIP3   OH2 2099   3.270   4.140   2.981 -0.3692  0.0510 -0.4039
  712TIP3    H1 2100   3.256   4.126   3.074  0.0758 -0.0664 -0.3478
  712TIP3    H2 2101   3.294   4.053   2.948  1.9049  0.5100 -0.1597
  713TIP3   OH2 2102   0.567   1.056   2.412  0.2764  1.1878 -0.4862
  713TIP3    H1 2103   0.651   1.023   2.381 -0.0431 -0.4645  0.2836
  713TIP3    H2 2104   0.502   1.014   2.356 -0.0928  1.5842 -0.3626
  714TIP3   OH2 2105   1.155   4.834   1.362  0.2823  0.3026 -0.4485
  714TIP3    H1 2106   1.196   4.889   1.428 -1.0283 -0.0779  0.7285
  714TIP3    H2 2107   1.146   4.748   1.404 -0.2829 -0.0325 -1.2271
  715TIP3   OH2 2108   2.695   6.053   3.005  0.6430 -0.7264  0.1216
  715TIP3    H1 2109   2.654   6.129   3.045  0.6827  0.0367 -1.2183
  715TIP3    H2 2110   2.772   6.036   3.059 -0.3327 -0.9579  1.4877
  716TIP3   OH2 2111   2.461   3.890   4.172  0.1445 -0.5748  0.2894
  716TIP3    H1 2112   2.388   3.882   4.111 -0.1286  0.8440  0.3803
  716TIP3    H2 2113   2.430   3.952   4.238  1.6256  0.5525 -0.0107
  717TIP3   OH2 2114   0.621   4.104   1.162  0.0312  0.1478  0.5754
  717TIP3    H1 2115   0.593   4.196   1.168 -0.8097  0.1770 -2.4210
  717TIP3    H2 2116   0.540   4.055   1.154  0.5648 -0.6253 -0.1678
  718TIP3   OH2 2117   2.189   6.289   3.902  0.0555 -0.1857  0.1986
  718TIP3    H1 2118   2.126   6.228   3.939  0.6426  0.4790  2.4215
  718TIP3    H2 2119   2.236   6.237   3.836 -0.2358 -1.8225  1.2126
  719TIP3   OH2 2120   1.737   0.814   4.903 -0.4753  0.4535  0.1068
  719TIP3    H1 2121   1.772   0.744   4.959 -0.8230  0.2649  0.0896
  719TIP3    H2 2122   1.782   0.893   4.934 -1.5888  0.5741  1.5387
  720TIP3   OH2 2123   4.813   3.881   4.177  0.3707  0.2036 -0.4384
  720TIP3    H1 2124   4.859   3.922   4.104  0.5359 -0.1731 -0.5508
  720TIP3    H2 2125   4.881   3.832   4.224  0.2775  0.4987  0.0059
  721TIP3   OH2 2126   3.684   1.841   1.223 -0.0379 -0.9440  0.2090
  721TIP3    H1 2127   3.590   1.844   1.202 -0.7288 -2.0836  2.6939
  721TIP3    H2 2128   3.718   1.925   1.192 -1.8250 -0.5760 -0.9343
  722TIP3   OH2 2129   2.029   2.904   1.675  0.0603 -0.0087  0.0205
  722TIP3    H1 2130   2.120   2.910   1.706  0.1481  0.0986 -0.2584
  722TIP3    H2 2131   1.989   2.838   1.732 -0.2519  1.3697  1.4868
  723TIP3   OH2 2132   3.555   6.455   4.210  0.4609  0.1495 -0.1207
  723TIP3    H1 2133   3.535   6.545   4.187  1.1167  0.4278  0.3801
  723TIP3    H2 2134   3.600   6.461   4.294 -1.0427 -0.7578  0.8069
  724TIP3   OH2 2135   6.578   4.710   2.063  0.3201 -0.3184 -0.3041
  724TIP3    H1 2136   6.498   4.658   2.070  0.8344 -0.8935  2.4129
  724TIP3    H2 2137   6.646   4.655   2.104  2.2971 -0.1010 -3.0030
  725TIP3   OH2 2138   1.705   6.172   1.926  0.2323 -0.0924  0.4248
  725TIP3    H1 2139   1.654   6.103   1.968  2.0735 -1.1747  1.0239
  725TIP3    H2 2140   1.742   6.222   1.999  1.9822 -0.8700  0.1361
  726TIP3   OH2 2141   2.957   5.793   2.304  0.0720  0.1663  0.8232
  726TIP3    H1 2142   2.912   5.878   2.308 -1.1016 -0.2592 -1.4300
  726TIP3    H2 2143   3.045   5.815   2.272 -0.3184  0.5436 -0.0405
  727TIP3   OH2 2144   6.962   0.762   0.496  0.0479 -0.5908 -0.8475
  727TIP3    H1 2145   6.876   0.750   0.456 -0.0244  2.1149 -1.6686
  727TIP3    H2 2146   6.953   0.841   0.550  1.9816 -0.3062 -0.8659
  728TIP3   OH2 2147   6.362   4.381   4.017 -0.2267  0.2166  0.1970
  728TIP3    H1 2148   6.346   4.373   4.111  0.0469 -0.2562  0.2040
  728TIP3    H2 2149   6.292   4.330   3.976 -0.7214  0.9377  0.1166
  729TIP3   OH2 2150   2.294   5.796   3.841  0.1836  0.2694 -0.3212
  729TIP3    H1 2151   2.204   5.811   3.813 -0.0331 -1.2947 -0.5540
  729TIP3    H2 2152   2.286   5.755   3.927  0.6015 -0.8340 -0.7779
  730TIP3   OH2 2153   2.859   2.264   3.650 -0.1229 -0.2113  0.1802
  730TIP3    H1 2154   2.788   2.235   3.592 -0.6516 -0.0006  0.7074
  730TIP3    H2 2155   2.815   2.316   3.717  0.5058 -0.2955  0.6693
  731TIP3   OH2 2156   1.368   0.380   4.262 -0.1477  0.2802  0.1561
  731TIP3    H1 2157   1.315   0.449   4.221  0.4041 -0.0669 -1.1984
  731TIP3    H2 2158   1.427   0.427   4.320 -1.3982  0.7387  1.1047
  732TIP3   OH2 2159   5.542   2.404   1.182 -0.6844 -0.2871  0.8119
  732TIP3    H1 2160   5.459   2.375   1.220 -1.3427  1.7775  1.0701
  732TIP3    H2 2161   5.543   2.499   1.196  2.3034 -0.3836  1.9898
  733TIP3   OH2 2162   2.934   6.058   2.535  0.5992 -0.7044  0.3237
  733TIP3    H1 2163   2.856   6.026   2.488  0.3051 -0.1348  0.4063
  733TIP3    H2 2164   2.914   6.042   2.627  0.5543 -0.5136  0.3481
  734TIP3   OH2 2165   6.705   1.068   5.112  0.6744  0.1951 -0.5734
  734TIP3    H1 2166   6.738   1.158   5.109  0.3089  0.3080 -1.5688
  734TIP3    H2 2167   6.784   1.014   5.106  0.8897  0.4491 -0.0554
  735TIP3   OH2 2168   4.467   6.483   1.141 -0.2477 -0.4404  0.1047
  735TIP3    H1 2169   4.539   6.528   1.185 -0.9025 -0.4101  1.1794
  735TIP3    H2 2170   4.467   6.395   1.180  1.5407 -1.7719 -2.5328
  736TIP3   OH2 2171   5.677   0.938   4.387 -0.1986 -0.1438 -0.1528
  736TIP3    H1 2172   5.630   0.873   4.441 -0.0735 -2.2713 -2.4183
  736TIP3    H2 2173   5.737   0.980   4.448 -2.7208  0.4163  2.1745
  737TIP3   OH2 2174   1.464   3.564   5.616 -0.1443 -0.3031 -0.1162
  737TIP3    H1 2175   1.475   3.482   5.663  1.4141 -1.3434 -2.1397
  737TIP3    H2 2176   1.546   3.575   5.568 -1.3228  1.1041 -1.9136
  738TIP3   OH2 2177   3.704   1.310   4.686 -0.3991 -0.0568 -0.3975
  738TIP3    H1 2178   3.692   1.315   4.591 -0.1098 -1.8768 -0.5691
  738TIP3    H2 2179   3.765   1.237   4.698  0.3156  0.7541  1.1431
  739TIP3   OH2 2180   6.788   4.098   1.275 -0.1089 -0.3481 -0.1936
  739TIP3    H1 2181   6.880   4.121   1.267  0.1944 -1.7049 -1.1063
  739TIP3    H2 2182   6.766   4.112   1.367  1.2878 -0.9569  0.2504
  740TIP3   OH2 2183   5.336   2.167   0.150 -0.2426  0.1138  0.0139
  740TIP3    H1 2184   5.276   2.112   0.199 -0.3454 -0.1904 -0.4544
  740TIP3    H2 2185   5.420   2.157   0.196 -0.7645  1.4179  1.3627
  741TIP3   OH2 2186   4.445   6.225   1.244 -0.9217  0.3922 -0.0819
  741TIP3    H1 2187   4.444   6.137   1.282  3.1726  0.6650  1.1270
  741TIP3    H2 2188   4.430   6.211   1.151 -2.0581 -1.3586  0.3183
  742TIP3   OH2 2189   3.957   3.216   4.770  0.2140 -0.1808 -0.1950
  742TIP3    H1 2190   3.923   3.209   4.680 -2.2851 -0.1915  0.6885
  742TIP3    H2 2191   3.911   3.148   4.819  2.2625 -0.8240  0.9429
  743TIP3   OH2 2192   1.236   1.357   5.091 -0.2763 -0.1975 -0.4004
  743TIP3    H1 2193   1.257   1.431   5.034  1.3168 -0.4927 -0.2239
  743TIP3    H2 2194   1.144   1.371   5.114  0.1682  2.1454  0.2468
  744TIP3   OH2 2195   0.604   5.750   2.132  0.0109  0.2894 -0.3298
  744TIP3    H1 2196   0.511   5.769   2.124 -0.1752 -0.1556  0.6598
  744TIP3    H2 2197   0.611   5.656   2.118  0.2604  0.2619 -0.0492
  745TIP3   OH2 2198   1.167   6.640   2.847  0.2918 -0.0318  0.2770
  745TIP3    H1 2199   1.107   6.650   2.920 -1.4802 -0.7199 -1.0205
  745TIP3    H2 2200   1.206   6.727   2.836  0.6115  0.0797  2.0020
  746TIP3   OH2 2201   4.262   3.406   3.173 -0.2919 -0.2960 -0.1095
  746TIP3    H1 2202   4.246   3.436   3.084  0.3226 -0.5188 -0.3008
  746TIP3    H2 2203   4.176   3.408   3.215 -0.8484 -1.5303 -1.1156
  747TIP3   OH2 2204   1.282   1.540   3.087 -0.2721 -0.2016  0.1053
  747TIP3    H1 2205   1.234   1.460   3.105 -0.3786  0.0716  1.0708
  747TIP3    H2 2206   1.306   1.533   2.994 -0.1351 -1.4107  0.2180
  748TIP3   OH2 2207   4.051   3.380   3.409  0.4920  0.2063 -0.6608
  748TIP3    H1 2208   4.037   3.289   3.385 -0.3848  0.2497 -0.3370
  748TIP3    H2 2209   4.002   3.392   3.491  3.0142  0.1760  0.9692
  749TIP3   OH2 2210   6.782   5.792   1.568 -0.3194  0.5258 -0.3902
  749TIP3    H1 2211   6.868   5.764   1.537 -1.5038 -3.4745 -0.7631
  749TIP3    H2 2212   6.762   5.731   1.639 -2.3206  2.2365  0.6250
  750TIP3   OH2 2213   5.982   6.048   0.859 -0.2678 -0.2064 -0.4459
  750TIP3    H1 2214   5.958   6.039   0.951  1.2196  1.3455  0.1575
  750TIP3    H2 2215   6.046   6.120   0.858 -0.5691  0.1005 -2.7520
  751TIP3   OH2 2216   5.775   2.219   0.796  0.4912  0.3095 -0.2775
  751TIP3    H1 2217   5.764   2.124   0.792  1.2876  0.2259 -0.7576
  751TIP3    H2 2218   5.862   2.234   0.761 -0.3094  1.3547 -1.9749
  752TIP3   OH2 2219   1.866   0.293   5.201 -0.1445  0.2885 -0.4088
  752TIP3    H1 2220   1.909   0.371   5.237 -0.2481 -0.1225  0.6194
  752TIP3    H2 2221   1.776   0.300   5.230  0.4455 -1.6836  2.2615
  753TIP3   OH2 2222   3.125   0.280   0.742 -0.1727  0.2061 -0.0281
  753TIP3    H1 2223   3.074   0.211   0.699 -1.9586  0.6599  1.2635
  753TIP3    H2 2224   3.099   0.361   0.697 -0.4285  0.4171  0.4928
  754TIP3   OH2 2225   0.505   0.582   3.899 -0.4381 -0.0226 -0.1790
  754TIP3    H1 2226   0.549   0.511   3.853  0.4757  0.6891 -0.4359
  754TIP3    H2 2227   0.557   0.594   3.979 -1.3301 -0.4713  0.4968
  755TIP3   OH2 2228   1.442   6.167   2.516  0.1706  0.0495  0.4644
  755TIP3    H1 2229   1.365   6.110   2.518 -0.2367  0.5980  0.7702
  755TIP3    H2 2230   1.502   6.129   2.580  1.0512 -1.5802 -1.2212
  756TIP3   OH2 2231   4.490   5.402   2.693  0.0326 -0.0069 -0.1077
  756TIP3    H1 2232   4.479   5.467   2.622  0.6095 -0.9523 -1.0941
  756TIP3    H2 2233   4.403   5.396   2.733  0.0516  1.6633  0.2882
  757TIP3   OH2 2234   1.061   4.439   2.199 -0.4286 -0.3260 -0.0409
  757TIP3    H1 2235   1.079   4.406   2.110 -2.4009  0.0125 -0.5991
  757TIP3    H2 2236   0.981   4.394   2.225 -1.3755  1.5734  0.4818
  758TIP3   OH2 2237   0.802   1.895   3.148 -0.2098  0.0116 -0.1873
  758TIP3    H1 2238   0.759   1.954   3.210  0.5250 -0.8970  1.2236
  758TIP3    H2 2239   0.893   1.893   3.176 -0.0287 -1.0352 -0.8216
  759TIP3   OH2 2240   1.996   2.379   3.843 -0.5195 -0.7732 -0.4358
  759TIP3    H1 2241   1.959   2.334   3.919  0.0236  1.1310  1.0452
  759TIP3    H2 2242   2.034   2.310   3.790 -0.3468 -2.1183  1.3454
  760TIP3   OH2 2243   6.600   2.393   0.261  0.0220 -0.2789  0.3278
  760TIP3    H1 2244   6.555   2.468   0.222  0.6622 -1.4841 -3.0285
  760TIP3    H2 2245   6.557   2.316   0.223  1.4008 -1.5763  1.2742
  761TIP3   OH2 2246   3.715   1.235   3.532 -0.5442  0.2267 -0.7805
  761TIP3    H1 2247   3.711   1.139   3.535 -0.2148  0.2367 -0.0367
  761TIP3    H2 2248   3.807   1.256   3.519 -0.7424  0.4280 -1.9854
  762TIP3   OH2 2249   0.722   1.737   0.985  0.4610  0.7506  0.6501
  762TIP3    H1 2250   0.811   1.709   1.006 -0.0396 -0.1595  1.7336
  762TIP3    H2 2251   0.667   1.681   1.040 -0.8087  0.8107 -0.5209
  763TIP3   OH2 2252   3.199   6.152   1.920 -0.0712  0.6970  0.2664
  763TIP3    H1 2253   3.157   6.208   1.986 -0.1567  1.7905 -0.6913
  763TIP3    H2 2254   3.164   6.064   1.939 -0.2264  1.0046  1.5603
  764TIP3   OH2 2255   1.634   2.693   2.366  0.1357  0.9105 -0.1034
  764TIP3    H1 2256   1.657   2.731   2.281 -1.1055  2.8385  0.3776
  764TIP3    H2 2257   1.591   2.610   2.344  1.4986  0.4526 -1.2365
  765TIP3   OH2 2258   7.051   6.687   4.683  0.2207  0.0638 -0.1321
  765TIP3    H1 2259   7.136   6.645   4.673  0.4673  0.7700 -1.2007
  765TIP3    H2 2260   6.996   6.622   4.726  0.9934 -0.8015 -0.4349
  766TIP3   OH2 2261   1.858   4.282   4.756  0.0132 -0.1907 -0.0320
  766TIP3    H1 2262   1.917   4.226   4.706  0.5277 -0.3730  0.7619
  766TIP3    H2 2263   1.770   4.251   4.734  0.2777 -1.0171  0.0521
  767TIP3   OH2 2264   0.881   3.618   0.756  0.5047  0.1508  0.3865
  767TIP3    H1 2265   0.846   3.617   0.845  0.8863  0.8881  0.5618
  767TIP3    H2 2266   0.810   3.585   0.701  1.1032 -2.8271  1.2185
  768TIP3   OH2 2267   4.638   5.269   2.903 -0.1265  0.4828 -0.1322
  768TIP3    H1 2268   4.613   5.300   2.816 -2.6632 -0.9932 -0.0450
  768TIP3    H2 2269   4.584   5.321   2.963  0.2824  0.2612  0.4339
  769TIP3   OH2 2270   5.389   5.529   2.694 -0.6387  0.1028 -0.0522
  769TIP3    H1 2271   5.449   5.603   2.706 -0.3201 -0.3643  1.5282
  769TIP3    H2 2272   5.439   5.465   2.643  0.2292 -0.2465  1.1832
  770TIP3   OH2 2273   6.572   5.687   1.430  0.5437  0.2222 -0.0582
  770TIP3    H1 2274   6.647   5.723   1.477  0.5935  0.1127 -0.0526
  770TIP3    H2 2275   6.543   5.614   1.484  1.5397 -0.8696 -0.9376
  771TIP3   OH2 2276   3.746   0.346   2.636  0.2538  0.2235 -0.9119
  771TIP3    H1 2277   3.692   0.336   2.558  1.2890  0.4413 -1.6687
  771TIP3    H2 2278   3.684   0.372   2.704 -0.5068  1.1509 -1.9184
  772TIP3   OH2 2279   5.974   4.816   0.454  0.5766 -0.4153 -0.2825
  772TIP3    H1 2280   5.988   4.905   0.423 -0.4841 -0.0947  0.0993
  772TIP3    H2 2281   5.906   4.825   0.521  1.8767 -1.2428  1.2226
  773TIP3   OH2 2282   2.265   2.700   1.179  0.1417 -0.0678 -0.2718
  773TIP3    H1 2283   2.326   2.631   1.206  2.2275  0.7543 -2.5603
  773TIP3    H2 2284   2.318   2.761   1.128 -2.2386  1.7252 -0.7762
  774TIP3   OH2 2285   3.393   2.316   5.667 -0.4439 -0.4079 -0.1215
  774TIP3    H1 2286   3.378   2.356   5.581 -1.7150  1.0496  0.7454
  774TIP3    H2 2287   3.355   2.228   5.659 -0.8228 -0.1834 -0.9408
  775TIP3   OH2 2288   2.631   3.556   3.677  0.1337 -0.1351  0.2476
  775TIP3    H1 2289   2.648   3.566   3.771 -1.0446  0.9289  0.3719
  775TIP3    H2 2290   2.641   3.644   3.642  0.5330 -0.5226 -0.6348
  776TIP3   OH2 2291   7.068   1.836   3.026 -0.2338 -0.6689  0.4455
  776TIP3    H1 2292   7.055   1.810   3.117  0.5365 -0.7144  0.5472
  776TIP3    H2 2293   7.044   1.928   3.023 -2.2597 -1.1433  0.2422
  777TIP3   OH2 2294   2.225   2.738   0.606 -0.0602 -0.3427  0.8882
  777TIP3    H1 2295   2.236   2.744   0.511  0.1607  0.6902  0.9649
  777TIP3    H2 2296   2.203   2.646   0.622 -1.5782 -0.2411 -0.3208
  778TIP3   OH2 2297   4.117   5.944   2.741  0.0176 -0.0874  0.1314
  778TIP3    H1 2298   4.050   5.884   2.774  0.7653 -0.7259  0.5315
  778TIP3    H2 2299   4.191   5.933   2.800  1.5645 -1.5597 -1.9074
  779TIP3   OH2 2300   0.639   0.973   4.029  0.0861 -0.0706 -1.0587
  779TIP3    H1 2301   0.618   0.928   4.111  1.3092  1.1666 -0.0206
  779TIP3    H2 2302   0.557   0.973   3.980 -0.4288 -1.6533 -0.2447
  780TIP3   OH2 2303   1.608   4.062   1.438  0.1887 -0.5695 -0.9938
  780TIP3    H1 2304   1.662   3.987   1.462 -0.3131 -0.4570  0.6270
  780TIP3    H2 2305   1.532   4.024   1.393  0.7374 -0.8700 -1.6857
  781TIP3   OH2 2306   2.434   2.494   1.557 -0.4410 -0.4906 -0.0999
  781TIP3    H1 2307   2.364   2.523   1.616 -0.5294 -1.6158  0.3792
  781TIP3    H2 2308   2.515   2.509   1.605 -0.2986  1.1118 -0.7801
  782TIP3   OH2 2309   0.212   2.655   2.701  0.1417 -0.1411  0.2231
  782TIP3    H1 2310   0.305   2.631   2.702  0.2197 -0.0327 -1.2309
  782TIP3    H2 2311   0.190   2.672   2.792  2.1920  2.3199  0.3566
  783TIP3   OH2 2312   0.840   4.106   1.319  0.4583  0.3628 -0.8535
  783TIP3    H1 2313   0.777   4.103   1.247  0.6494  0.6942 -1.0330
  783TIP3    H2 2314   0.835   4.195   1.352  0.7763  0.3671 -0.8136
  784TIP3   OH2 2315   0.363   3.954   1.159  0.1379  0.1820  0.1725
  784TIP3    H1 2316   0.356   3.875   1.105 -1.1749  0.6267 -0.3548
  784TIP3    H2 2317   0.328   3.928   1.244 -1.1153  0.3882 -0.2521
  785TIP3   OH2 2318   0.109   3.896   3.889 -0.3531  0.4299  0.5371
  785TIP3    H1 2319   0.092   3.803   3.910 -1.8911  0.4134 -0.5892
  785TIP3    H2 2320   0.201   3.898   3.864 -0.7322 -1.2063 -1.2946
  786TIP3   OH2 2321   1.746   5.589   5.554 -0.1452  0.4063 -0.5506
  786TIP3    H1 2322   1.729   5.509   5.605 -2.2878  1.4904  0.5638
  786TIP3    H2 2323   1.799   5.644   5.612  0.6662  0.1346 -1.0163
  787TIP3   OH2 2324   6.367   3.080   3.396 -0.8083  0.4555 -0.2949
  787TIP3    H1 2325   6.412   3.088   3.312 -0.3893 -0.1566 -0.1323
  787TIP3    H2 2326   6.429   3.035   3.453 -1.2012  0.6020  0.2618
  788TIP3   OH2 2327   2.932   4.262   3.892 -0.5487  0.0717 -0.9153
  788TIP3    H1 2328   2.945   4.185   3.947  0.9494 -0.0820 -1.4385
  788TIP3    H2 2329   2.867   4.233   3.827 -1.2696 -0.1873 -0.1012
  789TIP3   OH2 2330   5.620   6.248   1.122 -0.0522  0.2911 -0.2474
  789TIP3    H1 2331   5.624   6.152   1.128  1.6397  0.3244 -0.5510
  789TIP3    H2 2332   5.699   6.272   1.075 -1.2903  1.7364 -1.7170
  790TIP3   OH2 2333   0.985   5.669   1.830  0.1415  0.4621 -0.5258
  790TIP3    H1 2334   0.941   5.605   1.885  1.1138 -0.7352 -1.0924
  790TIP3    H2 2335   0.925   5.683   1.756 -0.9750  1.7606  0.5790
  791TIP3   OH2 2336   0.705   3.903   4.139 -0.6198  0.0055 -0.1304
  791TIP3    H1 2337   0.656   3.977   4.104 -0.7324 -0.3563 -0.7469
  791TIP3    H2 2338   0.708   3.840   4.068 -1.2038 -0.9185  0.6406
  792TIP3   OH2 2339   6.421   4.699   1.381  0.5163  0.4421  0.0840
  792TIP3    H1 2340   6.404   4.791   1.362 -0.5265  0.4569  0.9855
  792TIP3    H2 2341   6.436   4.696   1.475  2.7437 -0.0210 -0.2421
  793TIP3   OH2 2342   5.940   0.679   4.210 -0.4047 -0.0729 -0.1753
  793TIP3    H1 2343   6.009   0.728   4.256 -2.4066  1.9299  0.8932
  793TIP3    H2 2344   5.987   0.631   4.142  2.2508 -0.2764  1.6417
  794TIP3   OH2 2345   0.975   4.026   5.634 -0.0168 -0.2008 -0.4668
  794TIP3    H1 2346   1.048   4.042   5.694  2.2487 -0.6603 -2.9058
  794TIP3    H2 2347   0.974   3.931   5.623  0.2278 -0.0675 -1.8070
  795TIP3   OH2 2348   4.116   0.775   4.927 -0.2725  0.1832  0.0129
  795TIP3    H1 2349   4.099   0.686   4.957  0.2780  0.4737  1.2828
  795TIP3    H2 2350   4.029   0.813   4.914 -0.5672  0.1434  1.6587
  796TIP3   OH2 2351   6.286   0.645   2.436 -0.2580 -0.0966  0.2647
  796TIP3    H1 2352   6.229   0.574   2.409  2.3419 -1.5365 -1.9239
  796TIP3    H2 2353   6.254   0.722   2.390 -1.2865 -0.5092  0.2726
  797TIP3   OH2 2354   3.819   1.476   5.353 -0.5654 -0.5912 -0.4576
  797TIP3    H1 2355   3.734   1.509   5.324 -0.5030  1.6514  1.6051
  797TIP3    H2 2356   3.805   1.383   5.369 -2.4885 -0.3717 -0.6828
  798TIP3   OH2 2357   3.606   3.331   4.121  0.3034 -0.6183 -0.2877
  798TIP3    H1 2358   3.691   3.336   4.078  1.1691 -0.1921  1.4125
  798TIP3    H2 2359   3.543   3.330   4.048  1.7273 -0.8659 -1.5756
  799TIP3   OH2 2360   3.988   5.320   0.148 -0.1887  0.1219  0.1122
  799TIP3    H1 2361   4.051   5.252   0.174 -0.6194 -0.1267  0.5406
  799TIP3    H2 2362   3.954   5.353   0.232 -2.6536 -1.6717 -0.0739
  800TIP3   OH2 2363   4.623   2.752   3.268  0.1152  0.7942 -0.3122
  800TIP3    H1 2364   4.531   2.768   3.292  0.0889 -0.3228  0.3925
  800TIP3    H2 2365   4.670   2.829   3.301 -0.8150  2.4921 -2.6349
  801TIP3   OH2 2366   6.084   2.991   3.067  0.2163 -0.0583  0.0972
  801TIP3    H1 2367   6.154   2.929   3.088  0.3240 -0.0010 -0.0963
  801TIP3    H2 2368   6.035   2.999   3.148 -0.1647 -0.8738 -0.0422
  802TIP3   OH2 2369   4.075   4.971   0.280  0.0814  0.2375 -0.6775
  802TIP3    H1 2370   4.119   5.045   0.321  2.5430 -0.4407 -1.8845
  802TIP3    H2 2371   4.026   4.930   0.351  1.0085  1.3498  0.6614
  803TIP3   OH2 2372   0.167   0.095   5.037  0.1192  0.0664  0.4598
  803TIP3    H1 2373   0.102   0.033   5.070  0.9570 -1.8832 -1.3344
  803TIP3    H2 2374   0.116   0.162   4.992 -0.6993 -1.1605 -0.4788
  804TIP3   OH2 2375   6.120   3.131   4.667 -0.3080 -0.1653 -0.2884
  804TIP3    H1 2376   6.189   3.139   4.733  0.9825  0.7869 -1.6892
  804TIP3    H2 2377   6.041   3.116   4.718  0.8880 -1.2594  1.3901
  805TIP3   OH2 2378   2.880   1.885   0.670  0.1118 -0.2047  0.0936
  805TIP3    H1 2379   2.918   1.802   0.695 -2.1521 -0.6437  2.4638
  805TIP3    H2 2380   2.844   1.870   0.582 -0.1963 -1.7212  0.4624
  806TIP3   OH2 2381   2.836   0.843   1.789  0.2312 -0.2736 -0.6368
  806TIP3    H1 2382   2.855   0.766   1.842  1.0226  1.7285  2.1793
  806TIP3    H2 2383   2.802   0.908   1.851 -0.6677  1.6079 -2.9260
  807TIP3   OH2 2384   3.858   3.634   5.081 -0.5696  0.3146  0.6691
  807TIP3    H1 2385   3.887   3.568   5.018  0.9858  2.8080 -1.4700
  807TIP3    H2 2386   3.920   3.628   5.153 -0.1805 -0.2898  0.2922
  808TIP3   OH2 2387   3.994   2.745   3.481 -0.5650 -0.1728  0.0936
  808TIP3    H1 2388   3.914   2.762   3.531 -0.5292  0.8708 -0.1904
  808TIP3    H2 2389   3.964   2.729   3.392 -0.3776  2.0589 -0.4338
  809TIP3   OH2 2390   4.127   2.446   1.774  0.1184 -0.3492  1.0583
  809TIP3    H1 2391   4.033   2.448   1.759 -0.0122 -0.0627  1.8479
  809TIP3    H2 2392   4.136   2.445   1.869  0.9135  0.2283  1.0030
  810TIP3   OH2 2393   5.407   0.149   4.786  0.1078 -0.6051 -0.2378
  810TIP3    H1 2394   5.343   0.205   4.830  1.4290  0.0098  0.9826
  810TIP3    H2 2395   5.462   0.115   4.857  0.0425 -2.5849 -1.0625
  811TIP3   OH2 2396   1.109   4.865   2.633  0.4501 -0.3302 -0.2969
  811TIP3    H1 2397   1.147   4.943   2.593  0.8875 -1.1527 -1.4980
  811TIP3    H2 2398   1.039   4.839   2.573  0.5811 -1.1065 -0.1180
  812TIP3   OH2 2399   5.039   3.693   3.874 -0.4163 -0.1533  0.6063
  812TIP3    H1 2400   4.994   3.695   3.790  0.6682 -0.1124  0.0052
  812TIP3    H2 2401   5.034   3.784   3.906  1.0693  0.3423 -0.4779
  813TIP3   OH2 2402   6.235   1.906   3.424  0.5108  0.2476  0.2964
  813TIP3    H1 2403   6.204   1.979   3.477 -0.8382 -0.5711  0.6742
  813TIP3    H2 2404   6.203   1.827   3.470 -1.6028 -0.4836 -2.1800
  814TIP3   OH2 2405   7.054   6.312  -0.019  0.2530 -0.0413 -0.0327
  814TIP3    H1 2406   6.977   6.313   0.037  1.4150 -0.6396  1.6490
  814TIP3    H2 2407   7.121   6.359   0.031  1.3460 -0.6391 -0.8836
  815TIP3   OH2 2408   3.844   6.068   2.042  0.3156 -0.7841  0.0202
  815TIP3    H1 2409   3.843   6.075   2.137  1.5982 -0.1581  0.0178
  815TIP3    H2 2410   3.925   6.021   2.022  0.2027 -0.6666 -0.7687
  816TIP3   OH2 2411   0.394   3.419   1.962 -0.2929  0.3539  0.0516
  816TIP3    H1 2412   0.362   3.509   1.962 -2.3367 -0.2848  1.7026
  816TIP3    H2 2413   0.443   3.410   1.880 -1.6063  2.4145 -1.0330
  817TIP3   OH2 2414   5.011   6.312   3.403  0.4580 -0.6114  0.1579
  817TIP3    H1 2415   4.966   6.277   3.326 -2.9840 -0.5126  1.9435
  817TIP3    H2 2416   4.997   6.406   3.399 -0.0514 -0.6342  1.0294
  818TIP3   OH2 2417   2.311   3.972   3.299 -0.6574 -0.1733  0.3294
  818TIP3    H1 2418   2.239   4.035   3.301 -1.1833 -0.7744  0.7707
  818TIP3    H2 2419   2.322   3.952   3.206  0.7780  1.9559 -0.0090
  819TIP3   OH2 2420   6.352   3.426   5.084 -0.3677 -0.6568  0.5623
  819TIP3    H1 2421   6.413   3.358   5.112 -0.2333 -0.4395  0.7939
  819TIP3    H2 2422   6.319   3.464   5.165  0.1336  0.0696  0.4286
  820TIP3   OH2 2423   2.694   0.426   0.601  0.0291 -0.0366  0.1270
  820TIP3    H1 2424   2.738   0.500   0.642  2.3643 -1.5034  0.4435
  820TIP3    H2 2425   2.743   0.411   0.520 -1.1271 -0.5667 -0.5039
  821TIP3   OH2 2426   2.818   1.938   3.805 -0.3630  1.1993  0.5900
  821TIP3    H1 2427   2.748   1.971   3.861 -0.3193  0.6867  0.9571
  821TIP3    H2 2428   2.787   1.852   3.777 -1.3096  2.2333 -1.8361
  822TIP3   OH2 2429   1.689   3.195   4.353  0.0309 -0.8448 -0.2846
  822TIP3    H1 2430   1.737   3.278   4.353 -0.2054 -0.6951  0.8364
  822TIP3    H2 2431   1.716   3.152   4.272  0.2280  0.2832 -0.8387
  823TIP3   OH2 2432   4.845   2.479   4.478 -0.1430 -0.1246  0.4819
  823TIP3    H1 2433   4.879   2.561   4.513  0.5915 -0.0593 -0.3592
  823TIP3    H2 2434   4.894   2.411   4.524  1.3925 -0.0300 -0.9052
  824TIP3   OH2 2435   1.492   1.119   2.886 -0.2008  0.6752 -0.1000
  824TIP3    H1 2436   1.512   1.103   2.978 -1.7326 -0.4359  0.0769
  824TIP3    H2 2437   1.489   1.032   2.846 -0.6909  1.0569 -0.9357
  825TIP3   OH2 2438   0.576   2.637   1.819  0.4004 -0.4467 -0.5889
  825TIP3    H1 2439   0.486   2.609   1.839 -1.0282  0.5977 -4.5532
  825TIP3    H2 2440   0.615   2.561   1.775  1.3903 -0.7734  0.8113
  826TIP3   OH2 2441   3.549   0.062   4.243 -0.4407 -0.2871 -0.0677
  826TIP3    H1 2442   3.574  -0.010   4.185 -1.0319 -0.9812  0.5195
  826TIP3    H2 2443   3.632   0.103   4.268 -0.1222 -0.5681 -0.6538
  827TIP3   OH2 2444   1.137   3.557   3.949  0.0173 -0.1399 -0.3473
  827TIP3    H1 2445   1.156   3.475   3.904  0.6163  0.1097 -0.5748
  827TIP3    H2 2446   1.200   3.560   4.022  0.6911  0.5656 -0.9288
  828TIP3   OH2 2447   2.529   2.759   5.558  0.3156 -0.0413 -0.0008
  828TIP3    H1 2448   2.548   2.665   5.551  1.7734  0.3324 -1.6499
  828TIP3    H2 2449   2.604   2.794   5.605  1.0827  0.6597 -1.6960
  829TIP3   OH2 2450   3.159   4.277   5.680  0.2302 -0.2591 -0.1740
  829TIP3    H1 2451   3.185   4.339   5.612 -3.2130  0.4198 -1.1009
  829TIP3    H2 2452   3.209   4.303   5.757 -0.0466  2.8452 -0.9100
  830TIP3   OH2 2453   1.664   1.731   5.127  0.2904  0.0238  0.2418
  830TIP3    H1 2454   1.675   1.737   5.222  0.9538 -1.3328  0.2914
  830TIP3    H2 2455   1.576   1.762   5.110 -0.0239 -0.2121  1.3731
  831TIP3   OH2 2456   6.864   5.526   4.164 -0.0413 -0.5060 -0.8062
  831TIP3    H1 2457   6.816   5.532   4.081 -2.5824  0.1395  0.6044
  831TIP3    H2 2458   6.818   5.460   4.214  2.3930 -2.0234 -0.3854
  832TIP3   OH2 2459   7.076   5.282   4.926  0.3334 -0.6393  0.2042
  832TIP3    H1 2460   7.002   5.268   4.867  0.5800 -1.8510  0.1563
  832TIP3    H2 2461   7.058   5.226   5.001  1.5684 -1.5582 -0.1566
  833TIP3   OH2 2462   4.877   1.359   3.916  0.5505 -0.1380 -0.1666
  833TIP3    H1 2463   4.870   1.372   4.011  0.9400 -0.2933 -0.1125
  833TIP3    H2 2464   4.854   1.267   3.904 -1.0532  0.2734 -0.4104
  834TIP3   OH2 2465   4.516   3.682   5.207  0.4787  0.5361  0.1699
  834TIP3    H1 2466   4.501   3.601   5.159  0.1208  0.0836  1.0409
  834TIP3    H2 2467   4.544   3.745   5.139 -1.9479  0.4792 -0.9812
  835TIP3   OH2 2468   1.264   6.146   4.946 -0.0432 -0.3816 -0.4212
  835TIP3    H1 2469   1.259   6.106   4.859 -1.3424 -1.7576  0.2378
  835TIP3    H2 2470   1.317   6.085   4.998 -2.0455 -1.3922  0.5940
  836TIP3   OH2 2471   6.631   2.025   5.110  0.2769  0.6710 -0.1628
  836TIP3    H1 2472   6.622   2.111   5.068  2.7565  1.3684  0.5546
  836TIP3    H2 2473   6.718   1.995   5.084 -0.3129 -1.3936  0.0818
  837TIP3   OH2 2474   6.448   5.272   1.170  0.0142 -0.2739 -0.0370
  837TIP3    H1 2475   6.427   5.296   1.080 -1.2702 -1.0070  0.0519
  837TIP3    H2 2476   6.419   5.346   1.222 -1.5147 -0.8617 -0.0129
  838TIP3   OH2 2477   3.574   4.969   4.993  0.6334  0.4397 -0.3940
  838TIP3    H1 2478   3.611   4.987   4.906  2.0694 -1.6991 -0.2845
  838TIP3    H2 2479   3.588   4.876   5.006 -1.7936  0.2127  1.1494
  839TIP3   OH2 2480   5.970   2.734   5.496 -0.2962 -0.0574  0.0730
  839TIP3    H1 2481   5.920   2.779   5.428  0.5233  2.2285  0.8837
  839TIP3    H2 2482   6.061   2.747   5.471  0.0355  1.1689  1.7471
  840TIP3   OH2 2483   2.184   2.005   5.229 -0.1932  0.3820 -0.0712
  840TIP3    H1 2484   2.089   2.018   5.236 -0.8782 -2.6222 -2.1698
  840TIP3    H2 2485   2.219   2.094   5.224 -2.7530  1.6295  1.5572
  841TIP3   OH2 2486   5.055   4.574   0.145 -1.0052 -0.0578  0.2181
  841TIP3    H1 2487   5.017   4.662   0.153 -2.6652 -0.6130 -0.8784
  841TIP3    H2 2488   4.984   4.516   0.173 -0.7337 -1.1241 -1.2015
  842TIP3   OH2 2489   5.559   1.995   4.128  0.0630 -0.4538  0.5877
  842TIP3    H1 2490   5.587   2.010   4.218 -1.0390  1.3054  0.6854
  842TIP3    H2 2491   5.628   2.036   4.075  0.5591 -1.2284  0.6105
  843TIP3   OH2 2492   5.867   5.749   1.412  0.2487  0.3176  0.1154
  843TIP3    H1 2493   5.908   5.831   1.440  0.6827 -0.3636  1.5981
  843TIP3    H2 2494   5.931   5.709   1.353 -0.2868  1.3588 -1.2367
  844TIP3   OH2 2495   4.404   2.514   1.128  0.3240  0.0171  0.7849
  844TIP3    H1 2496   4.451   2.587   1.167  0.4199 -0.7182  2.0974
  844TIP3    H2 2497   4.401   2.448   1.197 -0.1480 -1.0472 -0.2280
  845TIP3   OH2 2498   5.837   1.632   0.834  0.0722 -0.6582  0.1701
  845TIP3    H1 2499   5.803   1.621   0.922  2.0065 -1.6743  0.8519
  845TIP3    H2 2500   5.762   1.614   0.777 -1.1944 -0.0608  1.5664
  846TIP3   OH2 2501   4.286   4.595   0.337 -0.1972  0.3064  0.2335
  846TIP3    H1 2502   4.198   4.559   0.347  0.0629 -0.2392  0.6396
  846TIP3    H2 2503   4.320   4.597   0.427  0.9928 -1.5289 -0.1313
  847TIP3   OH2 2504   7.075   3.086   2.388 -0.4647  0.3750 -0.4009
  847TIP3    H1 2505   7.093   3.122   2.476  0.8087 -0.3710 -0.3248
  847TIP3    H2 2506   7.139   3.129   2.332  0.0879 -0.6545 -0.5789
  848TIP3   OH2 2507   4.100   6.473   4.612 -0.4049  0.1756 -0.1938
  848TIP3    H1 2508   4.151   6.551   4.636 -0.7664  1.0101 -1.9811
  848TIP3    H2 2509   4.022   6.478   4.668  0.1396  0.4241  0.5572
  849TIP3   OH2 2510   1.150   0.642   4.688  0.2808  0.0299 -0.3821
  849TIP3    H1 2511   1.072   0.618   4.737 -0.0531 -1.1850 -1.4516
  849TIP3    H2 2512   1.202   0.562   4.684  0.7007  0.3288 -1.2607
  850TIP3   OH2 2513   0.231   4.051   1.569 -0.3169  0.3048  0.4175
  850TIP3    H1 2514   0.298   3.985   1.585 -0.4712 -0.5259 -2.0231
  850TIP3    H2 2515   0.164   4.007   1.518 -0.8586  2.0883 -0.5191
  851TIP3   OH2 2516   2.425   5.259   2.629  0.7210 -0.0669  0.0479
  851TIP3    H1 2517   2.487   5.331   2.624  0.2014  0.3233 -1.1996
  851TIP3    H2 2518   2.358   5.280   2.564 -1.0432 -0.1751  1.7258
  852TIP3   OH2 2519   0.874   5.145   2.014 -0.0572 -0.1772  0.5451
  852TIP3    H1 2520   0.838   5.056   2.011 -0.8568  0.1802 -0.9158
  852TIP3    H2 2521   0.910   5.153   2.103 -0.2687 -1.8351  0.8066
  853TIP3   OH2 2522   1.467   6.354   3.339  0.3494 -0.1510 -0.9273
  853TIP3    H1 2523   1.527   6.341   3.265 -0.5398 -1.4884 -1.4435
  853TIP3    H2 2524   1.414   6.275   3.341  0.4476 -0.2042  1.2709
  854TIP3   OH2 2525   0.703   2.583   4.807  0.0002  0.3914  0.0493
  854TIP3    H1 2526   0.639   2.512   4.815  1.4863 -1.1973 -1.2917
  854TIP3    H2 2527   0.661   2.646   4.748  0.1157 -1.2399 -1.8795
  855TIP3   OH2 2528   0.477   1.853   4.234 -0.1049  0.8942 -0.0187
  855TIP3    H1 2529   0.468   1.821   4.323 -0.2198  0.4938 -0.1687
  855TIP3    H2 2530   0.564   1.892   4.230 -0.3762  1.5788  0.4680
  856TIP3   OH2 2531   0.623   5.333   3.746 -0.2176 -0.1956  0.3819
  856TIP3    H1 2532   0.588   5.302   3.662  0.3566 -1.0008  0.4147
  856TIP3    H2 2533   0.616   5.257   3.804 -0.8046  0.4237  1.1268
  857TIP3   OH2 2534   0.236   0.759   5.481  0.1306  0.0778  0.2720
  857TIP3    H1 2535   0.291   0.684   5.504  1.0215  1.1769  1.9760
  857TIP3    H2 2536   0.282   0.801   5.408 -0.5630 -1.1773 -0.9353
  858TIP3   OH2 2537   6.597   4.629   0.606 -0.3520 -0.2364  0.0432
  858TIP3    H1 2538   6.622   4.549   0.560 -2.3554 -1.1923  0.5274
  858TIP3    H2 2539   6.616   4.699   0.543  0.7319 -1.1263 -0.6673
  859TIP3   OH2 2540   3.091   5.092   5.898 -0.3595 -0.3951  0.4934
  859TIP3    H1 2541   3.017   5.119   5.844 -0.6234 -0.6106  0.7442
  859TIP3    H2 2542   3.128   5.017   5.851 -0.6316 -0.6258  0.6451
  860TIP3   OH2 2543   1.985   1.720   1.376  0.3574 -0.0657 -0.2279
  860TIP3    H1 2544   1.991   1.650   1.310 -0.1557 -1.3741  1.0608
  860TIP3    H2 2545   2.040   1.689   1.448  1.4744  1.6752 -0.2723
  861TIP3   OH2 2546   6.049   1.466   0.804  0.6594  0.3932  0.2138
  861TIP3    H1 2547   5.997   1.544   0.821  2.1926  1.2796  1.0575
  861TIP3    H2 2548   6.121   1.496   0.747  1.4187 -0.3252  0.7650
  862TIP3   OH2 2549   6.259   1.622   3.300  0.3050  0.4249 -0.2025
  862TIP3    H1 2550   6.240   1.647   3.390 -0.9279 -0.0488 -0.3140
  862TIP3    H2 2551   6.174   1.603   3.261  1.0172 -2.5484 -0.5227
  863TIP3   OH2 2552   1.196   1.400   1.510  0.4321 -0.3939 -0.1225
  863TIP3    H1 2553   1.272   1.443   1.469 -1.3324  2.9946 -0.2103
  863TIP3    H2 2554   1.229   1.369   1.594  1.9774  0.9376 -0.1792
  864TIP3   OH2 2555   0.279   5.631   3.835 -0.3035 -0.1132 -0.8318
  864TIP3    H1 2556   0.332   5.658   3.759  0.4987  1.0577  0.1094
  864TIP3    H2 2557   0.336   5.646   3.910 -0.4525 -2.8662 -0.0838
  865TIP3   OH2 2558   3.496   5.156   4.530  0.0316 -0.1244  0.0444
  865TIP3    H1 2559   3.557   5.226   4.553  0.0550  0.1775 -0.9026
  865TIP3    H2 2560   3.482   5.165   4.436 -0.2863 -1.1436 -0.0267
  866TIP3   OH2 2561   5.478   2.313   2.457 -0.3732 -0.2789 -0.4330
  866TIP3    H1 2562   5.439   2.304   2.370  1.8376 -0.1800 -1.5122
  866TIP3    H2 2563   5.464   2.229   2.499  0.2208 -1.0221 -1.6674
  867TIP3   OH2 2564   5.394   5.369   3.006 -0.4665  0.0014  0.3229
  867TIP3    H1 2565   5.469   5.365   2.947 -1.0389 -2.3237 -0.3660
  867TIP3    H2 2566   5.433   5.374   3.093  0.4443  0.8115 -0.1119
  868TIP3   OH2 2567   1.792   4.831   1.442 -0.0787 -0.6032 -0.0826
  868TIP3    H1 2568   1.726   4.802   1.505 -0.6202 -0.1675 -0.4384
  868TIP3    H2 2569   1.869   4.852   1.496 -0.1233 -1.3929  0.3058
  869TIP3   OH2 2570   2.272   3.817   3.625  0.0883 -0.4609 -0.2083
  869TIP3    H1 2571   2.210   3.886   3.603 -1.3071 -1.9741 -1.2915
  869TIP3    H2 2572   2.358   3.855   3.606 -0.5521  1.3081  0.2486
  870TIP3   OH2 2573  -0.001   2.606   0.748  0.1661 -0.4418  0.4156
  870TIP3    H1 2574  -0.054   2.565   0.817  0.6555 -0.4589  0.7878
  870TIP3    H2 2575   0.081   2.556   0.748  0.5244  0.1379  0.4498
  871TIP3   OH2 2576   6.611   6.052   2.358 -0.0183  0.3214 -0.4227
  871TIP3    H1 2577   6.523   6.073   2.326 -0.4991 -0.2267  0.4801
  871TIP3    H2 2578   6.638   5.976   2.307 -1.0562 -0.9713  0.8651
  872TIP3   OH2 2579   1.320   1.295   4.675 -0.3597  0.2827  0.1652
  872TIP3    H1 2580   1.312   1.205   4.642 -1.2107 -0.2209  1.6282
  872TIP3    H2 2581   1.390   1.289   4.741  1.4426  1.3025 -1.5465
  873TIP3   OH2 2582   1.396   0.091   1.116  0.6530  0.2325 -0.5640
  873TIP3    H1 2583   1.432   0.178   1.101 -0.4179  0.8063  0.0722
  873TIP3    H2 2584   1.471   0.038   1.142  1.1870  1.1518 -0.2074
  874TIP3   OH2 2585   0.582   1.056   1.472 -0.1030  0.0778  0.5575
  874TIP3    H1 2586   0.619   1.045   1.384  0.5984  1.3193  0.6744
  874TIP3    H2 2587   0.487   1.057   1.459 -0.0188 -0.2682 -0.1151
  875TIP3   OH2 2588   2.561   3.060   5.613  0.0189 -0.1190  0.2423
  875TIP3    H1 2589   2.499   3.046   5.685  0.5151 -1.5705  0.4345
  875TIP3    H2 2590   2.643   3.020   5.644  0.2031 -0.8892 -1.1623
  876TIP3   OH2 2591   4.424   5.345   0.078  0.0230 -0.5966  0.0548
  876TIP3    H1 2592   4.357   5.286   0.043  0.1772 -1.1552  0.6808
  876TIP3    H2 2593   4.395   5.433   0.053 -1.5116 -0.7374  1.2506
  877TIP3   OH2 2594   4.249   2.907   5.916 -0.4785  0.6846 -0.2205
  877TIP3    H1 2595   4.271   2.948   5.833 -0.5008  0.8533 -0.1437
  877TIP3    H2 2596   4.165   2.863   5.900  0.6019 -1.2165 -0.9408
  878TIP3   OH2 2597   6.566   6.232   2.717  0.2542 -0.1606 -1.0004
  878TIP3    H1 2598   6.606   6.293   2.778 -0.3389 -1.9726  1.3812
  878TIP3    H2 2599   6.529   6.287   2.648  1.6646  1.9490 -0.1685
  879TIP3   OH2 2600   0.211   0.534   4.091 -0.0565  0.3105 -0.0348
  879TIP3    H1 2601   0.307   0.524   4.089  0.0767  1.5390 -1.4307
  879TIP3    H2 2602   0.197   0.627   4.107 -1.0189  0.1782 -0.0903
  880TIP3   OH2 2603   0.738   6.619   0.552 -0.1661 -0.3658 -0.1899
  880TIP3    H1 2604   0.708   6.657   0.470 -1.1201 -1.3737 -0.3417
  880TIP3    H2 2605   0.761   6.529   0.530  1.0248 -0.2183  0.3636
  881TIP3   OH2 2606   2.808   2.721   3.940 -0.2111  0.0107  0.3934
  881TIP3    H1 2607   2.739   2.754   3.998  1.4440  0.5421  2.1363
  881TIP3    H2 2608   2.831   2.636   3.977 -0.5360 -0.5866 -0.7342
  882TIP3   OH2 2609   0.696   2.456   1.459 -0.0425  0.5075  0.5898
  882TIP3    H1 2610   0.714   2.392   1.391 -1.3984 -0.5144  1.1312
  882TIP3    H2 2611   0.699   2.406   1.541 -2.1646  0.8427  0.9456
  883TIP3   OH2 2612   0.560   2.929   0.185 -0.0063 -0.1399 -0.3439
  883TIP3    H1 2613   0.551   3.021   0.210  0.6707 -0.3421  0.7273
  883TIP3    H2 2614   0.637   2.927   0.128 -0.1759 -0.0094 -0.5800
  884TIP3   OH2 2615   6.302   6.042   5.730  0.2300 -0.0124 -0.6698
  884TIP3    H1 2616   6.269   6.129   5.708 -0.1452 -0.2658 -1.1347
  884TIP3    H2 2617   6.362   6.057   5.803  0.3213  0.6627 -0.8722
  885TIP3   OH2 2618   0.026   3.528   0.081 -0.1890  0.0352  0.3287
  885TIP3    H1 2619  -0.039   3.477   0.129  0.1886 -2.2621 -1.3583
  885TIP3    H2 2620   0.067   3.464   0.022  3.4787  1.3888  1.1490
  886TIP3   OH2 2621   2.345   4.848   5.692 -0.5356 -0.3933  0.7757
  886TIP3    H1 2622   2.388   4.785   5.634  0.6228 -0.1244  1.3067
  886TIP3    H2 2623   2.252   4.835   5.676 -0.3652  1.6009 -3.2896
  887TIP3   OH2 2624   5.200   5.928   4.564 -0.3103 -1.2135  0.1431
  887TIP3    H1 2625   5.106   5.930   4.550 -0.4350 -0.4993  1.0200
  887TIP3    H2 2626   5.233   5.870   4.495 -1.2249 -0.3998 -1.0192
  888TIP3   OH2 2627   0.070   1.171   4.505 -0.0100  0.3195  0.0964
  888TIP3    H1 2628   0.153   1.215   4.486  0.4858 -0.9102 -0.7395
  888TIP3    H2 2629   0.069   1.095   4.445 -0.1104 -1.6933  2.4981
  889TIP3   OH2 2630   5.599   0.624   1.263 -0.1195 -0.0477 -1.1482
  889TIP3    H1 2631   5.533   0.685   1.295  0.4186 -0.3214  0.5819
  889TIP3    H2 2632   5.548   0.546   1.237 -0.4676 -0.5871  0.9672
  890TIP3   OH2 2633   1.050   4.950   0.095 -0.3124  0.1917 -0.4652
  890TIP3    H1 2634   0.994   4.998   0.033 -1.2573 -2.6466 -2.0117
  890TIP3    H2 2635   0.989   4.917   0.161  0.0922  0.0247 -0.1761
  891TIP3   OH2 2636   2.611   3.145   1.693 -0.1817  0.0042 -0.1288
  891TIP3    H1 2637   2.653   3.131   1.608 -1.3760 -0.8876 -0.6126
  891TIP3    H2 2638   2.527   3.184   1.671  0.2128  1.4083  0.7883
  892TIP3   OH2 2639   3.666   1.070   2.258 -0.2398 -0.0003 -0.0583
  892TIP3    H1 2640   3.718   1.046   2.335 -0.6197  0.0169  0.2039
  892TIP3    H2 2641   3.594   1.008   2.257 -1.4405  1.3162  0.8367
  893TIP3   OH2 2642   3.392   4.797   4.064  1.1439  0.0175  0.4871
  893TIP3    H1 2643   3.437   4.833   3.988  1.2186 -0.9111  0.0760
  893TIP3    H2 2644   3.366   4.709   4.037  1.2336 -0.3499  1.5590
  894TIP3   OH2 2645   1.824   0.837   2.997  0.1464 -0.3645 -0.4501
  894TIP3    H1 2646   1.866   0.752   3.010  1.9918  0.8507  2.9019
  894TIP3    H2 2647   1.853   0.865   2.911  0.5707 -2.5245 -1.0840
  895TIP3   OH2 2648   0.902   6.128   2.706  0.0792  0.9610 -0.5474
  895TIP3    H1 2649   0.969   6.093   2.765 -0.3361 -0.4635 -0.8809
  895TIP3    H2 2650   0.951   6.179   2.641  0.7077  1.0114 -0.0437
  896TIP3   OH2 2651   0.316   4.382   0.449 -0.3468  0.0897 -0.2602
  896TIP3    H1 2652   0.287   4.306   0.500 -0.7405  1.5029  1.7666
  896TIP3    H2 2653   0.412   4.379   0.455 -0.3878  0.5441  1.1643
  897TIP3   OH2 2654   3.956   2.623   2.692 -0.3479  0.5477  0.0634
  897TIP3    H1 2655   4.000   2.662   2.617 -0.3683  0.4383 -0.0061
  897TIP3    H2 2656   4.020   2.559   2.726 -0.6899 -0.0573 -0.4118
  898TIP3   OH2 2657   6.606   1.554   3.627  0.0947 -0.1057 -0.2482
  898TIP3    H1 2658   6.696   1.564   3.596  0.8166  0.6798  1.9149
  898TIP3    H2 2659   6.559   1.516   3.552  1.3706  2.7233 -2.6815
  899TIP3   OH2 2660   2.353   6.363   4.912 -0.7110 -0.5079  0.5385
  899TIP3    H1 2661   2.308   6.342   4.993  0.8812  0.0618  1.6331
  899TIP3    H2 2662   2.285   6.364   4.845 -2.2097 -0.1578  2.0175
  900TIP3   OH2 2663   3.742   3.199   5.672  0.3319  0.1577  0.3242
  900TIP3    H1 2664   3.813   3.134   5.677 -1.7485 -2.4437 -1.0377
  900TIP3    H2 2665   3.758   3.257   5.746  4.7185  0.7644 -0.7702
  901TIP3   OH2 2666   0.938   4.073   2.829 -0.5243  0.0521 -0.1250
  901TIP3    H1 2667   0.863   4.098   2.884  0.0993 -1.2187  1.3714
  901TIP3    H2 2668   0.902   4.008   2.769 -0.2910 -2.0423  1.8763
  902TIP3   OH2 2669   1.928   2.222   4.083  0.0922  0.6798 -0.5968
  902TIP3    H1 2670   1.977   2.282   4.139 -0.6556  0.6395  0.1206
  902TIP3    H2 2671   1.850   2.200   4.134 -0.5058  0.4770 -1.5692
  903TIP3   OH2 2672   0.695   0.846   0.529  0.2853  0.2515  0.2219
  903TIP3    H1 2673   0.772   0.899   0.508  0.6288 -0.2697  0.1577
  903TIP3    H2 2674   0.718   0.801   0.610  0.4773 -0.7457 -0.3716
  904TIP3   OH2 2675   0.651   3.227   0.695 -0.0960 -0.6493  1.2452
  904TIP3    H1 2676   0.657   3.143   0.649  1.4870 -0.5861  1.2836
  904TIP3    H2 2677   0.568   3.222   0.743 -2.4442 -0.3057 -2.3761
  905TIP3   OH2 2678   4.351   5.809   1.177 -0.3096 -0.4290  0.2635
  905TIP3    H1 2679   4.328   5.877   1.239  0.4383  0.5554 -0.5064
  905TIP3    H2 2680   4.397   5.743   1.229 -1.4683 -0.6210  1.1027
  906TIP3   OH2 2681   2.350   6.101   3.421 -0.6863  0.0997 -0.1986
  906TIP3    H1 2682   2.437   6.062   3.415 -0.2819  0.8349  0.5467
  906TIP3    H2 2683   2.365   6.195   3.408 -1.3887  0.2141 -0.2201
  907TIP3   OH2 2684   5.265   0.873   3.792 -0.2876  0.2927  0.2203
  907TIP3    H1 2685   5.318   0.888   3.713  0.5547  0.7403  0.8621
  907TIP3    H2 2686   5.276   0.779   3.810  0.7736  0.4967  0.6816
  908TIP3   OH2 2687   1.617   1.649   5.545 -0.2052 -0.2148  0.1697
  908TIP3    H1 2688   1.672   1.576   5.574 -0.7819  0.1616  2.4708
  908TIP3    H2 2689   1.543   1.647   5.606 -2.3521 -0.2028 -2.2984
  909TIP3   OH2 2690   5.161   1.045   4.735 -0.8390  0.1492  0.2756
  909TIP3    H1 2691   5.128   0.997   4.659 -0.8891 -1.6686  1.4137
  909TIP3    H2 2692   5.091   1.107   4.756 -1.4392 -0.3330 -0.2668
  910TIP3   OH2 2693   4.724   1.674   3.587  0.1743  0.6553  0.1715
  910TIP3    H1 2694   4.793   1.661   3.652 -0.0714 -0.9014  0.1639
  910TIP3    H2 2695   4.740   1.761   3.552  1.4948  0.7356  0.9185
  911TIP3   OH2 2696   6.406   1.080   2.747  0.0893  0.3025 -0.1549
  911TIP3    H1 2697   6.476   1.022   2.778  0.1180  0.4021 -0.0360
  911TIP3    H2 2698   6.342   1.020   2.708  0.3173  0.2232 -0.4156
  912TIP3   OH2 2699   2.898   3.351   2.250  0.5499 -0.2313 -0.1841
  912TIP3    H1 2700   2.970   3.304   2.293  0.9880 -0.4304 -1.1150
  912TIP3    H2 2701   2.844   3.383   2.322  1.2943 -0.5189  0.5141
  913TIP3   OH2 2702   3.545   2.420   5.300  0.1111 -0.5254 -0.2053
  913TIP3    H1 2703   3.549   2.417   5.205  0.7127  1.6546 -0.2891
  913TIP3    H2 2704   3.453   2.403   5.321 -0.4932  1.1244 -1.3272
  914TIP3   OH2 2705   1.892   2.488   4.968 -0.2693 -0.4321  0.2977
  914TIP3    H1 2706   1.905   2.578   4.941 -2.5652  0.4357  1.7805
  914TIP3    H2 2707   1.919   2.485   5.060 -0.5421 -1.1584  0.3662
  915TIP3   OH2 2708   4.688   0.182   4.908  0.3482  0.1883  0.0453
  915TIP3    H1 2709   4.764   0.199   4.964 -0.0633 -1.9005  1.3673
  915TIP3    H2 2710   4.626   0.252   4.928  0.3928 -0.2520  1.9318
  916TIP3   OH2 2711   5.808   1.026   4.621 -0.5870 -0.2004 -0.0888
  916TIP3    H1 2712   5.900   1.031   4.648 -1.1543  1.7380  1.6379
  916TIP3    H2 2713   5.778   1.116   4.619 -2.0535 -0.6499 -2.3191
  917TIP3   OH2 2714   4.404   3.806   4.919 -0.2775  0.2241  0.3349
  917TIP3    H1 2715   4.463   3.736   4.891 -0.8415 -1.1663  2.4124
  917TIP3    H2 2716   4.457   3.886   4.912  1.2006 -0.7209  0.2406
  918TIP3   OH2 2717   0.370   0.442   3.630  0.2813  0.1785  0.2422
  918TIP3    H1 2718   0.373   0.533   3.601 -1.0838  0.5254  1.0983
  918TIP3    H2 2719   0.338   0.394   3.554 -2.0142  0.9008  0.6554
  919TIP3   OH2 2720   1.345   1.036   4.275  0.3435  0.4150  0.1142
  919TIP3    H1 2721   1.409   1.106   4.271  0.5828  0.1813 -3.0443
  919TIP3    H2 2722   1.280   1.060   4.208 -0.8587 -1.1833  0.6529
  920TIP3   OH2 2723   5.488   5.542   1.877 -0.0050  0.2729 -0.4242
  920TIP3    H1 2724   5.468   5.535   1.784  1.5579 -0.9830 -0.7072
  920TIP3    H2 2725   5.465   5.457   1.913  1.6474 -0.0803 -0.1502
  921TIP3   OH2 2726   5.164   5.023   2.063  0.2253 -0.0226 -0.3793
  921TIP3    H1 2727   5.237   4.999   2.006  0.4651 -0.7989  0.2400
  921TIP3    H2 2728   5.129   4.940   2.095 -0.7525  0.3482 -0.4299
  922TIP3   OH2 2729   0.928   1.004   1.606  0.1184 -0.0461 -0.0529
  922TIP3    H1 2730   0.924   0.984   1.512 -1.8267 -0.9181  0.1611
  922TIP3    H2 2731   0.942   0.919   1.648  2.8279  0.5518  0.4162
  923TIP3   OH2 2732   1.129   5.857   2.008 -0.3279 -0.6905 -0.0936
  923TIP3    H1 2733   1.181   5.929   1.973 -1.1329  0.1294  0.3443
  923TIP3    H2 2734   1.078   5.826   1.934 -0.8710  0.0083 -0.0322
  924TIP3   OH2 2735   0.395   1.302   3.443  0.1289  0.2422  0.7753
  924TIP3    H1 2736   0.378   1.211   3.470  0.4558  0.2828  1.1108
  924TIP3    H2 2737   0.478   1.298   3.395  0.1128  0.3559  0.7375
  925TIP3   OH2 2738   1.951   3.261   2.721 -0.5056  0.0627 -0.2691
  925TIP3    H1 2739   1.867   3.256   2.675 -0.8852  1.9546  0.1343
  925TIP3    H2 2740   2.016   3.242   2.653 -1.1732  0.3643 -1.0170
  926TIP3   OH2 2741   0.528   4.824   1.222  0.1035  0.4572 -0.4183
  926TIP3    H1 2742   0.489   4.910   1.205  1.0369  0.7334 -1.1842
  926TIP3    H2 2743   0.599   4.841   1.283  0.3011  0.2243 -0.5813
  927TIP3   OH2 2744   6.651   3.077   5.631  0.2302  0.8621  0.1762
  927TIP3    H1 2745   6.658   3.158   5.580  4.4051  1.1460  0.8841
  927TIP3    H2 2746   6.629   3.107   5.720  0.6756  1.1302  0.1985
  928TIP3   OH2 2747   4.640   1.890   3.083 -0.1948  0.3944  0.3180
  928TIP3    H1 2748   4.602   1.978   3.088 -2.2749 -0.2566 -1.9377
  928TIP3    H2 2749   4.674   1.883   2.994  1.0623 -0.6869  0.8490
  929TIP3   OH2 2750   2.214   0.546   4.058  0.1523  0.1297  0.2968
  929TIP3    H1 2751   2.154   0.620   4.047 -1.3145 -1.1377 -0.7139
  929TIP3    H2 2752   2.223   0.537   4.153 -1.2544  0.3905  0.4889
  930TIP3   OH2 2753   4.628   5.264   0.629 -0.3694  0.0834  0.0605
  930TIP3    H1 2754   4.587   5.346   0.603 -0.2522  0.3919  0.8086
  930TIP3    H2 2755   4.566   5.224   0.690 -0.4896 -0.4566 -0.4062
  931TIP3   OH2 2756   1.478   5.971   1.397  0.0598  0.2111 -0.1393
  931TIP3    H1 2757   1.567   6.004   1.412  0.4200 -0.6426 -0.3301
  931TIP3    H2 2758   1.449   6.016   1.318 -0.4554  1.9794  0.9921
  932TIP3   OH2 2759   3.413   1.541   2.534 -0.1298  0.4857 -0.0895
  932TIP3    H1 2760   3.475   1.596   2.485 -0.1383  2.4483  1.9810
  932TIP3    H2 2761   3.419   1.455   2.491  0.6184  1.7968 -2.8143
  933TIP3   OH2 2762   1.407   2.768   1.943  0.0340 -0.2693  0.4301
  933TIP3    H1 2763   1.382   2.737   1.856  0.3480 -0.4316  0.3985
  933TIP3    H2 2764   1.501   2.781   1.939 -0.1117  0.9095  0.3851
  934TIP3   OH2 2765   4.306   2.943   1.922  0.0984 -0.8140  0.5380
  934TIP3    H1 2766   4.276   3.023   1.878  0.2655 -1.3690 -0.6092
  934TIP3    H2 2767   4.382   2.916   1.872  0.0457 -1.6949  0.9280
  935TIP3   OH2 2768   1.759   0.085   4.820 -0.2225  0.1960 -0.5925
  935TIP3    H1 2769   1.850   0.102   4.795 -0.3571  1.6022 -0.2027
  935TIP3    H2 2770   1.724   0.171   4.844 -0.9609 -0.6592  1.5754
  936TIP3   OH2 2771   2.053   2.850   5.483 -0.4547  0.0049 -0.1456
  936TIP3    H1 2772   1.971   2.897   5.490 -0.2082  0.4273 -0.0533
  936TIP3    H2 2773   2.061   2.828   5.390 -0.1042  0.9998 -0.3575
  937TIP3   OH2 2774   0.328   4.677   5.359 -0.1745  0.1088 -0.2084
  937TIP3    H1 2775   0.347   4.657   5.451  1.2825  0.5392 -0.3881
  937TIP3    H2 2776   0.414   4.681   5.317 -0.7995  0.2461 -1.5295
  938TIP3   OH2 2777   3.069   3.209   3.028 -0.1672 -0.1825 -0.0825
  938TIP3    H1 2778   3.151   3.196   3.076 -0.5778 -0.3527  0.5786
  938TIP3    H2 2779   3.057   3.304   3.027  0.4721 -0.0947 -0.9344
  939TIP3   OH2 2780   2.656   4.312   5.550  0.2186  0.0152 -0.2070
  939TIP3    H1 2781   2.661   4.249   5.478 -0.2891 -1.1079  0.7033
  939TIP3    H2 2782   2.599   4.271   5.614  0.4576  1.0982  0.7412
  940TIP3   OH2 2783   1.666   6.615   4.397  0.4557  0.2363 -0.1455
  940TIP3    H1 2784   1.700   6.695   4.436  0.2851  0.3950 -0.3189
  940TIP3    H2 2785   1.737   6.551   4.405  2.6198  1.6933 -4.3864
  941TIP3   OH2 2786   0.525   3.867   4.410  0.2442  0.1218 -0.1085
  941TIP3    H1 2787   0.553   3.958   4.405  1.8195 -0.2343  1.2859
  941TIP3    H2 2788   0.470   3.862   4.488  1.7540 -0.4534  0.9706
  942TIP3   OH2 2789   6.468   1.364   3.485 -0.2631  0.0004  0.1452
  942TIP3    H1 2790   6.403   1.382   3.418 -0.1879 -1.7977 -0.4502
  942TIP3    H2 2791   6.491   1.272   3.474  0.1964 -0.2074  2.2497
  943TIP3   OH2 2792   1.633   6.792   4.921 -0.7301  0.1091 -0.1451
  943TIP3    H1 2793   1.617   6.851   4.847 -2.1228  0.4521  0.3855
  943TIP3    H2 2794   1.556   6.736   4.924  0.1316 -1.0977 -0.0289
  944TIP3   OH2 2795   0.169   6.761   2.488  0.5116  0.1421  0.6710
  944TIP3    H1 2796   0.256   6.798   2.501  0.2379  0.6206  1.1883
  944TIP3    H2 2797   0.110   6.819   2.537  0.1642 -1.4009  2.2080
  945TIP3   OH2 2798   4.872   2.355   5.579 -0.5197  0.2181  0.4426
  945TIP3    H1 2799   4.813   2.426   5.558  0.0833  0.9274  1.0755
  945TIP3    H2 2800   4.953   2.398   5.607 -0.6845 -0.6617  2.4359
  946TIP3   OH2 2801   1.248   4.589   5.285 -0.8725  0.0388  0.5045
  946TIP3    H1 2802   1.159   4.575   5.317 -0.9679 -1.7834 -0.4110
  946TIP3    H2 2803   1.295   4.508   5.306 -0.7896 -1.1058 -3.2106
  947TIP3   OH2 2804   2.551   2.631   0.948 -0.3725  0.0936  0.0199
  947TIP3    H1 2805   2.604   2.602   1.022  2.5567  1.0913 -1.5279
  947TIP3    H2 2806   2.536   2.724   0.964 -0.0521  0.2270 -0.4131
  948TIP3   OH2 2807   0.101   0.465   5.342  0.5710 -0.4122 -0.2678
  948TIP3    H1 2808   0.184   0.445   5.386 -0.7069 -2.0500  1.5639
  948TIP3    H2 2809   0.047   0.505   5.410  0.2371  1.9859 -1.7929
  949TIP3   OH2 2810   3.684   3.337   1.831 -0.2685 -0.6942 -0.4632
  949TIP3    H1 2811   3.753   3.373   1.886 -0.8390  1.3202 -0.9876
  949TIP3    H2 2812   3.608   3.330   1.888 -0.1224 -1.2433 -0.3278
  950TIP3   OH2 2813   3.360   5.340   2.161 -0.2863  0.3545  0.0675
  950TIP3    H1 2814   3.304   5.274   2.203  0.0447  0.3258  0.4722
  950TIP3    H2 2815   3.442   5.336   2.210 -0.1304  0.8017 -0.1527
  951TIP3   OH2 2816   5.114   0.303   2.574 -0.0309  0.0304 -0.5137
  951TIP3    H1 2817   5.151   0.352   2.648 -0.7676  1.3812 -1.0006
  951TIP3    H2 2818   5.019   0.315   2.583 -0.2410 -1.3658 -0.6403
  952TIP3   OH2 2819   1.087   2.865   0.945 -0.3083  0.0111  0.5860
  952TIP3    H1 2820   1.182   2.878   0.942 -0.4478  1.3202  1.2466
  952TIP3    H2 2821   1.060   2.904   1.029 -1.2619 -1.5670  1.0531
  953TIP3   OH2 2822   0.078   6.404   0.389  0.1693 -0.0837 -0.1618
  953TIP3    H1 2823   0.116   6.317   0.396  0.4319 -0.0940 -1.4205
  953TIP3    H2 2824  -0.013   6.393   0.419  0.4285 -0.6093  0.4404
  954TIP3   OH2 2825   0.614   4.849   3.675  0.3829 -0.1619  0.2819
  954TIP3    H1 2826   0.698   4.872   3.636 -0.1827 -0.0660 -0.9041
  954TIP3    H2 2827   0.636   4.785   3.743  1.5321  0.7478  0.8197
  955TIP3   OH2 2828   0.553   0.546   5.632 -0.0894  0.6348 -0.5180
  955TIP3    H1 2829   0.545   0.469   5.577  0.0017 -0.0409  0.3902
  955TIP3    H2 2830   0.607   0.606   5.581 -1.3865  0.7105 -1.8564
  956TIP3   OH2 2831   0.192   5.505   0.976 -0.5328  0.1579 -0.1600
  956TIP3    H1 2832   0.253   5.577   0.992 -1.2310  0.8558 -0.5946
  956TIP3    H2 2833   0.243   5.440   0.928 -0.1031  0.6830 -0.4152
  957TIP3   OH2 2834   6.324   2.324   4.276  0.3295  0.1428  0.0809
  957TIP3    H1 2835   6.373   2.401   4.305  2.2373 -0.4202 -1.4434
  957TIP3    H2 2836   6.363   2.301   4.192 -1.1182 -1.6954 -0.1486
  958TIP3   OH2 2837   5.892   2.448   3.974  0.6116 -0.4765 -0.1642
  958TIP3    H1 2838   5.807   2.485   3.949  0.9747  0.8100  0.3938
  958TIP3    H2 2839   5.887   2.439   4.070  1.3827  0.3995 -0.0274
  959TIP3   OH2 2840   1.444   3.114   3.711  0.4332 -0.6217 -0.8733
  959TIP3    H1 2841   1.489   3.165   3.780 -1.0431  0.5869 -0.7520
  959TIP3    H2 2842   1.465   3.160   3.630 -1.4121  0.6452 -0.6972
  960TIP3   OH2 2843   3.676   2.299   1.733 -0.1110 -0.1473  0.1254
  960TIP3    H1 2844   3.704   2.340   1.651  1.6854 -0.8733  0.3390
  960TIP3    H2 2845   3.609   2.358   1.767  1.1396  1.7074 -0.4451
  961TIP3   OH2 2846   5.175   0.847   5.842  0.2668 -0.4481 -0.5050
  961TIP3    H1 2847   5.215   0.796   5.772  4.6123  0.9056  0.6786
  961TIP3    H2 2848   5.194   0.798   5.922  0.9619  1.0097  0.2630
  962TIP3   OH2 2849   2.658   0.264   1.912  0.1497 -0.4189 -0.2648
  962TIP3    H1 2850   2.722   0.253   1.841  3.8352 -0.7415  2.8247
  962TIP3    H2 2851   2.660   0.358   1.931  0.7166 -0.6274  0.7157
  963TIP3   OH2 2852   0.724   2.934   1.149 -0.0783  0.2661  0.4050
  963TIP3    H1 2853   0.653   2.982   1.192 -0.2730 -0.4778  0.9329
  963TIP3    H2 2854   0.681   2.883   1.081 -0.2652 -1.2470  1.6150
  964TIP3   OH2 2855   0.406   0.617   0.563 -0.1028  0.7653  0.4273
  964TIP3    H1 2856   0.408   0.701   0.609 -0.6957  0.6033  0.7669
  964TIP3    H2 2857   0.398   0.640   0.470 -0.1851  1.0860  0.5137
  965TIP3   OH2 2858   1.103   0.560   1.150  0.5024 -0.3877  0.1843
  965TIP3    H1 2859   1.119   0.632   1.211  2.5956 -1.0070  0.4688
  965TIP3    H2 2860   1.103   0.482   1.206 -2.0863 -0.6449 -0.0660
  966TIP3   OH2 2861   2.939   6.162   0.827 -0.0451 -0.1389 -0.0179
  966TIP3    H1 2862   3.018   6.196   0.786 -0.0663  0.8275  0.7003
  966TIP3    H2 2863   2.876   6.233   0.820 -0.5905 -0.5946  0.1609
  967TIP3   OH2 2864   2.229   6.120   5.798 -0.5058 -0.4360 -0.0202
  967TIP3    H1 2865   2.298   6.058   5.820  1.2237  1.3253 -0.1575
  967TIP3    H2 2866   2.150   6.083   5.838  0.6976 -2.0235  1.0303
  968TIP3   OH2 2867   2.676   0.185   3.828 -0.3374  0.3817  0.0838
  968TIP3    H1 2868   2.596   0.144   3.795  0.3781 -0.4035 -0.7600
  968TIP3    H2 2869   2.707   0.239   3.755  0.4863 -0.2173 -0.0293
  969TIP3   OH2 2870   3.922   4.901   4.809  0.4012  0.0702 -0.1312
  969TIP3    H1 2871   3.842   4.950   4.789  0.5490  0.4009  0.0750
  969TIP3    H2 2872   3.990   4.969   4.816  1.0269 -0.3272 -1.8754
  970TIP3   OH2 2873   1.782   4.816   2.325 -0.3231  0.1957  0.5270
  970TIP3    H1 2874   1.717   4.761   2.281 -0.3144  0.1429  0.5794
  970TIP3    H2 2875   1.733   4.892   2.354  0.0063  1.0910 -1.1237
  971TIP3   OH2 2876   7.016   4.214   0.974 -0.3364 -0.0569  0.2557
  971TIP3    H1 2877   6.963   4.137   0.955  0.5532 -0.5331 -0.3595
  971TIP3    H2 2878   6.976   4.285   0.923 -0.1525 -0.5047 -0.5224
  972TIP3   OH2 2879   1.364   1.304   3.343  0.2711 -0.3364 -0.1658
  972TIP3    H1 2880   1.391   1.323   3.433 -1.0393  1.3226 -0.0840
  972TIP3    H2 2881   1.441   1.327   3.290 -0.4365  3.5053  0.1384
  973TIP3   OH2 2882   1.402   5.744   1.726  0.2322  0.1040 -0.0207
  973TIP3    H1 2883   1.483   5.792   1.709 -0.8812  1.6891 -1.1662
  973TIP3    H2 2884   1.374   5.774   1.812  1.0580 -0.7472  0.5484
  974TIP3   OH2 2885   2.119   6.778   1.736 -0.5807  0.4877 -0.6822
  974TIP3    H1 2886   2.123   6.690   1.698  1.0945  0.7593 -1.1828
  974TIP3    H2 2887   2.026   6.791   1.755 -0.6945 -2.0344  0.9528
  975TIP3   OH2 2888   4.343   1.706   4.916 -0.2448 -0.3231  0.4685
  975TIP3    H1 2889   4.363   1.614   4.902  2.4330  0.3619 -0.7777
  975TIP3    H2 2890   4.295   1.732   4.838  1.3728 -0.0742 -0.4778
  976TIP3   OH2 2891   1.237   0.028   3.612  0.2382  0.0455 -0.2133
  976TIP3    H1 2892   1.313   0.039   3.555  1.1003  1.4254  1.1092
  976TIP3    H2 2893   1.249  -0.058   3.652  1.3942  0.4139  0.3059
  977TIP3   OH2 2894   4.514   3.004   4.779  0.3527  0.3555  0.1762
  977TIP3    H1 2895   4.606   2.979   4.769  0.0530 -1.0907  0.8172
  977TIP3    H2 2896   4.479   2.998   4.690  0.0483 -2.7635  0.3685
  978TIP3   OH2 2897   1.457   2.907   4.132 -0.0568  0.1293  0.8100
  978TIP3    H1 2898   1.547   2.895   4.101  0.0526 -0.7755  1.4364
  978TIP3    H2 2899   1.465   2.915   4.227 -0.4749  1.9776  0.7384
  979TIP3   OH2 2900   1.297   6.108   0.725  0.3943 -0.6977 -0.3396
  979TIP3    H1 2901   1.308   6.141   0.636 -1.7525 -0.8392 -0.7117
  979TIP3    H2 2902   1.312   6.013   0.718 -0.8128 -0.8712 -0.7969
  980TIP3   OH2 2903   0.547   4.391   5.429  0.0062 -0.3055 -0.5145
  980TIP3    H1 2904   0.617   4.439   5.384  0.9400  0.5547  1.7008
  980TIP3    H2 2905   0.563   4.407   5.522 -4.4820  1.9518  0.1394
  981TIP3   OH2 2906   4.826   2.880   2.504 -0.5656 -0.3574 -0.1364
  981TIP3    H1 2907   4.791   2.923   2.582 -2.8439 -1.0606 -0.6878
  981TIP3    H2 2908   4.758   2.890   2.438  0.5459 -1.3349 -1.5062
  982TIP3   OH2 2909   3.334   6.745   5.643  0.2616  0.1359 -0.0497
  982TIP3    H1 2910   3.369   6.671   5.594  2.0268  0.8622  0.0598
  982TIP3    H2 2911   3.336   6.717   5.735 -0.3171 -0.1554 -0.1230
  983TIP3   OH2 2912   2.093   3.975   5.674 -0.2113 -0.4075 -0.2287
  983TIP3    H1 2913   2.043   3.900   5.642 -1.5736 -0.5923  2.0659
  983TIP3    H2 2914   2.133   3.944   5.755  1.7503  0.4727 -0.8159
  984TIP3   OH2 2915   4.588   6.477   2.090  0.5134  0.4540 -0.4875
  984TIP3    H1 2916   4.617   6.386   2.090  2.4068  1.0201  0.0734
  984TIP3    H2 2917   4.502   6.475   2.133  0.3064 -1.1083 -0.9216
  985TIP3   OH2 2918   6.821   3.916   1.853  0.0098 -0.4266 -0.0318
  985TIP3    H1 2919   6.803   3.878   1.767 -1.5732 -2.3155  1.0354
  985TIP3    H2 2920   6.909   3.887   1.874 -0.9133 -3.1745  0.4650
  986TIP3   OH2 2921   2.478   4.420   1.116 -0.4618 -0.6937 -0.3291
  986TIP3    H1 2922   2.430   4.386   1.040 -0.8769 -1.6710  0.3418
  986TIP3    H2 2923   2.409   4.449   1.176 -0.1211  1.9364 -1.0958
  987TIP3   OH2 2924   0.816   6.497   2.879  0.0815  0.3701  0.1282
  987TIP3    H1 2925   0.874   6.535   2.813  2.1050 -1.5337  0.7144
  987TIP3    H2 2926   0.770   6.426   2.833  0.3566  0.0271  0.3802
  988TIP3   OH2 2927   0.203   3.063   5.367  0.0001 -0.1165  0.1371
  988TIP3    H1 2928   0.192   3.131   5.300  0.7612 -0.0809  0.0379
  988TIP3    H2 2929   0.251   2.993   5.322 -1.0683 -0.8702  0.1442
  989TIP3   OH2 2930   1.470   4.660   3.956  0.2325 -0.0811 -0.0161
  989TIP3    H1 2931   1.532   4.728   3.981 -0.2203  0.5708 -0.6472
  989TIP3    H2 2932   1.384   4.697   3.975  0.0167 -1.6399  2.5395
  990TIP3   OH2 2933   2.991   4.286   4.377  0.0231 -0.3618  0.3263
  990TIP3    H1 2934   2.968   4.341   4.302  1.7626 -1.1878 -0.8737
  990TIP3    H2 2935   2.912   4.283   4.430 -0.7328  1.6484 -0.5893
  991TIP3   OH2 2936   6.462   2.446   0.729 -0.3420  0.2070 -0.4112
  991TIP3    H1 2937   6.532   2.457   0.664 -1.1734  0.5787 -1.2572
  991TIP3    H2 2938   6.498   2.483   0.809  0.6806 -0.2038 -0.6555
  992TIP3   OH2 2939   1.187   4.506   4.955 -0.0769  0.0214 -0.1218
  992TIP3    H1 2940   1.260   4.483   4.897 -0.0077  3.7076 -1.7661
  992TIP3    H2 2941   1.223   4.497   5.043  0.4866 -3.6404 -0.5881
  993TIP3   OH2 2942   0.079   5.172   5.770  0.1809 -0.3931  0.4590
  993TIP3    H1 2943   0.166   5.137   5.753  0.6063  0.1266  1.5480
  993TIP3    H2 2944   0.088   5.267   5.760 -0.4892 -0.4021 -0.3840
  994TIP3   OH2 2945   2.829   1.586   3.471  0.2985  0.4332  0.0688
  994TIP3    H1 2946   2.823   1.626   3.385 -1.5040  0.9682  0.3843
  994TIP3    H2 2947   2.867   1.654   3.527 -0.3123  0.7831  0.0680
  995TIP3   OH2 2948   5.169   2.133   3.106  0.0685 -0.0667 -0.8477
  995TIP3    H1 2949   5.188   2.041   3.089 -0.2063 -0.5561  1.2276
  995TIP3    H2 2950   5.250   2.169   3.143  0.1776  0.5472 -1.6514
  996TIP3   OH2 2951   0.732   1.252   5.580 -0.5216 -0.0490 -0.4814
  996TIP3    H1 2952   0.730   1.271   5.674 -0.7610  0.5215 -0.5987
  996TIP3    H2 2953   0.646   1.280   5.549 -0.7741 -1.0554 -0.7164
  997TIP3   OH2 2954   4.462   0.434   5.605 -0.0555  0.1324 -0.0746
  997TIP3    H1 2955   4.397   0.400   5.543 -0.7500  0.4162  0.4843
  997TIP3    H2 2956   4.470   0.365   5.670  0.0054  0.2074 -0.0034
  998TIP3   OH2 2957   1.553   5.800   3.902 -0.0656  0.1620 -0.4306
  998TIP3    H1 2958   1.487   5.797   3.832 -0.4012  0.4306 -0.1304
  998TIP3    H2 2959   1.628   5.752   3.867  0.2262  1.3072 -1.4459
  999TIP3   OH2 2960   3.776   4.718   4.191  0.4494 -0.2465 -0.2824
  999TIP3    H1 2961   3.864   4.747   4.168  1.8296 -1.7233  2.5856
  999TIP3    H2 2962   3.788   4.662   4.268 -3.2041  1.0558  1.4764
 1000TIP3   OH2 2963   2.134   6.475   3.101 -0.1654 -0.3074  0.3714
 1000TIP3    H1 2964   2.220   6.495   3.138 -0.0228 -0.0473 -0.1001
 1000TIP3    H2 2965   2.140   6.384   3.073 -0.3281 -0.5606  1.1352
 1001TIP3   OH2 2966   6.427   5.077   2.669 -0.2180  0.1645  0.4385
 1001TIP3    H1 2967   6.478   5.143   2.623  0.3226 -0.3512  0.2979
 1001TIP3    H2 2968   6.385   5.026   2.600 -0.8876  0.5505  0.5516
 1002TIP3   OH2 2969   6.652   3.769   2.033 -0.0479  0.2052 -0.4921
 1002TIP3    H1 2970   6.716   3.815   1.980 -0.1145 -0.4057 -1.1224
 1002TIP3    H2 2971   6.704   3.708   2.086 -0.2125 -1.7816 -2.5064
 1003TIP3   OH2 2972   0.711   1.237   2.609  0.0478 -0.0287 -0.1413
 1003TIP3    H1 2973   0.715   1.146   2.579  0.3251 -0.3320  0.7784
 1003TIP3    H2 2974   0.799   1.255   2.643 -0.2597  0.2714  0.5259
 1004TIP3   OH2 2975   5.424   5.687   1.247  0.1606 -0.6483  0.2507
 1004TIP3    H1 2976   5.438   5.712   1.156 -0.7075 -0.9807  0.0111
 1004TIP3    H2 2977   5.438   5.768   1.297  1.3305 -0.6226 -0.0880
 1005TIP3   OH2 2978   3.797   2.406   2.021 -0.0040  0.1520 -0.5940
 1005TIP3    H1 2979   3.706   2.414   2.050 -0.3913 -2.6879 -0.7051
 1005TIP3    H2 2980   3.794   2.343   1.948  1.9671  0.5963 -1.1390
 1006TIP3   OH2 2981   1.644   6.327   0.469  0.2913 -0.1877 -0.0297
 1006TIP3    H1 2982   1.643   6.273   0.548  1.6772  1.3169  1.0719
 1006TIP3    H2 2983   1.667   6.415   0.499  0.6547  0.4813 -2.0698
 1007TIP3   OH2 2984   2.222   4.142   0.450 -0.3410  0.1477 -0.0458
 1007TIP3    H1 2985   2.295   4.080   0.454 -1.0989 -1.1043 -2.8449
 1007TIP3    H2 2986   2.189   4.146   0.540  2.9415  0.6004  1.2687
 1008TIP3   OH2 2987   2.858   1.838   4.186  0.3938 -0.8074 -0.1531
 1008TIP3    H1 2988   2.869   1.879   4.272  0.9927 -0.3579 -0.4336
 1008TIP3    H2 2989   2.915   1.889   4.128  1.3750 -2.1868 -0.4673
 1009TIP3   OH2 2990   5.715   2.879   1.235  0.1666  0.3764 -0.6144
 1009TIP3    H1 2991   5.737   2.896   1.326 -1.0364 -1.4470  0.0749
 1009TIP3    H2 2992   5.784   2.820   1.204 -0.3625 -0.4004 -0.3348
 1010TIP3   OH2 2993   3.470   3.685   2.423 -0.0082 -0.3273 -0.0723
 1010TIP3    H1 2994   3.524   3.684   2.502  0.8852  1.3450 -0.5979
 1010TIP3    H2 2995   3.426   3.600   2.422  2.5607 -1.7625  0.4209
 1011TIP3   OH2 2996   3.288   6.247   0.441 -0.7189  0.2924  0.0671
 1011TIP3    H1 2997   3.249   6.191   0.374  2.6157  0.8551 -2.6072
 1011TIP3    H2 2998   3.371   6.204   0.462 -0.1367  1.9414  1.2866
 1012TIP3   OH2 2999   3.907   6.316   0.028 -0.3530 -0.2958  0.4324
 1012TIP3    H1 3000   3.904   6.408   0.052  0.5276  0.0834 -0.8418
 1012TIP3    H2 3001   3.849   6.308  -0.047  1.2187 -0.3304 -0.8114
 1013TIP3   OH2 3002   7.175   3.029   0.986  0.0599  0.3666  0.1547
 1013TIP3    H1 3003   7.125   3.110   0.998 -1.8500 -0.4762 -1.6571
 1013TIP3    H2 3004   7.191   2.997   1.075  1.0627  2.7903  0.9295
 1014TIP3   OH2 3005   4.571   6.355   5.458 -0.1757 -0.1288  0.1988
 1014TIP3    H1 3006   4.636   6.338   5.526  0.2747 -1.5507 -0.5475
 1014TIP3    H2 3007   4.600   6.303   5.384 -1.2267  0.5830 -0.7468
 1015TIP3   OH2 3008   3.274   6.524   2.819  0.0006 -0.0130  0.0791
 1015TIP3    H1 3009   3.360   6.565   2.805 -0.9272  1.8642 -0.4289
 1015TIP3    H2 3010   3.254   6.481   2.736  0.7884 -1.1820  0.4717
 1016TIP3   OH2 3011   5.724   4.213   3.634 -0.1571 -0.1523 -0.2410
 1016TIP3    H1 3012   5.732   4.223   3.539  0.9789 -1.4149 -0.3108
 1016TIP3    H2 3013   5.811   4.184   3.663 -0.5758 -0.1258  1.1421
 1017TIP3   OH2 3014   2.973   3.863   2.677 -0.1922 -0.2067 -0.5115
 1017TIP3    H1 3015   2.884   3.861   2.642  0.0256 -1.6858 -1.0569
 1017TIP3    H2 3016   2.962   3.873   2.772 -1.1350 -3.3621 -0.1740
 1018TIP3   OH2 3017   4.600   6.065   3.718  0.9719  0.1701 -0.1920
 1018TIP3    H1 3018   4.637   5.979   3.736  1.0795 -0.3503 -2.5818
 1018TIP3    H2 3019   4.509   6.059   3.748  0.8747 -0.9126 -0.6602
 1019TIP3   OH2 3020   2.106   5.791   0.223 -0.2901  0.1498 -0.4031
 1019TIP3    H1 3021   2.118   5.838   0.305  1.5156 -1.7092  0.4816
 1019TIP3    H2 3022   2.164   5.834   0.161  0.9274 -0.5197  0.2447
 1020TIP3   OH2 3023   3.872   5.252   1.338  0.0585 -0.1716  0.0627
 1020TIP3    H1 3024   3.890   5.233   1.246 -0.6072  1.4233 -0.4359
 1020TIP3    H2 3025   3.936   5.201   1.387 -0.3412 -1.9827 -1.2217
 1021TIP3   OH2 3026   6.597   2.894   1.841 -0.1536  0.0187 -0.0169
 1021TIP3    H1 3027   6.626   2.805   1.864  1.5831  0.5370 -0.0886
 1021TIP3    H2 3028   6.593   2.940   1.924 -0.9049 -0.0551  0.0004
 1022TIP3   OH2 3029   4.909   0.804   3.331  0.2015 -0.3205  0.6544
 1022TIP3    H1 3030   4.821   0.808   3.292  0.0170  1.4784  1.1879
 1022TIP3    H2 3031   4.963   0.762   3.264 -0.9892 -1.1953  0.2024
 1023TIP3   OH2 3032   1.277   3.630   5.169  0.2187 -0.1542 -0.1194
 1023TIP3    H1 3033   1.371   3.628   5.187  0.2469 -3.9422  0.2256
 1023TIP3    H2 3034   1.237   3.589   5.246 -1.7790  1.5172 -0.1893
 1024TIP3   OH2 3035   5.690   4.606   4.367 -0.5683 -0.2021  0.4836
 1024TIP3    H1 3036   5.782   4.603   4.340 -0.8552 -2.0715 -0.4334
 1024TIP3    H2 3037   5.656   4.686   4.326  0.3121 -0.2118 -0.3102
 1025TIP3   OH2 3038   4.134   5.119   3.046 -0.5588 -0.1424  0.6942
 1025TIP3    H1 3039   4.142   5.098   3.139 -1.6012  0.1844  0.8697
 1025TIP3    H2 3040   4.223   5.143   3.019 -0.9203  4.7065  2.8199
 1026TIP3   OH2 3041   5.404   2.581   5.462 -0.4745  0.6255 -0.1459
 1026TIP3    H1 3042   5.396   2.610   5.372 -3.7767  1.6196  0.3416
 1026TIP3    H2 3043   5.390   2.661   5.514 -0.1639 -0.1988  1.2576
 1027TIP3   OH2 3044   0.286   0.263   5.218 -0.4742 -0.4101  0.4154
 1027TIP3    H1 3045   0.237   0.220   5.149  0.6232  0.1385 -0.7619
 1027TIP3    H2 3046   0.309   0.194   5.279 -0.4708 -1.1304 -0.3873
 1028TIP3   OH2 3047   0.302   6.333   3.664  1.0606 -0.0771  0.5416
 1028TIP3    H1 3048   0.311   6.399   3.733  1.8654  0.3803  0.0289
 1028TIP3    H2 3049   0.216   6.295   3.678  0.0460  1.9202  0.1565
 1029TIP3   OH2 3050   6.972   1.131   3.223  0.1437 -0.4491  0.1403
 1029TIP3    H1 3051   7.048   1.088   3.262  0.9240  0.0096 -0.8400
 1029TIP3    H2 3052   7.009   1.194   3.161 -0.9994  1.0209  0.9101
 1030TIP3   OH2 3053   5.309   4.785   3.622  0.1472  0.1600  0.5267
 1030TIP3    H1 3054   5.366   4.708   3.621  0.8504  0.6436 -1.0995
 1030TIP3    H2 3055   5.233   4.759   3.673 -0.1123 -1.9973 -0.8493
 1031TIP3   OH2 3056   2.651   0.333   2.650 -0.1532 -0.3995  0.2297
 1031TIP3    H1 3057   2.607   0.375   2.576  1.5753  1.0645 -0.0201
 1031TIP3    H2 3058   2.696   0.404   2.695  1.9733 -1.7938  0.4373
 1032TIP3   OH2 3059   2.354   2.807   3.415 -0.0967  0.3765 -0.4241
 1032TIP3    H1 3060   2.278   2.824   3.471 -0.7759  0.2217 -1.2655
 1032TIP3    H2 3061   2.429   2.839   3.465 -0.8331  1.5342 -0.0241
 1033TIP3   OH2 3062   3.547   1.461   0.938  0.0859 -0.0467  0.1058
 1033TIP3    H1 3063   3.519   1.548   0.912 -0.1146  0.0573  0.6351
 1033TIP3    H2 3064   3.578   1.472   1.028  0.4776 -0.4369  0.0185
 1034TIP3   OH2 3065   0.667   6.334   3.950  0.2309  0.1927 -0.5972
 1034TIP3    H1 3066   0.642   6.298   3.866 -0.7545  0.0229 -0.2420
 1034TIP3    H2 3067   0.747   6.288   3.974 -0.7554 -1.4593 -0.3571
 1035TIP3   OH2 3068   1.840   1.714   2.908  0.1537 -0.2976  0.6491
 1035TIP3    H1 3069   1.829   1.641   2.847 -2.0567 -0.1130  0.7449
 1035TIP3    H2 3070   1.839   1.792   2.852 -0.7005 -0.1935  0.7941
 1036TIP3   OH2 3071   0.102   1.980   3.476 -0.1273 -0.2627  0.0783
 1036TIP3    H1 3072   0.119   1.891   3.505 -1.3698 -0.5805 -0.1053
 1036TIP3    H2 3073   0.085   2.029   3.557  0.9732 -0.0804  0.2125
 1037TIP3   OH2 3074   6.088   3.708   3.182  0.5487 -0.4130  0.8894
 1037TIP3    H1 3075   6.160   3.770   3.174  0.2260 -0.0666  0.6447
 1037TIP3    H2 3076   6.045   3.708   3.096  0.6717 -1.1373  0.8142
 1038TIP3   OH2 3077   1.903   4.208   5.192 -0.0855  0.2002  0.0632
 1038TIP3    H1 3078   1.901   4.295   5.152 -1.4252  0.5388  0.8096
 1038TIP3    H2 3079   1.855   4.152   5.131  0.3982  0.0661 -0.2027
 1039TIP3   OH2 3080   0.051   2.587  -0.005 -0.1832  0.5468  0.6124
 1039TIP3    H1 3081   0.104   2.509  -0.021 -0.0518  0.5369  1.0931
 1039TIP3    H2 3082   0.039   2.589   0.090 -0.2356  1.0811  0.5955
 1040TIP3   OH2 3083   1.135   4.587   1.508 -0.3177 -0.2440  0.2542
 1040TIP3    H1 3084   1.115   4.558   1.597  1.4672  1.1114  1.1527
 1040TIP3    H2 3085   1.139   4.506   1.457 -1.0913 -1.0689  1.4289
 1041TIP3   OH2 3086   2.101   2.572   5.230  0.3993  0.0863 -0.4816
 1041TIP3    H1 3087   2.071   2.663   5.225 -2.3612 -0.7258  0.0130
 1041TIP3    H2 3088   2.122   2.559   5.322  0.1103  0.0238 -0.4242
 1042TIP3   OH2 3089   0.002   5.004   2.081 -0.0979  0.4539 -0.0621
 1042TIP3    H1 3090   0.054   4.928   2.055 -1.4693 -0.5063 -0.1456
 1042TIP3    H2 3091   0.022   5.017   2.173  0.6185  0.3821 -0.2056
 1043TIP3   OH2 3092   1.756   1.224   0.158  0.1881  0.9352 -0.0715
 1043TIP3    H1 3093   1.780   1.152   0.100  3.2652  2.0292 -0.3531
 1043TIP3    H2 3094   1.751   1.301   0.101  0.3461  1.5212  0.6790
 1044TIP3   OH2 3095   0.444   2.548   1.016 -0.3713 -0.7863  0.3736
 1044TIP3    H1 3096   0.509   2.590   1.072  1.6042 -0.0789 -2.2447
 1044TIP3    H2 3097   0.384   2.504   1.077  2.5933 -1.5830  2.9777
 1045TIP3   OH2 3098   5.778   1.049   2.789 -0.7941  0.3099 -0.5490
 1045TIP3    H1 3099   5.715   0.994   2.836 -1.6255  1.5009 -0.2128
 1045TIP3    H2 3100   5.756   1.037   2.697 -0.3076 -0.6753 -0.5520
 1046TIP3   OH2 3101   5.376   2.580   3.771  0.4597  0.3448  0.3030
 1046TIP3    H1 3102   5.324   2.526   3.712  1.2237  0.4831 -0.5220
 1046TIP3    H2 3103   5.361   2.543   3.858  0.0976 -0.4884 -0.1093
 1047TIP3   OH2 3104   4.954   5.041   5.856  0.1141  0.5379 -0.3308
 1047TIP3    H1 3105   5.011   4.997   5.793 -0.7065 -1.1210  0.0476
 1047TIP3    H2 3106   4.866   5.029   5.822 -0.4036 -0.8600  1.3622
 1048TIP3   OH2 3107   0.904   2.080   5.838 -0.2409  0.1423 -0.4776
 1048TIP3    H1 3108   0.831   2.021   5.852  1.0760 -1.2523  0.9241
 1048TIP3    H2 3109   0.948   2.045   5.760 -0.5512  0.4423 -0.7891
 1049TIP3   OH2 3110   6.009   5.523   2.880  0.5756  0.5413 -0.1056
 1049TIP3    H1 3111   6.055   5.595   2.837  0.8612  0.7240  0.5022
 1049TIP3    H2 3112   5.993   5.555   2.969 -1.3664  0.7843 -0.4865
 1050TIP3   OH2 3113   0.431   1.207   0.874  0.5031  0.0797  0.0813
 1050TIP3    H1 3114   0.376   1.184   0.799 -1.4537  0.9004  1.1988
 1050TIP3    H2 3115   0.496   1.137   0.878 -2.4255 -2.8794  0.6391
 1051TIP3   OH2 3116   0.062   2.114   1.863 -0.0039  0.2726 -0.3407
 1051TIP3    H1 3117   0.002   2.177   1.822 -0.6269  1.7392  2.5689
 1051TIP3    H2 3118   0.015   2.083   1.940  1.3106 -1.9155 -0.3641
 1052TIP3   OH2 3119   4.952   1.348   4.458  0.0721 -0.4226 -0.0957
 1052TIP3    H1 3120   5.004   1.308   4.527 -0.4784 -1.1401 -0.0809
 1052TIP3    H2 3121   4.869   1.371   4.500 -0.8592 -2.2504 -0.8257
 1053TIP3   OH2 3122   5.557   3.215   2.914 -0.3522 -0.4013  0.5810
 1053TIP3    H1 3123   5.567   3.177   2.826  0.7686 -1.1202  1.0032
 1053TIP3    H2 3124   5.521   3.302   2.898  2.0602  0.4296 -0.7938
 1054TIP3   OH2 3125   0.105   4.052   3.300  0.2666 -0.1403  0.3474
 1054TIP3    H1 3126   0.105   3.974   3.246  0.2282  2.1308 -3.2454
 1054TIP3    H2 3127   0.013   4.067   3.321 -0.1287  0.5618 -1.6750
 1055TIP3   OH2 3128   0.608   5.087   1.845 -0.0115 -0.2363  0.1110
 1055TIP3    H1 3129   0.614   5.128   1.931  0.1008 -2.4169  1.2097
 1055TIP3    H2 3130   0.618   4.993   1.862 -1.4281 -0.8692 -2.1252
 1056TIP3   OH2 3131   2.118   5.090   4.515  0.0182 -0.3360 -0.0929
 1056TIP3    H1 3132   2.052   5.036   4.559 -1.6996  0.7402 -1.2348
 1056TIP3    H2 3133   2.071   5.169   4.490  1.8562  0.6189 -0.6672
 1057TIP3   OH2 3134   1.296   4.992   1.513 -0.1974 -0.1871  0.2430
 1057TIP3    H1 3135   1.340   5.049   1.450  1.0779 -2.4098 -0.9924
 1057TIP3    H2 3136   1.236   5.051   1.560 -0.1204  1.8592 -1.9870
 1058TIP3   OH2 3137   2.227   0.580   4.332  0.1633  0.0163 -0.3942
 1058TIP3    H1 3138   2.288   0.616   4.396 -1.3018  2.7774 -0.4093
 1058TIP3    H2 3139   2.140   0.605   4.365 -0.8853 -2.1375 -1.3470
 1059TIP3   OH2 3140   2.378   0.880   4.286 -0.1700 -0.1530 -0.0019
 1059TIP3    H1 3141   2.458   0.860   4.335  0.3653  0.8167 -0.4582
 1059TIP3    H2 3142   2.406   0.884   4.194 -0.6434  0.6670 -0.1220
 1060TIP3   OH2 3143   3.333   3.977   2.504  0.0443 -0.0372  0.0726
 1060TIP3    H1 3144   3.276   3.910   2.465 -1.0072  0.6556  0.3880
 1060TIP3    H2 3145   3.341   3.951   2.596 -1.3832  0.9199  0.4933
 1061TIP3   OH2 3146   4.373   6.213   4.313 -0.4833  0.3534  0.6154
 1061TIP3    H1 3147   4.405   6.217   4.404 -0.5867 -1.4084  0.7583
 1061TIP3    H2 3148   4.287   6.255   4.316 -0.7202 -0.1649  1.4602
 1062TIP3   OH2 3149   6.352   0.292   0.142  0.0481 -0.2402 -0.1012
 1062TIP3    H1 3150   6.379   0.214   0.093  0.0583  1.3407 -2.8331
 1062TIP3    H2 3151   6.431   0.347   0.143 -0.4302  0.4513  0.2427
 1063TIP3   OH2 3152   0.050   3.971   0.123 -0.3146  0.3074 -0.3274
 1063TIP3    H1 3153   0.061   4.066   0.122 -1.1768  0.4310 -1.8952
 1063TIP3    H2 3154   0.121   3.939   0.177  1.1213  1.7403 -1.2788
 1064TIP3   OH2 3155   3.827   4.219   3.194  0.0074 -0.2881  0.2519
 1064TIP3    H1 3156   3.781   4.291   3.237  0.2235 -0.0737  0.1276
 1064TIP3    H2 3157   3.887   4.262   3.133 -0.7757 -0.6026 -0.7632
 1065TIP3   OH2 3158   0.349   6.214   5.354  0.4579  0.3939 -0.0648
 1065TIP3    H1 3159   0.284   6.260   5.301 -0.5549 -0.0287  0.7765
 1065TIP3    H2 3160   0.307   6.131   5.377  0.6447  0.7859  1.8388
 1066TIP3   OH2 3161   0.325   2.523   1.274  0.5142  0.0642  0.7342
 1066TIP3    H1 3162   0.389   2.588   1.301 -2.0041  2.8002  0.6048
 1066TIP3    H2 3163   0.244   2.549   1.319 -1.6370 -0.4484 -2.5143
 1067TIP3   OH2 3164   5.211   3.634   4.093  0.4598  0.4802  0.3713
 1067TIP3    H1 3165   5.163   3.667   4.016  2.1595  1.9643 -0.1275
 1067TIP3    H2 3166   5.237   3.545   4.068 -0.2528  0.4081 -0.1704
 1068TIP3   OH2 3167   3.773   5.710   1.733  0.2655  0.4031 -0.1896
 1068TIP3    H1 3168   3.827   5.768   1.786  1.0376 -0.8180  0.4160
 1068TIP3    H2 3169   3.683   5.725   1.764  0.7848 -1.1296  2.4228
 1069TIP3   OH2 3170   4.928   2.993   0.713 -0.2661 -0.1313  0.4518
 1069TIP3    H1 3171   4.959   3.082   0.725 -1.9744  0.6479 -0.4390
 1069TIP3    H2 3172   4.836   2.995   0.740 -0.2828 -1.6891  0.6457
 1070TIP3   OH2 3173   5.283   3.103   3.408 -0.5243 -0.1541 -0.1480
 1070TIP3    H1 3174   5.271   3.008   3.415  0.9991 -0.4565 -1.1507
 1070TIP3    H2 3175   5.327   3.116   3.324  2.0590  1.1273  1.2628
 1071TIP3   OH2 3176   4.458   2.665   3.804 -0.0302 -0.1216  0.2547
 1071TIP3    H1 3177   4.446   2.750   3.847  1.2135 -0.2989  1.0131
 1071TIP3    H2 3178   4.398   2.607   3.850 -1.4696  0.4797 -0.7858
 1072TIP3   OH2 3179   3.410   1.616   4.345 -0.3545  0.0846 -0.8541
 1072TIP3    H1 3180   3.349   1.640   4.276  2.2338  0.9766 -3.0156
 1072TIP3    H2 3181   3.481   1.571   4.300  1.1506  0.1027  1.3304
 1073TIP3   OH2 3182   1.544   2.596   0.685 -0.9647 -0.3718  0.1211
 1073TIP3    H1 3183   1.590   2.596   0.769  0.8494  0.1156 -0.7954
 1073TIP3    H2 3184   1.502   2.682   0.681 -0.0885  0.0723  0.0779
 1074TIP3   OH2 3185   0.335   3.675   2.389 -0.0205  0.1219  1.0832
 1074TIP3    H1 3186   0.413   3.708   2.434  0.5422  1.0634 -0.4965
 1074TIP3    H2 3187   0.274   3.748   2.390 -0.7020 -0.4363  1.8384
 1075TIP3   OH2 3188   1.630   2.860   0.437 -0.3239 -0.3485 -0.3618
 1075TIP3    H1 3189   1.602   2.934   0.491 -0.0831 -0.2286 -0.3989
 1075TIP3    H2 3190   1.726   2.862   0.442 -0.3256 -1.1773  0.3553
 1076TIP3   OH2 3191   5.099   1.952   2.141 -0.5259  0.4640 -0.0212
 1076TIP3    H1 3192   5.043   1.897   2.195 -0.9733 -1.3454 -2.1839
 1076TIP3    H2 3193   5.039   2.014   2.100 -0.5031  0.4947 -0.0082
 1077TIP3   OH2 3194   1.789   1.357   3.811  0.2091 -0.3272  0.2373
 1077TIP3    H1 3195   1.698   1.331   3.824  0.1368 -0.4044 -0.3687
 1077TIP3    H2 3196   1.801   1.353   3.716  1.0209 -0.9300  0.3538
 1078TIP3   OH2 3197   2.341   2.616   4.650  0.0428 -0.5594  0.0031
 1078TIP3    H1 3198   2.256   2.658   4.637 -0.4196 -1.0896  1.1603
 1078TIP3    H2 3199   2.405   2.684   4.627 -0.6723 -0.3712 -1.5311
 1079TIP3   OH2 3200   5.079   6.525   4.587 -0.0330  0.5647  0.4909
 1079TIP3    H1 3201   5.101   6.617   4.575  1.0600  0.4171  1.2519
 1079TIP3    H2 3202   4.985   6.526   4.606 -0.2965  1.3924 -0.7393
 1080TIP3   OH2 3203   3.401   0.675   3.504  0.1633 -0.0942  0.0685
 1080TIP3    H1 3204   3.400   0.673   3.409 -0.2748  3.4450 -0.1028
 1080TIP3    H2 3205   3.313   0.703   3.529  0.7711  0.7358  1.4064
 1081TIP3   OH2 3206   0.581   3.712   1.690 -0.1344 -0.6392  0.0843
 1081TIP3    H1 3207   0.598   3.691   1.599 -0.3216  1.3803 -0.4694
 1081TIP3    H2 3208   0.489   3.686   1.704  0.0206 -1.3345 -0.1629
 1082TIP3   OH2 3209   1.484   1.414   0.446  0.1836  0.4769  0.1456
 1082TIP3    H1 3210   1.561   1.437   0.496  0.3633 -1.9284  1.0802
 1082TIP3    H2 3211   1.507   1.333   0.401 -1.6457 -0.0739  0.1152
 1083TIP3   OH2 3212   0.088   2.146   2.576 -0.2276  0.2138  0.3476
 1083TIP3    H1 3213   0.122   2.233   2.599  0.3683  0.0144  0.2157
 1083TIP3    H2 3214   0.017   2.131   2.639  0.5417  0.2292  1.2339
 1084TIP3   OH2 3215   1.941   0.245   2.774 -0.1043  0.4484  0.3472
 1084TIP3    H1 3216   1.966   0.233   2.865 -2.3890 -2.4262  0.7403
 1084TIP3    H2 3217   1.885   0.322   2.774  0.6919  1.0505  1.1445
 1085TIP3   OH2 3218   3.428   5.516   3.122 -0.0170  0.6016 -0.4417
 1085TIP3    H1 3219   3.467   5.593   3.165 -0.6100  0.6677 -0.0106
 1085TIP3    H2 3220   3.503   5.460   3.102  0.2773  0.5701  0.6884
 1086TIP3   OH2 3221   4.287   6.311   3.370 -0.7417  0.3299 -0.1416
 1086TIP3    H1 3222   4.381   6.297   3.379 -0.3401  0.6871 -2.9454
 1086TIP3    H2 3223   4.277   6.366   3.292 -3.2399  0.9552  0.5113
 1087TIP3   OH2 3224   5.290   1.986   4.764  0.2362 -0.7679  0.7187
 1087TIP3    H1 3225   5.272   1.907   4.713 -0.7723  0.3654 -0.7548
 1087TIP3    H2 3226   5.279   1.958   4.855  0.9353 -2.5619  0.3001
 1088TIP3   OH2 3227   4.908   2.422   0.211  0.5917  0.2164 -0.6304
 1088TIP3    H1 3228   4.996   2.430   0.176  0.9016  1.1470  0.3223
 1088TIP3    H2 3229   4.918   2.377   0.295  0.6398  3.1703  1.0954
 1089TIP3   OH2 3230   3.725   3.370   0.545  0.0455  0.2448 -0.6586
 1089TIP3    H1 3231   3.659   3.439   0.550 -0.9975 -0.7745 -0.1459
 1089TIP3    H2 3232   3.676   3.288   0.542  1.2633 -0.7030  1.9453
 1090TIP3   OH2 3233   2.458   0.181   0.388 -0.3860 -0.4235  0.1709
 1090TIP3    H1 3234   2.505   0.180   0.471 -1.0529  1.9518  0.6320
 1090TIP3    H2 3235   2.422   0.092   0.381  2.7499 -1.8502  0.5329
 1091TIP3   OH2 3236   4.897   3.520   1.397 -0.6447 -0.2172 -0.0851
 1091TIP3    H1 3237   4.977   3.502   1.446  0.4838 -1.2846 -2.1946
 1091TIP3    H2 3238   4.827   3.489   1.454  0.5526 -0.9879  1.0462
 1092TIP3   OH2 3239   6.968   3.399   4.409  0.0233 -0.8730  0.0212
 1092TIP3    H1 3240   6.881   3.382   4.446 -0.8348 -2.8245 -2.5447
 1092TIP3    H2 3241   6.958   3.481   4.361 -0.2483 -0.8432  0.1265
 1093TIP3   OH2 3242   0.940   3.251   0.670 -0.2295 -0.1893 -0.2442
 1093TIP3    H1 3243   0.929   3.156   0.668 -1.3987 -0.0897  0.7333
 1093TIP3    H2 3244   0.857   3.285   0.704  0.5407  1.1184  0.4306
 1094TIP3   OH2 3245   2.077   6.272   2.686  0.5225 -0.2296 -0.1309
 1094TIP3    H1 3246   2.136   6.347   2.684  1.8983 -1.2153  0.9427
 1094TIP3    H2 3247   2.025   6.284   2.766  1.1769 -0.7086  0.3769
 1095TIP3   OH2 3248   6.651   3.153   1.300 -0.6403  0.3278 -0.0617
 1095TIP3    H1 3249   6.590   3.222   1.270  1.8683  2.7199 -0.0348
 1095TIP3    H2 3250   6.617   3.128   1.385 -0.3544  3.4176  1.1034
 1096TIP3   OH2 3251   7.155   4.929   0.994 -0.2898  0.4196  0.1949
 1096TIP3    H1 3252   7.099   4.856   0.969  0.8118 -0.3930 -0.0014
 1096TIP3    H2 3253   7.173   4.915   1.087 -0.2567  0.5738  0.2125
 1097TIP3   OH2 3254   7.141   0.676   0.304 -0.2072  0.5411 -0.3452
 1097TIP3    H1 3255   7.100   0.735   0.368 -0.5288 -0.2425  0.1841
 1097TIP3    H2 3256   7.150   0.729   0.225 -0.0687  1.4411  0.2582
 1098TIP3   OH2 3257   5.702   5.773   5.073  0.1689 -0.2849 -0.2362
 1098TIP3    H1 3258   5.783   5.758   5.023  0.8962  0.2448  0.7636
 1098TIP3    H2 3259   5.719   5.852   5.124 -0.6140 -0.7133  0.7242
 1099TIP3   OH2 3260   2.634   4.115   5.002 -0.2653  0.3752 -0.2534
 1099TIP3    H1 3261   2.687   4.040   5.030 -1.6085 -0.7782 -0.7324
 1099TIP3    H2 3262   2.608   4.156   5.084  1.4647  1.0787 -0.0007
 1100TIP3   OH2 3263   0.662   2.021   4.039 -0.2316  0.6250  0.1355
 1100TIP3    H1 3264   0.644   2.049   4.129 -0.4168 -2.1152  1.0465
 1100TIP3    H2 3265   0.582   2.044   3.991  0.2279  2.9869  0.3641
 1101TIP3   OH2 3266   6.165   0.734   5.634 -0.9371  0.0594 -0.1182
 1101TIP3    H1 3267   6.084   0.740   5.583 -2.1061 -1.5121  1.4614
 1101TIP3    H2 3268   6.217   0.668   5.588 -1.8566 -1.1319  0.5098
 1102TIP3   OH2 3269   1.578   5.712   4.170 -0.7579  0.0991  0.2614
 1102TIP3    H1 3270   1.534   5.629   4.150 -0.6574 -0.0659  0.7169
 1102TIP3    H2 3271   1.581   5.758   4.086 -0.0315 -0.7280 -0.1876
 1103TIP3   OH2 3272   4.038   4.831   4.195 -0.2089  0.2227 -0.2036
 1103TIP3    H1 3273   4.032   4.804   4.286  0.8804  0.2022 -0.1273
 1103TIP3    H2 3274   4.111   4.780   4.159 -1.4835 -0.7995 -1.4571
 1104TIP3   OH2 3275   2.844   3.455   1.404  0.2394  0.2145  0.5334
 1104TIP3    H1 3276   2.864   3.547   1.390  0.9799 -0.0087  0.0288
 1104TIP3    H2 3277   2.922   3.420   1.447 -0.3635 -0.0105  1.4832
 1105TIP3   OH2 3278   7.098   2.242   3.978 -0.2496 -0.0694  0.0404
 1105TIP3    H1 3279   7.142   2.168   3.935 -1.0592 -0.9894  0.7638
 1105TIP3    H2 3280   7.136   2.244   4.066 -0.8159 -0.1416  0.2877
 1106TIP3   OH2 3281   0.540   2.370   4.857  0.7194 -0.2207 -0.6658
 1106TIP3    H1 3282   0.469   2.382   4.921  1.3030 -1.3286  0.2238
 1106TIP3    H2 3283   0.500   2.318   4.787  0.4500 -0.1996 -0.5305
 1107TIP3   OH2 3284   5.137   2.817   5.412  0.0472  0.2376 -0.3043
 1107TIP3    H1 3285   5.212   2.872   5.438  1.0127 -0.2491 -1.9463
 1107TIP3    H2 3286   5.172   2.759   5.345 -1.7834 -0.1255 -0.9868
 1108TIP3   OH2 3287   6.527   0.967   2.133  0.6434 -0.0082 -0.4240
 1108TIP3    H1 3288   6.548   1.011   2.215 -0.6587  0.0385 -0.0894
 1108TIP3    H2 3289   6.563   1.024   2.065  0.2331  0.8541  0.0631
 1109TIP3   OH2 3290   3.179   2.469   1.653  0.1556 -0.0612  0.3431
 1109TIP3    H1 3291   3.274   2.459   1.654  0.4926  2.4227  2.1353
 1109TIP3    H2 3292   3.155   2.462   1.561  1.9714 -1.2686 -0.0908
 1110TIP3   OH2 3293   5.927   5.061   1.452 -0.4860  0.2902 -0.4262
 1110TIP3    H1 3294   6.006   5.066   1.398 -1.1757  1.0893 -1.3996
 1110TIP3    H2 3295   5.955   5.086   1.540  0.1925  1.3415 -0.9295
 1111TIP3   OH2 3296   4.720   5.831   0.657  0.2757  0.5365  0.1506
 1111TIP3    H1 3297   4.768   5.911   0.635 -0.1841  0.3062 -1.9201
 1111TIP3    H2 3298   4.636   5.840   0.611 -0.0064 -0.8978  0.3313
 1112TIP3   OH2 3299   5.957   5.817   4.088 -0.1117  0.4224  0.1734
 1112TIP3    H1 3300   5.990   5.748   4.031  0.2226  1.6208 -1.1405
 1112TIP3    H2 3301   5.892   5.863   4.035 -1.3133  0.3196  1.4848
 1113TIP3   OH2 3302   5.990   4.026   0.643 -0.3423 -0.9454 -0.1278
 1113TIP3    H1 3303   5.909   3.979   0.624 -1.0177  0.6037 -1.3099
 1113TIP3    H2 3304   6.006   4.080   0.565  0.8172  0.1740  0.8276
 1114TIP3   OH2 3305   0.649   1.369   1.840  0.1187  0.7729  0.5955
 1114TIP3    H1 3306   0.672   1.330   1.924  1.0960  1.4835  0.6763
 1114TIP3    H2 3307   0.681   1.307   1.775  0.3989  0.7675  0.7370
 1115TIP3   OH2 3308   3.573   4.184   0.987  0.4030  0.6972  0.1177
 1115TIP3    H1 3309   3.544   4.178   0.896 -0.5210  0.1976  0.4265
 1115TIP3    H2 3310   3.500   4.148   1.037  0.1851  2.5031  1.1833
 1116TIP3   OH2 3311   3.236   3.688   0.727 -0.3967 -0.2355 -0.3539
 1116TIP3    H1 3312   3.180   3.717   0.655  0.1831  0.0738 -0.6849
 1116TIP3    H2 3313   3.306   3.752   0.730 -0.3436 -0.3227  0.4058
 1117TIP3   OH2 3314   6.216   1.926   5.238  0.0512 -0.2219 -0.0909
 1117TIP3    H1 3315   6.247   2.014   5.259  0.8457 -0.8575  1.6397
 1117TIP3    H2 3316   6.173   1.896   5.318 -0.2792 -1.3764 -0.6751
 1118TIP3   OH2 3317   2.983   3.051   5.399 -0.1428  0.5657 -0.2044
 1118TIP3    H1 3318   2.982   3.018   5.489 -0.2802  0.2012 -0.3379
 1118TIP3    H2 3319   3.046   2.995   5.354  0.2093  0.9933 -0.2440
 1119TIP3   OH2 3320   6.556   5.940   3.717  0.0391  0.0364 -0.8183
 1119TIP3    H1 3321   6.604   6.018   3.745 -3.9781  2.0608  1.4530
 1119TIP3    H2 3322   6.592   5.869   3.770  0.7194  1.3576  0.5623
 1120TIP3   OH2 3323   6.239   6.307   4.291  0.3713  0.3437  0.0224
 1120TIP3    H1 3324   6.183   6.231   4.306 -1.0252  1.6087  1.5907
 1120TIP3    H2 3325   6.322   6.270   4.260 -0.3952 -1.7704  0.3299
 1121TIP3   OH2 3326   5.114   2.539   2.978 -0.5578  0.3707 -0.0796
 1121TIP3    H1 3327   5.078   2.464   3.026 -1.3461  1.2070  0.6564
 1121TIP3    H2 3328   5.183   2.574   3.035 -0.9516  0.8786  0.0916
 1122TIP3   OH2 3329   0.812   6.628   3.221 -0.4615 -0.2079  0.0721
 1122TIP3    H1 3330   0.749   6.630   3.293  0.1572 -2.2345  0.7334
 1122TIP3    H2 3331   0.779   6.559   3.163 -0.0527  0.2786 -0.7677
 1123TIP3   OH2 3332   5.274   2.181   5.835 -0.1474  0.9962  0.6626
 1123TIP3    H1 3333   5.283   2.234   5.756 -0.5103 -0.3518 -0.3279
 1123TIP3    H2 3334   5.364   2.168   5.865  0.2676 -0.7071 -1.1147
 1124TIP3   OH2 3335   7.008   1.976   0.931  0.1344 -0.1899 -0.0861
 1124TIP3    H1 3336   7.083   1.951   0.985 -0.4422  0.3413  0.9796
 1124TIP3    H2 3337   6.952   1.898   0.930 -0.0476 -0.0684  0.4273
 1125TIP3   OH2 3338   1.422   2.028   3.745 -0.1438 -0.3195  0.2017
 1125TIP3    H1 3339   1.382   1.941   3.742 -0.8327  0.0115 -0.8821
 1125TIP3    H2 3340   1.516   2.010   3.736 -0.1512 -1.0154  1.3098
 1126TIP3   OH2 3341   4.172   2.340   0.966  0.0728 -0.2112  0.2538
 1126TIP3    H1 3342   4.247   2.394   0.989  0.7498 -1.2896  0.6468
 1126TIP3    H2 3343   4.170   2.341   0.870  0.3991  0.0577  0.2480
 1127TIP3   OH2 3344   1.280   2.615   0.348  0.7025  1.1805 -0.5180
 1127TIP3    H1 3345   1.308   2.557   0.419 -1.0237  0.4717 -0.3692
 1127TIP3    H2 3346   1.261   2.698   0.392  0.0921  0.8858 -0.2209
 1128TIP3   OH2 3347   4.472   3.400   5.545  0.5402 -0.0344 -1.2620
 1128TIP3    H1 3348   4.537   3.447   5.597  2.0224 -0.6560 -2.4593
 1128TIP3    H2 3349   4.503   3.309   5.544 -0.9326 -0.5683 -1.0109
 1129TIP3   OH2 3350   2.106   2.371   1.953  0.0088  0.4428  0.0702
 1129TIP3    H1 3351   2.038   2.430   1.922 -0.2557  0.6406  1.0079
 1129TIP3    H2 3352   2.058   2.298   1.993  0.1924  2.3438  4.2508
 1130TIP3   OH2 3353   5.261   0.644   4.744 -0.4732 -0.2530 -0.0722
 1130TIP3    H1 3354   5.211   0.650   4.824  1.5539  0.9784  1.2068
 1130TIP3    H2 3355   5.316   0.723   4.744  2.3184 -2.0280 -0.7074
 1131TIP3   OH2 3356   6.351   1.341   2.803  0.2159 -0.1302 -0.2828
 1131TIP3    H1 3357   6.336   1.247   2.801 -1.7661  0.0857  1.4060
 1131TIP3    H2 3358   6.382   1.359   2.891 -0.3219  0.9045 -0.2853
 1132TIP3   OH2 3359   6.658   3.380   0.407  0.7368 -0.4821 -0.5934
 1132TIP3    H1 3360   6.726   3.397   0.472 -0.0389  1.3207 -0.1977
 1132TIP3    H2 3361   6.596   3.322   0.451 -2.6102  4.6735  2.5263
 1133TIP3   OH2 3362   0.809   1.149   4.446 -0.5500 -0.0060 -0.1049
 1133TIP3    H1 3363   0.868   1.085   4.486  2.2678  0.8108 -2.6036
 1133TIP3    H2 3364   0.820   1.228   4.498  1.0520  0.2872 -0.8231
 1134TIP3   OH2 3365   2.119   0.141   3.236  0.0842  0.3143 -0.6310
 1134TIP3    H1 3366   2.098   0.061   3.188  1.0731  0.5283 -1.4693
 1134TIP3    H2 3367   2.105   0.119   3.328  1.1715 -1.1090 -0.7716
 1135TIP3   OH2 3368   4.528   3.810   2.080  0.1986  0.2022 -0.3599
 1135TIP3    H1 3369   4.486   3.782   1.999 -1.8351  3.6537 -0.6950
 1135TIP3    H2 3370   4.601   3.864   2.052 -1.3612  2.6137 -0.0840
 1136TIP3   OH2 3371   2.796   3.283   5.370 -0.6964 -0.2414 -0.3259
 1136TIP3    H1 3372   2.792   3.188   5.358 -2.3474 -0.0542 -1.7157
 1136TIP3    H2 3373   2.836   3.316   5.290 -0.1758  0.2388  0.1308
 1137TIP3   OH2 3374   1.391   2.084   1.943  0.4065  0.4625 -0.7889
 1137TIP3    H1 3375   1.333   2.055   2.013 -0.5922  0.2126 -1.6901
 1137TIP3    H2 3376   1.466   2.122   1.988  0.0957 -0.2918  0.4135
 1138TIP3   OH2 3377   3.866   2.198   3.607  0.2430 -0.6198  0.1477
 1138TIP3    H1 3378   3.931   2.190   3.537 -0.0842  3.8139 -1.0226
 1138TIP3    H2 3379   3.783   2.176   3.566  0.0550  1.9550 -1.0299
 1139TIP3   OH2 3380   3.717   3.410   4.386 -0.1385 -0.0025 -0.0275
 1139TIP3    H1 3381   3.689   3.393   4.296  3.3590  0.1872 -1.3227
 1139TIP3    H2 3382   3.713   3.506   4.394 -0.0863  0.0082 -0.1246
 1140TIP3   OH2 3383   4.664   1.344   1.490  0.3458 -0.1715 -0.0672
 1140TIP3    H1 3384   4.702   1.270   1.443 -0.4449 -0.8481  0.3227
 1140TIP3    H2 3385   4.570   1.333   1.480  0.2189  1.0429 -0.3700
 1141TIP3   OH2 3386   1.760   5.225   2.642  0.6713 -0.0557 -0.1043
 1141TIP3    H1 3387   1.789   5.302   2.594 -0.6186 -0.0335 -0.8936
 1141TIP3    H2 3388   1.734   5.258   2.728  2.6445 -0.0393  0.5308
 1142TIP3   OH2 3389   1.525   1.587   2.242  0.4303  0.6460 -0.4995
 1142TIP3    H1 3390   1.437   1.579   2.206  0.3226  1.1469 -0.3511
 1142TIP3    H2 3391   1.582   1.546   2.176  0.1052  0.4723 -0.6708
 1143TIP3   OH2 3392   6.812   2.892   2.140  0.3995 -0.5910 -0.1555
 1143TIP3    H1 3393   6.732   2.944   2.144 -0.8703 -2.3701 -1.3424
 1143TIP3    H2 3394   6.873   2.945   2.089 -0.2260  0.4973  0.2047
 1144TIP3   OH2 3395   3.992   5.939   3.278  0.8143 -0.2930 -0.1872
 1144TIP3    H1 3396   4.053   5.993   3.329  0.2615  0.2847 -0.1355
 1144TIP3    H2 3397   3.908   5.984   3.284 -0.1904 -2.2359  1.6255
 1145TIP3   OH2 3398  -0.027   3.168   1.848  0.5119 -0.0911  0.4788
 1145TIP3    H1 3399   0.029   3.228   1.798  0.2903 -1.7588 -1.9591
 1145TIP3    H2 3400   0.025   3.089   1.857 -0.2480 -0.5353  1.1282
 1146TIP3   OH2 3401   1.074   3.470   0.561  1.0221 -0.0798  0.2208
 1146TIP3    H1 3402   1.046   3.382   0.587 -1.8466  0.7780  0.4536
 1146TIP3    H2 3403   1.024   3.528   0.618  0.5232  1.7247 -1.9319
 1147TIP3   OH2 3404   6.794   4.686   3.199  0.1109  0.7583 -0.2185
 1147TIP3    H1 3405   6.786   4.721   3.288  2.4326 -0.8508  0.7166
 1147TIP3    H2 3406   6.710   4.642   3.184 -1.1156  2.7788  0.3059
 1148TIP3   OH2 3407   4.343   6.689   2.766 -0.0579  0.4938 -0.4526
 1148TIP3    H1 3408   4.254   6.691   2.800 -0.7141 -2.8487 -1.5405
 1148TIP3    H2 3409   4.335   6.717   2.675  0.5862  2.9831  0.1788
 1149TIP3   OH2 3410   6.644   5.089   5.796 -0.3725 -0.2617 -0.0954
 1149TIP3    H1 3411   6.571   5.047   5.752 -0.5602  0.2831 -0.3185
 1149TIP3    H2 3412   6.614   5.179   5.813 -0.5669 -0.6256  1.7516
 1150TIP3   OH2 3413   6.902   2.450   1.825  0.3588 -0.1995  0.2209
 1150TIP3    H1 3414   6.810   2.465   1.844  0.4138  1.4164 -0.6025
 1150TIP3    H2 3415   6.949   2.495   1.895  0.5313 -0.6251  0.3836
 1151TIP3   OH2 3416   1.242   0.890   4.749  0.3596 -0.1407  0.0969
 1151TIP3    H1 3417   1.202   0.803   4.752 -0.4811  0.2562  1.0066
 1151TIP3    H2 3418   1.288   0.898   4.832  1.8486 -0.3332 -0.6692
 1152TIP3   OH2 3419   1.344   4.154   3.143  0.3956  0.1425  0.0093
 1152TIP3    H1 3420   1.341   4.107   3.060  3.6407  0.6910 -0.5306
 1152TIP3    H2 3421   1.365   4.244   3.119  1.9475  0.1973  1.4188
 1153TIP3   OH2 3422   4.566   3.321   0.295  0.0935  0.3058 -0.5626
 1153TIP3    H1 3423   4.500   3.380   0.257 -0.4981  0.5456  0.7676
 1153TIP3    H2 3424   4.645   3.337   0.244  0.0325  2.4877 -0.0431
 1154TIP3   OH2 3425   6.861   3.400   5.006 -0.4252 -0.0600  0.4693
 1154TIP3    H1 3426   6.916   3.356   4.941 -0.1044  0.8505  0.1095
 1154TIP3    H2 3427   6.775   3.358   4.998 -0.2975 -0.1807 -0.3213
 1155TIP3   OH2 3428   4.545   4.197   5.640 -0.2224  0.0974 -0.0979
 1155TIP3    H1 3429   4.633   4.170   5.615 -0.3543  0.2652 -0.7617
 1155TIP3    H2 3430   4.534   4.283   5.601 -0.2423  0.6012  1.0034
 1156TIP3   OH2 3431   5.749   4.534   0.804 -0.0537  0.5819 -0.6213
 1156TIP3    H1 3432   5.804   4.607   0.831  0.3963  1.0161 -2.5825
 1156TIP3    H2 3433   5.786   4.505   0.720 -1.0720 -0.9915 -0.5732
 1157TIP3   OH2 3434   1.077   6.296   2.572  0.4104 -0.1624 -0.3515
 1157TIP3    H1 3435   1.030   6.366   2.526 -1.2723 -0.9962 -0.0137
 1157TIP3    H2 3436   1.118   6.245   2.502  2.0457  1.3678 -0.5761
 1158TIP3   OH2 3437   2.155   1.193   4.053  0.1065 -0.3226  0.2826
 1158TIP3    H1 3438   2.162   1.181   4.147 -0.9147 -0.6304  0.3234
 1158TIP3    H2 3439   2.201   1.276   4.036  0.3112 -0.2764  1.0398
 1159TIP3   OH2 3440   1.049   3.373   1.381  0.1413  0.4928 -0.2385
 1159TIP3    H1 3441   0.974   3.358   1.323 -0.0842  2.2759 -0.4584
 1159TIP3    H2 3442   1.015   3.356   1.469  0.2696 -1.4299 -0.5067
 1160TIP3   OH2 3443   6.613   0.881   4.579 -0.2618 -0.5237 -0.4122
 1160TIP3    H1 3444   6.620   0.972   4.609  0.5384 -0.6603 -0.1569
 1160TIP3    H2 3445   6.686   0.870   4.519  0.5129 -1.4091  0.6581
 1161TIP3   OH2 3446   2.185   0.803   2.687 -0.4259  0.1406  0.1244
 1161TIP3    H1 3447   2.274   0.777   2.711 -1.0941 -2.2858  0.3058
 1161TIP3    H2 3448   2.149   0.843   2.766  0.3250  0.6494  0.2168
 1162TIP3   OH2 3449   3.132   0.156   1.840 -0.2521 -0.2309  0.1782
 1162TIP3    H1 3450   3.137   0.200   1.755 -1.0271 -0.9722 -0.2691
 1162TIP3    H2 3451   3.222   0.153   1.871 -0.1378  1.3969  0.0938
 1163TIP3   OH2 3452   3.878   5.057   4.492  0.0168  0.0488 -0.0424
 1163TIP3    H1 3453   3.881   5.042   4.397 -3.3455 -1.7081 -0.0180
 1163TIP3    H2 3454   3.853   5.149   4.501  2.9618  1.0301 -0.6705
 1164TIP3   OH2 3455   3.357   0.232   0.853  0.3000 -0.6033 -0.5128
 1164TIP3    H1 3456   3.288   0.285   0.814  0.9580 -0.6864 -1.8277
 1164TIP3    H2 3457   3.339   0.143   0.823 -0.0586 -0.9380  0.6417
 1165TIP3   OH2 3458   6.140   2.941   0.835  0.1019  0.3704  0.1527
 1165TIP3    H1 3459   6.068   3.000   0.856  0.0042  0.3190 -0.0353
 1165TIP3    H2 3460   6.218   2.983   0.872  0.6417  2.4351 -2.9640
 1166TIP3   OH2 3461   2.529   2.957   3.853 -0.5196  0.0442  0.0521
 1166TIP3    H1 3462   2.518   2.868   3.886 -0.4748 -0.5297 -1.4048
 1166TIP3    H2 3463   2.623   2.975   3.863  0.2323 -1.5137 -2.9369
 1167TIP3   OH2 3464   0.352   5.563   5.769 -0.1153  0.4741 -0.1151
 1167TIP3    H1 3465   0.441   5.533   5.785 -0.1680  0.1206 -0.4806
 1167TIP3    H2 3466   0.362   5.654   5.739  0.0088  1.0841  1.6126
 1168TIP3   OH2 3467   0.447   5.496   0.808  0.4560 -0.2177 -0.2040
 1168TIP3    H1 3468   0.382   5.446   0.758  1.1444 -1.0150 -0.3270
 1168TIP3    H2 3469   0.520   5.436   0.818  1.3759  0.8243 -0.4869
 1169TIP3   OH2 3470   3.762   3.709   3.069  0.3162 -0.2952 -0.0496
 1169TIP3    H1 3471   3.782   3.781   3.129  1.6484 -1.4139  0.9374
 1169TIP3    H2 3472   3.817   3.636   3.100 -1.5399 -1.9867 -0.5102
 1170TIP3   OH2 3473   4.592   0.955   3.886 -0.1578 -0.5975  0.2126
 1170TIP3    H1 3474   4.552   1.035   3.922  1.4883  0.1957  0.3751
 1170TIP3    H2 3475   4.522   0.913   3.837 -0.7929  1.5457 -0.8386
 1171TIP3   OH2 3476   2.516   2.121   2.753  0.0743 -0.7349  0.4680
 1171TIP3    H1 3477   2.450   2.190   2.742  0.8806  0.0611  0.5733
 1171TIP3    H2 3478   2.571   2.150   2.825  1.1582 -0.8993 -0.2634
 1172TIP3   OH2 3479   4.759   4.346   2.774 -0.6708  0.4848 -0.3290
 1172TIP3    H1 3480   4.694   4.331   2.843 -0.7056 -0.2117 -0.4987
 1172TIP3    H2 3481   4.749   4.438   2.750  0.4319  1.1890  1.7066
 1173TIP3   OH2 3482   6.864   0.745   4.337 -0.1830  0.0697 -0.6094
 1173TIP3    H1 3483   6.775   0.737   4.303 -0.6426  0.1303  0.5180
 1173TIP3    H2 3484   6.907   0.664   4.310 -1.7893 -1.8601  2.1244
 1174TIP3   OH2 3485   4.926   1.324   1.963 -0.2323  1.0499  0.2205
 1174TIP3    H1 3486   4.938   1.272   1.883  1.3294 -0.6859  1.5040
 1174TIP3    H2 3487   4.858   1.387   1.940 -1.6214 -0.9945 -1.7074
 1175TIP3   OH2 3488   3.868   4.991   1.698  0.1984  0.1052 -0.3829
 1175TIP3    H1 3489   3.802   4.989   1.629  2.8324 -0.8756 -3.1190
 1175TIP3    H2 3490   3.877   4.900   1.725  1.1779  0.0299 -0.8962
 1176TIP3   OH2 3491   1.636   5.836   2.011 -0.1564 -0.1676  0.4169
 1176TIP3    H1 3492   1.562   5.775   1.999  0.1711 -0.4793 -0.0455
 1176TIP3    H2 3493   1.648   5.840   2.106  0.0128 -1.0716  0.4442
 1177TIP3   OH2 3494   0.787   2.960   0.040 -0.1373 -0.2289  0.6315
 1177TIP3    H1 3495   0.821   2.893  -0.019 -1.0530  0.1880 -0.3984
 1177TIP3    H2 3496   0.834   3.040   0.014 -1.0054  0.0932  0.0106
 1178TIP3   OH2 3497   4.203   4.883   2.827 -0.3948  0.1220 -0.2823
 1178TIP3    H1 3498   4.230   4.824   2.898 -0.4982  0.5289  0.1047
 1178TIP3    H2 3499   4.187   4.967   2.871 -2.4992 -0.1453 -0.4469
 1179TIP3   OH2 3500   6.311   1.539   0.236 -0.0747 -0.3051  0.8215
 1179TIP3    H1 3501   6.232   1.590   0.217  0.1632 -0.5352 -0.9455
 1179TIP3    H2 3502   6.279   1.459   0.277 -0.5133  0.8162  2.8285
 1180TIP3   OH2 3503   5.909   1.400   5.414  0.0249 -0.0601 -0.6035
 1180TIP3    H1 3504   5.915   1.426   5.506  1.7621 -0.9992 -0.4113
 1180TIP3    H2 3505   5.837   1.337   5.412 -2.2970  2.3932 -0.5566
 1181TIP3   OH2 3506   6.157   5.412   2.163  0.2660 -0.3881 -0.1558
 1181TIP3    H1 3507   6.243   5.374   2.145  0.4431 -0.8652  1.5488
 1181TIP3    H2 3508   6.099   5.337   2.176  0.1031 -0.0946  0.9105
 1182TIP3   OH2 3509   0.263   1.941   1.723  0.0739  0.7397  0.0243
 1182TIP3    H1 3510   0.211   2.012   1.761  0.5753  1.5720 -0.7998
 1182TIP3    H2 3511   0.305   1.981   1.646  0.7905 -0.3058 -0.1409
 1183TIP3   OH2 3512   1.427   6.285   0.274  0.1970 -0.2143 -0.0856
 1183TIP3    H1 3513   1.482   6.311   0.348  0.9465 -0.8385 -0.4091
 1183TIP3    H2 3514   1.338   6.284   0.309  0.2349  1.7930  0.1924
 1184TIP3   OH2 3515   3.377   2.000   4.759  0.5774 -0.3174 -0.4874
 1184TIP3    H1 3516   3.312   1.982   4.691  0.9427 -0.1325 -0.8859
 1184TIP3    H2 3517   3.441   2.058   4.718  0.6605  0.0192  0.0938
 1185TIP3   OH2 3518   0.415   2.587   5.138  0.3402 -0.7698 -0.5079
 1185TIP3    H1 3519   0.357   2.641   5.085  0.5245  0.6367  0.6602
 1185TIP3    H2 3520   0.501   2.628   5.130  0.5774 -1.1407  0.0742
 1186TIP3   OH2 3521   4.192   0.743   0.832 -0.4197 -0.2059 -0.0548
 1186TIP3    H1 3522   4.256   0.682   0.795  1.2726  2.2272 -1.3493
 1186TIP3    H2 3523   4.140   0.770   0.756 -0.7753  0.3964  0.4046
 1187TIP3   OH2 3524   5.566   5.840   0.451 -0.4160  0.0306  0.0923
 1187TIP3    H1 3525   5.556   5.934   0.438 -0.0493 -0.1238 -1.5231
 1187TIP3    H2 3526   5.643   5.831   0.507  0.5570  0.6754 -1.0753
 1188TIP3   OH2 3527   2.291   1.868   5.790  0.4687 -0.5368  0.5847
 1188TIP3    H1 3528   2.299   1.868   5.695 -1.3958 -0.6958  0.3828
 1188TIP3    H2 3529   2.269   1.959   5.812  2.4900 -0.1137  1.0762
 1189TIP3   OH2 3530   6.715   3.428   1.076 -0.4936 -0.1268  0.1001
 1189TIP3    H1 3531   6.662   3.501   1.044 -0.9513 -0.9489 -1.0719
 1189TIP3    H2 3532   6.654   3.370   1.120 -0.4777 -0.7096 -0.6109
 1190TIP3   OH2 3533   4.610   0.856   1.735 -0.4350  0.1114 -0.0416
 1190TIP3    H1 3534   4.619   0.951   1.723  2.1908 -0.0827 -0.2196
 1190TIP3    H2 3535   4.662   0.837   1.812 -1.2121 -1.1760  0.1966
 1191TIP3   OH2 3536   2.439   6.549   0.891  0.2830  0.1745  0.3618
 1191TIP3    H1 3537   2.519   6.514   0.851  0.6469  1.4606 -0.0973
 1191TIP3    H2 3538   2.389   6.585   0.818 -1.0132 -1.1470  0.5763
 1192TIP3   OH2 3539   5.148   0.889   0.967 -0.5097 -0.5038  0.6166
 1192TIP3    H1 3540   5.075   0.951   0.969 -1.1129 -1.2093  2.5707
 1192TIP3    H2 3541   5.139   0.839   1.048 -0.7776 -4.0418 -1.4024
 1193TIP3   OH2 3542   1.140   0.115   0.672  0.1800 -0.1331 -0.5898
 1193TIP3    H1 3543   1.193   0.061   0.730  0.6932  2.1775  1.2547
 1193TIP3    H2 3544   1.194   0.127   0.594  1.4766  0.3727  0.3433
 1194TIP3   OH2 3545   4.001   5.795   1.977 -0.2005  0.0100  0.2639
 1194TIP3    H1 3546   4.066   5.865   1.976 -0.0264 -0.1440 -0.8710
 1194TIP3    H2 3547   4.030   5.734   1.909  0.1895 -1.6834  1.8557
 1195TIP3   OH2 3548   4.425   6.745   2.508  0.0374 -0.1819 -0.1890
 1195TIP3    H1 3549   4.489   6.769   2.440 -1.5254 -0.5232 -1.8451
 1195TIP3    H2 3550   4.341   6.773   2.472 -0.9564 -1.2916  1.1918
 1196TIP3   OH2 3551   2.754   3.871   2.512  0.0882  0.0889  0.3428
 1196TIP3    H1 3552   2.693   3.798   2.523  0.1211 -0.0744 -0.4901
 1196TIP3    H2 3553   2.713   3.927   2.446  1.2152 -0.4848 -0.9217
 1197TIP3   OH2 3554   1.733   4.414   1.692 -0.3231  0.5494 -0.5435
 1197TIP3    H1 3555   1.803   4.442   1.633  0.7729  0.2728  0.5620
 1197TIP3    H2 3556   1.750   4.463   1.773  0.3928 -1.6346  0.7321
 1198TIP3   OH2 3557   3.810   3.825   5.809  0.4053 -0.2215  0.0216
 1198TIP3    H1 3558   3.798   3.839   5.903 -1.4235 -0.8903 -0.0775
 1198TIP3    H2 3559   3.868   3.749   5.804 -1.0239 -1.3967  0.6504
 1199TIP3   OH2 3560   1.116   1.494   4.696  0.3909 -0.1360 -0.1738
 1199TIP3    H1 3561   1.182   1.428   4.719 -0.4776 -0.7411  0.6467
 1199TIP3    H2 3562   1.058   1.498   4.772 -2.0661 -1.5265 -1.8484
 1200TIP3   OH2 3563   4.452   0.298   3.723 -0.1487  0.0426 -0.6279
 1200TIP3    H1 3564   4.544   0.285   3.702  0.7683  2.7651  1.2071
 1200TIP3    H2 3565   4.412   0.211   3.710  2.2467 -0.8400 -3.1234
 1201TIP3   OH2 3566   4.094   3.155   0.864 -0.3344  0.0390  0.0702
 1201TIP3    H1 3567   4.046   3.117   0.937  0.0652  1.0028  0.8616
 1201TIP3    H2 3568   4.045   3.234   0.841 -0.1436  0.0460 -0.3150
 1202TIP3   OH2 3569   6.856   2.958   0.332  0.4443 -0.1456 -0.2431
 1202TIP3    H1 3570   6.800   2.883   0.352 -0.2501  0.8768  1.9873
 1202TIP3    H2 3571   6.934   2.919   0.292 -0.8354 -1.8058 -1.2906
 1203TIP3   OH2 3572   4.457   5.088   0.371 -0.1113 -0.0754 -0.2943
 1203TIP3    H1 3573   4.487   5.066   0.283  0.4580  1.3081 -0.4836
 1203TIP3    H2 3574   4.524   5.148   0.404 -0.6240 -0.1145  0.8479
 1204TIP3   OH2 3575   5.479   5.453   3.251 -0.5709 -0.0237  0.3492
 1204TIP3    H1 3576   5.561   5.501   3.240 -0.2501 -0.3008  1.3629
 1204TIP3    H2 3577   5.482   5.423   3.342 -2.7365  1.6812  1.0649
 1205TIP3   OH2 3578   1.444   6.150   3.862 -0.5235 -0.2587 -0.6497
 1205TIP3    H1 3579   1.417   6.090   3.931  0.4539 -0.4782 -0.4496
 1205TIP3    H2 3580   1.363   6.169   3.815 -0.9009 -1.5377 -0.5702
 1206TIP3   OH2 3581   2.561   0.186   4.316  1.0029  0.3392  0.0711
 1206TIP3    H1 3582   2.553   0.091   4.322  2.3478  0.1792 -0.2926
 1206TIP3    H2 3583   2.557   0.217   4.407  0.5792 -0.0545  0.1899
 1207TIP3   OH2 3584   2.738   4.296   1.085  0.2279  0.1247 -0.3887
 1207TIP3    H1 3585   2.774   4.384   1.075 -0.8660  0.5670 -0.6532
 1207TIP3    H2 3586   2.644   4.310   1.096  0.0831 -0.9942 -0.0375
 1208TIP3   OH2 3587   6.121   1.847   4.313 -0.1096 -0.5309  0.1089
 1208TIP3    H1 3588   6.175   1.898   4.253 -0.8167 -1.4174 -1.3337
 1208TIP3    H2 3589   6.154   1.757   4.305 -1.8985 -1.1427 -1.0064
 1209TIP3   OH2 3590   1.901   0.190   1.129  0.2225  0.2287  0.7383
 1209TIP3    H1 3591   1.871   0.162   1.043  0.9986 -0.7946  0.7835
 1209TIP3    H2 3592   1.996   0.184   1.125  0.2381 -0.9580  2.0016
 1210TIP3   OH2 3593   1.493   5.125   5.571 -0.3084 -0.6262  0.6591
 1210TIP3    H1 3594   1.494   5.210   5.527  0.0625 -1.1989 -0.4686
 1210TIP3    H2 3595   1.461   5.145   5.660 -0.5500  0.6297  0.3168
 1211TIP3   OH2 3596   3.631   2.313   4.786 -0.4664 -0.2931  0.4060
 1211TIP3    H1 3597   3.592   2.283   4.704  0.2583  0.2589 -0.1518
 1211TIP3    H2 3598   3.654   2.232   4.831 -1.1498 -0.6066  0.2076
 1212TIP3   OH2 3599   2.657   6.479   4.715  0.9332 -0.2787 -0.0743
 1212TIP3    H1 3600   2.659   6.545   4.646 -2.0186  0.0848  0.0563
 1212TIP3    H2 3601   2.704   6.519   4.788  1.3786  0.6090 -0.8220
 1213TIP3   OH2 3602   1.830   3.388   4.812 -0.1660  0.0405 -0.2046
 1213TIP3    H1 3603   1.749   3.407   4.765 -1.2848  0.5871  1.8212
 1213TIP3    H2 3604   1.860   3.305   4.777 -2.9107 -1.4051  0.5959
 1214TIP3   OH2 3605   4.025   6.566   3.339 -0.2451 -0.2367  0.2401
 1214TIP3    H1 3606   4.093   6.616   3.294  1.6190 -1.1588  1.8756
 1214TIP3    H2 3607   3.986   6.629   3.400  1.4988 -0.4756  1.6785
 1215TIP3   OH2 3608   4.760   6.648   5.606  0.5422  0.1426  0.0647
 1215TIP3    H1 3609   4.691   6.675   5.667 -0.2787 -0.0389 -0.7565
 1215TIP3    H2 3610   4.804   6.729   5.582 -1.1908  0.6724 -1.5286
 1216TIP3   OH2 3611   6.806   5.689   4.966  0.3984  1.2101  0.1181
 1216TIP3    H1 3612   6.833   5.641   5.044 -2.2112  0.1860  0.4939
 1216TIP3    H2 3613   6.862   5.653   4.896 -1.5685 -2.8686  0.3018
 1217TIP3   OH2 3614   4.108   4.730   4.914  0.0214  0.5396 -0.2914
 1217TIP3    H1 3615   4.052   4.678   4.972  0.7283 -0.7649 -0.7389
 1217TIP3    H2 3616   4.047   4.779   4.859 -0.6677 -0.3002 -0.2837
 1218TIP3   OH2 3617   6.262   2.704   0.908 -0.3765 -0.3890  0.0561
 1218TIP3    H1 3618   6.198   2.773   0.890  1.4276  1.6764  1.0036
 1218TIP3    H2 3619   6.320   2.705   0.831  0.0217 -0.3772  0.3504
 1219TIP3   OH2 3620   3.572   3.286   1.398  0.1131 -0.1303  0.2385
 1219TIP3    H1 3621   3.642   3.285   1.463 -0.3265  1.9294  0.8123
 1219TIP3    H2 3622   3.493   3.263   1.447  0.2941 -2.2199 -0.3600
 1220TIP3   OH2 3623   4.674   0.688   2.210  0.2345  0.1907  0.3532
 1220TIP3    H1 3624   4.617   0.761   2.185 -0.3223 -0.0307  0.9463
 1220TIP3    H2 3625   4.733   0.726   2.276  0.9098  0.4665 -0.3919
 1221TIP3   OH2 3626   1.344   6.119   2.869  0.6261 -0.2245  0.7875
 1221TIP3    H1 3627   1.326   6.210   2.846 -0.6565 -0.9264 -1.3422
 1221TIP3    H2 3628   1.439   6.115   2.879  0.8365  1.0993 -0.3502
 1222TIP3   OH2 3629   1.683   4.864   3.511  0.1733  1.4019 -0.1420
 1222TIP3    H1 3630   1.589   4.874   3.526 -0.2555 -1.9449  0.2177
 1222TIP3    H2 3631   1.722   4.878   3.597 -0.5717 -1.6010  0.8011
 1223TIP3   OH2 3632   3.353   5.194   0.766  0.1166 -0.5067  0.6987
 1223TIP3    H1 3633   3.425   5.214   0.707  0.3616 -2.2676  0.3598
 1223TIP3    H2 3634   3.393   5.147   0.839 -0.5241 -0.4719  1.0891
 1224TIP3   OH2 3635   5.397   1.194   4.982 -0.1231  0.1625  0.2957
 1224TIP3    H1 3636   5.450   1.115   4.977  0.8381  0.7425  0.8460
 1224TIP3    H2 3637   5.454   1.263   4.946 -0.5210  0.7910  0.8493
 1225TIP3   OH2 3638   5.129   0.179   4.112 -0.1784  0.1926 -0.3651
 1225TIP3    H1 3639   5.094   0.207   4.197  1.5158 -0.7720  0.7004
 1225TIP3    H2 3640   5.178   0.100   4.131  2.8927  1.6284 -1.6588
 1226TIP3   OH2 3641   6.748   5.462   5.465 -0.4600  0.3629  0.2349
 1226TIP3    H1 3642   6.760   5.386   5.408  1.5994  2.1128 -1.8254
 1226TIP3    H2 3643   6.758   5.426   5.554 -2.9700 -2.2913 -0.4132
 1227TIP3   OH2 3644   1.027   2.170   3.583  0.6952 -0.1268 -0.6763
 1227TIP3    H1 3645   1.081   2.092   3.567 -0.2207 -0.8661 -0.2457
 1227TIP3    H2 3646   0.943   2.135   3.612 -0.0050  1.0173 -1.2799
 1228TIP3   OH2 3647   2.540   3.674   0.532 -0.2656  0.2459  0.3139
 1228TIP3    H1 3648   2.613   3.650   0.475  0.9860  0.4287  1.7607
 1228TIP3    H2 3649   2.543   3.610   0.603 -1.9756 -0.1626  0.0721
 1229TIP3   OH2 3650   5.576   2.294   3.012  0.0856  0.2948  0.3928
 1229TIP3    H1 3651   5.529   2.233   2.955  0.4247  0.4183 -0.0262
 1229TIP3    H2 3652   5.668   2.268   3.003 -0.0504 -1.4166  2.9411
 1230TIP3   OH2 3653   5.024   4.879   2.797  0.0272 -0.4098 -0.0450
 1230TIP3    H1 3654   5.099   4.939   2.796  0.2758 -0.6658 -2.4376
 1230TIP3    H2 3655   5.062   4.793   2.815 -0.1655 -0.1123  2.0414
 1231TIP3   OH2 3656   3.153   6.288   1.158  0.2573 -0.8370  0.2051
 1231TIP3    H1 3657   3.109   6.360   1.113 -0.9236 -1.2365  0.6793
 1231TIP3    H2 3658   3.224   6.329   1.207  0.0923 -0.1072 -0.1620
 1232TIP3   OH2 3659   2.951   3.928   5.322  0.4467 -0.5492 -0.7993
 1232TIP3    H1 3660   2.965   3.833   5.326 -0.0085 -0.5952  0.3092
 1232TIP3    H2 3661   3.004   3.958   5.249  0.3491 -1.7092 -1.3659
 1233TIP3   OH2 3662   1.864   0.621   0.447  0.1430 -0.0719 -0.1376
 1233TIP3    H1 3663   1.898   0.542   0.407  1.1279 -0.9076  2.2150
 1233TIP3    H2 3664   1.785   0.593   0.494 -0.1469  0.5807 -0.2161
 1234TIP3   OH2 3665   4.092   4.776   1.399 -0.2255  0.0533 -0.3206
 1234TIP3    H1 3666   4.134   4.832   1.335 -0.4031  1.4010  0.6953
 1234TIP3    H2 3667   4.164   4.737   1.448 -0.0692  1.7696  0.9206
 1235TIP3   OH2 3668   5.720   2.502   2.308 -0.1908 -0.0864 -0.5394
 1235TIP3    H1 3669   5.706   2.492   2.214 -0.3139  1.3409 -0.6910
 1235TIP3    H2 3670   5.669   2.579   2.333 -1.4445 -1.3533  1.0210
 1236TIP3   OH2 3671   5.567   4.046   0.463 -0.1539  0.0784  0.1737
 1236TIP3    H1 3672   5.591   4.072   0.374 -0.2896 -0.5334 -0.0487
 1236TIP3    H2 3673   5.478   4.078   0.475 -0.3786 -0.4066 -0.1570
 1237TIP3   OH2 3674   4.007   3.309   4.164  0.4151 -0.0170  0.2780
 1237TIP3    H1 3675   4.004   3.394   4.121 -0.7731 -0.8281 -1.3614
 1237TIP3    H2 3676   4.093   3.273   4.142 -0.2522 -0.5056 -1.6676
 1238TIP3   OH2 3677   0.216   0.924   0.906  0.0494 -0.3940  0.2165
 1238TIP3    H1 3678   0.188   1.008   0.942  0.0733 -0.0762 -0.5098
 1238TIP3    H2 3679   0.135   0.872   0.900 -0.1086 -0.1023 -0.1982
 1239TIP3   OH2 3680   5.647   1.536   1.982 -0.5252 -0.2178 -0.2189
 1239TIP3    H1 3681   5.713   1.474   2.012 -0.5676  0.3823  1.1909
 1239TIP3    H2 3682   5.687   1.622   1.996 -1.7080  0.1668  0.9804
 1240TIP3   OH2 3683   1.397   6.379   4.083 -0.4637 -0.7657 -0.1627
 1240TIP3    H1 3684   1.433   6.383   4.172 -1.2043 -1.0742  0.1581
 1240TIP3    H2 3685   1.456   6.319   4.037 -0.8806 -1.7303  0.5213
 1241TIP3   OH2 3686   6.330   1.843   2.417  0.0637  0.5740  0.3366
 1241TIP3    H1 3687   6.420   1.821   2.438  0.2198  0.2226 -0.6387
 1241TIP3    H2 3688   6.279   1.809   2.490  0.4479 -1.7315 -0.3708
 1242TIP3   OH2 3689   7.117   4.653   2.203  0.1280  0.0276 -0.2630
 1242TIP3    H1 3690   7.097   4.735   2.248 -1.9682 -0.3603 -0.3883
 1242TIP3    H2 3691   7.154   4.597   2.272 -2.3787 -0.3143  0.9069
 1243TIP3   OH2 3692   6.322   4.902   5.806 -0.4626 -0.1458 -0.5435
 1243TIP3    H1 3693   6.327   4.925   5.899  1.3794 -2.0160 -0.0715
 1243TIP3    H2 3694   6.280   4.816   5.805  0.6443 -0.7058 -1.2871
 1244TIP3   OH2 3695   1.231   4.026   5.786  0.8214 -0.0047 -0.0032
 1244TIP3    H1 3696   1.286   3.956   5.821  0.0961 -0.7176 -0.2639
 1244TIP3    H2 3697   1.292   4.098   5.768  2.0605 -1.5601 -2.5021
 1245TIP3   OH2 3698   6.017   6.492   3.083  0.1117  0.6708 -0.0508
 1245TIP3    H1 3699   6.081   6.470   3.015  0.7040  0.0664  0.6852
 1245TIP3    H2 3700   6.053   6.570   3.126  0.3546  0.3442  0.3483
 1246TIP3   OH2 3701   3.205   4.088   4.695  0.2705  0.1827  0.7714
 1246TIP3    H1 3702   3.125   4.043   4.722  0.6441 -0.0275  1.5744
 1246TIP3    H2 3703   3.276   4.033   4.728  0.7396  1.0939  1.3343
 1247TIP3   OH2 3704   4.848   3.964   2.734  0.0502  0.2003  0.5377
 1247TIP3    H1 3705   4.775   4.008   2.689 -0.9493 -1.0396  0.8633
 1247TIP3    H2 3706   4.835   3.986   2.826  0.2038  0.1445  0.5712
 1248TIP3   OH2 3707   4.863   1.909   2.303  0.2670  0.2150  0.0715
 1248TIP3    H1 3708   4.782   1.910   2.252 -0.2155  1.1130  0.8231
 1248TIP3    H2 3709   4.886   2.001   2.314  2.0368 -0.0297 -1.0898
 1249TIP3   OH2 3710   6.212   4.245   5.629  0.4964  0.2811 -0.1063
 1249TIP3    H1 3711   6.184   4.162   5.592 -2.0357  1.4944 -1.1544
 1249TIP3    H2 3712   6.292   4.224   5.677  0.5364 -2.5172 -1.2082
 1250TIP3   OH2 3713   7.149   0.784   1.905 -0.2033 -0.0953  0.0441
 1250TIP3    H1 3714   7.242   0.770   1.887 -0.4742  0.0083 -1.5726
 1250TIP3    H2 3715   7.127   0.863   1.856 -1.4564 -0.9218 -0.7811
 1251TIP3   OH2 3716   1.361   0.419   4.685 -0.2471  0.1823 -0.3481
 1251TIP3    H1 3717   1.409   0.470   4.749  0.5644 -0.4528 -0.4294
 1251TIP3    H2 3718   1.389   0.329   4.700 -0.9653 -0.1267 -0.7985
 1252TIP3   OH2 3719   2.058   0.110   4.769  0.1741 -0.0145  0.3224
 1252TIP3    H1 3720   2.061   0.199   4.804 -0.7045  0.7391 -1.3855
 1252TIP3    H2 3721   2.117   0.060   4.825 -1.4221  0.9793  3.1109
 1253TIP3   OH2 3722   6.538   4.049   2.166 -0.0122  0.2757  0.1385
 1253TIP3    H1 3723   6.629   4.056   2.137 -0.3077 -0.1484 -0.9582
 1253TIP3    H2 3724   6.529   3.959   2.196 -0.3771 -0.0814 -0.9660
 1254TIP3   OH2 3725   6.114   0.580   3.696 -0.2195  0.0954 -0.2566
 1254TIP3    H1 3726   6.040   0.639   3.709  0.2803  0.7855 -0.5218
 1254TIP3    H2 3727   6.129   0.540   3.782 -1.6361 -0.9511 -0.4403
 1255TIP3   OH2 3728   3.885   3.375   2.528 -0.0492  0.1462  0.2641
 1255TIP3    H1 3729   3.833   3.359   2.607 -1.3182 -0.0980 -0.5962
 1255TIP3    H2 3730   3.821   3.391   2.460  1.0618  1.6518 -0.4710
 1256TIP3   OH2 3731   2.068   3.086   1.477 -0.1668 -0.6297  0.3353
 1256TIP3    H1 3732   2.055   3.022   1.406 -2.0562  0.0919 -0.0096
 1256TIP3    H2 3733   2.045   3.038   1.557  0.2916 -0.9351  0.2887
 1257TIP3   OH2 3734   5.310   1.696   0.183  0.2266  0.0516 -0.3764
 1257TIP3    H1 3735   5.284   1.616   0.139  1.9470 -0.7829  0.0111
 1257TIP3    H2 3736   5.238   1.757   0.168 -0.0153 -0.7461 -2.8211
 1258TIP3   OH2 3737   5.405   2.855   5.497 -0.0677  0.4495  0.0486
 1258TIP3    H1 3738   5.468   2.876   5.566 -1.0262  0.5199  0.9168
 1258TIP3    H2 3739   5.426   2.918   5.427  3.0644 -1.7057 -1.1769
 1259TIP3   OH2 3740   5.818   4.637   2.055  0.6196  0.0470  0.0603
 1259TIP3    H1 3741   5.883   4.669   2.117 -0.0531  0.5007  0.5393
 1259TIP3    H2 3742   5.734   4.648   2.100  0.2621 -1.1992 -0.2596
 1260TIP3   OH2 3743   4.068   1.627   1.169  0.7434 -0.2513  0.5568
 1260TIP3    H1 3744   3.992   1.650   1.114  0.5210 -0.4395  0.7842
 1260TIP3    H2 3745   4.044   1.656   1.257  1.3169  0.5296  0.4627
 1261TIP3   OH2 3746   4.423   5.366   5.706  0.1793  0.5890 -0.0949
 1261TIP3    H1 3747   4.334   5.382   5.738 -0.0810 -1.5244  0.3366
 1261TIP3    H2 3748   4.422   5.400   5.616 -0.7894  1.3472  0.1789
 1262TIP3   OH2 3749   4.531   4.527   2.017  0.0884  0.0698 -0.2387
 1262TIP3    H1 3750   4.453   4.574   2.048  1.2966  1.6730  0.4848
 1262TIP3    H2 3751   4.563   4.578   1.943  0.1410 -0.9299 -0.9369
 1263TIP3   OH2 3752   0.325   0.199   0.177 -0.0756  0.3315 -0.6158
 1263TIP3    H1 3753   0.358   0.281   0.139  1.7888 -0.5514 -1.0134
 1263TIP3    H2 3754   0.394   0.172   0.238  0.6904 -2.3272 -2.4736
 1264TIP3   OH2 3755   4.895   3.331   0.692 -0.0556 -0.4906  0.1008
 1264TIP3    H1 3756   4.835   3.278   0.639  2.0144 -1.8666 -0.9636
 1264TIP3    H2 3757   4.886   3.420   0.656 -1.0646 -0.7629 -0.3495
 1265TIP3   OH2 3758   3.402   1.954   5.794  0.0357 -0.4855  0.7041
 1265TIP3    H1 3759   3.394   1.937   5.888  1.7089  1.0449  1.1848
 1265TIP3    H2 3760   3.484   2.003   5.786 -0.5597  0.2552 -1.4472
 1266TIP3   OH2 3761   0.558   1.009   4.520 -0.1615 -0.4423 -0.3973
 1266TIP3    H1 3762   0.614   1.080   4.550 -1.5243  1.5650 -2.2887
 1266TIP3    H2 3763   0.485   1.008   4.583 -0.6283  0.5490 -0.8986
 1267TIP3   OH2 3764   0.652   2.329   2.067 -0.1392 -0.2741  0.4106
 1267TIP3    H1 3765   0.677   2.404   2.121 -2.3299  1.1417 -0.3833
 1267TIP3    H2 3766   0.704   2.256   2.101  0.2752  1.0540  2.8491
 1268TIP3   OH2 3767   1.551   4.382   3.403 -0.3987  0.2710  0.4949
 1268TIP3    H1 3768   1.600   4.458   3.370 -1.8253  1.2477  0.5153
 1268TIP3    H2 3769   1.466   4.388   3.359 -0.6664 -1.1342  0.7682
 1269TIP3   OH2 3770   3.829   1.254   2.920 -0.1385 -0.4127  0.0414
 1269TIP3    H1 3771   3.794   1.311   2.851 -0.2314  0.3849  0.7325
 1269TIP3    H2 3772   3.786   1.284   3.000 -0.5325 -1.7550  0.3663
 1270TIP3   OH2 3773   0.280   3.403   0.672 -0.4404  0.3440 -0.2345
 1270TIP3    H1 3774   0.285   3.463   0.746  0.7113  1.4430 -1.1465
 1270TIP3    H2 3775   0.350   3.432   0.613 -0.6989 -1.0935 -1.3145
 1271TIP3   OH2 3776   2.830   5.667   4.118  0.2300 -0.8989 -0.1875
 1271TIP3    H1 3777   2.859   5.586   4.160 -0.6192 -1.7744 -1.2232
 1271TIP3    H2 3778   2.777   5.637   4.044 -0.0270  0.6140 -0.6351
 1272TIP3   OH2 3779   6.318   1.321   5.666  0.3549  0.1427  0.2002
 1272TIP3    H1 3780   6.398   1.275   5.690  0.2000 -0.5676 -0.6226
 1272TIP3    H2 3781   6.249   1.255   5.673 -0.0617  0.5781  0.2388
 1273TIP3   OH2 3782   6.932   6.609   3.651  0.1006  0.3854 -0.1508
 1273TIP3    H1 3783   6.925   6.664   3.729 -1.6570 -0.8171  0.6121
 1273TIP3    H2 3784   6.845   6.570   3.641  0.4098  0.1197 -2.4489
 1274TIP3   OH2 3785   0.375   6.774   5.368 -0.2729  0.2278  0.0446
 1274TIP3    H1 3786   0.307   6.722   5.327 -1.8326 -0.0247  2.7631
 1274TIP3    H2 3787   0.411   6.827   5.296 -1.6745 -1.3462 -1.9113
 1275TIP3   OH2 3788   4.957   1.221   1.207 -0.0795 -0.2429 -0.2173
 1275TIP3    H1 3789   5.034   1.165   1.216  0.6297  0.8827  1.1737
 1275TIP3    H2 3790   4.894   1.185   1.270 -0.9152 -1.4040 -1.6275
 1276TIP3   OH2 3791   2.429   1.299   4.490  0.0751  0.0700 -0.2878
 1276TIP3    H1 3792   2.399   1.381   4.528  2.5360  0.8544  0.1599
 1276TIP3    H2 3793   2.512   1.321   4.447  0.8571 -2.1654 -0.0839
 1277TIP3   OH2 3794   0.993   2.075   2.483  0.0299 -0.0740 -0.9039
 1277TIP3    H1 3795   1.007   2.159   2.439 -1.1898 -0.3558 -1.8601
 1277TIP3    H2 3796   0.907   2.082   2.523 -0.4069 -1.1283 -1.6186
 1278TIP3   OH2 3797   3.076   2.348   0.332  0.7661  0.6619 -0.4451
 1278TIP3    H1 3798   3.092   2.347   0.426 -0.6787 -2.2779 -0.1230
 1278TIP3    H2 3799   2.989   2.387   0.322  0.8871  0.9043 -0.5830
 1279TIP3   OH2 3800   4.263   4.315   5.109  0.5345 -0.2687 -0.1450
 1279TIP3    H1 3801   4.263   4.384   5.043  0.7132  0.0820  0.2134
 1279TIP3    H2 3802   4.194   4.342   5.171 -1.1500 -1.6841 -1.2880
 1280TIP3   OH2 3803   5.329   6.043   0.475  0.1879 -0.0373 -0.1101
 1280TIP3    H1 3804   5.299   6.134   0.464 -1.7025 -0.6820 -0.7857
 1280TIP3    H2 3805   5.390   6.030   0.403  0.2242  0.6102 -0.2072
 1281TIP3   OH2 3806   3.354   4.026   5.920 -0.2828 -0.0517  0.3542
 1281TIP3    H1 3807   3.410   4.076   5.861  1.2144 -1.2153  0.7009
 1281TIP3    H2 3808   3.273   4.012   5.872  0.8088 -0.7816 -1.3608
 1282TIP3   OH2 3809   3.007   2.272   2.293  0.1338 -0.0797  0.2943
 1282TIP3    H1 3810   2.985   2.198   2.350 -4.6550  0.7314 -0.0522
 1282TIP3    H2 3811   3.032   2.342   2.353  0.7705 -0.8436  0.9342
 1283TIP3   OH2 3812   6.062   4.348   5.845  0.0608  0.3432  0.0074
 1283TIP3    H1 3813   5.980   4.358   5.799 -0.4278 -1.2749  0.4462
 1283TIP3    H2 3814   6.124   4.318   5.779  0.5773  2.3918 -0.5129
 1284TIP3   OH2 3815   2.884   5.021   0.344 -0.1174  0.4704  0.1419
 1284TIP3    H1 3816   2.846   5.090   0.399 -0.3016 -0.7340  1.5873
 1284TIP3    H2 3817   2.861   4.940   0.389 -0.3699 -0.5840 -1.7952
 1285TIP3   OH2 3818   5.229   4.034   1.433 -0.2203  0.0828  0.1552
 1285TIP3    H1 3819   5.139   4.058   1.455 -0.7288 -0.8534 -0.8041
 1285TIP3    H2 3820   5.271   4.117   1.408 -0.9923  0.4362  0.0211
 1286TIP3   OH2 3821   1.915   4.578   2.151  0.0983  0.5649  0.9861
 1286TIP3    H1 3822   1.937   4.561   2.243  0.4269  0.3000  0.8589
 1286TIP3    H2 3823   1.857   4.505   2.127  0.8456  0.0621  0.6824
 1287TIP3   OH2 3824   5.888   4.947   5.843  0.2588  0.1115 -0.5172
 1287TIP3    H1 3825   5.957   4.969   5.906  0.9715 -0.3078 -1.1305
 1287TIP3    H2 3826   5.869   4.855   5.859 -1.0750  0.5255  0.4878
 1288TIP3   OH2 3827   6.874   6.269   4.111 -0.5667 -0.1662  0.3219
 1288TIP3    H1 3828   6.958   6.311   4.129 -0.7694  0.1454  0.5460
 1288TIP3    H2 3829   6.864   6.204   4.181 -0.9797  0.4912  0.8811
 1289TIP3   OH2 3830   3.680   2.049   2.631 -0.0868 -1.1222  0.3583
 1289TIP3    H1 3831   3.750   2.020   2.574 -0.5438  1.5471 -1.7480
 1289TIP3    H2 3832   3.724   2.090   2.706  0.7061  0.4466 -0.8966
 1290TIP3   OH2 3833   3.417   0.300   1.754 -0.0870  0.1580  0.0173
 1290TIP3    H1 3834   3.375   0.376   1.795  1.5476  0.6681  0.8217
 1290TIP3    H2 3835   3.431   0.239   1.826  2.8629  1.0815  0.3305
 1291TIP3   OH2 3836   1.536   4.409   3.863 -0.5758  0.4537  0.0322
 1291TIP3    H1 3837   1.622   4.422   3.822 -0.1162 -0.6297  0.6121
 1291TIP3    H2 3838   1.527   4.482   3.923  0.1935  0.2906  0.3578
 1292TIP3   OH2 3839   4.024   6.410   0.299 -0.1172  0.0776 -0.2404
 1292TIP3    H1 3840   3.979   6.447   0.374  1.5532  1.2348  0.2425
 1292TIP3    H2 3841   3.960   6.351   0.260 -0.9310 -0.8634  2.2916
 1293TIP3   OH2 3842   5.550   1.885   5.594 -0.3352  0.4045 -0.5629
 1293TIP3    H1 3843   5.539   1.979   5.610 -1.2695  0.4806 -1.4908
 1293TIP3    H2 3844   5.465   1.857   5.559  0.3089 -0.5330 -1.4355
 1294TIP3   OH2 3845   5.967   6.708   1.532  1.0219 -0.6401  0.0718
 1294TIP3    H1 3846   5.881   6.668   1.541  0.8241 -0.5484 -1.1803
 1294TIP3    H2 3847   5.969   6.777   1.598 -1.0778  1.3660 -1.7711
 1295TIP3   OH2 3848   0.778   6.118   0.971 -0.0702  0.4733 -0.4962
 1295TIP3    H1 3849   0.857   6.167   0.948 -0.1078  0.0256 -1.6331
 1295TIP3    H2 3850   0.710   6.184   0.978 -0.0626  0.6296 -1.7473
 1296TIP3   OH2 3851   2.402   4.544   0.402  0.0829  0.0213  0.0739
 1296TIP3    H1 3852   2.375   4.571   0.489 -1.1621  0.1655 -0.3329
 1296TIP3    H2 3853   2.427   4.626   0.358 -1.0381  0.2053 -0.2671
 1297TIP3   OH2 3854   1.176   5.409   0.416  0.2767  0.2386  0.2311
 1297TIP3    H1 3855   1.212   5.495   0.397  0.3940  0.6204  1.9814
 1297TIP3    H2 3856   1.083   5.417   0.394 -0.1106  1.4398  2.0532
 1298TIP3   OH2 3857   4.154   6.320   1.374  0.0483  0.1801  0.4286
 1298TIP3    H1 3858   4.241   6.305   1.336 -0.8409  0.8745 -2.0724
 1298TIP3    H2 3859   4.142   6.415   1.368 -1.6118 -0.0727 -1.1528
 1299TIP3   OH2 3860   6.860   6.019   5.271  0.5323  0.2540 -0.2165
 1299TIP3    H1 3861   6.859   6.029   5.176  1.1131  1.3284 -0.1263
 1299TIP3    H2 3862   6.950   6.038   5.296  0.0217  1.6376  0.6933
 1300TIP3   OH2 3863   4.402   1.211   0.066  0.0138  0.2017 -0.3591
 1300TIP3    H1 3864   4.425   1.211   0.159 -1.4724 -1.4768  0.0602
 1300TIP3    H2 3865   4.340   1.283   0.056  0.5316  0.6810 -0.1706
 1301TIP3   OH2 3866  -0.007   2.783   2.608  0.2431  0.4034 -0.2758
 1301TIP3    H1 3867   0.077   2.737   2.613  0.0451  0.0372 -0.2768
 1301TIP3    H2 3868  -0.044   2.772   2.696 -0.2793 -0.3554 -0.5775
 1302TIP3   OH2 3869   0.377   6.587   3.760 -0.2812  0.1482  0.3388
 1302TIP3    H1 3870   0.293   6.613   3.722 -1.3441 -1.2271  1.6104
 1302TIP3    H2 3871   0.403   6.661   3.815  0.5527  1.5457 -1.8117
 1303TIP3   OH2 3872   1.943   3.740   5.102 -0.5090  0.3892 -0.2899
 1303TIP3    H1 3873   1.952   3.784   5.187 -1.0756  0.6631 -0.3694
 1303TIP3    H2 3874   1.933   3.812   5.039 -0.6461  0.1691 -0.5207
 1304TIP3   OH2 3875   4.509   6.546   3.324  0.4281  0.4217 -0.3088
 1304TIP3    H1 3876   4.572   6.513   3.388  0.8907  1.2442 -0.3245
 1304TIP3    H2 3877   4.503   6.476   3.259 -1.6075 -1.3510  1.6204
 1305TIP3   OH2 3878   3.428   3.187   5.403  0.8552  0.0787 -0.1320
 1305TIP3    H1 3879   3.495   3.250   5.377  1.2950  0.4649  1.7484
 1305TIP3    H2 3880   3.413   3.133   5.325  1.2896  1.7711 -1.4392
 1306TIP3   OH2 3881   0.029   3.735   4.839 -0.1161  0.0479 -0.0412
 1306TIP3    H1 3882   0.119   3.726   4.870 -0.5970  0.7721  1.6513
 1306TIP3    H2 3883  -0.016   3.656   4.871 -0.5464  0.6637  0.9320
 1307TIP3   OH2 3884   6.254   4.033   4.707 -0.4221 -0.4729  0.2231
 1307TIP3    H1 3885   6.343   4.045   4.673 -0.4661 -0.6648  0.0382
 1307TIP3    H2 3886   6.266   3.988   4.791 -0.2573  0.8265  0.9234
 1308TIP3   OH2 3887   2.042   3.504   3.646 -0.2962 -0.2186 -0.4836
 1308TIP3    H1 3888   2.007   3.489   3.558 -0.6936 -2.6513  0.0263
 1308TIP3    H2 3889   2.136   3.516   3.633  0.3128 -4.3041 -1.0497
 1309TIP3   OH2 3890   4.641   6.655   2.645 -0.4638  0.0961 -0.0439
 1309TIP3    H1 3891   4.627   6.586   2.710  0.5173 -0.9317 -0.8892
 1309TIP3    H2 3892   4.553   6.688   2.626 -1.1128 -1.8310 -0.5882
 1310TIP3   OH2 3893   0.120   1.480   0.674 -0.0762 -0.8657 -0.0173
 1310TIP3    H1 3894   0.184   1.494   0.604  1.5297  0.3858  1.6114
 1310TIP3    H2 3895   0.037   1.512   0.637  0.6924 -0.3853 -1.3960
 1311TIP3   OH2 3896   1.266   0.153   4.373  0.0461  0.3116  0.3635
 1311TIP3    H1 3897   1.262   0.098   4.295  0.9505  0.7616 -0.0083
 1311TIP3    H2 3898   1.309   0.233   4.343 -1.1746  1.2004  0.9083
 1312TIP3   OH2 3899   2.579   4.214   0.531  0.0191  0.1478 -0.4125
 1312TIP3    H1 3900   2.531   4.295   0.516  0.2005  0.0314 -1.8260
 1312TIP3    H2 3901   2.614   4.191   0.444 -0.1153 -1.4953 -0.0653
 1313TIP3   OH2 3902   3.302   1.633   1.280 -0.1043  0.1001 -0.1875
 1313TIP3    H1 3903   3.285   1.592   1.195  1.3879 -2.5760  0.6841
 1313TIP3    H2 3904   3.230   1.602   1.336  0.2415 -0.1426  0.1248
 1314TIP3   OH2 3905   0.541   6.617   2.858 -0.1548  0.2903 -0.0988
 1314TIP3    H1 3906   0.581   6.675   2.793 -0.8798 -0.5758 -1.3809
 1314TIP3    H2 3907   0.600   6.543   2.864  0.3095  0.7207  0.8525
 1315TIP3   OH2 3908   1.809   1.536   3.093 -0.0554  0.3713  0.0618
 1315TIP3    H1 3909   1.870   1.470   3.059  0.8406  0.2082  1.8503
 1315TIP3    H2 3910   1.821   1.612   3.036  2.3776  0.5916  0.7579
 1316TIP3   OH2 3911   0.128   3.608   5.538 -0.0213  0.3384 -0.3715
 1316TIP3    H1 3912   0.070   3.531   5.540 -1.9238  1.7109 -0.4323
 1316TIP3    H2 3913   0.111   3.653   5.620  2.4271 -0.1855  0.5007
 1317TIP3   OH2 3914   1.589   3.842   4.321  0.0777 -0.0248 -0.2880
 1317TIP3    H1 3915   1.608   3.766   4.266 -4.7434  0.2236 -2.8526
 1317TIP3    H2 3916   1.552   3.805   4.401 -1.6726 -0.5046 -1.2693
 1318TIP3   OH2 3917   0.972   2.134   2.998 -0.1854  0.1813  0.2235
 1318TIP3    H1 3918   1.051   2.187   2.990  0.6734 -0.8592  1.4623
 1318TIP3    H2 3919   0.995   2.064   3.059 -1.8202 -0.6194 -0.0016
 1319TIP3   OH2 3920   5.188   4.420   0.954 -0.1740 -0.0562 -1.1504
 1319TIP3    H1 3921   5.262   4.383   0.906  0.4551  1.8343 -1.7269
 1319TIP3    H2 3922   5.133   4.461   0.887 -0.3252  0.8877 -0.4782
 1320TIP3   OH2 3923   1.353   0.605   0.975 -0.0904 -0.3019  0.0446
 1320TIP3    H1 3924   1.421   0.652   1.025 -0.1992 -1.5429  1.4411
 1320TIP3    H2 3925   1.275   0.613   1.029 -1.1843  1.3175 -1.6705
 1321TIP3   OH2 3926   1.353   5.504   5.898 -0.3021  0.1144 -0.9010
 1321TIP3    H1 3927   1.377   5.516   5.806  1.6107  2.5780 -0.1810
 1321TIP3    H2 3928   1.431   5.469   5.940 -0.6363  0.4781  0.0632
 1322TIP3   OH2 3929   4.737   4.799   0.154 -0.3663 -0.2067 -0.2482
 1322TIP3    H1 3930   4.694   4.767   0.074 -0.8518  1.2485 -0.6007
 1322TIP3    H2 3931   4.762   4.889   0.134  1.9907 -0.6617  0.3200
 1323TIP3   OH2 3932   1.569   1.066   3.521 -0.1055 -0.1055  0.6491
 1323TIP3    H1 3933   1.573   0.990   3.579 -0.5107  0.6384  1.6990
 1323TIP3    H2 3934   1.481   1.063   3.483  0.1968 -0.6514 -0.0141
 1324TIP3   OH2 3935   0.318   4.800   2.081 -0.4488  0.0979  0.0437
 1324TIP3    H1 3936   0.263   4.808   2.159 -0.1868 -0.2575  0.2708
 1324TIP3    H2 3937   0.259   4.816   2.008 -0.6390  0.7145  0.3246
 1325TIP3   OH2 3938   6.985   0.651   5.826  0.1498  0.3891  0.3491
 1325TIP3    H1 3939   6.962   0.742   5.844  0.3156  0.2194  1.4898
 1325TIP3    H2 3940   7.058   0.633   5.886  1.9389  0.3071 -1.7345
 1326TIP3   OH2 3941   5.896   1.536   2.977 -0.2869  0.2754 -0.0834
 1326TIP3    H1 3942   5.934   1.616   2.941  0.2223 -0.4580 -1.2542
 1326TIP3    H2 3943   5.805   1.538   2.949  0.1051 -0.2922 -1.5028
 1327TIP3   OH2 3944   0.497   4.951   5.798  0.2402  0.0434 -0.2523
 1327TIP3    H1 3945   0.478   5.045   5.788  1.9410  0.4527  0.0622
 1327TIP3    H2 3946   0.414   4.908   5.775 -1.0449  1.6522  1.0243
 1328TIP3   OH2 3947   0.351   4.583   1.805 -0.4298  0.0004 -0.1457
 1328TIP3    H1 3948   0.305   4.535   1.736 -1.0048  2.3240 -1.4730
 1328TIP3    H2 3949   0.295   4.574   1.882 -0.0116 -2.2395 -0.0343
 1329TIP3   OH2 3950   2.473   6.668   2.571  0.1570 -0.2016  0.2438
 1329TIP3    H1 3951   2.471   6.702   2.481 -0.4400 -0.9432 -0.0403
 1329TIP3    H2 3952   2.529   6.729   2.619  2.3593 -1.0175 -1.1352
 1330TIP3   OH2 3953   1.516   5.112   1.977  0.5446 -0.0690  0.7705
 1330TIP3    H1 3954   1.495   5.197   1.938  1.3513 -0.2165 -0.0230
 1330TIP3    H2 3955   1.486   5.048   1.912  1.0261 -0.3503  0.8260
 1331TIP3   OH2 3956   0.272   4.179   4.457  0.2399  0.0518  0.1127
 1331TIP3    H1 3957   0.289   4.119   4.530  1.4279 -0.0575 -0.2340
 1331TIP3    H2 3958   0.340   4.159   4.393 -1.1009 -0.2151 -1.2732
 1332TIP3   OH2 3959   1.493   3.201   4.036 -0.3673  0.2179  0.0545
 1332TIP3    H1 3960   1.483   3.279   3.982 -0.0569 -0.2179 -0.6416
 1332TIP3    H2 3961   1.582   3.169   4.017  0.9683  1.7216  3.0551
 1333TIP3   OH2 3962   1.082   5.429   5.817 -0.1325 -0.2509  0.1988
 1333TIP3    H1 3963   1.081   5.334   5.804  0.7669 -0.4598  1.4961
 1333TIP3    H2 3964   1.170   5.448   5.848 -0.1592  1.0883 -0.4721
 1334TIP3   OH2 3965   2.896   4.358   0.514 -0.9790  0.1637 -0.1661
 1334TIP3    H1 3966   2.959   4.397   0.454 -0.9199 -0.0769 -0.2651
 1334TIP3    H2 3967   2.831   4.316   0.458  0.2902 -2.0283 -0.1332
 1335TIP3   OH2 3968   4.349   3.741   2.547 -0.0238  0.2857  0.1137
 1335TIP3    H1 3969   4.260   3.774   2.559 -0.3879 -0.1848 -1.0848
 1335TIP3    H2 3970   4.374   3.773   2.460  1.3216  1.1350  0.7829
 1336TIP3   OH2 3971   3.330   0.763   1.969 -0.0739 -0.2399  0.1202
 1336TIP3    H1 3972   3.295   0.835   1.918 -0.9644 -0.7008  0.0572
 1336TIP3    H2 3973   3.425   0.775   1.967 -0.2493  2.2600  2.0516
 1337TIP3   OH2 3974   2.713   3.845   4.159  0.0601  0.4887 -0.5211
 1337TIP3    H1 3975   2.617   3.841   4.155  0.0186 -0.5554  0.7885
 1337TIP3    H2 3976   2.741   3.824   4.070 -0.9250  0.8690 -0.9420
 1338TIP3   OH2 3977   3.275   6.047   0.249  0.2792  0.5692  0.1800
 1338TIP3    H1 3978   3.220   6.064   0.173  0.3667  0.5063  0.1024
 1338TIP3    H2 3979   3.262   5.954   0.267 -0.2706  0.7295  0.6604
 1339TIP3   OH2 3980   1.670   2.776   1.909 -0.3614 -0.2581 -0.1453
 1339TIP3    H1 3981   1.669   2.835   1.833 -0.4758  0.9096  0.7304
 1339TIP3    H2 3982   1.745   2.718   1.894 -0.5053 -0.1811 -1.2379
 1340TIP3   OH2 3983   6.718   4.701   1.148  0.2979 -0.1750 -0.0067
 1340TIP3    H1 3984   6.657   4.627   1.136 -1.8558  1.1228  1.9259
 1340TIP3    H2 3985   6.696   4.762   1.078 -1.8705  0.9448  1.4998
 1341TIP3   OH2 3986   1.495   0.723   1.509 -0.2750  0.0173 -0.0393
 1341TIP3    H1 3987   1.548   0.799   1.485  0.2310 -0.6727 -1.1912
 1341TIP3    H2 3988   1.406   0.747   1.482 -0.1431  0.2525 -0.2784
 1342TIP3   OH2 3989   6.380   6.407   1.600  0.1608 -0.2397 -0.0280
 1342TIP3    H1 3990   6.452   6.372   1.547 -0.3796 -3.3039  1.0843
 1342TIP3    H2 3991   6.326   6.455   1.537  2.7747  1.7434 -0.9909
 1343TIP3   OH2 3992   6.446   5.208   0.601 -0.4137  0.2387 -1.1246
 1343TIP3    H1 3993   6.414   5.131   0.554  1.0532 -0.8797 -0.3470
 1343TIP3    H2 3994   6.517   5.242   0.547  0.3003 -0.1754 -0.4526
 1344TIP3   OH2 3995   5.977   1.093   2.505 -0.0281 -0.1570 -0.3947
 1344TIP3    H1 3996   6.015   1.152   2.570 -1.0286 -0.0923  0.1364
 1344TIP3    H2 3997   5.893   1.066   2.542 -1.6051  1.4707 -2.4852
 1345TIP3   OH2 3998   4.846   6.187   3.230  0.3799 -0.1555  0.1643
 1345TIP3    H1 3999   4.788   6.131   3.178  1.4122 -1.0283 -0.0793
 1345TIP3    H2 4000   4.902   6.125   3.277  1.7602  0.6799 -0.3413
 1346TIP3   OH2 4001   0.375   3.021   3.923  0.3019 -0.1984  0.1291
 1346TIP3    H1 4002   0.391   3.086   3.854 -0.4606 -0.3397 -0.1943
 1346TIP3    H2 4003   0.280   3.024   3.936  0.4361 -0.2002  1.1538
 1347TIP3   OH2 4004   0.595   0.086   0.665  0.6938  0.2187 -0.1727
 1347TIP3    H1 4005   0.604   0.059   0.756  0.7340  1.1439  0.1113
 1347TIP3    H2 4006   0.685   0.087   0.631  0.8162  1.0196  0.1367
 1348TIP3   OH2 4007   1.688   5.324   0.342 -0.2754  0.8358 -0.5404
 1348TIP3    H1 4008   1.730   5.306   0.258  1.2029  1.2189  0.0794
 1348TIP3    H2 4009   1.608   5.270   0.342  0.1412  0.1938 -1.8295
 1349TIP3   OH2 4010   1.002   6.050   5.647 -0.1596 -0.2789 -0.3710
 1349TIP3    H1 4011   1.007   6.114   5.717 -2.6329 -0.7716  0.3575
 1349TIP3    H2 4012   0.937   5.986   5.676 -0.5166 -1.0819 -2.6582
 1350TIP3   OH2 4013   0.091   4.103   2.299  0.5219  0.0472  0.3190
 1350TIP3    H1 4014   0.058   4.120   2.211 -0.8310  0.1973  0.8192
 1350TIP3    H2 4015   0.132   4.185   2.326 -0.9874  0.7550  0.6080
 1351TIP3   OH2 4016   5.516   4.995   2.905  0.3977 -0.2394 -0.0770
 1351TIP3    H1 4017   5.530   5.080   2.947  0.9480  0.4158 -1.4865
 1351TIP3    H2 4018   5.582   4.938   2.944  1.1226  0.4400 -0.2698
 1352TIP3   OH2 4019   5.400   1.527   4.530 -0.1743 -0.2925 -0.0225
 1352TIP3    H1 4020   5.418   1.445   4.575  0.3071  0.4250  1.1436
 1352TIP3    H2 4021   5.486   1.559   4.501 -0.2055  0.3786  0.5945
 1353TIP3   OH2 4022   1.584   5.817   0.630 -0.1109 -0.3074 -0.3570
 1353TIP3    H1 4023   1.616   5.859   0.710 -0.2441 -1.4532  0.3234
 1353TIP3    H2 4024   1.553   5.731   0.659 -1.3098 -0.2692 -1.4400
 1354TIP3   OH2 4025   2.545   4.009   5.467 -0.4155  1.1498  0.1957
 1354TIP3    H1 4026   2.521   3.950   5.538 -2.2658  0.9357 -0.5367
 1354TIP3    H2 4027   2.461   4.038   5.432  0.3781 -0.1211 -3.0512
 1355TIP3   OH2 4028   1.778   1.474   5.676  0.1117 -0.0719 -0.1529
 1355TIP3    H1 4029   1.769   1.492   5.769  0.4801  0.7069 -0.2657
 1355TIP3    H2 4030   1.843   1.536   5.645  0.4391 -0.7260 -0.8178
 1356TIP3   OH2 4031   6.508   6.180   5.173 -1.1217  0.0510 -0.4552
 1356TIP3    H1 4032   6.448   6.205   5.243 -0.0255 -0.7783  0.8264
 1356TIP3    H2 4033   6.569   6.254   5.166 -0.3833 -0.4531  0.4657
 1357TIP3   OH2 4034   3.081   2.118   4.339  0.0777  0.6145  0.0851
 1357TIP3    H1 4035   2.990   2.098   4.362 -0.5585  0.9982 -1.8710
 1357TIP3    H2 4036   3.113   2.171   4.411 -0.8084 -0.6138  1.4472
 1358TIP3   OH2 4037   3.518   0.800   5.477 -0.0352 -0.1139  1.0467
 1358TIP3    H1 4038   3.493   0.720   5.523  0.6540 -0.8553  0.1904
 1358TIP3    H2 4039   3.472   0.870   5.522 -1.0465 -1.0546  1.5112
 1359TIP3   OH2 4040   6.092   3.137   5.581 -0.1626 -0.0631  0.3281
 1359TIP3    H1 4041   6.100   3.215   5.636 -0.6341 -0.0042  0.3169
 1359TIP3    H2 4042   6.009   3.098   5.608 -1.2264  0.8565 -1.4713
 1360TIP3   OH2 4043   4.991   0.766   5.589 -0.6987  0.4750 -0.3588
 1360TIP3    H1 4044   5.067   0.758   5.648 -0.9960 -1.4582 -0.1853
 1360TIP3    H2 4045   5.005   0.698   5.523 -0.8143  2.0493 -2.0891
 1361TIP3   OH2 4046   5.787   4.517   0.052 -0.2550 -0.1649  0.0807
 1361TIP3    H1 4047   5.838   4.530   0.132 -0.0096 -2.0291  0.2711
 1361TIP3    H2 4048   5.853   4.500  -0.016 -0.4150  2.1250 -0.7333
 1362TIP3   OH2 4049   3.705   0.570   5.046  0.1259  0.4778  0.2627
 1362TIP3    H1 4050   3.696   0.603   5.136 -0.1319  1.1915 -0.0134
 1362TIP3    H2 4051   3.783   0.515   5.048 -0.5626 -0.5076  1.2040
 1363TIP3   OH2 4052   6.184   0.075   4.138 -0.6973  0.0285  0.1816
 1363TIP3    H1 4053   6.188   0.044   4.229  0.4550 -0.2479  0.0426
 1363TIP3    H2 4054   6.187   0.171   4.146 -0.7745  0.0109  0.4438
 1364TIP3   OH2 4055   4.668   2.881   3.639  0.7763 -0.1708 -0.0456
 1364TIP3    H1 4056   4.661   2.902   3.733 -0.4962 -0.9315  0.0441
 1364TIP3    H2 4057   4.751   2.922   3.612  2.0668 -1.3877  1.8046
 1365TIP3   OH2 4058   0.367   3.501   5.170 -0.7676  0.2746  0.2399
 1365TIP3    H1 4059   0.445   3.445   5.173 -0.4460  0.7369  0.7571
 1365TIP3    H2 4060   0.303   3.456   5.224 -0.4281  0.5003  0.8569
 1366TIP3   OH2 4061   0.305   2.509   3.174  0.1635 -0.0749  0.0494
 1366TIP3    H1 4062   0.312   2.422   3.213  1.4233 -0.0267 -0.0202
 1366TIP3    H2 4063   0.262   2.562   3.241  3.0495  0.2226  1.8313
 1367TIP3   OH2 4064   3.487   4.022   3.493 -0.1657 -0.1286 -0.0452
 1367TIP3    H1 4065   3.547   4.096   3.482 -0.5691  0.6718  2.4051
 1367TIP3    H2 4066   3.400   4.059   3.477 -0.3737  0.0008  1.2478
 1368TIP3   OH2 4067   1.910   5.823   5.640  0.3621 -0.1899  0.4086
 1368TIP3    H1 4068   1.847   5.890   5.614  0.2592 -0.6546 -0.6109
 1368TIP3    H2 4069   1.962   5.864   5.708  0.1144  0.8233  0.0109
 1369TIP3   OH2 4070   0.239   5.589   4.472  0.5639  0.2675  0.0385
 1369TIP3    H1 4071   0.245   5.573   4.566 -2.7910 -0.6859  0.2301
 1369TIP3    H2 4072   0.254   5.683   4.462  2.2999  0.1750  1.2869
 1370TIP3   OH2 4073   0.391   2.051   1.502 -0.2046 -0.0224 -0.0279
 1370TIP3    H1 4074   0.429   2.134   1.473  1.6920  0.1089  2.5362
 1370TIP3    H2 4075   0.332   2.027   1.431 -0.1446  3.0343 -1.2867
 1371TIP3   OH2 4076   2.576   0.139   4.861  0.6931  0.0659 -0.1020
 1371TIP3    H1 4077   2.496   0.187   4.881  1.6387  1.9376 -0.6142
 1371TIP3    H2 4078   2.647   0.200   4.881  1.9448 -0.9351 -1.2518
 1372TIP3   OH2 4079   4.634   6.169   4.591 -0.4543 -0.3080 -0.6048
 1372TIP3    H1 4080   4.610   6.076   4.589 -0.8691 -0.2683  1.1387
 1372TIP3    H2 4081   4.729   6.169   4.603 -0.6512 -0.5763  1.3861
 1373TIP3   OH2 4082   5.762   6.345   5.613  0.6958 -0.3552  0.4488
 1373TIP3    H1 4083   5.850   6.359   5.649  0.9284  0.5628 -0.4162
 1373TIP3    H2 4084   5.764   6.257   5.577  0.7972 -0.8785  1.7008
 1374TIP3   OH2 4085   4.485   1.817   3.314 -0.3932 -0.1514  0.0959
 1374TIP3    H1 4086   4.515   1.831   3.225 -1.3739  1.3853 -0.0428
 1374TIP3    H2 4087   4.484   1.722   3.326  1.3175 -0.3295 -0.9514
 1375TIP3   OH2 4088   2.649   1.435   1.615  0.4962  0.3888  0.2505
 1375TIP3    H1 4089   2.714   1.416   1.682  1.0700  0.6010 -0.2378
 1375TIP3    H2 4090   2.684   1.511   1.568  0.0430  0.3233 -0.2056
 1376TIP3   OH2 4091   2.708   2.312   1.197 -0.2267 -0.3024 -0.4761
 1376TIP3    H1 4092   2.712   2.401   1.162  0.1364 -0.1222  0.0070
 1376TIP3    H2 4093   2.784   2.268   1.159  0.5919  0.1059  0.6262
 1377TIP3   OH2 4094   2.979   3.619   5.528 -0.4252 -0.6076 -0.6590
 1377TIP3    H1 4095   2.988   3.599   5.435  2.3970 -1.7715 -0.2185
 1377TIP3    H2 4096   3.037   3.693   5.543 -0.1336 -1.0123  0.3103
 1378TIP3   OH2 4097   4.825   5.602   1.867  0.1579  0.1735 -0.1747
 1378TIP3    H1 4098   4.781   5.643   1.792  0.0064  0.2004 -0.0719
 1378TIP3    H2 4099   4.821   5.508   1.849  0.7307  0.2119 -0.5357
 1379TIP3   OH2 4100   1.744   6.645   1.530  0.1491 -0.5800 -0.2003
 1379TIP3    H1 4101   1.732   6.613   1.620  0.7678 -1.1212 -0.3038
 1379TIP3    H2 4102   1.672   6.605   1.481  0.0340 -0.5915 -0.0247
 1380TIP3   OH2 4103   3.630   3.821   2.824 -0.7555 -0.5089  0.1161
 1380TIP3    H1 4104   3.543   3.858   2.832 -0.9315 -1.0961  1.0248
 1380TIP3    H2 4105   3.670   3.834   2.910 -1.7326 -4.6328  1.4383
 1381TIP3   OH2 4106   1.923   2.354   2.301 -0.2831 -0.1229  0.2956
 1381TIP3    H1 4107   1.880   2.358   2.216 -1.6536  0.6470  0.9966
 1381TIP3    H2 4108   1.971   2.437   2.308  0.2078 -0.3836  0.0989
 1382TIP3   OH2 4109   3.686   2.593   2.362  0.6349  0.1884 -0.7517
 1382TIP3    H1 4110   3.657   2.615   2.451 -0.4622  0.7870 -1.2335
 1382TIP3    H2 4111   3.725   2.506   2.370  1.3692  0.6122  0.4703
 1383TIP3   OH2 4112   2.125   5.991   1.000 -0.5975 -0.1317 -0.0497
 1383TIP3    H1 4113   2.184   5.994   0.925  0.4731 -0.8935  0.7360
 1383TIP3    H2 4114   2.142   6.073   1.047 -1.9612  0.8041 -1.1108
 1384TIP3   OH2 4115   2.734   4.097   5.307 -0.1656 -0.6233 -0.6117
 1384TIP3    H1 4116   2.670   4.070   5.373 -0.1388  0.8843  0.0820
 1384TIP3    H2 4117   2.794   4.023   5.298  0.5558 -0.4375  1.9900
 1385TIP3   OH2 4118   5.536   0.477   1.911 -0.2737 -0.0570 -0.2234
 1385TIP3    H1 4119   5.547   0.568   1.938 -1.1910  0.5373 -1.7097
 1385TIP3    H2 4120   5.442   0.463   1.913 -0.1037 -1.1901  0.5823
 1386TIP3   OH2 4121   0.064   3.619   5.149 -0.1035  0.0795 -0.5937
 1386TIP3    H1 4122   0.123   3.563   5.099  0.1126  2.4832 -3.2633
 1386TIP3    H2 4123  -0.013   3.564   5.166  1.2286 -1.8643 -0.4993
 1387TIP3   OH2 4124   1.122   6.339   3.953 -0.2852 -0.1584  0.3383
 1387TIP3    H1 4125   1.216   6.356   3.952 -0.4496  0.8427 -0.5331
 1387TIP3    H2 4126   1.089   6.380   3.872 -1.5406  0.0231  0.9096
 1388TIP3   OH2 4127   3.489   3.537   0.578 -0.5519 -0.1163 -0.0243
 1388TIP3    H1 4128   3.477   3.610   0.639  0.6686  0.5751 -0.5874
 1388TIP3    H2 4129   3.407   3.534   0.528 -1.6000 -0.7219  1.6355
 1389TIP3   OH2 4130   5.724   1.587   0.243  0.5367  0.4659 -0.8037
 1389TIP3    H1 4131   5.678   1.503   0.240  1.3344 -0.0633  0.7348
 1389TIP3    H2 4132   5.781   1.586   0.166  0.0231 -0.0856 -1.1835
 1390TIP3   OH2 4133   5.439   2.585   1.877 -0.0323 -0.3710 -0.2786
 1390TIP3    H1 4134   5.402   2.584   1.965  2.1586  1.2534  0.7680
 1390TIP3    H2 4135   5.417   2.672   1.843 -1.5943 -1.2710 -1.7582
 1391TIP3   OH2 4136   0.268   0.207   4.344  0.6714 -0.9836 -0.0085
 1391TIP3    H1 4137   0.348   0.259   4.344  0.1509 -0.1509 -0.5759
 1391TIP3    H2 4138   0.205   0.259   4.393  0.4412 -1.5743  0.3297
 1392TIP3   OH2 4139   0.440   2.236   5.509  0.4757 -0.1931  1.0242
 1392TIP3    H1 4140   0.371   2.293   5.543 -0.9477  0.2596 -2.2297
 1392TIP3    H2 4141   0.405   2.147   5.518 -0.9797  0.0749 -1.2441
 1393TIP3   OH2 4142   4.799   4.667   3.516  0.2780 -0.1470  0.1575
 1393TIP3    H1 4143   4.754   4.611   3.579  0.6512  1.3320  1.8018
 1393TIP3    H2 4144   4.739   4.673   3.441 -0.9165 -0.6133  1.0580
 1394TIP3   OH2 4145   6.613   2.503   3.828  0.4004  0.7871  0.0940
 1394TIP3    H1 4146   6.598   2.479   3.919 -0.9846 -0.4612 -0.4340
 1394TIP3    H2 4147   6.557   2.580   3.815 -1.1799 -0.3708 -0.2711
 1395TIP3   OH2 4148   3.885   2.368   3.163 -0.2368 -0.1866 -0.3568
 1395TIP3    H1 4149   3.902   2.274   3.154  1.6190  0.1199 -0.3268
 1395TIP3    H2 4150   3.851   2.377   3.252  0.7172 -0.6828  0.0669
 1396TIP3   OH2 4151   4.503   2.879   1.724 -0.0323  0.5337 -0.2962
 1396TIP3    H1 4152   4.488   2.951   1.663  0.0229  1.7869  1.1052
 1396TIP3    H2 4153   4.591   2.895   1.759  0.3044 -0.6784 -0.5437
 1397TIP3   OH2 4154   6.769   0.940   3.466 -0.2161  0.1515  0.0733
 1397TIP3    H1 4155   6.807   0.896   3.389 -0.1909  0.5203 -0.1273
 1397TIP3    H2 4156   6.752   0.869   3.528  0.2545 -0.0872 -0.0649
 1398TIP3   OH2 4157   2.093   5.635   2.599  0.6989 -0.5013 -0.4902
 1398TIP3    H1 4158   2.148   5.644   2.521  0.0044 -1.2580 -1.0868
 1398TIP3    H2 4159   2.146   5.584   2.660  2.1160  1.8955  0.4354
 1399TIP3   OH2 4160   3.581   1.632   3.648 -0.4369 -0.0149  0.7265
 1399TIP3    H1 4161   3.625   1.717   3.640 -1.2144  0.2491 -1.7470
 1399TIP3    H2 4162   3.514   1.645   3.714 -0.8130  1.4417  0.0855
 1400TIP3   OH2 4163   3.437   1.961   5.165 -0.3449 -0.1176  0.2541
 1400TIP3    H1 4164   3.434   2.009   5.247  1.3913  0.0868  0.2475
 1400TIP3    H2 4165   3.515   1.995   5.120 -2.1269  0.9862 -2.2558
 1401TIP3   OH2 4166   0.281   0.844   4.895 -0.4376 -0.4727  0.2914
 1401TIP3    H1 4167   0.251   0.871   4.982  1.6728  2.2197  0.3383
 1401TIP3    H2 4168   0.347   0.778   4.912  0.7759  0.8394  0.8923
 1402TIP3   OH2 4169   3.200   6.445   2.382 -0.2447 -0.1474 -0.2472
 1402TIP3    H1 4170   3.194   6.366   2.437 -0.9473  0.2479  0.2574
 1402TIP3    H2 4171   3.223   6.515   2.442  1.5498 -0.1449 -0.8796
 1403TIP3   OH2 4172   6.879   0.308   2.413 -0.3518 -0.6546  0.0129
 1403TIP3    H1 4173   6.792   0.279   2.387 -0.6824 -0.4498  0.8600
 1403TIP3    H2 4174   6.885   0.287   2.506 -0.1859  0.9709  0.4002
 1404TIP3   OH2 4175   0.121   3.243   0.918 -0.4278  0.0994  0.4562
 1404TIP3    H1 4176   0.066   3.166   0.930  1.0791 -1.2085 -0.5943
 1404TIP3    H2 4177   0.205   3.208   0.890  0.8108  2.0469  1.4816
 1405TIP3   OH2 4178   3.642   3.465   4.659  0.2358 -0.9407 -0.1298
 1405TIP3    H1 4179   3.661   3.399   4.725  1.8356 -1.1552 -0.7694
 1405TIP3    H2 4180   3.653   3.419   4.575  0.1063 -0.1877 -0.5682
 1406TIP3   OH2 4181   1.553   3.340   2.360  0.0157 -0.1433 -0.1018
 1406TIP3    H1 4182   1.500   3.419   2.348  0.2168 -0.0625 -0.4805
 1406TIP3    H2 4183   1.493   3.268   2.341 -0.8097 -0.2089  2.4477
 1407TIP3   OH2 4184   1.940   4.747   0.720 -0.3064 -0.3736  0.0951
 1407TIP3    H1 4185   1.877   4.801   0.672  0.2571  0.8834  0.7342
 1407TIP3    H2 4186   1.931   4.775   0.811  0.7676 -0.5750  0.2774
 1408TIP3   OH2 4187   5.050   1.277   2.777  0.4149  0.6024 -0.1025
 1408TIP3    H1 4188   4.967   1.286   2.825 -0.0961 -0.2417 -0.8043
 1408TIP3    H2 4189   5.054   1.185   2.753  2.2347  0.3119  1.0892
 1409TIP3   OH2 4190   0.139   0.044   5.532 -0.0412 -0.0794 -0.4507
 1409TIP3    H1 4191   0.100   0.067   5.447  0.5156 -0.2876 -0.7717
 1409TIP3    H2 4192   0.200   0.116   5.550  0.1406 -0.2368 -0.4305
 1410TIP3   OH2 4193   3.829   2.074   3.259  0.4232  0.0342 -0.0917
 1410TIP3    H1 4194   3.797   1.984   3.261  0.7394 -0.1538 -1.9668
 1410TIP3    H2 4195   3.751   2.127   3.275 -0.2913 -0.5166 -1.5684
 1411TIP3   OH2 4196   1.792   2.629   3.613  0.2322  0.2360 -0.8135
 1411TIP3    H1 4197   1.738   2.687   3.666  1.0278  1.1473 -0.9609
 1411TIP3    H2 4198   1.879   2.635   3.652  0.7461  0.6356 -1.9860
 1412TIP3   OH2 4199   0.353   0.619   4.683 -0.8886  0.1585 -0.0092
 1412TIP3    H1 4200   0.293   0.684   4.646 -1.5089 -0.4834 -0.1666
 1412TIP3    H2 4201   0.434   0.667   4.700 -0.7468  0.5933 -1.7532
 1413TIP3   OH2 4202   0.977   4.950   4.820  0.4056  0.4298  0.2952
 1413TIP3    H1 4203   1.005   4.867   4.783  2.4626  2.6265 -3.6999
 1413TIP3    H2 4204   0.899   4.973   4.769  0.4190  1.3513  0.6772
 1414TIP3   OH2 4205   2.345   5.710   2.279 -0.3840  0.2071  0.0551
 1414TIP3    H1 4206   2.266   5.730   2.229 -1.5672 -2.9798  0.3957
 1414TIP3    H2 4207   2.406   5.676   2.214 -0.0693  0.7005  0.0917
 1415TIP3   OH2 4208   4.569   5.754   3.468  0.5807  0.4583  0.4952
 1415TIP3    H1 4209   4.639   5.809   3.505  0.2818  1.6752 -0.6522
 1415TIP3    H2 4210   4.600   5.733   3.380 -0.3559  0.7713  0.0778
 1416TIP3   OH2 4211   5.869   2.397   5.426 -0.4861 -0.3728 -0.1738
 1416TIP3    H1 4212   5.866   2.469   5.363 -0.3065 -0.6004 -0.4478
 1416TIP3    H2 4213   5.792   2.410   5.481  0.5185  1.0576  0.9462
 1417TIP3   OH2 4214   2.300   3.266   1.495 -0.2224  0.3882  0.3745
 1417TIP3    H1 4215   2.322   3.187   1.445  0.1046  0.7113 -0.0020
 1417TIP3    H2 4216   2.213   3.249   1.531 -0.2664 -0.0355  0.0715
 1418TIP3   OH2 4217   5.464   1.499   3.570  0.4031 -0.1537  0.0526
 1418TIP3    H1 4218   5.375   1.516   3.600  0.6335  0.3921  0.4376
 1418TIP3    H2 4219   5.515   1.573   3.603  1.2776 -1.1690  1.0672
 1419TIP3   OH2 4220   4.139   0.912   2.797  0.8074 -0.0033 -0.2600
 1419TIP3    H1 4221   4.107   0.871   2.877 -0.5061  1.5432  0.0642
 1419TIP3    H2 4222   4.204   0.851   2.763  0.1228 -1.5288  1.0369
 1420TIP3   OH2 4223   3.616   2.947   0.988  0.1160  0.3310  0.1165
 1420TIP3    H1 4224   3.548   2.976   0.927  0.7555 -0.2732 -0.9092
 1420TIP3    H2 4225   3.689   2.921   0.932  1.5786  1.8309  1.2172
 1421TIP3   OH2 4226   4.471   5.905   5.627  0.2280 -1.1371 -0.2353
 1421TIP3    H1 4227   4.397   5.869   5.578 -0.7886  0.5441 -0.0444
 1421TIP3    H2 4228   4.442   5.908   5.718  0.0296  0.5793 -0.3092
 1422TIP3   OH2 4229   0.289   4.644   4.362  0.3396 -0.1727  0.1790
 1422TIP3    H1 4230   0.230   4.587   4.409  0.1229  0.9528  1.3331
 1422TIP3    H2 4231   0.300   4.720   4.419  1.9632  0.1777 -0.5303
 1423TIP3   OH2 4232   5.516   2.689   1.175  0.3769 -0.7196 -0.6681
 1423TIP3    H1 4233   5.443   2.717   1.229  0.9521 -2.0899  0.9302
 1423TIP3    H2 4234   5.576   2.764   1.175 -0.1790 -0.2685 -0.3947
 1424TIP3   OH2 4235   1.869   2.933   0.584  0.0873  0.6080 -0.0815
 1424TIP3    H1 4236   1.938   2.966   0.526  1.2314 -0.4935  0.6349
 1424TIP3    H2 4237   1.906   2.938   0.672 -0.1638 -1.3628  0.1793
 1425TIP3   OH2 4238   3.447   2.649   3.143  0.0005 -0.5341  0.2509
 1425TIP3    H1 4239   3.399   2.729   3.162 -0.3707 -0.4608 -0.9269
 1425TIP3    H2 4240   3.509   2.640   3.216 -1.2415 -0.2158  1.3846
 1426TIP3   OH2 4241   1.542   1.148   0.328  0.1283  0.4256  0.3676
 1426TIP3    H1 4242   1.513   1.062   0.299 -0.9433  1.5654 -2.2987
 1426TIP3    H2 4243   1.617   1.167   0.272 -0.1743  1.5532  0.3292
 1427TIP3   OH2 4244   4.430   1.238   2.588  0.0530  0.2871  0.5778
 1427TIP3    H1 4245   4.339   1.208   2.586 -0.4361  1.6872  0.1763
 1427TIP3    H2 4246   4.424   1.330   2.615  1.1378  1.0654 -1.5855
 1428TIP3   OH2 4247   2.439   3.893   5.705  0.0022  0.0112  0.2719
 1428TIP3    H1 4248   2.490   3.935   5.774  1.0660 -1.5694  0.4885
 1428TIP3    H2 4249   2.424   3.804   5.737 -1.7512  0.0185 -0.4015
 1429TIP3   OH2 4250   7.057   0.297   3.481  0.4425  0.0631  1.3663
 1429TIP3    H1 4251   7.036   0.362   3.415 -0.5851 -0.4406  1.1732
 1429TIP3    H2 4252   7.147   0.270   3.462  0.1554 -0.0808  0.1640
 1430TIP3   OH2 4253   0.878   5.714   3.290  0.3021  0.2325  0.0206
 1430TIP3    H1 4254   0.874   5.783   3.224  1.6705 -0.6792 -1.0678
 1430TIP3    H2 4255   0.788   5.681   3.295 -0.2669  1.7376  0.2150
 1431TIP3   OH2 4256   0.791   2.476   5.218 -0.2285 -0.1119  0.0473
 1431TIP3    H1 4257   0.837   2.557   5.239  0.5239 -0.3852 -0.5048
 1431TIP3    H2 4258   0.711   2.480   5.271  1.0613 -0.2806  2.1242
 1432TIP3   OH2 4259   4.222   5.173   4.347  0.0321 -0.0770 -0.1305
 1432TIP3    H1 4260   4.233   5.086   4.308  0.2208 -0.1752  0.1375
 1432TIP3    H2 4261   4.290   5.178   4.414 -1.2762 -0.5430  1.2920
 1433TIP3   OH2 4262   6.235   1.702   2.977 -0.0037 -0.2166  0.1176
 1433TIP3    H1 4263   6.331   1.702   2.968 -0.0379  0.2051 -0.2532
 1433TIP3    H2 4264   6.220   1.724   3.069  0.2874 -2.0770  0.6655
 1434TIP3   OH2 4265   0.381   2.935   0.623  0.1151  0.1463 -0.0647
 1434TIP3    H1 4266   0.325   2.862   0.649  0.6645  0.2889  1.6645
 1434TIP3    H2 4267   0.458   2.894   0.583  0.3091 -0.2296  0.6800
 1435TIP3   OH2 4268   2.240   6.519   2.614 -0.0267 -0.5413  0.8874
 1435TIP3    H1 4269   2.317   6.575   2.610  0.8286 -1.6578  1.0922
 1435TIP3    H2 4270   2.263   6.443   2.560 -1.2650 -0.5864  0.3808
 1436TIP3   OH2 4271   4.773   1.677   1.023 -0.5047  0.1757 -0.2651
 1436TIP3    H1 4272   4.747   1.599   1.071 -1.2275  1.2941  1.2602
 1436TIP3    H2 4273   4.720   1.747   1.061  1.5767  1.7799 -0.1052
 1437TIP3   OH2 4274   2.894   5.975   3.170 -0.0655  0.4204  0.1738
 1437TIP3    H1 4275   2.867   5.889   3.202  1.3365 -0.2890 -0.4427
 1437TIP3    H2 4276   2.968   5.998   3.226 -1.5710  2.1438  1.5913
 1438TIP3   OH2 4277   3.813   4.539   2.632  0.1823 -0.5305 -0.1363
 1438TIP3    H1 4278   3.850   4.599   2.696  1.3803 -1.2101 -0.1692
 1438TIP3    H2 4279   3.780   4.466   2.683 -0.4189 -0.2971 -0.1756
 1439TIP3   OH2 4280   4.531   2.186   1.000  0.3627 -0.1716 -0.3085
 1439TIP3    H1 4281   4.532   2.274   0.963 -0.4021 -0.0652 -0.0934
 1439TIP3    H2 4282   4.616   2.149   0.976  0.8271  0.7356 -0.1085
 1440TIP3   OH2 4283   5.146   2.875   0.235  0.2556  0.1987  0.4793
 1440TIP3    H1 4284   5.081   2.928   0.280  0.3689  1.3965 -0.7213
 1440TIP3    H2 4285   5.217   2.865   0.298  0.5834  2.1711  0.4653
 1441TIP3   OH2 4286   2.069   6.371   5.607  0.1295  0.9883 -0.5158
 1441TIP3    H1 4287   2.091   6.279   5.614  0.2957  1.0349 -0.4199
 1441TIP3    H2 4288   1.989   6.381   5.659  0.2448  0.9441 -0.3297
 1442TIP3   OH2 4289   7.083   2.860   4.586  0.2971  0.0390  0.1439
 1442TIP3    H1 4290   7.006   2.885   4.638  1.4142 -1.0522  2.5092
 1442TIP3    H2 4291   7.150   2.923   4.611  0.6640 -0.0892 -0.5168
 1443TIP3   OH2 4292   4.711   6.532   1.261  0.5815  0.5025  0.2286
 1443TIP3    H1 4293   4.753   6.610   1.226  0.6683 -0.5385 -2.2130
 1443TIP3    H2 4294   4.775   6.462   1.248 -0.1335 -0.2872  0.8232
 1444TIP3   OH2 4295   6.015   6.131   2.122 -0.1539  0.5768 -0.3054
 1444TIP3    H1 4296   5.999   6.093   2.035 -2.1373  0.1306  0.2009
 1444TIP3    H2 4297   5.933   6.173   2.145  0.7162  1.6954  0.8895
 1445TIP3   OH2 4298   0.253   6.004   1.817 -0.7630  0.4087 -0.4891
 1445TIP3    H1 4299   0.332   6.008   1.764 -0.0270 -0.7864  0.4536
 1445TIP3    H2 4300   0.255   5.917   1.856 -0.9752  1.3979  1.9195
 1446TIP3   OH2 4301   5.439   0.846   2.698 -0.4702  0.2319  0.0172
 1446TIP3    H1 4302   5.406   0.774   2.752 -2.2841  0.9232 -0.1004
 1446TIP3    H2 4303   5.447   0.920   2.758 -0.3524  0.4151 -0.2224
 1447TIP3   OH2 4304   3.341   0.121   4.547  0.1794  0.1125 -0.6093
 1447TIP3    H1 4305   3.410   0.187   4.544 -2.5404  3.2198 -0.1265
 1447TIP3    H2 4306   3.363   0.067   4.623  1.6958  1.4259 -0.0549
 1448TIP3   OH2 4307   2.413   0.898   1.402 -0.0927  0.0086  0.2253
 1448TIP3    H1 4308   2.410   0.968   1.467  0.7863  0.7149 -0.4660
 1448TIP3    H2 4309   2.396   0.942   1.319  0.0499 -0.6651 -0.1658
 1449TIP3   OH2 4310   0.851   5.473   3.870 -0.3270 -0.3372 -0.1367
 1449TIP3    H1 4311   0.924   5.437   3.819 -0.2072  0.3554 -0.4686
 1449TIP3    H2 4312   0.773   5.446   3.822 -0.2193  0.1919 -0.6254
 1450TIP3   OH2 4313   5.290   6.673   1.611  0.2947  0.4176 -0.1856
 1450TIP3    H1 4314   5.369   6.694   1.562 -0.2065  1.2573 -0.6595
 1450TIP3    H2 4315   5.304   6.584   1.643  2.1167  1.1227  1.1218
 1451TIP3   OH2 4316   4.431   5.851   2.805  0.9218 -0.3230  0.5218
 1451TIP3    H1 4317   4.386   5.908   2.867 -1.1779  0.3877 -1.5124
 1451TIP3    H2 4318   4.487   5.910   2.754  0.3748 -0.4147 -0.1903
 1452TIP3   OH2 4319   0.170   4.438   5.243  0.1141 -0.5067  0.1245
 1452TIP3    H1 4320   0.120   4.482   5.311  0.1794 -2.0416  1.1993
 1452TIP3    H2 4321   0.254   4.484   5.241 -0.3077  0.2729  0.2796
 1453TIP3   OH2 4322   1.796   1.174   1.002 -0.7406  0.1018 -0.8183
 1453TIP3    H1 4323   1.711   1.212   1.027 -0.2059  0.1964  1.0502
 1453TIP3    H2 4324   1.777   1.083   0.983 -1.1156 -0.1986  0.8211
 1454TIP3   OH2 4325   4.282   5.954   4.262  0.1369 -0.0493 -0.3057
 1454TIP3    H1 4326   4.320   6.042   4.260  0.7662 -0.3205 -0.3390
 1454TIP3    H2 4327   4.192   5.967   4.232  0.7483  0.3289 -2.0941
 1455TIP3   OH2 4328   3.675   4.203   5.461 -0.2557  0.6160  0.2282
 1455TIP3    H1 4329   3.623   4.129   5.429 -1.0108  0.5182  1.5972
 1455TIP3    H2 4330   3.612   4.275   5.466 -0.0187  0.7862  0.8649
 1456TIP3   OH2 4331   6.359   3.663   4.603 -0.2027  0.1314  0.1954
 1456TIP3    H1 4332   6.341   3.670   4.510  1.1441  1.7127  0.0109
 1456TIP3    H2 4333   6.451   3.636   4.608  0.0211  0.9677  1.0442
 1457TIP3   OH2 4334   4.970   1.715   5.713 -0.1867 -0.1896 -0.3354
 1457TIP3    H1 4335   5.012   1.801   5.720 -0.9324  0.0451  3.6559
 1457TIP3    H2 4336   5.040   1.652   5.729 -0.2982 -0.1000  0.5340
 1458TIP3   OH2 4337   5.074   0.012   3.540 -0.3750 -0.5120 -0.1327
 1458TIP3    H1 4338   5.092   0.074   3.610  0.5830 -0.3659 -0.4988
 1458TIP3    H2 4339   5.154  -0.040   3.532 -0.4814 -0.5624 -1.0735
 1459TIP3   OH2 4340   0.188   0.035   4.716 -0.5362 -0.3586  0.1066
 1459TIP3    H1 4341   0.165   0.080   4.797  1.2061  1.7519 -0.4705
 1459TIP3    H2 4342   0.114  -0.023   4.699 -1.4485 -0.0604  2.6040
 1460TIP3   OH2 4343   4.933   5.945   4.666  0.1936 -0.1026  0.1103
 1460TIP3    H1 4344   4.939   5.856   4.701 -0.3597  0.1365  0.8246
 1460TIP3    H2 4345   4.846   5.950   4.626  0.3705  0.0005 -0.2678
 1461TIP3   OH2 4346   2.805   0.394   3.283  0.2615  0.1807 -0.5750
 1461TIP3    H1 4347   2.782   0.373   3.373 -0.3261 -1.2774 -1.0414
 1461TIP3    H2 4348   2.831   0.486   3.286 -0.1160  0.2650  1.0014
 1462TIP3   OH2 4349   3.471   0.821   0.239 -0.4346  0.2579  0.1395
 1462TIP3    H1 4350   3.427   0.746   0.279 -0.9930  0.9876  0.8997
 1462TIP3    H2 4351   3.562   0.814   0.270 -0.2292 -0.6485 -0.5933
 1463TIP3   OH2 4352   2.128   0.130   0.746 -0.2564  0.3712  0.3973
 1463TIP3    H1 4353   2.123   0.056   0.686 -0.7480  0.7509 -0.0341
 1463TIP3    H2 4354   2.221   0.153   0.749 -0.3685  1.2275 -1.3048
 1464TIP3   OH2 4355   1.239   6.370   2.804 -0.2027 -0.8760  0.5620
 1464TIP3    H1 4356   1.172   6.355   2.737  1.3770 -0.4765 -1.1978
 1464TIP3    H2 4357   1.239   6.465   2.817  1.9201 -0.4992 -1.6209
 1465TIP3   OH2 4358   0.827   3.981   1.613 -0.1762 -0.4727  0.0804
 1465TIP3    H1 4359   0.904   4.031   1.585 -0.1199 -0.7161 -0.2020
 1465TIP3    H2 4360   0.756   4.045   1.613 -0.2305 -0.5170 -0.8671
 1466TIP3   OH2 4361   1.485   1.774   1.422  0.4305  0.0449 -0.0598
 1466TIP3    H1 4362   1.466   1.825   1.500 -0.7208  2.4024 -1.7403
 1466TIP3    H2 4363   1.580   1.775   1.415  0.5171  0.2290  1.0301
 1467TIP3   OH2 4364   0.431   5.565   0.412  0.4874 -0.2597  0.5376
 1467TIP3    H1 4365   0.507   5.618   0.389  0.2603 -0.3930 -0.5604
 1467TIP3    H2 4366   0.459   5.516   0.489  1.4031 -0.0634  0.3459
 1468TIP3   OH2 4367   4.227   5.547   4.306 -0.4276  0.0851  0.2195
 1468TIP3    H1 4368   4.301   5.506   4.262  0.2462 -0.0965  1.4960
 1468TIP3    H2 4369   4.266   5.607   4.369 -1.3925  1.5268 -0.4848
 1469TIP3   OH2 4370   0.943   1.104   3.711  0.4021 -0.6613  0.5376
 1469TIP3    H1 4371   0.948   1.197   3.689  1.1571 -0.5541  1.0906
 1469TIP3    H2 4372   0.886   1.101   3.788 -0.5749 -0.8013 -0.1751
 1470TIP3   OH2 4373   0.889   6.467   2.369 -0.0779  0.0963 -0.4719
 1470TIP3    H1 4374   0.802   6.455   2.409 -0.0812  1.3168 -0.0845
 1470TIP3    H2 4375   0.908   6.382   2.330 -1.3894 -0.2480 -0.4400
 1471TIP3   OH2 4376   4.319   4.691   5.254  0.1777 -0.3530  0.0818
 1471TIP3    H1 4377   4.354   4.750   5.187  1.6017 -1.6557 -0.3912
 1471TIP3    H2 4378   4.382   4.619   5.257 -1.5817 -1.9520  0.5078
 1472TIP3   OH2 4379   5.648   4.419   1.028  0.2569 -0.2758  0.0603
 1472TIP3    H1 4380   5.726   4.393   1.076  2.3339  1.8966 -1.8486
 1472TIP3    H2 4381   5.681   4.461   0.948 -2.8579  0.8235 -0.8422
 1473TIP3   OH2 4382   5.162   3.248   1.400  0.0754 -0.7113  0.1496
 1473TIP3    H1 4383   5.097   3.246   1.471 -0.8953 -1.3848 -0.7230
 1473TIP3    H2 4384   5.151   3.335   1.361  0.6458 -0.3209  0.8463
 1474TIP3   OH2 4385   6.848   1.247   5.679 -0.8864 -0.7990 -0.6410
 1474TIP3    H1 4386   6.865   1.242   5.773 -1.2424 -0.5588 -0.5653
 1474TIP3    H2 4387   6.766   1.295   5.672  0.7606  2.1539 -1.2204
 1475TIP3   OH2 4388   4.352   6.565   2.262 -0.2481 -0.7047 -0.0908
 1475TIP3    H1 4389   4.265   6.595   2.288 -0.1336  1.0716 -1.5869
 1475TIP3    H2 4390   4.358   6.476   2.297 -1.0754  0.5217  3.5191
 1476TIP3   OH2 4391   1.817   6.314   5.762 -0.3364  0.3252  0.2996
 1476TIP3    H1 4392   1.853   6.347   5.844 -1.7066  2.5571  0.0702
 1476TIP3    H2 4393   1.723   6.329   5.769 -0.6145 -0.4718 -1.2447
 1477TIP3   OH2 4394   0.560   3.060   3.563 -0.3302  0.0034  0.0782
 1477TIP3    H1 4395   0.499   3.113   3.512  0.9519 -1.3730 -3.1963
 1477TIP3    H2 4396   0.644   3.105   3.554 -0.0463 -0.3470  0.9004
 1478TIP3   OH2 4397   1.941   2.080   3.160 -0.2495 -0.3582  0.0067
 1478TIP3    H1 4398   2.017   2.023   3.154  0.5901  0.8838 -1.9033
 1478TIP3    H2 4399   1.866   2.020   3.149  0.5449 -1.3013 -0.4728
 1479TIP3   OH2 4400   1.987   5.436   2.280 -0.4448  0.0442  0.5482
 1479TIP3    H1 4401   2.022   5.523   2.261  0.5229 -0.0317  1.8637
 1479TIP3    H2 4402   1.907   5.430   2.227  2.2829 -0.4340 -4.0844
 1480TIP3   OH2 4403   6.767   2.613   0.801 -0.6255  1.0614  0.1212
 1480TIP3    H1 4404   6.726   2.681   0.748 -3.4118  1.0940  2.0941
 1480TIP3    H2 4405   6.785   2.654   0.885 -0.8574 -0.2162  0.8239
 1481TIP3   OH2 4406   5.935   3.921   1.332  0.1238 -0.0428  0.0228
 1481TIP3    H1 4407   5.867   3.924   1.264 -0.0364  0.0128  0.1871
 1481TIP3    H2 4408   6.017   3.935   1.284 -0.0006  0.1168 -0.1424
 1482TIP3   OH2 4409   7.076   6.273   3.137  0.7288 -0.4966  0.4536
 1482TIP3    H1 4410   6.981   6.266   3.143  0.6293  0.4575  0.1665
 1482TIP3    H2 4411   7.097   6.355   3.181  1.1806  0.4393 -1.3992
 1483TIP3   OH2 4412   4.749   1.044   0.055 -0.2351  0.0822 -0.0072
 1483TIP3    H1 4413   4.749   1.113   0.121  1.6773 -0.0082  0.1473
 1483TIP3    H2 4414   4.842   1.029   0.037 -0.6959 -0.5093 -2.0831
 1484TIP3   OH2 4415   6.451   4.640   3.321  0.2125  0.3727 -0.0609
 1484TIP3    H1 4416   6.359   4.620   3.303 -0.1938  0.6550  1.5754
 1484TIP3    H2 4417   6.449   4.723   3.368  1.2174 -0.1443  0.9375
 1485TIP3   OH2 4418   1.840   1.066   3.866 -0.1036 -0.0651 -0.3793
 1485TIP3    H1 4419   1.779   1.067   3.940  0.3468  0.1063  0.0011
 1485TIP3    H2 4420   1.846   1.157   3.838  0.0638 -0.0622 -0.3377
 1486TIP3   OH2 4421   3.276   4.170   3.377  0.1188  0.4375  0.1201
 1486TIP3    H1 4422   3.185   4.160   3.404  0.1357  0.7808  0.3001
 1486TIP3    H2 4423   3.290   4.098   3.315 -0.0024 -0.1834  0.7977
 1487TIP3   OH2 4424   1.914   1.609   3.865  0.3784  0.4927 -0.1653
 1487TIP3    H1 4425   1.857   1.626   3.940  1.5461  2.0809  0.4223
 1487TIP3    H2 4426   1.905   1.515   3.849 -0.7497  0.3226  1.2416
 1488TIP3   OH2 4427   5.759   5.162   3.055 -0.4500  0.0195 -0.2838
 1488TIP3    H1 4428   5.755   5.077   3.100 -1.4918 -0.8232 -1.8493
 1488TIP3    H2 4429   5.825   5.212   3.102 -0.4939 -1.3208  1.2709
 1489TIP3   OH2 4430   6.052   4.370   1.711 -0.4203 -0.6829 -0.0456
 1489TIP3    H1 4431   6.064   4.464   1.692  0.9490 -0.6126  0.9924
 1489TIP3    H2 4432   5.980   4.343   1.654 -1.9720  1.3807  0.8169
 1490TIP3   OH2 4433   0.416   1.204   2.573  0.0063 -0.1317  0.2822
 1490TIP3    H1 4434   0.478   1.141   2.536 -1.0657 -2.2660  1.9146
 1490TIP3    H2 4435   0.366   1.235   2.497  0.4471 -1.3889 -0.5561
 1491TIP3   OH2 4436   3.911   6.454   2.632  0.0669  0.2230 -0.3289
 1491TIP3    H1 4437   3.983   6.397   2.603  1.6450  1.0142  1.8290
 1491TIP3    H2 4438   3.942   6.543   2.613 -0.5787  0.5446  0.0997
 1492TIP3   OH2 4439   0.827   4.401   0.244  0.0654 -0.1375 -0.9071
 1492TIP3    H1 4440   0.907   4.377   0.197 -0.0285 -1.0300 -0.6267
 1492TIP3    H2 4441   0.811   4.492   0.218  2.8663  1.1688  1.3647
 1493TIP3   OH2 4442   4.095   0.873   3.653 -0.2149  0.2572  0.0994
 1493TIP3    H1 4443   4.024   0.857   3.592  0.5357 -1.1783 -0.4476
 1493TIP3    H2 4444   4.146   0.945   3.614 -0.5981  0.3746 -0.1811
 1494TIP3   OH2 4445   6.243   5.617   5.072 -0.3322  0.4698  0.6529
 1494TIP3    H1 4446   6.155   5.647   5.052 -0.1681  1.0430  0.7805
 1494TIP3    H2 4447   6.300   5.689   5.045  0.1903 -0.3321 -0.4556
 1495TIP3   OH2 4448   5.254   1.342   3.089 -0.2853 -0.5905  0.0381
 1495TIP3    H1 4449   5.335   1.327   3.138 -1.7456 -1.9850  2.2333
 1495TIP3    H2 4450   5.221   1.425   3.123 -1.7054 -1.9449  2.1862
 1496TIP3   OH2 4451   6.983   1.002   1.665  0.5552  0.4031  0.2768
 1496TIP3    H1 4452   6.926   0.927   1.682 -0.2002  1.0695  0.7773
 1496TIP3    H2 4453   7.052   0.968   1.608 -0.7994 -0.2272 -1.0220
 1497TIP3   OH2 4454   6.793   3.411   1.825  0.1085 -0.2164  0.1238
 1497TIP3    H1 4455   6.875   3.458   1.840  0.3484 -0.8398  0.8022
 1497TIP3    H2 4456   6.741   3.471   1.771  0.2946  0.9676  1.1870
 1498TIP3   OH2 4457   4.906   4.779   4.564  0.0902 -1.3166 -0.0241
 1498TIP3    H1 4458   4.934   4.768   4.473  0.7227  0.5082 -0.1058
 1498TIP3    H2 4459   4.832   4.721   4.574  0.7604 -2.4609 -1.3518
 1499TIP3   OH2 4460   0.995   1.445   5.174 -0.3894 -0.5385 -0.1196
 1499TIP3    H1 4461   0.930   1.376   5.191  0.9793 -1.5736  1.1776
 1499TIP3    H2 4462   0.994   1.499   5.253  0.0051 -0.2766 -0.2922
 1500TIP3   OH2 4463   5.242   3.152   0.817  0.5808  0.5412 -0.6463
 1500TIP3    H1 4464   5.197   3.220   0.867 -4.5675 -0.8805 -2.6384
 1500TIP3    H2 4465   5.253   3.190   0.730  0.3002 -0.1867 -1.0087
 1501TIP3   OH2 4466   1.714   1.296   4.524  0.2043 -0.2106  0.6091
 1501TIP3    H1 4467   1.720   1.216   4.576 -0.0979 -0.4423  0.2887
 1501TIP3    H2 4468   1.668   1.358   4.581 -1.0897 -0.7969  0.2295
 1502TIP3   OH2 4469   0.669   5.343   3.433  0.3220 -0.4077 -0.1241
 1502TIP3    H1 4470   0.665   5.436   3.409  0.5393 -0.4850 -0.4581
 1502TIP3    H2 4471   0.761   5.328   3.454  0.3534 -0.6445 -0.4415
 1503TIP3   OH2 4472   1.172   0.125   2.049  0.2178 -0.0901 -0.6125
 1503TIP3    H1 4473   1.223   0.137   2.129  2.6608 -0.2880 -2.0213
 1503TIP3    H2 4474   1.203   0.041   2.014 -2.2921 -1.0164 -0.7569
 1504TIP3   OH2 4475   3.931   3.161   0.529  0.9710 -0.3536 -0.3011
 1504TIP3    H1 4476   3.900   3.239   0.575 -1.8483 -1.1718 -0.6495
 1504TIP3    H2 4477   4.020   3.183   0.502  0.6341  2.3340  0.5261
 1505TIP3   OH2 4478   0.123   0.703   3.770  1.0039  0.2228  0.1160
 1505TIP3    H1 4479   0.082   0.649   3.702  0.7209 -0.0459  0.4964
 1505TIP3    H2 4480   0.050   0.745   3.816  1.2572  2.0165 -1.0236
 1506TIP3   OH2 4481   1.040   5.689   1.167  0.1210 -0.1205 -0.3878
 1506TIP3    H1 4482   0.984   5.753   1.123 -0.8181 -0.5297  0.1750
 1506TIP3    H2 4483   0.985   5.654   1.238  1.3158 -0.0677  0.5895
 1507TIP3   OH2 4484   4.583   5.449   1.494  0.0736  0.0006 -0.3477
 1507TIP3    H1 4485   4.588   5.400   1.576  0.6109  1.7251  0.6808
 1507TIP3    H2 4486   4.673   5.451   1.461 -0.2899 -1.5962 -1.5864
 1508TIP3   OH2 4487   2.675   4.072   4.398 -0.5279 -0.1302 -0.0668
 1508TIP3    H1 4488   2.722   3.989   4.391 -1.3977 -0.7483  1.1419
 1508TIP3    H2 4489   2.723   4.121   4.464 -1.7926 -0.9596  1.5356
 1509TIP3   OH2 4490   2.401   5.220   5.788  0.6666 -0.0949 -0.8965
 1509TIP3    H1 4491   2.404   5.145   5.848 -1.4153 -1.1720 -2.0138
 1509TIP3    H2 4492   2.443   5.291   5.836  1.4468 -1.6116  0.7700
 1510TIP3   OH2 4493   2.941   2.794   2.186 -0.5452  0.5914  0.4123
 1510TIP3    H1 4494   2.980   2.707   2.179 -1.2389  0.3420 -0.5654
 1510TIP3    H2 4495   3.009   2.853   2.152 -1.1271  0.1120 -1.7955
 1511TIP3   OH2 4496   5.150   0.592   1.292  0.7225 -0.0026  0.1096
 1511TIP3    H1 4497   5.085   0.656   1.261 -1.1103 -1.8255 -0.0579
 1511TIP3    H2 4498   5.233   0.638   1.287 -0.5216  2.4221  0.1757
 1512TIP3   OH2 4499   0.771   5.714   3.634 -0.0087 -0.2199 -0.5082
 1512TIP3    H1 4500   0.733   5.776   3.573  0.7506  0.4729 -0.2999
 1512TIP3    H2 4501   0.697   5.666   3.670 -0.5249 -0.0921 -1.3837
 1513TIP3   OH2 4502   1.068   6.783   1.638 -0.3922 -0.6347  0.4822
 1513TIP3    H1 4503   1.125   6.743   1.572  0.3235 -1.6812  1.6995
 1513TIP3    H2 4504   1.019   6.849   1.590 -0.1594 -1.6187 -1.1879
 1514TIP3   OH2 4505   4.250   4.986   3.260 -0.0970  0.1279 -0.5385
 1514TIP3    H1 4506   4.267   5.041   3.337 -0.5760 -0.9078  0.3427
 1514TIP3    H2 4507   4.166   4.944   3.279 -0.1478 -0.2553 -1.5700
 1515TIP3   OH2 4508   3.117   4.015   5.722  0.2472  0.1382  0.2915
 1515TIP3    H1 4509   3.127   4.105   5.690  4.3942 -0.1106  0.2904
 1515TIP3    H2 4510   3.122   3.961   5.643 -3.2119 -0.2479  0.1703
 1516TIP3   OH2 4511   2.908   1.344   3.563 -0.3153 -0.0828  1.0180
 1516TIP3    H1 4512   2.952   1.358   3.647  2.0030  0.3088 -0.1832
 1516TIP3    H2 4513   2.859   1.425   3.548 -0.0445  0.1947  1.5954
 1517TIP3   OH2 4514   1.549   4.414   4.600 -0.0591 -0.2595  0.0667
 1517TIP3    H1 4515   1.613   4.473   4.562 -0.0684  0.2884  0.8735
 1517TIP3    H2 4516   1.598   4.335   4.622  0.1023 -0.2784 -0.3691
 1518TIP3   OH2 4517   1.541   3.012   5.607  0.0526 -0.3677  0.2589
 1518TIP3    H1 4518   1.523   3.079   5.541 -1.2461 -1.4898 -0.5693
 1518TIP3    H2 4519   1.455   2.988   5.642  0.4836 -1.6216  0.5105
 1519TIP3   OH2 4520   1.050   5.391   4.835  0.1759  0.2219  0.3428
 1519TIP3    H1 4521   1.043   5.465   4.895 -1.7960  0.2056  0.2073
 1519TIP3    H2 4522   1.058   5.315   4.893  1.2205  0.4302  0.4971
 1520TIP3   OH2 4523   2.614   0.067   2.802 -0.1391  0.3697  0.0377
 1520TIP3    H1 4524   2.558   0.138   2.771  0.1617  0.5609 -0.0682
 1520TIP3    H2 4525   2.657   0.034   2.724 -1.1169 -0.6689 -0.0780
 1521TIP3   OH2 4526   4.523   3.441   0.641  0.1109  0.5235 -0.1821
 1521TIP3    H1 4527   4.575   3.458   0.720 -0.2338 -0.1813  0.2121
 1521TIP3    H2 4528   4.586   3.441   0.570  0.3595  1.6583  0.0242
 1522TIP3   OH2 4529   1.481   5.647   4.531 -0.3735  0.1554  0.5657
 1522TIP3    H1 4530   1.475   5.631   4.625 -1.2519  1.6310  0.7919
 1522TIP3    H2 4531   1.478   5.560   4.492  1.5328 -0.5966  1.9357
 1523TIP3   OH2 4532   6.846   1.720   4.840 -0.5403 -0.0326  0.0029
 1523TIP3    H1 4533   6.799   1.759   4.767 -0.7183  0.1088  0.1924
 1523TIP3    H2 4534   6.782   1.717   4.911 -0.3739 -0.1852  0.1491
 1524TIP3   OH2 4535   6.561   0.334   5.483 -0.0500 -0.3095 -0.0974
 1524TIP3    H1 4536   6.648   0.317   5.519 -0.5352 -0.0210  1.2617
 1524TIP3    H2 4537   6.501   0.323   5.557 -1.3302 -1.7681 -1.2699
 1525TIP3   OH2 4538   3.031   6.423   0.124 -0.1692 -0.3217 -0.8089
 1525TIP3    H1 4539   2.974   6.482   0.075 -0.1598  0.4620  0.0918
 1525TIP3    H2 4540   2.992   6.418   0.211  1.0099  0.0625 -0.2330
 1526TIP3   OH2 4541   4.699   2.933   4.165  0.3500 -0.2990  0.1179
 1526TIP3    H1 4542   4.679   2.874   4.092 -0.2758 -0.4569  0.4165
 1526TIP3    H2 4543   4.716   2.874   4.239  2.5494 -0.2226 -0.2380
 1527TIP3   OH2 4544   6.793   4.089   5.471  0.4655 -0.8178  0.5707
 1527TIP3    H1 4545   6.744   4.073   5.390  0.3714 -1.4265  0.7421
 1527TIP3    H2 4546   6.878   4.121   5.441  0.1362 -0.2258  0.2545
 1528TIP3   OH2 4547   7.093   4.528   0.032  0.1753  0.4906 -0.2851
 1528TIP3    H1 4548   7.037   4.477  -0.027 -0.8050  1.6711 -0.4238
 1528TIP3    H2 4549   7.179   4.488   0.025  0.0797  0.5454 -2.4863
 1529TIP3   OH2 4550   2.780   2.362   4.301  0.9745  0.4349  0.4101
 1529TIP3    H1 4551   2.801   2.270   4.318 -1.3870 -0.1326  0.4870
 1529TIP3    H2 4552   2.685   2.365   4.293  1.0358  2.7571 -0.3863
 1530TIP3   OH2 4553   7.068   6.747   5.695  0.0192 -0.2249 -0.0801
 1530TIP3    H1 4554   7.020   6.675   5.736  0.0449  0.5061  1.2724
 1530TIP3    H2 4555   7.031   6.826   5.733 -0.0570  0.5011 -1.6027
 1531TIP3   OH2 4556   2.388   3.233   2.599  0.0427 -0.2344  0.0624
 1531TIP3    H1 4557   2.367   3.146   2.634  1.5781  0.0756  1.9278
 1531TIP3    H2 4558   2.483   3.234   2.592  0.0339  1.2083 -0.2229
 1532TIP3   OH2 4559   0.947   5.166   2.947  0.1862 -0.4359  0.1864
 1532TIP3    H1 4560   1.020   5.104   2.942  0.1638 -0.3747 -1.2077
 1532TIP3    H2 4561   0.972   5.237   2.888 -1.2211 -0.6598 -0.7172
 1533TIP3   OH2 4562   6.266   2.181   5.645  0.3544 -0.5619 -0.1266
 1533TIP3    H1 4563   6.329   2.160   5.714 -0.6891  1.3330  1.5036
 1533TIP3    H2 4564   6.183   2.143   5.675 -0.2963  0.9723  0.1232
 1534TIP3   OH2 4565   1.533   0.717   5.425 -0.2614  0.4483 -0.0293
 1534TIP3    H1 4566   1.623   0.728   5.396  0.4969 -2.6060  0.8362
 1534TIP3    H2 4567   1.528   0.766   5.507  0.1929  1.6378 -0.6846
 1535TIP3   OH2 4568   6.718   0.103   0.929 -0.5861  0.3447 -0.1895
 1535TIP3    H1 4569   6.752   0.117   0.841  0.5881  0.2928  0.2424
 1535TIP3    H2 4570   6.792   0.070   0.979 -1.7273 -1.6159  0.3336
 1536TIP3   OH2 4571   3.350   3.553   1.625 -0.9315 -0.6315 -0.0487
 1536TIP3    H1 4572   3.340   3.567   1.719 -1.7315 -2.2079  0.1254
 1536TIP3    H2 4573   3.364   3.459   1.615 -0.4035 -0.4326 -1.4766
 1537TIP3   OH2 4574   1.056   0.559   0.291  0.4666 -0.6012  0.0223
 1537TIP3    H1 4575   1.115   0.628   0.319 -0.4934  0.5697 -0.7265
 1537TIP3    H2 4576   1.000   0.600   0.225 -1.1303 -1.6688  0.6340
 1538TIP3   OH2 4577   3.610   5.498   0.783  0.2596  0.0216  0.1687
 1538TIP3    H1 4578   3.601   5.590   0.755 -0.8911 -0.0537  0.2231
 1538TIP3    H2 4579   3.550   5.490   0.857  1.9805 -0.2356  1.6049
 1539TIP3   OH2 4580   6.016   5.392   0.852 -0.0123 -0.0216  0.0289
 1539TIP3    H1 4581   5.926   5.406   0.824  0.2038  1.6754  0.0465
 1539TIP3    H2 4582   6.014   5.406   0.947 -0.2257 -2.9571  0.5592
 1540TIP3   OH2 4583   3.562   6.623   4.704  0.8698  0.2400 -0.4135
 1540TIP3    H1 4584   3.489   6.679   4.678  0.5641 -0.0254 -0.1417
 1540TIP3    H2 4585   3.530   6.534   4.688  1.0114  0.1095  0.0100
 1541TIP3   OH2 4586   7.068   4.681   1.931 -0.0200 -0.2326 -0.3677
 1541TIP3    H1 4587   7.115   4.662   2.012 -0.3879  0.4264  0.0100
 1541TIP3    H2 4588   7.098   4.613   1.869 -0.0248 -0.9690  0.4211
 1542TIP3   OH2 4589   6.989   2.465   0.894 -0.0993  0.1303  0.4343
 1542TIP3    H1 4590   6.904   2.467   0.851 -0.0674  0.9571  0.3963
 1542TIP3    H2 4591   6.972   2.498   0.983 -0.0742 -1.0789  0.9047
 1543TIP3   OH2 4592   5.850   2.841   4.459 -0.0692  0.0579 -0.5538
 1543TIP3    H1 4593   5.872   2.756   4.421  0.0056 -0.8490  1.4050
 1543TIP3    H2 4594   5.935   2.881   4.477  0.0415 -1.1540  2.0550
 1544TIP3   OH2 4595   7.077   3.710   5.369  0.2735 -0.9473 -0.2607
 1544TIP3    H1 4596   7.006   3.739   5.425  1.1751  2.0998 -0.5373
 1544TIP3    H2 4597   7.038   3.642   5.314 -1.9486 -0.5227  0.6928
 1545TIP3   OH2 4598   1.530   0.709   3.031  0.6850 -0.1912  0.2885
 1545TIP3    H1 4599   1.566   0.624   3.006  1.8857  0.5176 -0.5105
 1545TIP3    H2 4600   1.592   0.743   3.095  0.3206  0.1706  0.4490
 1546TIP3   OH2 4601   0.784   4.363   5.157  0.0864  0.5479  0.0309
 1546TIP3    H1 4602   0.854   4.323   5.208 -0.2545  2.1912  1.9061
 1546TIP3    H2 4603   0.825   4.436   5.112  0.2700 -0.5806 -1.7323
 1547TIP3   OH2 4604   5.448   3.096   1.487  0.2651  0.1544  0.5176
 1547TIP3    H1 4605   5.358   3.122   1.509  0.6655 -0.0093  2.5002
 1547TIP3    H2 4606   5.493   3.178   1.471 -0.3421  0.2172 -1.1633
 1548TIP3   OH2 4607   1.327   2.668   3.979 -0.1498 -0.3758  0.5235
 1548TIP3    H1 4608   1.284   2.611   4.042  1.3345 -0.7988  1.2010
 1548TIP3    H2 4609   1.416   2.679   4.013 -0.3044  2.1990  0.3308
 1549TIP3   OH2 4610   1.475   2.125   2.781  0.2583  0.5653 -0.3342
 1549TIP3    H1 4611   1.425   2.076   2.716 -1.0380  1.9512 -0.4316
 1549TIP3    H2 4612   1.446   2.089   2.865 -1.5384  1.8570 -0.3496
 1550TIP3   OH2 4613   4.378   2.004   1.743 -0.1264 -0.2441  0.2340
 1550TIP3    H1 4614   4.424   1.968   1.668  1.5501 -0.9286  1.5519
 1550TIP3    H2 4615   4.320   2.071   1.706  0.9887 -0.2584 -1.6077
 1551TIP3   OH2 4616   4.682   5.519   1.154  0.1331 -0.2103  0.8697
 1551TIP3    H1 4617   4.671   5.427   1.129  0.2801 -0.3054  1.1472
 1551TIP3    H2 4618   4.777   5.530   1.159  0.1306  0.1255  0.2211
 1552TIP3   OH2 4619   1.268   3.726   4.423 -0.2900 -0.4408 -0.1041
 1552TIP3    H1 4620   1.279   3.789   4.494 -0.0253  1.3260 -1.6331
 1552TIP3    H2 4621   1.214   3.656   4.461 -0.0261  0.3397  1.8527
 1553TIP3   OH2 4622   6.290   1.815   5.644 -0.0705 -0.0014  0.7547
 1553TIP3    H1 4623   6.289   1.729   5.686  2.4094  0.4339  1.9296
 1553TIP3    H2 4624   6.309   1.876   5.715 -1.6908  1.5498 -0.0699
 1554TIP3   OH2 4625   0.879   5.179   2.285  0.2107 -0.2665  0.3344
 1554TIP3    H1 4626   0.813   5.137   2.341 -0.4580 -1.1252 -1.0240
 1554TIP3    H2 4627   0.947   5.112   2.274  0.6081  0.0971  0.5606
 1555TIP3   OH2 4628   4.216   0.094   0.866 -0.5288  0.0596 -0.0589
 1555TIP3    H1 4629   4.288   0.099   0.929  0.3716 -0.8651 -0.9710
 1555TIP3    H2 4630   4.138   0.115   0.917  0.1568 -0.7213  1.3920
 1556TIP3   OH2 4631   7.173   2.654   4.402 -0.0607  0.0476  0.5945
 1556TIP3    H1 4632   7.134   2.731   4.443  0.4222  1.0621 -0.7788
 1556TIP3    H2 4633   7.103   2.617   4.348  0.7776  1.9420 -1.9711
 1557TIP3   OH2 4634   1.932   4.572   5.728 -0.0929  0.5238 -0.1883
 1557TIP3    H1 4635   1.926   4.558   5.633 -2.1852  1.9682 -0.3388
 1557TIP3    H2 4636   1.888   4.497   5.767  0.8913 -0.1424 -0.3162
 1558TIP3   OH2 4637   0.145   3.811   3.201  0.0959  0.0903 -0.6701
 1558TIP3    H1 4638   0.226   3.823   3.151  0.6256 -0.6799 -0.0243
 1558TIP3    H2 4639   0.112   3.725   3.175  0.8003 -0.6752  0.8369
 1559TIP3   OH2 4640   1.036   2.975   0.711 -0.5303 -0.6654  0.0806
 1559TIP3    H1 4641   1.116   3.018   0.683 -0.7663  0.1048  0.5615
 1559TIP3    H2 4642   1.055   2.944   0.800 -0.5948 -0.9272  0.0031
 1560TIP3   OH2 4643   3.393   6.406   4.564  0.2753 -0.1706  0.1362
 1560TIP3    H1 4644   3.314   6.456   4.543 -0.9499 -1.4929  1.3878
 1560TIP3    H2 4645   3.371   6.315   4.541  1.3921 -0.5898  0.6248
 1561TIP3   OH2 4646   7.155   3.432   4.601  0.0810 -0.0774  0.4710
 1561TIP3    H1 4647   7.094   3.407   4.531  0.9228 -0.4138 -0.1580
 1561TIP3    H2 4648   7.140   3.368   4.670 -0.1063 -0.3019  0.2230
 1562TIP3   OH2 4649   3.516   3.895   5.277  0.1612  0.0716 -0.6529
 1562TIP3    H1 4650   3.536   3.910   5.185  2.3472  0.1966 -0.1962
 1562TIP3    H2 4651   3.507   3.983   5.314 -1.0695  0.0236 -0.7684
 1563TIP3   OH2 4652   4.111   2.544   3.147 -0.1619 -0.6805 -0.4030
 1563TIP3    H1 4653   4.060   2.498   3.213 -0.8684  0.0212 -0.4470
 1563TIP3    H2 4654   4.160   2.610   3.195 -0.4161 -0.3963 -0.5258
 1564TIP3   OH2 4655   5.520   3.007   5.042 -0.2073 -0.2788  0.0002
 1564TIP3    H1 4656   5.594   3.063   5.066 -1.0355  0.2141  1.5415
 1564TIP3    H2 4657   5.444   3.063   5.050 -0.9701 -1.3785  0.6946
 1565TIP3   OH2 4658   0.251   0.798   2.966  0.3430 -0.5968  0.3912
 1565TIP3    H1 4659   0.342   0.805   2.993  0.3075 -0.5299  0.4949
 1565TIP3    H2 4660   0.249   0.834   2.877  0.1139  0.9991  1.0159
 1566TIP3   OH2 4661   2.453   1.038   0.676 -0.0408 -0.1652  0.2250
 1566TIP3    H1 4662   2.465   0.969   0.741 -0.4082  0.2363  0.7331
 1566TIP3    H2 4663   2.480   1.118   0.721  1.5643 -0.0998 -0.7391
 1567TIP3   OH2 4664   1.380   3.973   5.476  0.0240 -0.5172 -0.1394
 1567TIP3    H1 4665   1.425   4.051   5.509 -1.3885  0.1394  0.3235
 1567TIP3    H2 4666   1.411   3.902   5.533  0.1398  0.0005  0.4592
 1568TIP3   OH2 4667   4.422   2.239   4.232 -0.2677 -0.7012  0.3693
 1568TIP3    H1 4668   4.389   2.279   4.312 -0.0063  0.2999 -0.0081
 1568TIP3    H2 4669   4.387   2.150   4.233 -0.7114 -0.5236  1.3211
 1569TIP3   OH2 4670   2.030   6.435   0.478 -0.0904 -0.2086 -0.0887
 1569TIP3    H1 4671   2.063   6.504   0.420  0.6954 -0.1183  0.4388
 1569TIP3    H2 4672   2.106   6.379   0.492 -0.2828 -0.2574  0.7974
 1570TIP3   OH2 4673   4.211   4.598   1.910 -0.3766 -0.3396 -0.3757
 1570TIP3    H1 4674   4.196   4.546   1.989 -0.6747 -0.1806 -0.3260
 1570TIP3    H2 4675   4.236   4.534   1.844 -1.9129 -0.7102 -0.6340
 1571TIP3   OH2 4676   2.161   3.529   2.330  0.5498 -0.6843 -0.3104
 1571TIP3    H1 4677   2.069   3.514   2.352 -0.1275 -1.1339 -2.9847
 1571TIP3    H2 4678   2.168   3.624   2.321  0.0093 -0.7086 -1.1798
 1572TIP3   OH2 4679   3.602   5.330   1.237 -0.0585 -0.0388  0.1508
 1572TIP3    H1 4680   3.685   5.325   1.284  0.2646 -1.6978 -0.5390
 1572TIP3    H2 4681   3.539   5.288   1.294 -0.7600  2.2738  1.2191
 1573TIP3   OH2 4682   4.176   4.781   0.637  0.9565  0.3263  0.4152
 1573TIP3    H1 4683   4.230   4.748   0.708  1.1399  0.4370  0.3284
 1573TIP3    H2 4684   4.218   4.863   0.611  1.6447 -0.3340 -0.6762
 1574TIP3   OH2 4685   6.969   5.720   3.141 -0.5102 -0.1929  0.5570
 1574TIP3    H1 4686   6.945   5.630   3.162 -0.1909 -0.7779 -1.4215
 1574TIP3    H2 4687   7.061   5.715   3.113 -0.8913  0.4882 -0.9305
 1575TIP3   OH2 4688   3.203   2.930   3.636 -0.3178 -0.5236 -0.1742
 1575TIP3    H1 4689   3.221   2.837   3.653 -2.0106 -0.8165  0.1244
 1575TIP3    H2 4690   3.109   2.939   3.647 -0.1301  1.3421  0.2400
 1576TIP3   OH2 4691   0.241   2.350   5.097  0.1602 -0.7889  0.5040
 1576TIP3    H1 4692   0.289   2.420   5.141 -1.1310 -0.4468  1.4145
 1576TIP3    H2 4693   0.238   2.377   5.005 -0.2212  0.3019  0.8181
 1577TIP3   OH2 4694   3.850   2.616   4.557 -0.3803 -0.3638 -0.1291
 1577TIP3    H1 4695   3.906   2.662   4.620 -0.8228 -0.8705  0.6466
 1577TIP3    H2 4696   3.764   2.612   4.599 -1.0384  0.4143 -1.3044
 1578TIP3   OH2 4697   4.849   5.449   0.504  0.0445  0.2760  0.4187
 1578TIP3    H1 4698   4.832   5.382   0.570  1.6923 -1.4441 -0.8080
 1578TIP3    H2 4699   4.765   5.495   0.494 -1.0992 -1.4830  1.4466
 1579TIP3   OH2 4700   2.769   5.743   5.157 -0.0511 -0.8364  0.4677
 1579TIP3    H1 4701   2.726   5.688   5.091  1.2139 -0.5997 -0.6075
 1579TIP3    H2 4702   2.698   5.794   5.196 -0.8360 -0.9462 -0.7594
 1580TIP3   OH2 4703   1.560   5.858   2.567 -0.1138  0.4491 -0.6740
 1580TIP3    H1 4704   1.497   5.827   2.632  0.0924  1.5938  0.1028
 1580TIP3    H2 4705   1.642   5.813   2.590  0.0307  1.0735  0.0558
 1581TIP3   OH2 4706   2.482   5.845   5.003  0.4810  0.1149  0.5799
 1581TIP3    H1 4707   2.497   5.859   5.097 -0.8251  0.8965  0.7081
 1581TIP3    H2 4708   2.546   5.778   4.978  1.9699  1.0577  1.6569
 1582TIP3   OH2 4709   3.403   6.066   2.306  0.5028  0.3766  0.0206
 1582TIP3    H1 4710   3.418   6.109   2.222  0.9044  0.2611  0.0314
 1582TIP3    H2 4711   3.308   6.070   2.319  0.2341 -1.2090 -1.2790
 1583TIP3   OH2 4712   0.757   6.501   1.271 -0.2125  0.2126  0.3138
 1583TIP3    H1 4713   0.850   6.523   1.257 -0.4832  0.6311 -1.0418
 1583TIP3    H2 4714   0.738   6.533   1.359  0.8186  0.5228  0.4423
 1584TIP3   OH2 4715   6.697   6.352   4.365 -0.4205 -0.0661  0.2247
 1584TIP3    H1 4716   6.789   6.366   4.390  0.1369 -0.3856 -1.5277
 1584TIP3    H2 4717   6.654   6.435   4.384  0.5232  0.5083 -0.0971
 1585TIP3   OH2 4718   1.021   1.593   4.926 -0.3525  0.4220  0.3853
 1585TIP3    H1 4719   1.009   1.541   5.005 -0.1214  0.1430  0.2377
 1585TIP3    H2 4720   1.112   1.624   4.931 -0.7716  1.6558  0.9760
 1586TIP3   OH2 4721   5.143   2.362   1.868  0.3257  0.5264  0.3984
 1586TIP3    H1 4722   5.154   2.366   1.773 -1.2376 -0.6704  0.1216
 1586TIP3    H2 4723   5.102   2.445   1.892 -0.3501  0.3597 -0.1554
 1587TIP3   OH2 4724   6.510   2.625   0.104 -0.1107 -0.3674 -0.0732
 1587TIP3    H1 4725   6.508   2.574   0.023  0.4079  1.2871 -1.1690
 1587TIP3    H2 4726   6.453   2.700   0.087  1.1928  0.8022  0.4986
 1588TIP3   OH2 4727   1.189   4.973   5.623 -0.1456  0.1201 -0.2889
 1588TIP3    H1 4728   1.123   4.911   5.593  1.0805 -1.2101 -0.3326
 1588TIP3    H2 4729   1.273   4.932   5.601  0.7474  2.5768 -1.9490
 1589TIP3   OH2 4730   0.564   5.989   4.616 -0.1953 -0.1000 -0.6445
 1589TIP3    H1 4731   0.583   6.036   4.698  0.0205  1.4669 -1.5510
 1589TIP3    H2 4732   0.632   6.018   4.556 -1.1207 -0.1835 -1.7694
 1590TIP3   OH2 4733   6.839   0.171   3.281 -0.0974  0.3392  0.0899
 1590TIP3    H1 4734   6.810   0.262   3.288  0.4917  0.5673 -0.3961
 1590TIP3    H2 4735   6.932   0.177   3.260  0.2036 -0.3818  1.1305
 1591TIP3   OH2 4736   3.612   1.510   5.156  0.4721  0.0653 -0.2826
 1591TIP3    H1 4737   3.615   1.438   5.094 -1.0437 -1.6708  1.5180
 1591TIP3    H2 4738   3.542   1.567   5.124  1.0863  0.2997 -1.2386
 1592TIP3   OH2 4739   4.941   0.194   2.228  0.2831 -0.5136  0.3349
 1592TIP3    H1 4740   4.892   0.272   2.256  0.6901  0.1560 -0.7637
 1592TIP3    H2 4741   4.996   0.173   2.303 -1.0286 -0.7565  1.2712
 1593TIP3   OH2 4742   4.718   2.985   4.584 -0.0495  0.4563 -0.0739
 1593TIP3    H1 4743   4.671   2.910   4.548  0.7668  0.3140 -0.8802
 1593TIP3    H2 4744   4.691   3.058   4.528  1.3829  0.1966 -1.1543
 1594TIP3   OH2 4745   2.517   5.600   2.114 -0.0706 -0.0108  0.1307
 1594TIP3    H1 4746   2.570   5.545   2.172 -2.6596 -1.3220  1.4085
 1594TIP3    H2 4747   2.506   5.548   2.035  1.6756  0.8819 -0.7506
 1595TIP3   OH2 4748   2.622   5.593   1.170  0.2378  0.0703 -0.5345
 1595TIP3    H1 4749   2.563   5.540   1.115 -0.2598  1.8747 -1.8397
 1595TIP3    H2 4750   2.672   5.645   1.107  1.3398  0.5189  0.6733
 1596TIP3   OH2 4751   4.792   4.111   5.519  0.4003  0.2806 -0.4882
 1596TIP3    H1 4752   4.852   4.046   5.480 -0.0630  0.3100 -1.2697
 1596TIP3    H2 4753   4.824   4.195   5.485  0.2331  0.3419 -0.4919
 1597TIP3   OH2 4754   3.529   5.321   3.449 -0.0319 -0.1368  0.3665
 1597TIP3    H1 4755   3.552   5.261   3.520  0.3603  0.6582  0.9248
 1597TIP3    H2 4756   3.541   5.408   3.486 -1.5342  0.3160 -0.1232
 1598TIP3   OH2 4757   3.592   5.636   5.762 -0.2157  0.1726  0.3104
 1598TIP3    H1 4758   3.577   5.730   5.762  0.2133  0.2567  1.6296
 1598TIP3    H2 4759   3.552   5.605   5.843  1.6433 -0.4328  1.0565
 1599TIP3   OH2 4760   0.720   1.163   1.684 -0.3662 -0.6781  0.0747
 1599TIP3    H1 4761   0.690   1.105   1.615 -0.2757 -1.9868  1.0895
 1599TIP3    H2 4762   0.807   1.131   1.706  0.7243  1.4078 -1.0078
 1600TIP3   OH2 4763   2.368   2.600   2.715 -0.1791  0.1946  0.3749
 1600TIP3    H1 4764   2.368   2.659   2.791 -0.1841 -0.9983  1.3431
 1600TIP3    H2 4765   2.282   2.611   2.676  0.2187  1.6496 -0.1493
 1601TIP3   OH2 4766   4.428   2.712   4.341 -0.0757 -0.0755  0.2198
 1601TIP3    H1 4767   4.345   2.681   4.306 -1.2122  0.9945  1.8670
 1601TIP3    H2 4768   4.485   2.635   4.337 -0.9905 -0.7406 -1.2454
 1602TIP3   OH2 4769   0.939   6.455   3.754 -0.0784  0.3462  0.8392
 1602TIP3    H1 4770   0.923   6.361   3.752  0.2949  0.2456  2.0114
 1602TIP3    H2 4771   0.957   6.478   3.663 -2.6132 -0.2681  0.1074
 1603TIP3   OH2 4772   3.933   6.521   1.137  0.1687  0.4975  0.0203
 1603TIP3    H1 4773   4.021   6.558   1.140  0.3724  1.0276 -4.6195
 1603TIP3    H2 4774   3.877   6.590   1.174  1.4622  1.1107  0.8983
 1604TIP3   OH2 4775   6.515   3.845   1.559  0.1582  0.0001 -0.4474
 1604TIP3    H1 4776   6.567   3.794   1.497  1.9391  0.0113  0.9554
 1604TIP3    H2 4777   6.580   3.888   1.615 -1.3601  1.1944  0.4781
 1605TIP3   OH2 4778   6.883   4.982   5.724 -0.0072  0.0809  0.3788
 1605TIP3    H1 4779   6.874   4.969   5.630  1.9013 -0.7069  0.2581
 1605TIP3    H2 4780   6.801   5.024   5.750 -0.6292  0.2147 -1.5975
 1606TIP3   OH2 4781   7.099   0.888   4.459  0.5015 -0.0294 -0.0043
 1606TIP3    H1 4782   7.057   0.827   4.399  2.2413 -2.1074  0.7497
 1606TIP3    H2 4783   7.030   0.913   4.521 -0.4809 -0.4449 -0.8996
 1607TIP3   OH2 4784   6.571   1.547   2.736 -0.2414 -0.3810  0.4480
 1607TIP3    H1 4785   6.504   1.529   2.802  1.0030 -1.3332  1.5025
 1607TIP3    H2 4786   6.654   1.545   2.784  0.4390  3.7021 -0.2221
 1608TIP3   OH2 4787   4.199   0.772   1.244  0.7092 -0.3326  0.3226
 1608TIP3    H1 4788   4.175   0.775   1.336 -0.6680  0.3581 -0.0349
 1608TIP3    H2 4789   4.217   0.863   1.220  1.6870 -0.5817  0.0490
 1609TIP3   OH2 4790   2.279   2.301   0.467 -0.0331  0.1251 -0.2849
 1609TIP3    H1 4791   2.218   2.246   0.517 -0.2893 -0.7917 -1.5509
 1609TIP3    H2 4792   2.313   2.364   0.531 -1.9090  0.3282  0.5769
 1610TIP3   OH2 4793   2.922   5.610   2.502 -0.2053  0.2533 -0.1363
 1610TIP3    H1 4794   2.847   5.623   2.561  0.5919 -1.1144  1.2426
 1610TIP3    H2 4795   2.920   5.686   2.444 -1.9042  0.8978  0.7059
 1611TIP3   OH2 4796   6.237   3.781   1.525 -0.1858  0.1504  0.0814
 1611TIP3    H1 4797   6.220   3.770   1.618 -2.0533 -0.7357 -0.3098
 1611TIP3    H2 4798   6.332   3.776   1.516 -0.0222 -0.2982  1.8582
 1612TIP3   OH2 4799   3.836   4.854   0.397  0.0621  0.3791 -0.3637
 1612TIP3    H1 4800   3.771   4.896   0.341  1.0987 -0.1836 -2.0809
 1612TIP3    H2 4801   3.823   4.760   0.382 -1.2663  0.0606  2.2977
 1613TIP3   OH2 4802   4.471   2.082   1.264  0.3925  0.4160 -0.2555
 1613TIP3    H1 4803   4.496   2.083   1.172  0.1154 -0.5901 -0.3491
 1613TIP3    H2 4804   4.376   2.094   1.263  0.6328  3.0606  0.0469
 1614TIP3   OH2 4805   1.727   1.991   4.834  0.6120 -0.4385 -0.0698
 1614TIP3    H1 4806   1.720   1.984   4.739 -2.4909 -3.4161  0.1622
 1614TIP3    H2 4807   1.792   1.925   4.858  1.8311  0.7108 -0.0573
 1615TIP3   OH2 4808   1.031   5.595   5.008  0.0323 -0.6173 -0.1385
 1615TIP3    H1 4809   0.942   5.629   4.999 -0.1341 -1.3505 -1.5827
 1615TIP3    H2 4810   1.087   5.672   4.999 -0.4179 -0.3840 -1.1089
 1616TIP3   OH2 4811   4.020   4.642   2.243 -0.7011 -0.3638  0.3890
 1616TIP3    H1 4812   4.044   4.732   2.220 -0.7457 -0.3215  0.5053
 1616TIP3    H2 4813   3.938   4.651   2.292 -0.6453 -0.4585  0.5001
 1617TIP3   OH2 4814   6.562   2.867   4.826 -0.0770  0.4715  0.0293
 1617TIP3    H1 4815   6.600   2.884   4.912 -1.8349 -0.6173  1.1016
 1617TIP3    H2 4816   6.618   2.800   4.787  1.0201  1.3281  0.0915
 1618TIP3   OH2 4817   5.662   0.912   1.430 -0.3904  0.7052 -0.0826
 1618TIP3    H1 4818   5.700   0.962   1.502 -0.4361 -0.2684  0.6445
 1618TIP3    H2 4819   5.628   0.833   1.472 -3.4876  1.6158 -0.6169
 1619TIP3   OH2 4820   6.678   1.816   4.608 -0.0989 -0.0720  0.2912
 1619TIP3    H1 4821   6.588   1.782   4.607  0.3585 -1.3408 -0.8312
 1619TIP3    H2 4822   6.670   1.908   4.583 -0.9042 -0.7483 -2.1183
 1620TIP3   OH2 4823   3.413   2.493   4.493 -0.3751 -0.3066  0.3306
 1620TIP3    H1 4824   3.368   2.567   4.532  1.8645  1.5939 -0.4878
 1620TIP3    H2 4825   3.487   2.531   4.446 -0.5115 -2.8344 -2.2320
 1621TIP3   OH2 4826   2.551   0.591   3.814  0.0107 -0.8295  0.0975
 1621TIP3    H1 4827   2.642   0.568   3.792 -0.9821 -3.7959 -1.4813
 1621TIP3    H2 4828   2.518   0.635   3.736 -0.9415 -3.3124 -1.0058
 1622TIP3   OH2 4829   5.725   1.148   0.697  0.4742  0.1742 -0.0155
 1622TIP3    H1 4830   5.820   1.160   0.708  0.2274  2.2238  0.3743
 1622TIP3    H2 4831   5.702   1.207   0.626 -0.3156 -1.4862 -1.1875
 1623TIP3   OH2 4832   7.014   0.027   5.362 -0.2812  0.0746 -0.3104
 1623TIP3    H1 4833   7.088   0.088   5.353  0.3838 -0.1939  2.5976
 1623TIP3    H2 4834   7.054  -0.060   5.360 -0.6282 -0.1031  0.3650
 1624TIP3   OH2 4835   2.069   1.648   1.106  0.1154  0.0062 -0.0042
 1624TIP3    H1 4836   2.035   1.572   1.058 -1.1645 -0.7679  2.0144
 1624TIP3    H2 4837   2.009   1.719   1.085  0.5771  0.1533 -0.8841
 1625TIP3   OH2 4838   3.532   3.780   4.998  0.0043 -0.9376  0.5345
 1625TIP3    H1 4839   3.608   3.827   4.964 -0.6219 -0.5433 -0.3643
 1625TIP3    H2 4840   3.457   3.818   4.951 -0.8534 -0.7276  1.9945
 1626TIP3   OH2 4841   3.276   6.139   5.817  0.6498  0.5940  0.1457
 1626TIP3    H1 4842   3.364   6.138   5.854  1.4102  0.1535 -1.5944
 1626TIP3    H2 4843   3.274   6.064   5.757 -1.2120  0.0678  0.7720
 1627TIP3   OH2 4844   1.370   0.629   3.883 -0.0621 -0.1201 -0.1216
 1627TIP3    H1 4845   1.282   0.661   3.863  0.5320  1.9245  0.3136
 1627TIP3    H2 4846   1.356   0.541   3.917 -1.9642  0.2803  0.2681
 1628TIP3   OH2 4847   6.499   0.715   2.092  0.0521  0.3075 -0.2936
 1628TIP3    H1 4848   6.515   0.707   1.998  0.2996  2.1286 -0.4381
 1628TIP3    H2 4849   6.535   0.800   2.116  1.1474 -0.6321  1.7215
 1629TIP3   OH2 4850   4.835   0.707   0.611  0.0250 -0.3582 -0.4403
 1629TIP3    H1 4851   4.787   0.783   0.579 -1.7109 -0.9471  0.6029
 1629TIP3    H2 4852   4.919   0.710   0.566 -1.5562 -0.1412 -3.6465
 1630TIP3   OH2 4853   4.727   3.153   3.054  0.6952 -0.4752  0.5365
 1630TIP3    H1 4854   4.655   3.208   3.083  0.3696 -1.6959  2.2724
 1630TIP3    H2 4855   4.707   3.132   2.963 -0.0951  0.7801  0.3978
 1631TIP3   OH2 4856   3.229   5.105   2.280  0.0556 -0.5586  0.2223
 1631TIP3    H1 4857   3.170   5.032   2.297  1.5746 -1.7466  0.6958
 1631TIP3    H2 4858   3.261   5.130   2.367  0.5310 -0.1916 -0.0540
 1632TIP3   OH2 4859   4.689   4.394   5.779 -0.7131  0.1269 -0.5031
 1632TIP3    H1 4860   4.655   4.305   5.793 -0.0946 -0.1859 -0.9284
 1632TIP3    H2 4861   4.625   4.435   5.722 -0.1677 -0.6183 -1.6949
 1633TIP3   OH2 4862   6.503   6.034   4.948  0.4510  0.2040 -0.2045
 1633TIP3    H1 4863   6.468   5.945   4.953  0.9626 -0.0202 -0.5069
 1633TIP3    H2 4864   6.473   6.076   5.028  0.3587 -0.3008  0.0289
 1634TIP3   OH2 4865   1.412   3.171   4.442  0.1118 -0.0259  0.2922
 1634TIP3    H1 4866   1.503   3.183   4.415 -0.3709  1.8424 -0.6415
 1634TIP3    H2 4867   1.381   3.100   4.387  1.0265 -0.8008  0.7336
 1635TIP3   OH2 4868   5.455   1.370   0.876  0.2819  0.1081 -0.3108
 1635TIP3    H1 4869   5.424   1.358   0.966  0.4340  1.5467 -0.0360
 1635TIP3    H2 4870   5.547   1.345   0.878  0.2957  0.1781 -0.0504
 1636TIP3   OH2 4871   5.026   2.980   3.308  0.1429 -0.0297  0.1855
 1636TIP3    H1 4872   5.083   2.904   3.322 -0.4134 -0.8469 -1.7544
 1636TIP3    H2 4873   5.048   3.012   3.221 -1.7094  0.2029 -0.2407
 1637TIP3   OH2 4874   3.656   4.810   5.389  0.2865  0.4949 -0.1465
 1637TIP3    H1 4875   3.584   4.845   5.337  0.5060  0.1366 -0.7112
 1637TIP3    H2 4876   3.701   4.887   5.424 -0.5227  0.7125  0.4255
 1638TIP3   OH2 4877   6.784   2.398   5.170 -0.0493  0.6949 -0.0082
 1638TIP3    H1 4878   6.704   2.345   5.166  0.4741 -0.0640 -0.9387
 1638TIP3    H2 4879   6.762   2.477   5.121 -0.2140  0.4582 -0.3252
 1639TIP3   OH2 4880   3.829   2.996   3.725  0.3174 -0.3283 -0.1005
 1639TIP3    H1 4881   3.746   3.016   3.768 -0.0871  1.4197 -1.5733
 1639TIP3    H2 4882   3.896   3.037   3.780 -0.0458  0.4884 -0.2583
 1640TIP3   OH2 4883   3.148   4.836   0.988  0.0987  0.4041 -0.6884
 1640TIP3    H1 4884   3.159   4.774   1.060 -0.4460  0.6059 -0.4266
 1640TIP3    H2 4885   3.080   4.796   0.933  0.0185  0.5866 -0.7218
 1641TIP3   OH2 4886   2.983   1.567   2.054 -0.0669 -0.3357 -0.0156
 1641TIP3    H1 4887   3.018   1.479   2.040 -1.2930 -0.9823  0.7136
 1641TIP3    H2 4888   2.967   1.601   1.966  0.3387 -0.8875 -0.3086
 1642TIP3   OH2 4889   5.769   4.935   4.429 -0.0375  0.1706 -0.2583
 1642TIP3    H1 4890   5.695   4.996   4.421 -0.2080 -0.0613 -0.4625
 1642TIP3    H2 4891   5.775   4.917   4.523 -1.6218 -1.4868 -0.4065
 1643TIP3   OH2 4892   7.020   5.538   1.640 -0.5098  1.0744  0.4893
 1643TIP3    H1 4893   7.059   5.451   1.641 -0.6868  0.9776 -0.2308
 1643TIP3    H2 4894   7.082   5.591   1.589 -0.9842  1.0762 -0.1005
 1644TIP3   OH2 4895   6.043   4.314   5.078  0.0422  0.4437  0.1320
 1644TIP3    H1 4896   6.120   4.264   5.104 -0.2383 -0.5118 -0.8072
 1644TIP3    H2 4897   6.025   4.286   4.988  0.5088  3.0226 -0.8749
 1645TIP3   OH2 4898   2.779   3.883   0.542  0.1134  0.6700  0.5628
 1645TIP3    H1 4899   2.832   3.959   0.565  1.5769  0.0519 -0.6014
 1645TIP3    H2 4900   2.729   3.864   0.621 -0.5259  3.0035  0.7900
 1646TIP3   OH2 4901   1.805   5.857   4.740 -0.1010  0.3981 -0.0969
 1646TIP3    H1 4902   1.798   5.775   4.789  0.6166  1.4710  1.9263
 1646TIP3    H2 4903   1.896   5.885   4.754  0.0027  1.0023 -1.7090
 1647TIP3   OH2 4904   4.969   3.707   5.215 -0.0836  0.1471  0.8012
 1647TIP3    H1 4905   5.054   3.741   5.186 -0.5118  1.0116  0.5180
 1647TIP3    H2 4906   4.938   3.771   5.279 -1.1176  0.5588 -0.0846
 1648TIP3   OH2 4907   1.688   0.682   0.085 -0.3812 -0.0688  0.5957
 1648TIP3    H1 4908   1.630   0.754   0.058  0.8187 -0.0433 -2.1663
 1648TIP3    H2 4909   1.631   0.623   0.134 -2.4026  0.7003 -0.7085
 1649TIP3   OH2 4910   1.567   3.333   5.717 -0.2107 -0.0855 -0.7117
 1649TIP3    H1 4911   1.546   3.274   5.789  0.7371  0.7253  0.2622
 1649TIP3    H2 4912   1.548   3.282   5.638  1.5447 -2.1060  0.0734
 1650TIP3   OH2 4913   6.024   6.294   1.151  0.6771  0.7634 -0.0597
 1650TIP3    H1 4914   5.959   6.225   1.152  1.6791 -0.2085 -0.1702
 1650TIP3    H2 4915   6.001   6.349   1.226 -0.0763  0.2651  0.0884
 1651TIP3   OH2 4916   2.258   2.409   4.823 -0.1367 -0.0519  0.4919
 1651TIP3    H1 4917   2.337   2.432   4.774  0.6173 -2.0095  0.6684
 1651TIP3    H2 4918   2.256   2.471   4.896  2.4852 -1.1882  1.7041
 1652TIP3   OH2 4919   2.432   1.029   5.269  0.1763 -0.1829 -0.1216
 1652TIP3    H1 4920   2.396   1.029   5.358 -0.0664 -0.5543 -0.2210
 1652TIP3    H2 4921   2.459   1.119   5.255  0.2818 -0.1330  0.3589
 1653TIP3   OH2 4922   6.776   0.989   2.406  0.0147 -0.0257  0.2171
 1653TIP3    H1 4923   6.804   0.900   2.431 -3.2235 -1.1846  0.1687
 1653TIP3    H2 4924   6.683   0.993   2.429 -0.8129  2.1998 -2.7732
 1654TIP3   OH2 4925   0.810   1.971   0.637 -0.0047 -0.1215  0.4263
 1654TIP3    H1 4926   0.823   2.062   0.612 -0.8750  0.3021  1.4653
 1654TIP3    H2 4927   0.896   1.942   0.668 -0.0202  0.7392  1.3140
 1655TIP3   OH2 4928   6.110   1.330   1.855  0.1363  0.2346  0.0126
 1655TIP3    H1 4929   6.186   1.289   1.897  0.7744  0.7884 -0.5673
 1655TIP3    H2 4930   6.142   1.416   1.827 -0.7802  0.5779 -0.0189
 1656TIP3   OH2 4931   6.026   6.585   3.770 -0.0920 -1.0439  0.4119
 1656TIP3    H1 4932   5.973   6.515   3.809 -1.2346 -0.2416  0.3409
 1656TIP3    H2 4933   6.086   6.612   3.840 -0.7159 -1.0264  0.9465
 1657TIP3   OH2 4934   4.355   1.029   1.442 -0.0491 -0.0028 -0.1264
 1657TIP3    H1 4935   4.366   1.111   1.491 -0.7630 -0.5470  1.0000
 1657TIP3    H2 4936   4.279   1.045   1.386 -1.5562 -0.5439  1.6482
 1658TIP3   OH2 4937   1.697   2.169   0.677  0.0438 -0.0286 -0.4407
 1658TIP3    H1 4938   1.765   2.140   0.616  0.6347 -1.7446  0.9164
 1658TIP3    H2 4939   1.664   2.087   0.716 -2.9122  0.7469 -1.1294
 1659TIP3   OH2 4940   4.826   2.924   5.240 -0.1738  0.1202 -0.1691
 1659TIP3    H1 4941   4.759   2.950   5.303  1.3098  1.1796  1.0124
 1659TIP3    H2 4942   4.863   3.007   5.209  0.8264 -0.4568 -0.5499
 1660TIP3   OH2 4943   2.336   3.977   2.991 -0.3693  0.3971  0.2966
 1660TIP3    H1 4944   2.261   3.925   2.962  1.5815 -3.5399  1.4578
 1660TIP3    H2 4945   2.389   3.988   2.911 -0.5513  0.0586  0.1248
 1661TIP3   OH2 4946   4.993   3.422   1.174 -0.0414  0.5597  0.6749
 1661TIP3    H1 4947   5.073   3.473   1.185 -0.2622  0.6098  2.4351
 1661TIP3    H2 4948   4.933   3.458   1.240 -1.4816  0.4326 -0.5031
 1662TIP3   OH2 4949   6.436   1.047   5.029 -0.0371  0.2162 -0.3768
 1662TIP3    H1 4950   6.360   1.072   5.082 -0.8938  0.3320 -1.6089
 1662TIP3    H2 4951   6.512   1.075   5.081 -0.8270  0.2409  0.8115
 1663TIP3   OH2 4952   4.822   2.435   4.899 -0.1801 -0.0628  0.5316
 1663TIP3    H1 4953   4.772   2.454   4.819 -0.2147 -0.2491  0.5085
 1663TIP3    H2 4954   4.769   2.470   4.970 -0.3845 -0.3369  0.5145
 1664TIP3   OH2 4955   0.787   2.249   1.682 -0.6612 -0.4579 -0.3358
 1664TIP3    H1 4956   0.699   2.246   1.720 -0.2922 -0.8768  0.5276
 1664TIP3    H2 4957   0.831   2.319   1.731 -0.2008 -0.9557 -0.0170
 1665TIP3   OH2 4958   6.636   1.139   1.843 -0.5048  0.2209 -0.2350
 1665TIP3    H1 4959   6.593   1.224   1.853 -1.2451 -0.1409 -0.2818
 1665TIP3    H2 4960   6.718   1.148   1.892 -1.0829  0.5973  0.7000
 1666TIP3   OH2 4961   1.331   2.207   1.204  0.3793  0.0923 -0.0061
 1666TIP3    H1 4962   1.380   2.273   1.252  2.4456 -1.7878  0.6313
 1666TIP3    H2 4963   1.306   2.142   1.270 -1.4855  0.1031 -0.6262
 1667TIP3   OH2 4964   2.228   0.030   1.258 -0.2678  0.1765  0.2697
 1667TIP3    H1 4965   2.227   0.125   1.267 -0.6296  0.2036 -0.0105
 1667TIP3    H2 4966   2.300   0.001   1.313 -1.7215  0.3955  2.4297
 1668TIP3   OH2 4967   6.076   0.766   0.160 -0.5012  0.2263  0.2720
 1668TIP3    H1 4968   6.138   0.722   0.103 -2.0470 -0.3964 -0.9906
 1668TIP3    H2 4969   6.002   0.706   0.167 -1.0359  0.9904  1.6364
 1669TIP3   OH2 4970   4.448   4.066   5.864 -0.1268  0.2917  0.4492
 1669TIP3    H1 4971   4.455   4.091   5.772 -1.6141 -0.7742  0.0160
 1669TIP3    H2 4972   4.534   4.084   5.900  1.9750 -3.2975 -2.1490
 1670TIP3   OH2 4973   1.754   5.663   3.785 -0.6937 -0.1567 -0.0984
 1670TIP3    H1 4974   1.796   5.713   3.715 -1.2150 -0.1716 -0.4308
 1670TIP3    H2 4975   1.726   5.581   3.743 -0.5999 -0.3651  0.2399
 1671TIP3   OH2 4976   5.166   6.185   4.695  0.3125 -0.0861 -0.2784
 1671TIP3    H1 4977   5.233   6.235   4.649  1.1538 -1.1148 -0.2227
 1671TIP3    H2 4978   5.158   6.104   4.643 -2.5643  0.9395 -1.6091
 1672TIP3   OH2 4979   2.288   0.299   1.340  0.3307  0.0654 -0.0255
 1672TIP3    H1 4980   2.381   0.283   1.322 -0.1234 -0.7932 -1.7532
 1672TIP3    H2 4981   2.277   0.393   1.328  0.9051  0.1197 -0.1539
 1673TIP3   OH2 4982   0.026   5.717   3.039 -0.2289 -0.1983  0.0130
 1673TIP3    H1 4983   0.028   5.812   3.026  0.7584 -0.0918  0.8557
 1673TIP3    H2 4984   0.050   5.681   2.954 -0.3247  0.3110 -0.2356
 1674TIP3   OH2 4985   1.625   5.086   5.165 -0.0871  0.0352  0.2233
 1674TIP3    H1 4986   1.700   5.140   5.188 -0.0397 -0.2613  0.7545
 1674TIP3    H2 4987   1.590   5.128   5.085 -1.4675  2.3082  1.8814
 1675TIP3   OH2 4988   5.395   1.311   1.160  0.1501  0.6503 -0.1866
 1675TIP3    H1 4989   5.420   1.236   1.215 -0.5547  0.9380  0.5311
 1675TIP3    H2 4990   5.301   1.300   1.146  0.2537  0.7735 -1.0628
 1676TIP3   OH2 4991   7.047   0.415   3.952  0.0554 -0.6886 -0.4057
 1676TIP3    H1 4992   6.968   0.365   3.932 -0.8903  1.0018 -1.0529
 1676TIP3    H2 4993   7.073   0.453   3.869  3.0636 -3.1496 -0.7824
 1677TIP3   OH2 4994   2.135   0.643   0.375 -0.5035  0.4357 -0.0960
 1677TIP3    H1 4995   2.159   0.551   0.366 -0.0850  0.5234  0.0806
 1677TIP3    H2 4996   2.215   0.691   0.353 -0.4092  0.7314  0.8081
 1678TIP3   OH2 4997   1.766   6.670   2.566  0.6384  0.2321  0.4465
 1678TIP3    H1 4998   1.675   6.652   2.590  0.7835  0.1023  0.9030
 1678TIP3    H2 4999   1.789   6.601   2.504  0.5163  0.0941  0.5540
 1679TIP3   OH2 5000   1.836   4.491   1.294  0.1211 -0.3552 -0.6000
 1679TIP3    H1 5001   1.792   4.573   1.317 -0.2794  0.0943 -2.7859
 1679TIP3    H2 5002   1.776   4.423   1.324 -0.1186  0.1549  0.1176
 1680TIP3   OH2 5003   1.750   5.831   0.115 -0.3589 -0.1537 -0.4216
 1680TIP3    H1 5004   1.758   5.776   0.192 -0.9259  0.8827  0.4073
 1680TIP3    H2 5005   1.840   5.842   0.083  0.2627  1.5898  1.6941
 1681TIP3   OH2 5006   2.639   3.774   3.111 -0.3711  0.1074 -0.1389
 1681TIP3    H1 5007   2.680   3.831   3.176  0.6709  0.1996 -0.8668
 1681TIP3    H2 5008   2.650   3.819   3.028  2.1707 -1.9067 -1.0507
 1682TIP3   OH2 5009   0.258   4.247   1.891 -0.0217 -0.1559  0.1078
 1682TIP3    H1 5010   0.321   4.190   1.936  2.6343  3.1485  0.9857
 1682TIP3    H2 5011   0.297   4.261   1.805 -0.2416  0.9001  0.1778
 1683TIP3   OH2 5012   2.028   2.381   2.876  0.1492 -0.1581 -0.4873
 1683TIP3    H1 5013   2.103   2.322   2.871 -0.6983 -1.2131 -1.6237
 1683TIP3    H2 5014   2.066   2.469   2.875  1.3463 -0.6382 -2.4188
 1684TIP3   OH2 5015   2.539   4.711   5.565  0.5838 -0.2760 -0.4997
 1684TIP3    H1 5016   2.589   4.793   5.562  1.4310 -0.7447  0.2434
 1684TIP3    H2 5017   2.596   4.650   5.612 -1.7945 -0.0241  3.1531
 1685TIP3   OH2 5018   5.103   3.591   2.714 -0.7308 -0.6242  0.7916
 1685TIP3    H1 5019   5.158   3.584   2.636 -0.7196 -0.5392  0.7920
 1685TIP3    H2 5020   5.027   3.642   2.685 -0.8483 -0.8086  0.7699
 1686TIP3   OH2 5021   6.871   3.348   3.168 -1.0453  0.8293  0.2362
 1686TIP3    H1 5022   6.846   3.423   3.114  0.9728  0.7133 -0.9578
 1686TIP3    H2 5023   6.823   3.360   3.250 -2.4290  2.2405 -0.7201
 1687TIP3   OH2 5024   1.804   6.512   1.746  0.3112  0.1646  0.0567
 1687TIP3    H1 5025   1.873   6.483   1.805 -0.1315 -0.9152  0.0543
 1687TIP3    H2 5026   1.760   6.432   1.718 -0.5026  0.7833 -0.4889
 1688TIP3   OH2 5027   1.727   5.355   4.131  0.5380  1.1707  0.3497
 1688TIP3    H1 5028   1.644   5.342   4.086  0.6791  1.3498  0.0370
 1688TIP3    H2 5029   1.704   5.355   4.224  0.1505  1.4864  0.2560
 1689TIP3   OH2 5030   0.448   3.099   2.429  0.1137  0.1117 -0.4063
 1689TIP3    H1 5031   0.505   3.162   2.473 -2.7920  1.3599  1.9301
 1689TIP3    H2 5032   0.468   3.015   2.471  0.4132  0.4724  0.1905
 1690TIP3   OH2 5033   0.938   5.359   3.436  0.3473  0.2868 -0.0482
 1690TIP3    H1 5034   0.971   5.447   3.453  1.2433  0.3123 -1.7435
 1690TIP3    H2 5035   0.924   5.357   3.342 -2.7893 -0.3492  0.3407
 1691TIP3   OH2 5036   4.529   3.033   2.090  0.0287 -0.3217  0.3036
 1691TIP3    H1 5037   4.540   2.942   2.066 -0.2745  0.1348 -1.7384
 1691TIP3    H2 5038   4.438   3.053   2.070  0.0834  0.4404  0.7513
 1692TIP3   OH2 5039   6.109   1.012   5.051  0.8366  0.0044 -0.1047
 1692TIP3    H1 5040   6.045   1.029   5.121  0.2576  0.3569 -0.6989
 1692TIP3    H2 5041   6.124   1.098   5.011 -0.7647 -0.5029 -2.0159
 1693TIP3   OH2 5042   4.476   0.373   3.397 -0.6869  0.0443  0.0676
 1693TIP3    H1 5043   4.485   0.395   3.304 -0.7642 -0.6007 -0.0937
 1693TIP3    H2 5044   4.395   0.417   3.423 -1.1938 -0.5879 -0.4202
 1694TIP3   OH2 5045   2.341   4.744   0.917 -0.0563  0.0576  0.5517
 1694TIP3    H1 5046   2.429   4.780   0.912  0.0505 -0.1770  0.7091
 1694TIP3    H2 5047   2.295   4.802   0.979 -0.7931  1.7545 -1.4787
 1695TIP3   OH2 5048   2.283   4.337   1.317 -0.2420 -0.6852 -0.0446
 1695TIP3    H1 5049   2.316   4.254   1.350  1.0739  0.2968  1.2417
 1695TIP3    H2 5050   2.209   4.313   1.261  1.2622 -2.8255 -1.2588
 1696TIP3   OH2 5051   2.100   4.451   2.005  0.4485 -0.4230  0.7735
 1696TIP3    H1 5052   2.038   4.514   2.043 -0.3769 -0.9164  0.2957
 1696TIP3    H2 5053   2.143   4.500   1.935 -1.1111 -0.7067 -0.4499
 1697TIP3   OH2 5054   1.963   0.450   3.724 -0.0945 -0.0674 -0.2708
 1697TIP3    H1 5055   1.975   0.538   3.691 -0.8222  0.1776  0.0967
 1697TIP3    H2 5056   1.969   0.394   3.647  1.4619  0.1905 -0.3629
 1698TIP3   OH2 5057   0.885   4.177   4.483 -1.3602  0.0040 -0.0223
 1698TIP3    H1 5058   0.968   4.218   4.508 -1.1678 -0.9531  1.0063
 1698TIP3    H2 5059   0.907   4.124   4.406 -1.0522 -0.0802  0.1194
 1699TIP3   OH2 5060   0.137   1.714   2.198  0.5809 -0.1772 -0.5429
 1699TIP3    H1 5061   0.138   1.762   2.115 -0.6153  1.1050  0.1554
 1699TIP3    H2 5062   0.183   1.771   2.259 -0.9204  0.1547  0.3198
 1700TIP3   OH2 5063   7.031   4.749   5.813 -0.1827 -0.9320  0.1974
 1700TIP3    H1 5064   7.006   4.842   5.810  0.7913 -0.6845 -1.0346
 1700TIP3    H2 5065   6.952   4.705   5.843 -1.6153  0.0201 -1.8795
 1701TIP3   OH2 5066   4.396   4.640   0.084  0.2341  0.1688 -0.4137
 1701TIP3    H1 5067   4.358   4.726   0.065 -1.9088 -0.5141  0.5093
 1701TIP3    H2 5068   4.355   4.613   0.167  3.5599 -0.2180  1.2744
 1702TIP3   OH2 5069   3.287   1.317   4.793  0.6070  0.3053  0.8972
 1702TIP3    H1 5070   3.359   1.261   4.823  0.1678 -0.4452  0.5905
 1702TIP3    H2 5071   3.235   1.260   4.737  0.9046  1.4031 -0.5786
 1703TIP3   OH2 5072   4.775   0.331   1.883 -0.1411 -0.1162 -0.4199
 1703TIP3    H1 5073   4.797   0.413   1.838 -0.5773  0.9777  1.2853
 1703TIP3    H2 5074   4.727   0.358   1.961  0.3048 -1.9730  0.5572
 1704TIP3   OH2 5075   6.106   5.334   5.247 -0.1159 -0.4264  0.0403
 1704TIP3    H1 5076   6.045   5.402   5.219 -0.2117 -1.2591 -1.9491
 1704TIP3    H2 5077   6.177   5.381   5.291 -1.9206  0.6010  2.0618
 1705TIP3   OH2 5078   4.804   4.088   0.233  0.4207 -0.0282  0.3411
 1705TIP3    H1 5079   4.723   4.060   0.275  0.6590 -2.1196 -0.4742
 1705TIP3    H2 5080   4.872   4.068   0.297  0.4803 -0.2840  0.2018
 1706TIP3   OH2 5081   5.942   2.137   5.475 -0.0590 -0.1010 -0.0509
 1706TIP3    H1 5082   5.920   2.230   5.478  4.8309  1.3642 -1.0679
 1706TIP3    H2 5083   5.953   2.112   5.567  0.5052  0.9607  0.1921
 1707TIP3   OH2 5084   1.380   2.110   4.481  0.3094  0.0471  0.0420
 1707TIP3    H1 5085   1.442   2.094   4.410  1.0264  2.0000  0.1525
 1707TIP3    H2 5086   1.318   2.174   4.445  0.2329  0.4863  0.9149
 1708TIP3   OH2 5087   3.644   4.865   2.868 -0.4239  0.0483  0.2307
 1708TIP3    H1 5088   3.640   4.783   2.916  0.7412 -0.8379 -1.1137
 1708TIP3    H2 5089   3.599   4.847   2.785 -0.6933  0.9451  0.1726
 1709TIP3   OH2 5090   4.580   3.532   1.078 -0.2278 -0.3075 -0.0926
 1709TIP3    H1 5091   4.488   3.538   1.105 -0.9463 -0.3688 -2.3094
 1709TIP3    H2 5092   4.606   3.443   1.102 -1.1489 -0.7133 -0.5440
 1710TIP3   OH2 5093   0.024   4.727   2.726 -0.0510 -0.1323  0.4417
 1710TIP3    H1 5094   0.066   4.654   2.773 -0.8047 -0.5427  0.4873
 1710TIP3    H2 5095  -0.045   4.757   2.785  0.0757  0.4454  0.3011
 1711TIP3   OH2 5096   2.781   1.335   0.148 -0.3449  0.2623 -0.1880
 1711TIP3    H1 5097   2.855   1.395   0.156 -0.3554  0.3369 -0.6060
 1711TIP3    H2 5098   2.781   1.286   0.230  0.4015  0.0017 -0.3313
 1712TIP3   OH2 5099   0.528   0.987   2.768 -0.0037 -0.1008 -0.1211
 1712TIP3    H1 5100   0.566   0.963   2.852 -0.0391  0.0305 -0.0678
 1712TIP3    H2 5101   0.602   0.986   2.707 -0.1108 -0.9708 -0.2536
 1713TIP3   OH2 5102   5.997   1.651   3.227 -0.3537 -0.2971  0.1136
 1713TIP3    H1 5103   5.952   1.596   3.163  1.3834 -0.4671 -1.0262
 1713TIP3    H2 5104   5.958   1.738   3.216  0.7678 -0.0152 -2.1417
 1714TIP3   OH2 5105   0.300   0.574   1.114  1.0537  0.5152 -0.1383
 1714TIP3    H1 5106   0.282   0.485   1.146  0.6442 -0.1502 -2.0492
 1714TIP3    H2 5107   0.325   0.561   1.022  0.1538  2.4350 -0.6978
 1715TIP3   OH2 5108   6.355   5.394   4.894 -0.5797 -0.0394  0.3154
 1715TIP3    H1 5109   6.338   5.473   4.945 -1.5930  0.0704 -0.1640
 1715TIP3    H2 5110   6.450   5.386   4.893 -0.4470  1.3431  0.1208
 1716TIP3   OH2 5111   4.654   1.166   4.224 -0.2908  0.0247 -0.0362
 1716TIP3    H1 5112   4.617   1.085   4.187  0.7690 -0.4590 -0.0820
 1716TIP3    H2 5113   4.579   1.225   4.233 -1.3573 -1.4488  1.3126
 1717TIP3   OH2 5114   0.619   0.347   3.418 -0.0153 -0.2260  0.2252
 1717TIP3    H1 5115   0.623   0.304   3.503  0.2587 -0.1825  0.2341
 1717TIP3    H2 5116   0.624   0.276   3.354  2.5584 -0.0977  0.2003
 1718TIP3   OH2 5117   2.198   5.273   1.017 -0.1650  0.0447 -0.1285
 1718TIP3    H1 5118   2.219   5.320   0.935  2.0741  1.4913  1.1580
 1718TIP3    H2 5119   2.114   5.310   1.044 -0.3293  0.4630 -1.1335
 1719TIP3   OH2 5120   2.155   3.635   4.968  0.1557 -0.2564 -0.0814
 1719TIP3    H1 5121   2.199   3.720   4.972  0.4854 -0.4683  0.8889
 1719TIP3    H2 5122   2.062   3.656   4.977  0.1492  0.0782 -0.8269
 1720TIP3   OH2 5123   5.119   3.687   5.660  0.3601 -0.6950  0.2423
 1720TIP3    H1 5124   5.032   3.646   5.656 -0.1162  0.2704  0.3431
 1720TIP3    H2 5125   5.177   3.624   5.617 -0.9378  0.0449 -2.8755
 1721TIP3   OH2 5126   3.314   0.267   0.241  0.5556  0.4622 -0.2810
 1721TIP3    H1 5127   3.239   0.288   0.185 -0.3021  0.0073  0.6595
 1721TIP3    H2 5128   3.283   0.195   0.295  1.5028  0.6183  0.4821
 1722TIP3   OH2 5129   7.188   4.770   2.456 -1.0899 -0.3064 -0.1703
 1722TIP3    H1 5130   7.095   4.791   2.448 -0.7468  1.6389  0.5418
 1722TIP3    H2 5131   7.210   4.790   2.547  1.0367  4.0397 -1.3759
 1723TIP3   OH2 5132   5.976   6.248   5.072  0.2035  0.2476 -0.3606
 1723TIP3    H1 5133   5.988   6.329   5.021  0.7092  2.8253  3.4524
 1723TIP3    H2 5134   6.045   6.189   5.039  3.6078  3.4706  0.3000
 1724TIP3   OH2 5135   1.752   4.120   3.242  0.1072 -0.5461 -0.2396
 1724TIP3    H1 5136   1.742   4.112   3.337 -0.3102 -0.5714 -0.2805
 1724TIP3    H2 5137   1.711   4.041   3.207 -1.6811  0.4510 -0.5287
 1725TIP3   OH2 5138   4.436   4.906   3.661 -0.3215  0.5656  0.3723
 1725TIP3    H1 5139   4.520   4.898   3.615 -0.4577 -2.6681  0.4786
 1725TIP3    H2 5140   4.450   4.977   3.724  1.8546  1.0315 -0.5389
 1726TIP3   OH2 5141   6.912   5.232   5.297  0.4439  0.5537  0.7983
 1726TIP3    H1 5142   6.934   5.145   5.331 -0.4379 -0.4421 -1.0211
 1726TIP3    H2 5143   6.984   5.288   5.325  1.4532 -0.9472  1.3307
 1727TIP3   OH2 5144   4.666   6.594   4.889 -0.7733  0.4750 -0.7647
 1727TIP3    H1 5145   4.585   6.595   4.941  0.0142  1.9630  0.5133
 1727TIP3    H2 5146   4.660   6.673   4.835  0.3954  1.3199  0.3032
 1728TIP3   OH2 5147   6.604   3.536   1.421  0.3043  0.4297  0.2643
 1728TIP3    H1 5148   6.597   3.588   1.341 -1.2414 -1.2768 -0.7927
 1728TIP3    H2 5149   6.519   3.494   1.431  1.7374 -2.7819  0.3498
 1729TIP3   OH2 5150   2.508   2.288   1.790  0.1699 -0.4421  0.3034
 1729TIP3    H1 5151   2.583   2.257   1.739  0.3401 -1.8284  1.3648
 1729TIP3    H2 5152   2.547   2.336   1.863  0.0682 -1.6071  1.1435
 1730TIP3   OH2 5153   6.641   5.240   2.541  0.6001  0.2638 -0.1625
 1730TIP3    H1 5154   6.705   5.194   2.595  0.2647  0.0925  0.0888
 1730TIP3    H2 5155   6.683   5.247   2.455  1.0267  0.3052  0.0446
 1731TIP3   OH2 5156   6.722   2.271   3.201  0.5064  0.5536  0.0878
 1731TIP3    H1 5157   6.657   2.337   3.175  0.5135  1.2061  1.5865
 1731TIP3    H2 5158   6.806   2.311   3.182  0.6192 -1.1763 -4.0104
 1732TIP3   OH2 5159   6.048   1.012   0.007  0.1246 -0.3916  0.0167
 1732TIP3    H1 5160   6.118   0.977  -0.047  1.7885  1.3554  0.9301
 1732TIP3    H2 5161   6.047   0.956   0.084  0.9840 -0.0235  0.3012
 1733TIP3   OH2 5162   6.939   6.484   4.397  0.3235  0.0484  0.4229
 1733TIP3    H1 5163   6.946   6.553   4.463  1.1069  0.7104 -0.3376
 1733TIP3    H2 5164   6.955   6.528   4.314  0.1612 -0.9329 -0.1451
 1734TIP3   OH2 5165   3.091   3.526   0.872  0.5133 -0.2464  0.0103
 1734TIP3    H1 5166   3.135   3.601   0.833  1.2841 -0.2517  0.8388
 1734TIP3    H2 5167   3.031   3.495   0.804  3.3876 -1.6692 -2.1062
 1735TIP3   OH2 5168   2.830   2.621   3.661  0.4515 -0.6311  0.5249
 1735TIP3    H1 5169   2.867   2.542   3.701  1.0815 -0.0786  1.0709
 1735TIP3    H2 5170   2.828   2.685   3.733 -1.9013 -0.7122  0.6262
 1736TIP3   OH2 5171   0.375   2.743   2.183  0.8553 -0.6635  0.6712
 1736TIP3    H1 5172   0.384   2.724   2.277 -0.4285  1.5461  1.3143
 1736TIP3    H2 5173   0.464   2.758   2.153  1.1813 -0.0413  1.8874
 1737TIP3   OH2 5174   6.267   3.191   4.885 -0.2818 -0.0380 -0.0157
 1737TIP3    H1 5175   6.314   3.273   4.892 -0.4237  0.1355 -0.9290
 1737TIP3    H2 5176   6.179   3.211   4.918 -1.3335  1.0956 -3.1249
 1738TIP3   OH2 5177   4.143   3.538   2.119  0.6776  0.3366 -0.4558
 1738TIP3    H1 5178   4.084   3.561   2.191  0.6817  0.8657 -0.6177
 1738TIP3    H2 5179   4.229   3.565   2.148  0.3656  2.7527 -1.5818
 1739TIP3   OH2 5180   1.922   3.906   5.300 -0.6553  0.3528  0.0181
 1739TIP3    H1 5181   1.951   3.990   5.263  1.0186 -0.0864  0.2161
 1739TIP3    H2 5182   1.869   3.929   5.376 -0.6561  1.2394 -0.2455
 1740TIP3   OH2 5183   2.919   6.511   2.329 -0.2595 -0.3594 -0.4143
 1740TIP3    H1 5184   2.898   6.425   2.363 -0.1753  0.3187  1.4763
 1740TIP3    H2 5185   3.014   6.510   2.318 -0.1116 -0.1433  0.7450
 1741TIP3   OH2 5186   6.204   5.645   0.351 -0.1315  0.3092  0.6754
 1741TIP3    H1 5187   6.276   5.687   0.399 -0.0807 -0.2923  1.1407
 1741TIP3    H2 5188   6.135   5.633   0.416  1.1801 -3.6507  1.6290
 1742TIP3   OH2 5189   2.650   5.491   1.622  0.3187 -0.0063  0.6323
 1742TIP3    H1 5190   2.556   5.504   1.618 -0.1476 -2.6760  0.6097
 1742TIP3    H2 5191   2.663   5.401   1.590  2.8242  0.1322  1.0307
 1743TIP3   OH2 5192   0.738   5.399   2.749 -0.0321 -0.1358 -0.0605
 1743TIP3    H1 5193   0.734   5.441   2.835  1.2041 -2.6988  1.3800
 1743TIP3    H2 5194   0.648   5.397   2.719 -0.8136 -0.9886  2.1521
 1744TIP3   OH2 5195   5.384   4.888   5.330 -0.1225  0.0016  0.1701
 1744TIP3    H1 5196   5.370   4.945   5.255 -1.9451  0.0594  0.4902
 1744TIP3    H2 5197   5.348   4.803   5.302 -1.2049  0.1340  1.0731
 1745TIP3   OH2 5198   4.062   3.393   0.622  0.1943  0.5495  0.6241
 1745TIP3    H1 5199   4.137   3.368   0.675  0.8010  1.2696  0.1298
 1745TIP3    H2 5200   3.986   3.378   0.678  0.4356 -2.7393  0.2621
 1746TIP3   OH2 5201   3.239   5.855   2.977 -0.1681 -0.4830 -0.1262
 1746TIP3    H1 5202   3.236   5.793   3.050  2.1329 -0.2002  0.3128
 1746TIP3    H2 5203   3.220   5.802   2.899 -0.5069 -1.2451  0.4611
 1747TIP3   OH2 5204   6.542   4.402   1.986  0.3122  0.2046  0.7457
 1747TIP3    H1 5205   6.588   4.320   1.968 -0.9830 -0.5267  0.6266
 1747TIP3    H2 5206   6.559   4.420   2.078  0.3520 -0.3578  0.8470
 1748TIP3   OH2 5207   6.606   1.379   0.477 -0.2949 -0.2935  0.5070
 1748TIP3    H1 5208   6.658   1.415   0.405 -1.4590  0.5805  0.0770
 1748TIP3    H2 5209   6.619   1.442   0.549  0.0670 -0.6358  0.7477
 1749TIP3   OH2 5210   6.562   3.629   5.373 -0.1172 -0.4220 -0.1061
 1749TIP3    H1 5211   6.612   3.643   5.293  0.1395  0.2507  0.1641
 1749TIP3    H2 5212   6.602   3.551   5.412 -0.4566 -0.9474 -0.7869
 1750TIP3   OH2 5213   3.292   1.667   4.774  0.3576 -0.0357 -0.5553
 1750TIP3    H1 5214   3.300   1.751   4.820  2.5638  0.1093 -1.0855
 1750TIP3    H2 5215   3.324   1.602   4.837 -1.4329 -0.5416 -0.1127
 1751TIP3   OH2 5216   2.249   6.403   5.406 -0.2286 -0.2163  0.3201
 1751TIP3    H1 5217   2.162   6.392   5.446 -0.7525 -2.2092 -1.1897
 1751TIP3    H2 5218   2.244   6.487   5.361  0.0342  1.5813  3.4174
 1752TIP3   OH2 5219   0.079   5.999   1.412 -0.1266  0.1655 -0.2444
 1752TIP3    H1 5220   0.117   6.083   1.437 -0.0896 -0.4467  2.0608
 1752TIP3    H2 5221   0.006   5.988   1.473  0.5094 -1.8997  0.2318
 1753TIP3   OH2 5222   5.388   5.159   2.537  0.0111 -0.3895  0.5945
 1753TIP3    H1 5223   5.471   5.205   2.546 -0.5791  1.1798 -1.2491
 1753TIP3    H2 5224   5.331   5.221   2.490 -1.5651 -2.1544  0.0385
 1754TIP3   OH2 5225   4.784   2.067   0.254  0.9596  0.3255 -0.2975
 1754TIP3    H1 5226   4.830   2.083   0.171 -0.6116 -0.9375 -1.4720
 1754TIP3    H2 5227   4.832   1.995   0.294 -0.1814 -1.2962 -1.7335
 1755TIP3   OH2 5228   3.608   3.003   3.904 -0.0629  0.2931 -0.4378
 1755TIP3    H1 5229   3.524   3.010   3.951 -0.0584  1.5204 -0.5929
 1755TIP3    H2 5230   3.601   2.920   3.857 -0.8715 -0.0079  0.1645
 1756TIP3   OH2 5231   6.349   2.384   2.175 -0.3709  1.0109  0.2191
 1756TIP3    H1 5232   6.360   2.345   2.088  0.3729 -0.3025  0.8719
 1756TIP3    H2 5233   6.392   2.322   2.235 -0.1789  2.2726  1.4378
 1757TIP3   OH2 5234   5.654   5.981   1.159 -0.2361 -0.2784 -0.0694
 1757TIP3    H1 5235   5.614   5.983   1.245  0.7887  1.0476  0.4076
 1757TIP3    H2 5236   5.594   5.928   1.106 -0.4493 -1.8617  1.6391
 1758TIP3   OH2 5237   5.375   3.729   0.682  0.2268  0.6332 -0.2073
 1758TIP3    H1 5238   5.442   3.767   0.739  1.3461  0.0613 -1.1056
 1758TIP3    H2 5239   5.418   3.655   0.640 -1.0809  0.0406 -0.5650
 1759TIP3   OH2 5240   3.191   3.804   5.544  0.3829  0.1057 -0.3147
 1759TIP3    H1 5241   3.278   3.795   5.584  0.3668  1.5944  0.1074
 1759TIP3    H2 5242   3.207   3.801   5.450  0.5309 -2.5033 -0.2796
 1760TIP3   OH2 5243   3.155   4.187   2.379  0.5125  0.3438  0.4342
 1760TIP3    H1 5244   3.186   4.113   2.432  0.7558  0.7678  0.8971
 1760TIP3    H2 5245   3.133   4.254   2.444 -2.3575 -0.2606  0.2103
 1761TIP3   OH2 5246   5.299   4.700   0.362 -0.1822 -0.1203  0.0826
 1761TIP3    H1 5247   5.217   4.748   0.350 -0.4814 -0.9564 -1.4197
 1761TIP3    H2 5248   5.342   4.705   0.276  2.2742  1.9066  1.2620
 1762TIP3   OH2 5249   2.052   6.744   0.950  0.4435 -0.1675  0.7203
 1762TIP3    H1 5250   1.996   6.668   0.931  0.6381 -0.0561 -0.3527
 1762TIP3    H2 5251   2.104   6.717   1.026 -1.1265 -0.2380  1.8172
 1763TIP3   OH2 5252   6.205   3.952   2.582 -0.0879  0.0334 -0.3883
 1763TIP3    H1 5253   6.223   3.970   2.675  0.5419 -0.8767 -0.3200
 1763TIP3    H2 5254   6.110   3.946   2.577 -0.1351  0.2398  0.1694
 1764TIP3   OH2 5255   5.816   4.444   1.576  0.1237  0.2293  0.2209
 1764TIP3    H1 5256   5.831   4.453   1.670  0.7074 -2.2605  0.4399
 1764TIP3    H2 5257   5.722   4.452   1.566 -0.3410 -2.5198  1.5230
 1765TIP3   OH2 5258   4.914   3.169   4.244  0.2149 -0.2739  0.0262
 1765TIP3    H1 5259   4.862   3.135   4.172 -0.6377  0.6010  0.2162
 1765TIP3    H2 5260   4.956   3.247   4.208  2.3128 -1.5479 -0.4677
 1766TIP3   OH2 5261   5.151   0.828   5.134  0.0457  0.2073  0.0371
 1766TIP3    H1 5262   5.087   0.856   5.200  0.2013 -1.0930  0.7814
 1766TIP3    H2 5263   5.232   0.817   5.183  0.4483  0.3094 -0.5988
 1767TIP3   OH2 5264   5.201   5.718   3.321  0.0909  0.5511  0.3039
 1767TIP3    H1 5265   5.179   5.636   3.278 -0.6246  1.0877 -0.3985
 1767TIP3    H2 5266   5.266   5.759   3.263 -0.8054  1.2344 -0.2429
 1768TIP3   OH2 5267   0.132   1.819   4.397 -0.2017  0.2704 -0.1570
 1768TIP3    H1 5268   0.134   1.893   4.337 -2.0769  0.0139 -0.5804
 1768TIP3    H2 5269   0.087   1.851   4.474 -1.2414 -0.4769 -0.4382
 1769TIP3   OH2 5270   5.914   0.057   3.458  0.0606  0.1204 -0.2214
 1769TIP3    H1 5271   5.947  -0.025   3.493  1.3446 -0.0223 -1.7120
 1769TIP3    H2 5272   5.966   0.074   3.380 -0.0730  2.4295  0.1152
 1770TIP3   OH2 5273   0.208   1.086   1.962  0.8345  0.5427  0.1161
 1770TIP3    H1 5274   0.116   1.077   1.936  0.8703 -0.8169  0.3952
 1770TIP3    H2 5275   0.255   1.098   1.880  0.7366 -1.8954 -0.3796
 1771TIP3   OH2 5276   5.402   4.285   0.569  0.3224  0.0752 -0.4736
 1771TIP3    H1 5277   5.332   4.349   0.554  1.3584  1.5602  0.7100
 1771TIP3    H2 5278   5.480   4.329   0.536  1.4086  0.3443  2.2477
 1772TIP3   OH2 5279   0.094   3.575   3.031 -0.6243  0.7124  0.2553
 1772TIP3    H1 5280   0.111   3.600   2.941 -1.7016  0.2693 -0.0838
 1772TIP3    H2 5281   0.044   3.494   3.025 -1.3692  1.0781  1.2222
 1773TIP3   OH2 5282   4.588   3.079   1.093 -0.1680  0.7452  0.4431
 1773TIP3    H1 5283   4.621   3.079   1.003  0.2703  1.1897  0.5969
 1773TIP3    H2 5284   4.494   3.095   1.084  0.0151  1.6829  0.1071
 1774TIP3   OH2 5285   6.403   3.198   2.680  0.2012 -0.2571  0.1780
 1774TIP3    H1 5286   6.444   3.163   2.601  0.9674 -0.7106  0.7531
 1774TIP3    H2 5287   6.347   3.127   2.711 -0.1415 -0.0591  0.0128
 1775TIP3   OH2 5288   0.097   6.580   4.578  0.6595  0.2711  0.2424
 1775TIP3    H1 5289   0.109   6.621   4.492  1.0169  0.0413  0.1801
 1775TIP3    H2 5290   0.062   6.493   4.559  0.9045  0.1545  0.3179
 1776TIP3   OH2 5291   0.881   4.735   1.504  0.0166  0.3039  0.0682
 1776TIP3    H1 5292   0.975   4.751   1.515 -0.0243 -0.0194  0.9613
 1776TIP3    H2 5293   0.876   4.671   1.433  0.4793  0.2529  0.0751
 1777TIP3   OH2 5294   1.624   3.622   1.267 -0.6135  0.0093  0.2163
 1777TIP3    H1 5295   1.687   3.695   1.274 -1.7205  1.0444 -0.3298
 1777TIP3    H2 5296   1.615   3.607   1.173 -1.8554  0.4794  0.2467
 1778TIP3   OH2 5297   5.935   5.790   0.827  0.8572 -0.1121 -0.1097
 1778TIP3    H1 5298   5.905   5.783   0.737 -1.1929 -0.7637  0.5514
 1778TIP3    H2 5299   5.974   5.877   0.833  0.5293  0.1524 -1.4787
 1779TIP3   OH2 5300   2.350   4.575   1.431  0.1542  0.6266 -0.3379
 1779TIP3    H1 5301   2.339   4.488   1.393 -0.9521 -0.6642  2.6272
 1779TIP3    H2 5302   2.264   4.615   1.425  0.7982  1.8409 -2.2413
 1780TIP3   OH2 5303   0.888   2.261   0.409 -0.1947 -0.0628 -0.4789
 1780TIP3    H1 5304   0.910   2.354   0.406 -0.8614  0.1735  1.0020
 1780TIP3    H2 5305   0.802   2.255   0.366  0.3470 -0.1991 -1.5949
 1781TIP3   OH2 5306   3.367   0.535   0.888  0.0406 -0.1486 -0.4085
 1781TIP3    H1 5307   3.370   0.440   0.899 -2.6147 -0.2876 -0.0551
 1781TIP3    H2 5308   3.318   0.566   0.963  1.3366  1.6093 -0.2362
 1782TIP3   OH2 5309   5.452   4.220   3.767 -0.5531  0.0141 -0.5850
 1782TIP3    H1 5310   5.524   4.206   3.705 -0.4811  1.0679 -0.7705
 1782TIP3    H2 5311   5.458   4.147   3.829 -0.1461 -0.6271 -1.3664
 1783TIP3   OH2 5312   2.455   0.619   3.513  0.3059  0.2046 -0.2431
 1783TIP3    H1 5313   2.525   0.666   3.558  0.3802 -0.3515  0.2379
 1783TIP3    H2 5314   2.440   0.669   3.432  2.0662 -0.3182 -0.9311
 1784TIP3   OH2 5315   5.974   1.093   1.559  0.0488  0.0357  0.0987
 1784TIP3    H1 5316   6.051   1.073   1.507 -1.3598 -0.6675 -1.8433
 1784TIP3    H2 5317   5.965   1.018   1.619  0.8649  0.1389  0.3552
 1785TIP3   OH2 5318   0.872   2.214   4.450 -0.2159 -0.3401 -0.0753
 1785TIP3    H1 5319   0.818   2.293   4.448 -1.1694 -0.9135  1.1100
 1785TIP3    H2 5320   0.863   2.182   4.540 -0.1943 -2.0190 -0.6392
 1786TIP3   OH2 5321   2.047   0.895   3.841 -0.2675  1.1401  0.2958
 1786TIP3    H1 5322   2.034   0.830   3.910 -1.6522 -0.4394 -1.3557
 1786TIP3    H2 5323   1.982   0.963   3.859 -0.5706  0.7750  0.5886
 1787TIP3   OH2 5324   0.088   3.422   0.361  0.3241  0.2550 -0.0262
 1787TIP3    H1 5325   0.157   3.456   0.303 -0.7544  1.1460 -0.8354
 1787TIP3    H2 5326   0.072   3.333   0.331 -0.9342  1.0375 -1.8275
 1788TIP3   OH2 5327   0.279   0.945   4.397 -0.3266  0.5591  0.3456
 1788TIP3    H1 5328   0.326   1.012   4.448 -1.4713  2.0823 -0.5087
 1788TIP3    H2 5329   0.226   0.898   4.462  0.4548  0.5020  0.9540
 1789TIP3   OH2 5330   1.079   0.330   5.637  0.0283 -0.2320 -0.1205
 1789TIP3    H1 5331   1.022   0.370   5.703  0.5162 -0.0859  0.2220
 1789TIP3    H2 5332   1.149   0.395   5.624 -0.4091  0.0179 -1.2580
 1790TIP3   OH2 5333   1.385   3.556   3.471 -0.2725  0.1845 -0.2385
 1790TIP3    H1 5334   1.404   3.640   3.514 -0.1185 -0.2314  0.5232
 1790TIP3    H2 5335   1.470   3.523   3.444 -0.2485 -0.1138  0.1994
 1791TIP3   OH2 5336   0.323   4.866   0.498  0.4380  0.1736 -0.0731
 1791TIP3    H1 5337   0.326   4.961   0.488 -0.1147  0.1504 -0.5712
 1791TIP3    H2 5338   0.319   4.833   0.408  0.5375 -0.3120  0.0984
 1792TIP3   OH2 5339   3.206   6.222   5.494 -0.0157  0.5185  0.3268
 1792TIP3    H1 5340   3.292   6.263   5.502  0.3755 -0.4337  1.1780
 1792TIP3    H2 5341   3.149   6.277   5.548  0.4452  0.1488  1.2194
 1793TIP3   OH2 5342   5.723   0.232   5.720 -0.0808  0.0414  0.1015
 1793TIP3    H1 5343   5.633   0.241   5.753 -0.9867  1.4406 -2.4794
 1793TIP3    H2 5344   5.743   0.139   5.730 -2.0856 -0.4444  0.1249
 1794TIP3   OH2 5345   5.396   1.200   0.536 -0.0783  0.1051  0.0019
 1794TIP3    H1 5346   5.401   1.212   0.631  1.4675 -0.9433  0.0964
 1794TIP3    H2 5347   5.484   1.170   0.512 -0.2492  1.0141 -1.8677
 1795TIP3   OH2 5348   6.602   4.066   4.886 -0.2960 -0.4943  0.5337
 1795TIP3    H1 5349   6.652   3.985   4.896  0.7641 -0.1954 -1.6903
 1795TIP3    H2 5350   6.564   4.060   4.798 -0.8548  1.0785  0.6360
 1796TIP3   OH2 5351   0.241   5.528   4.743 -0.0281  0.1723 -0.1839
 1796TIP3    H1 5352   0.256   5.441   4.779 -1.5181 -0.6728 -1.4631
 1796TIP3    H2 5353   0.146   5.543   4.754  0.0257  1.1959 -0.9005
 1797TIP3   OH2 5354   1.957   0.891   0.459  0.2840  0.1072 -0.2904
 1797TIP3    H1 5355   1.970   0.797   0.445 -1.7981 -0.1485 -0.7633
 1797TIP3    H2 5356   1.884   0.915   0.403  0.3293  1.8866  0.3278
 1798TIP3   OH2 5357   6.556   0.626   1.818  0.5292  0.4136 -0.0145
 1798TIP3    H1 5358   6.630   0.632   1.758  0.0358  0.6040 -0.6135
 1798TIP3    H2 5359   6.480   0.608   1.762 -0.0017  0.9699  0.5019
 1799TIP3   OH2 5360   2.851   1.889   0.967 -0.1409 -0.3970  0.1406
 1799TIP3    H1 5361   2.803   1.857   0.891 -1.3842  0.9511  0.3161
 1799TIP3    H2 5362   2.940   1.856   0.955 -0.9100 -2.3586 -0.5781
 1800TIP3   OH2 5363   6.756   2.911   3.722  0.2266  0.1772 -0.4513
 1800TIP3    H1 5364   6.714   2.997   3.732  1.4741  0.7757 -0.2528
 1800TIP3    H2 5365   6.811   2.919   3.644 -0.2338 -0.6983 -0.8854
 1801TIP3   OH2 5366   4.985   2.554   3.838  0.5906  0.0047  0.2953
 1801TIP3    H1 5367   4.990   2.603   3.757  3.7268  0.8369  0.8683
 1801TIP3    H2 5368   4.961   2.619   3.904  0.0166 -0.2684  0.3678
 1802TIP3   OH2 5369   0.308   1.203   2.886  0.4321 -0.2751 -0.2105
 1802TIP3    H1 5370   0.235   1.230   2.829  0.3821 -3.2002 -1.7201
 1802TIP3    H2 5371   0.267   1.187   2.971 -0.2826  0.1640 -0.4623
 1803TIP3   OH2 5372   0.706   3.470   0.591 -0.4686 -0.7844 -0.3974
 1803TIP3    H1 5373   0.623   3.514   0.575  0.1578 -0.0050 -1.6773
 1803TIP3    H2 5374   0.682   3.388   0.635 -1.7109  0.4411  1.3496
 1804TIP3   OH2 5375   1.205   0.107   1.328  0.1105  0.6305 -0.4916
 1804TIP3    H1 5376   1.229   0.069   1.413  1.1281  1.5366 -0.3535
 1804TIP3    H2 5377   1.262   0.063   1.265  1.4722  2.0681 -0.2977
 1805TIP3   OH2 5378   5.499   3.197   3.551  0.9628  0.9385  0.0976
 1805TIP3    H1 5379   5.577   3.158   3.512  1.6065  0.0776  2.0994
 1805TIP3    H2 5380   5.426   3.149   3.513  1.4010  1.3912 -1.3913
 1806TIP3   OH2 5381   2.336   4.178   0.972 -0.1982  0.3825 -0.2716
 1806TIP3    H1 5382   2.285   4.230   1.034 -1.5127 -0.2074 -0.8207
 1806TIP3    H2 5383   2.319   4.087   0.998  0.0653  0.1615 -0.8600
 1807TIP3   OH2 5384   6.511   1.890   1.469 -0.7099  0.2697  0.5576
 1807TIP3    H1 5385   6.517   1.834   1.547  0.0649 -1.1939 -0.5016
 1807TIP3    H2 5386   6.436   1.855   1.420 -0.8063  0.7770  0.3384
 1808TIP3   OH2 5387   4.229   0.332   1.467  0.2117 -0.0337 -0.1655
 1808TIP3    H1 5388   4.143   0.293   1.450  0.2908 -0.9318  1.2747
 1808TIP3    H2 5389   4.211   0.404   1.528  0.5133 -0.4716  0.4485
 1809TIP3   OH2 5390   1.476   2.849   4.414 -0.9149  0.0756 -0.1484
 1809TIP3    H1 5391   1.457   2.756   4.419  0.4471 -0.2495 -0.4926
 1809TIP3    H2 5392   1.467   2.881   4.504 -0.3785 -0.6115  0.1555
 1810TIP3   OH2 5393   6.444   0.573   3.748  0.0925 -0.0859 -0.1696
 1810TIP3    H1 5394   6.387   0.629   3.696 -1.8384 -1.1850  0.6431
 1810TIP3    H2 5395   6.459   0.496   3.692 -0.1731 -0.2998  0.0508
 1811TIP3   OH2 5396   4.581   0.436   5.206 -0.4170  0.1800 -0.0490
 1811TIP3    H1 5397   4.580   0.508   5.144 -1.8114  1.0259  0.9179
 1811TIP3    H2 5398   4.666   0.444   5.250  0.1490  0.1827 -1.1095
 1812TIP3   OH2 5399   5.212   3.455   3.263  0.2847  0.2562  0.0644
 1812TIP3    H1 5400   5.252   3.430   3.347 -0.9422  0.1810  0.6377
 1812TIP3    H2 5401   5.286   3.486   3.210  1.2047 -0.5215  0.8562
 1813TIP3   OH2 5402   5.090   3.945   5.551  0.3454  0.0188  0.1216
 1813TIP3    H1 5403   5.088   3.850   5.565 -1.3628  0.2466  1.7315
 1813TIP3    H2 5404   5.174   3.972   5.588  0.0294 -0.6612  1.4213
 1814TIP3   OH2 5405   7.210   5.583   1.378 -0.3123  0.8157 -0.3892
 1814TIP3    H1 5406   7.138   5.645   1.365  0.1871  1.2261 -1.3131
 1814TIP3    H2 5407   7.208   5.528   1.299  0.0677  0.5012 -0.1829
 1815TIP3   OH2 5408   6.588   4.449   0.377  0.3872 -0.3128 -0.6911
 1815TIP3    H1 5409   6.496   4.432   0.359  0.4195  0.2972 -1.4495
 1815TIP3    H2 5410   6.626   4.470   0.292  0.9638  0.6738 -0.2013
 1816TIP3   OH2 5411   4.903   1.950   0.500  0.2800 -1.0458 -0.2058
 1816TIP3    H1 5412   4.991   1.923   0.525  1.2311  0.1302 -2.1280
 1816TIP3    H2 5413   4.864   1.983   0.582  2.7601  1.3556  0.1512
 1817TIP3   OH2 5414   6.559   5.787   3.252 -0.1345 -0.2141  0.2095
 1817TIP3    H1 5415   6.587   5.877   3.235  1.3204 -0.5096  0.8686
 1817TIP3    H2 5416   6.524   5.788   3.341 -0.5838 -0.1966  0.0321
 1818TIP3   OH2 5417   4.389   4.900   4.549 -0.2908  0.2207 -0.3740
 1818TIP3    H1 5418   4.362   4.879   4.638 -0.0916 -1.1258 -0.6044
 1818TIP3    H2 5419   4.309   4.892   4.497  0.1653 -2.4041 -0.8315
 1819TIP3   OH2 5420   1.907   1.487   4.644 -0.0909  0.1803 -0.4127
 1819TIP3    H1 5421   1.862   1.404   4.662  0.9581 -0.6115 -1.2602
 1819TIP3    H2 5422   1.863   1.551   4.700 -0.0683 -1.1926  1.2583
 1820TIP3   OH2 5423   0.586   5.494   5.375 -0.5805 -0.3613 -0.6366
 1820TIP3    H1 5424   0.537   5.436   5.433  0.2144  0.1951  0.6465
 1820TIP3    H2 5425   0.628   5.436   5.311  0.5508 -1.2855  0.8778
 1821TIP3   OH2 5426   2.966   4.052   2.089  0.4954 -0.1265  0.3415
 1821TIP3    H1 5427   2.993   4.106   2.015  2.4350  0.2647  1.2796
 1821TIP3    H2 5428   2.920   4.113   2.147 -0.3752 -0.2784 -0.1610
 1822TIP3   OH2 5429   0.342   1.411   0.481  0.0432  0.9785  0.0523
 1822TIP3    H1 5430   0.416   1.415   0.541  2.2596 -0.6714 -2.3737
 1822TIP3    H2 5431   0.325   1.318   0.468 -1.8295  1.3127 -0.2249
 1823TIP3   OH2 5432   3.849   2.792   0.398  0.5062  0.1402  0.1592
 1823TIP3    H1 5433   3.834   2.699   0.409 -0.0890 -0.1735 -2.5625
 1823TIP3    H2 5434   3.912   2.798   0.326  0.6422  1.8419  0.3660
 1824TIP3   OH2 5435   0.809   1.691   3.438 -0.1206 -0.6651  0.6901
 1824TIP3    H1 5436   0.795   1.671   3.530  0.2076 -4.5083  0.0645
 1824TIP3    H2 5437   0.739   1.645   3.392  1.0928 -0.8874 -1.0725
 1825TIP3   OH2 5438   0.446   5.143   4.583  0.3735 -0.2606  0.4805
 1825TIP3    H1 5439   0.406   5.189   4.657  2.2646 -1.2229  2.1853
 1825TIP3    H2 5440   0.540   5.161   4.591  0.6733 -0.6467 -1.5497
 1826TIP3   OH2 5441   4.142   5.789   1.015 -0.2077  0.1879  0.1281
 1826TIP3    H1 5442   4.221   5.816   1.061 -0.4697  0.3827  0.4663
 1826TIP3    H2 5443   4.157   5.697   0.994  0.6397  0.5476 -0.9281
 1827TIP3   OH2 5444   6.413   2.923   0.659  0.3560  0.1658  0.5636
 1827TIP3    H1 5445   6.340   2.879   0.616 -0.5352  0.5083  1.6734
 1827TIP3    H2 5446   6.373   2.997   0.704  1.5127  0.8129  0.5533
 1828TIP3   OH2 5447   4.599   6.158   5.224  0.5257  0.1670  0.6288
 1828TIP3    H1 5448   4.567   6.085   5.172  1.1810  0.0356  0.3948
 1828TIP3    H2 5449   4.629   6.222   5.160 -1.9257  1.5580  0.7761
 1829TIP3   OH2 5450   5.117   5.522   3.755  0.2101 -0.1585 -0.2294
 1829TIP3    H1 5451   5.186   5.554   3.696  2.1052  0.8532  2.3581
 1829TIP3    H2 5452   5.164   5.469   3.820 -1.3550  0.9576  1.9065
 1830TIP3   OH2 5453   5.601   1.873   1.693 -0.6429  0.3305  0.3061
 1830TIP3    H1 5454   5.544   1.890   1.618  0.3237  1.3709 -0.2118
 1830TIP3    H2 5455   5.642   1.957   1.712  2.4213 -0.7976 -0.7411
 1831TIP3   OH2 5456   0.910   0.022   2.068  0.1275  0.0703 -0.6587
 1831TIP3    H1 5457   0.992   0.061   2.097  0.5139 -0.7561 -0.6106
 1831TIP3    H2 5458   0.882  -0.032   2.142  0.3565 -0.8845 -1.2489
 1832TIP3   OH2 5459   6.059   5.675   3.398  0.0492 -0.1497 -0.4017
 1832TIP3    H1 5460   6.084   5.674   3.306  1.0905  1.1834 -0.1676
 1832TIP3    H2 5461   6.094   5.758   3.432 -2.3432  0.5363  0.6294
 1833TIP3   OH2 5462   1.290   5.259   2.174  0.4893 -0.6891 -0.0369
 1833TIP3    H1 5463   1.346   5.320   2.221 -0.4674 -0.0256  0.2808
 1833TIP3    H2 5464   1.285   5.293   2.085  0.4579 -0.6423 -0.0178
 1834TIP3   OH2 5465   2.300   4.871   1.580  0.2471  0.5231 -0.4919
 1834TIP3    H1 5466   2.361   4.803   1.607 -0.7442  0.5989  2.2220
 1834TIP3    H2 5467   2.353   4.951   1.578  0.4063  0.5258  1.4730
 1835TIP3   OH2 5468   2.851   5.774   0.754  0.7403  0.1635  0.1926
 1835TIP3    H1 5469   2.795   5.770   0.832  1.6324  2.6834  1.0496
 1835TIP3    H2 5470   2.937   5.799   0.787  0.8267  2.7144 -1.6641
 1836TIP3   OH2 5471   6.535   2.840   3.450 -0.3144  0.3695 -0.1863
 1836TIP3    H1 5472   6.607   2.903   3.451  0.6113 -0.6763  0.6642
 1836TIP3    H2 5473   6.511   2.833   3.357  1.0186  0.3668 -0.5565
 1837TIP3   OH2 5474   2.824   1.221   4.809  0.0049 -0.0220 -0.1751
 1837TIP3    H1 5475   2.862   1.137   4.782  0.4923  0.2922 -0.4868
 1837TIP3    H2 5476   2.840   1.225   4.903  1.0230  0.2281 -0.3413
 1838TIP3   OH2 5477   5.109   5.363   0.463  0.2275  0.1623  0.7343
 1838TIP3    H1 5478   5.026   5.397   0.494  0.4314 -0.9916  2.6804
 1838TIP3    H2 5479   5.134   5.422   0.392 -1.5255  1.3807  1.0720
 1839TIP3   OH2 5480   6.365   5.982   3.011  0.0717 -0.0801  0.5171
 1839TIP3    H1 5481   6.361   6.046   2.940 -0.0433  1.8243  2.1599
 1839TIP3    H2 5482   6.429   5.917   2.981 -1.8967 -0.8698 -2.4352
 1840TIP3   OH2 5483   4.651   2.506   5.535 -0.1341 -0.4033  0.2567
 1840TIP3    H1 5484   4.574   2.451   5.521 -0.9685  0.8287 -0.1391
 1840TIP3    H2 5485   4.625   2.566   5.605 -0.1005  1.0022 -0.8879
 1841TIP3   OH2 5486   5.812   2.788   5.707 -0.1489  0.2139 -0.2003
 1841TIP3    H1 5487   5.855   2.773   5.622  0.9890 -2.9447  0.8049
 1841TIP3    H2 5488   5.884   2.812   5.766 -1.1534  4.3043 -0.3433
 1842TIP3   OH2 5489   2.859   0.288   1.681  0.4312  0.0531  0.2317
 1842TIP3    H1 5490   2.951   0.314   1.678  0.4772 -0.0425  0.7362
 1842TIP3    H2 5491   2.821   0.324   1.600  1.1348 -0.7840 -0.4897
 1843TIP3   OH2 5492   1.298   0.984   1.800 -0.3909  0.2320 -0.0878
 1843TIP3    H1 5493   1.262   0.910   1.750  0.7624  1.5821 -3.1429
 1843TIP3    H2 5494   1.225   1.046   1.806 -0.8201 -0.3425  0.8414
 1844TIP3   OH2 5495   0.982   4.198   1.560  0.0758  0.2731 -0.4071
 1844TIP3    H1 5496   0.933   4.279   1.568  0.6047  0.6074 -0.5182
 1844TIP3    H2 5497   1.065   4.223   1.519  1.7289  0.3225  2.6374
 1845TIP3   OH2 5498   0.260   0.399   4.872 -0.5182 -0.5617  0.4712
 1845TIP3    H1 5499   0.316   0.326   4.899  0.8335  0.7360  1.3608
 1845TIP3    H2 5500   0.322   0.467   4.844 -1.7450 -0.7279 -3.2620
 1846TIP3   OH2 5501   3.636   6.326   4.747  0.3163 -0.5154 -0.1347
 1846TIP3    H1 5502   3.547   6.298   4.726  0.1761 -0.2610  0.1060
 1846TIP3    H2 5503   3.680   6.247   4.779  0.1350 -0.6138 -0.1302
 1847TIP3   OH2 5504   3.032   2.511   2.121  0.4535  0.4642  0.5058
 1847TIP3    H1 5505   3.043   2.522   2.027 -0.3342  0.5886  0.4175
 1847TIP3    H2 5506   2.951   2.460   2.130 -0.5333  2.0457  1.1452
 1848TIP3   OH2 5507   5.521   1.627   2.506 -0.2260  0.3815 -0.2870
 1848TIP3    H1 5508   5.450   1.664   2.558 -1.2534 -1.1159 -0.5786
 1848TIP3    H2 5509   5.492   1.636   2.415 -0.2774 -0.6841 -0.3835
 1849TIP3   OH2 5510   6.205   6.614   3.981 -0.0597 -0.7245  0.5057
 1849TIP3    H1 5511   6.195   6.522   4.006 -0.4188 -1.0317 -0.6992
 1849TIP3    H2 5512   6.298   6.632   3.990 -0.0298 -1.1263  1.0281
 1850TIP3   OH2 5513   2.885   6.228   1.211 -0.0763 -0.0363 -0.3544
 1850TIP3    H1 5514   2.967   6.250   1.166  0.8063 -0.1167  1.1757
 1850TIP3    H2 5515   2.888   6.276   1.293 -0.5026 -1.7923  0.7437
 1851TIP3   OH2 5516   6.656   1.358   2.462  0.2777  0.5230  0.0511
 1851TIP3    H1 5517   6.569   1.397   2.468 -0.2920 -0.8119  0.9603
 1851TIP3    H2 5518   6.701   1.386   2.542 -0.4145 -1.2421  1.1173
 1852TIP3   OH2 5519   0.447   1.737   1.779  0.1839  0.5218 -0.3139
 1852TIP3    H1 5520   0.382   1.800   1.746  1.7237  2.1508 -0.4032
 1852TIP3    H2 5521   0.477   1.690   1.702 -1.1816 -0.5915 -0.2101
 1853TIP3   OH2 5522   3.381   3.217   4.258  0.5364  0.7141 -0.2485
 1853TIP3    H1 5523   3.470   3.244   4.238  1.1319 -0.4468  0.6772
 1853TIP3    H2 5524   3.371   3.235   4.352 -0.0256  0.4166 -0.2456
 1854TIP3   OH2 5525   7.085   0.593   0.674  0.0264 -0.7347  0.0860
 1854TIP3    H1 5526   7.143   0.549   0.612  3.0585  1.1488  1.3454
 1854TIP3    H2 5527   7.047   0.665   0.624  2.2930  0.6441  0.1775
 1855TIP3   OH2 5528   4.645   0.436   0.353  0.3020  0.3767  0.1124
 1855TIP3    H1 5529   4.726   0.399   0.318 -1.1046 -1.3091 -1.5267
 1855TIP3    H2 5530   4.615   0.497   0.286 -0.6847 -0.3640 -0.1475
 1856TIP3   OH2 5531   4.520   2.300   4.975 -0.1642  0.2661  0.1743
 1856TIP3    H1 5532   4.545   2.339   4.892  0.0779 -2.1135 -0.9358
 1856TIP3    H2 5533   4.426   2.318   4.982 -0.3208 -0.0521 -0.9274
 1857TIP3   OH2 5534   1.692   2.213   1.867 -0.1888  0.0492 -0.2068
 1857TIP3    H1 5535   1.653   2.229   1.781  1.3876  1.5363 -0.7084
 1857TIP3    H2 5536   1.762   2.150   1.850  1.2280  1.5963 -0.3904
 1858TIP3   OH2 5537   2.261   0.725   5.140  0.0602  0.5678 -0.2795
 1858TIP3    H1 5538   2.199   0.680   5.197 -1.6302  2.9515 -0.1112
 1858TIP3    H2 5539   2.336   0.744   5.197 -0.2993  0.2464  0.3090
 1859TIP3   OH2 5540   0.060   1.797   2.612 -0.1413  0.3182 -0.6479
 1859TIP3    H1 5541   0.068   1.714   2.565  1.5370  1.2577 -2.1797
 1859TIP3    H2 5542  -0.034   1.815   2.614 -0.8328 -2.7996  2.0238
 1860TIP3   OH2 5543   0.486   2.538   2.716  0.1944  0.4058 -0.1978
 1860TIP3    H1 5544   0.515   2.453   2.683 -0.2788 -0.3296  1.2290
 1860TIP3    H2 5545   0.513   2.539   2.807 -0.7960  1.3184  0.1044
 1861TIP3   OH2 5546   1.179   6.580   2.052 -0.1826  0.3882  0.0944
 1861TIP3    H1 5547   1.251   6.641   2.036  0.9847 -1.2312 -1.2357
 1861TIP3    H2 5548   1.105   6.617   2.003  0.4525  0.8391 -0.5538
 1862TIP3   OH2 5549   4.520   5.299   1.718  0.8732 -0.6873  0.0509
 1862TIP3    H1 5550   4.552   5.294   1.808  2.8183  0.7869 -0.4942
 1862TIP3    H2 5551   4.531   5.211   1.683 -0.3032 -1.3818  1.3314
 1863TIP3   OH2 5552   4.399   2.147   2.761  0.3765 -0.0983 -0.6498
 1863TIP3    H1 5553   4.423   2.239   2.768  0.1779 -0.1444  0.8729
 1863TIP3    H2 5554   4.314   2.147   2.717  0.6762  0.3910 -1.2385
 1864TIP3   OH2 5555   0.260   5.739   0.771  0.4468  0.1250 -0.6353
 1864TIP3    H1 5556   0.255   5.833   0.752  1.6802  0.8171  2.0099
 1864TIP3    H2 5557   0.173   5.717   0.803  0.5568  0.7239  0.0926
 1865TIP3   OH2 5558   6.331   2.794   1.970 -0.1554  0.3576  0.0805
 1865TIP3    H1 5559   6.377   2.782   2.053 -0.5977  1.4652  0.5103
 1865TIP3    H2 5560   6.243   2.760   1.987  0.5631 -2.2065 -0.8841
 1866TIP3   OH2 5561   4.075   4.617   5.383 -0.4631  0.4627  0.1152
 1866TIP3    H1 5562   4.068   4.696   5.436 -1.0428 -0.2927  1.2161
 1866TIP3    H2 5563   4.157   4.627   5.335  0.1399  1.1474  1.2506
 1867TIP3   OH2 5564   0.079   5.860   4.771 -0.6929 -0.0320  0.0758
 1867TIP3    H1 5565   0.085   5.956   4.778 -3.5053  0.1839  0.7301
 1867TIP3    H2 5566   0.070   5.844   4.677 -1.0250  0.4517  0.0169
 1868TIP3   OH2 5567   5.198   4.522   3.963 -0.3083  0.4468 -0.6031
 1868TIP3    H1 5568   5.172   4.493   4.050  1.1484 -0.6753 -0.4909
 1868TIP3    H2 5569   5.285   4.484   3.950 -1.0575 -0.6336 -3.1057
 1869TIP3   OH2 5570   4.981   3.387   5.349  0.4063  0.1334 -0.1724
 1869TIP3    H1 5571   4.975   3.458   5.412 -0.8857  0.1337 -0.2775
 1869TIP3    H2 5572   4.919   3.321   5.380  0.7109 -0.4378 -0.7303
 1870TIP3   OH2 5573   4.622   5.187   4.802  0.1468  0.2874  0.2253
 1870TIP3    H1 5574   4.634   5.093   4.789  0.2736  0.5630 -2.0165
 1870TIP3    H2 5575   4.699   5.227   4.762 -1.3541  1.4439 -1.7050
 1871TIP3   OH2 5576   3.190   2.950   5.251  0.4009 -0.1432 -0.3080
 1871TIP3    H1 5577   3.284   2.961   5.239  0.5121 -0.2926  0.4017
 1871TIP3    H2 5578   3.166   2.883   5.187  0.5075  0.9372 -1.5172
 1872TIP3   OH2 5579   6.906   5.118   0.810 -0.0618  0.0365 -0.2625
 1872TIP3    H1 5580   6.874   5.029   0.827 -1.2767  0.4720 -0.1779
 1872TIP3    H2 5581   6.840   5.175   0.848 -0.2410  0.9945 -1.9159
 1873TIP3   OH2 5582   1.892   0.367   0.355  0.1251  0.4533 -0.5141
 1873TIP3    H1 5583   1.858   0.362   0.265 -0.2584 -0.4659 -0.3333
 1873TIP3    H2 5584   1.878   0.279   0.390  3.1686 -0.1814 -0.5891
 1874TIP3   OH2 5585   5.817   3.526   2.486  0.2308 -0.1916  0.0780
 1874TIP3    H1 5586   5.876   3.454   2.506 -1.9581 -1.8632  0.9530
 1874TIP3    H2 5587   5.789   3.510   2.395 -0.9740 -1.0617  0.5713
 1875TIP3   OH2 5588   1.549   0.558   5.168 -0.7416 -0.0361  0.0067
 1875TIP3    H1 5589   1.560   0.465   5.183  1.5957  0.4785  2.0685
 1875TIP3    H2 5590   1.637   0.595   5.177 -1.5883  2.3863 -0.7053
 1876TIP3   OH2 5591   4.856   4.366   0.528  0.1615 -0.0262 -0.7213
 1876TIP3    H1 5592   4.863   4.461   0.527  1.9220 -0.0633  1.0434
 1876TIP3    H2 5593   4.840   4.344   0.620  0.6313 -1.4618 -0.9556
 1877TIP3   OH2 5594   0.829   0.836   5.478  0.0129 -0.1238  0.0391
 1877TIP3    H1 5595   0.782   0.775   5.421 -1.0482  1.2032 -0.5470
 1877TIP3    H2 5596   0.783   0.833   5.561 -0.0414 -0.1032  0.0096
 1878TIP3   OH2 5597   2.039   4.896   4.964 -0.0561  0.0546 -0.6941
 1878TIP3    H1 5598   2.052   4.848   4.882 -0.4463  0.4173 -0.9771
 1878TIP3    H2 5599   2.123   4.892   5.008  0.0751 -0.4016 -0.9769
 1879TIP3   OH2 5600   5.905   6.656   1.211  0.4151  0.2530  0.3817
 1879TIP3    H1 5601   5.943   6.666   1.298  2.2762  0.2624 -0.3710
 1879TIP3    H2 5602   5.874   6.743   1.188 -0.1994  0.2212  1.0789
 1880TIP3   OH2 5603   6.435   4.155   3.307  0.2114 -0.0834 -0.4812
 1880TIP3    H1 5604   6.374   4.226   3.330  0.6554  0.2930 -0.4579
 1880TIP3    H2 5605   6.487   4.190   3.235 -0.3152 -0.7999 -1.2405
 1881TIP3   OH2 5606   3.029   1.253   3.024  0.5088  0.1433  0.0194
 1881TIP3    H1 5607   2.947   1.301   3.013  1.0111  1.1042  0.4059
 1881TIP3    H2 5608   3.089   1.316   3.064  1.1186 -0.8640  0.7536
 1882TIP3   OH2 5609   1.707   1.286   2.793  0.8819  0.0732  0.0764
 1882TIP3    H1 5610   1.623   1.252   2.825  1.6132 -0.5708  1.4251
 1882TIP3    H2 5611   1.735   1.222   2.727  0.2196  0.4056 -0.5340
 1883TIP3   OH2 5612   5.960   0.986   1.188 -0.1103 -0.5603  0.5733
 1883TIP3    H1 5613   5.960   0.897   1.222 -0.3250 -0.0755  1.8967
 1883TIP3    H2 5614   6.036   1.027   1.228 -0.1728 -0.0596  0.1951
 1884TIP3   OH2 5615   1.812   3.618   0.319  0.4678 -0.4125 -0.6620
 1884TIP3    H1 5616   1.810   3.606   0.224  0.8729 -0.8393 -0.6229
 1884TIP3    H2 5617   1.763   3.544   0.354  0.1412 -0.1413 -0.5473
 1885TIP3   OH2 5618   3.905   1.108   2.095 -0.6637 -0.3553  0.7253
 1885TIP3    H1 5619   3.980   1.051   2.117 -1.6296 -1.5360  1.0774
 1885TIP3    H2 5620   3.831   1.069   2.142 -1.9616 -0.5235 -1.3303
 1886TIP3   OH2 5621   3.878   1.977   2.439  0.4685  0.0872  0.5032
 1886TIP3    H1 5622   3.944   1.910   2.420  0.9608  0.6529  0.1956
 1886TIP3    H2 5623   3.909   2.056   2.394 -2.4462 -0.6028 -3.2240
 1887TIP3   OH2 5624   4.421   5.789   5.049 -0.2115  0.0993  0.1429
 1887TIP3    H1 5625   4.424   5.883   5.035 -1.1617  0.6290  2.8925
 1887TIP3    H2 5626   4.328   5.765   5.037  0.0461 -0.5614 -0.7105
 1888TIP3   OH2 5627   2.674   4.863   4.240  0.0690 -0.9620 -0.0562
 1888TIP3    H1 5628   2.745   4.867   4.304  0.0949 -1.1153 -0.0745
 1888TIP3    H2 5629   2.715   4.828   4.161  0.3657  0.5881 -0.6246
 1889TIP3   OH2 5630   5.951   0.079   0.002 -0.0430  0.1009 -0.1375
 1889TIP3    H1 5631   5.895   0.002  -0.001  1.5865 -1.1548  0.2660
 1889TIP3    H2 5632   5.892   0.150   0.029 -0.8402 -1.8190  3.9532
 1890TIP3   OH2 5633   6.334   1.372   3.216 -0.1984 -0.5066  0.0764
 1890TIP3    H1 5634   6.284   1.298   3.181 -0.3176 -1.2343  1.7007
 1890TIP3    H2 5635   6.267   1.435   3.244 -0.1393 -0.5739  0.3643
 1891TIP3   OH2 5636   1.666   0.927   0.602  0.5161 -0.0156  0.1651
 1891TIP3    H1 5637   1.714   0.925   0.519  0.7498  2.2805  0.1913
 1891TIP3    H2 5638   1.728   0.966   0.664  0.9688 -3.1583  1.9279
 1892TIP3   OH2 5639   5.414   1.660   2.886  0.1312  0.0193 -0.5109
 1892TIP3    H1 5640   5.509   1.668   2.893  0.1689 -0.7583  0.0094
 1892TIP3    H2 5641   5.399   1.567   2.867 -0.5203  0.1487 -0.6604
 1893TIP3   OH2 5642   6.957   6.271   0.644  0.4811 -0.0650  0.2449
 1893TIP3    H1 5643   6.912   6.187   0.645  2.2070 -1.0538 -0.8590
 1893TIP3    H2 5644   6.973   6.289   0.551  1.5343  0.7017  0.5616
 1894TIP3   OH2 5645   4.904   6.410   2.278 -0.3710 -0.4157  0.0171
 1894TIP3    H1 5646   4.812   6.427   2.297 -0.9286 -0.5291 -2.2898
 1894TIP3    H2 5647   4.915   6.316   2.295  0.1668  0.1081  3.1737
 1895TIP3   OH2 5648   1.428   1.937   0.111 -0.8753 -0.3200 -0.3744
 1895TIP3    H1 5649   1.375   1.993   0.168  0.9933  0.0449  1.1210
 1895TIP3    H2 5650   1.426   1.851   0.153 -1.2780 -0.6297 -1.0062
 1896TIP3   OH2 5651   0.812   2.400   1.087 -0.3470 -0.3172  0.0030
 1896TIP3    H1 5652   0.855   2.364   1.010  0.0994 -1.3088  0.6980
 1896TIP3    H2 5653   0.816   2.330   1.152  0.4092  0.9089  1.3420
 1897TIP3   OH2 5654   3.048   2.962   1.350  0.1080 -0.1749  0.5177
 1897TIP3    H1 5655   3.093   2.936   1.270  0.1131  0.9316  0.1314
 1897TIP3    H2 5656   2.964   2.996   1.319 -0.8312 -1.7861  1.1901
 1898TIP3   OH2 5657   1.316   5.769   2.280 -0.1730  0.5585 -0.0357
 1898TIP3    H1 5658   1.244   5.802   2.334  0.8258  0.6496  1.3023
 1898TIP3    H2 5659   1.353   5.847   2.239  0.3604  0.7742  0.8210
 1899TIP3   OH2 5660   2.464   6.607   3.607 -0.4568  0.7769  0.3138
 1899TIP3    H1 5661   2.477   6.662   3.684 -0.7886  0.9722  0.2299
 1899TIP3    H2 5662   2.470   6.666   3.533  1.7059  0.3218  0.0507
 1900TIP3   OH2 5663   0.171   6.539   1.780 -0.1531 -0.0543 -0.5578
 1900TIP3    H1 5664   0.094   6.583   1.816  0.0015 -0.7858  0.7627
 1900TIP3    H2 5665   0.155   6.446   1.797  0.4269 -0.3318 -1.4746
 1901TIP3   OH2 5666   6.329   4.352   0.253 -0.5081 -0.5013  0.1432
 1901TIP3    H1 5667   6.252   4.406   0.234  0.0479 -0.0639 -0.9773
 1901TIP3    H2 5668   6.344   4.304   0.171 -0.7850 -2.1117  1.0084
 1902TIP3   OH2 5669   4.867   6.685   3.790 -0.3366 -0.1509  0.0122
 1902TIP3    H1 5670   4.863   6.753   3.857 -0.8868  1.1376 -1.2636
 1902TIP3    H2 5671   4.776   6.661   3.773 -0.2746  0.1715 -0.8584
 1903TIP3   OH2 5672   4.171   5.240   5.489 -0.2968  0.5213  0.1269
 1903TIP3    H1 5673   4.241   5.179   5.515 -2.6919 -1.5613  2.2418
 1903TIP3    H2 5674   4.162   5.227   5.395  0.6226 -0.8749  0.2018
 1904TIP3   OH2 5675   1.493   5.566   0.694  0.1091  0.0755  0.4938
 1904TIP3    H1 5676   1.495   5.506   0.619  0.1352  0.9669 -0.2397
 1904TIP3    H2 5677   1.578   5.553   0.737  0.1484 -0.3445  0.2976
 1905TIP3   OH2 5678   4.826   3.940   3.889 -0.1445  0.0758  0.0878
 1905TIP3    H1 5679   4.836   3.985   3.805 -1.4363  0.0308 -0.1113
 1905TIP3    H2 5680   4.897   3.974   3.943 -0.6882  1.8664 -0.2678
 1906TIP3   OH2 5681   2.261   5.301   3.988 -0.1313  0.4040  0.6694
 1906TIP3    H1 5682   2.303   5.355   3.921  0.6773 -2.5899 -1.4246
 1906TIP3    H2 5683   2.168   5.321   3.980 -0.0176  0.3375 -1.2005
 1907TIP3   OH2 5684   0.732   4.900   3.148  0.2189 -0.1173 -0.7447
 1907TIP3    H1 5685   0.693   4.963   3.088 -0.3076 -0.1778 -0.4766
 1907TIP3    H2 5686   0.708   4.933   3.235  0.3159 -0.4442 -0.5931
 1908TIP3   OH2 5687   6.102   1.365   1.504 -0.0788 -0.5188 -0.2093
 1908TIP3    H1 5688   6.036   1.408   1.559 -0.5803  0.0371 -1.2102
 1908TIP3    H2 5689   6.082   1.271   1.513 -0.1000 -0.4428  0.6073
 1909TIP3   OH2 5690   4.407   4.808   5.501  0.2049 -0.1921 -0.0711
 1909TIP3    H1 5691   4.341   4.788   5.435  0.9144 -2.6962 -0.1131
 1909TIP3    H2 5692   4.384   4.753   5.576  0.9068  0.6778  0.8185
 1910TIP3   OH2 5693   2.776   0.495   5.357 -0.4642  0.1685 -0.1547
 1910TIP3    H1 5694   2.681   0.499   5.371 -0.2243  3.5212  1.7330
 1910TIP3    H2 5695   2.804   0.415   5.402 -2.3090 -0.5032 -0.1218
 1911TIP3   OH2 5696   5.382   2.132   2.883 -0.3300  0.7182 -0.0638
 1911TIP3    H1 5697   5.328   2.199   2.840  1.3062  0.9760 -1.8396
 1911TIP3    H2 5698   5.331   2.051   2.875 -1.3289  1.3145  0.0952
 1912TIP3   OH2 5699   1.480   4.665   0.739 -0.3342 -0.0282 -0.1035
 1912TIP3    H1 5700   1.485   4.584   0.790 -0.1062 -0.2206 -0.4271
 1912TIP3    H2 5701   1.534   4.728   0.788  0.2902 -0.3523 -0.3579
 1913TIP3   OH2 5702   1.470   5.932   0.990  0.3670 -0.6523  0.3467
 1913TIP3    H1 5703   1.427   6.010   1.024  0.8056 -0.5655  0.7100
 1913TIP3    H2 5704   1.516   5.961   0.911  0.3764 -0.5863  0.3768
 1914TIP3   OH2 5705   0.063   0.429   1.366  0.0815  0.2615 -0.1709
 1914TIP3    H1 5706   0.142   0.376   1.363 -0.5945 -0.7523 -0.6988
 1914TIP3    H2 5707   0.008   0.394   1.296 -0.8681  0.8847  0.2397
 1915TIP3   OH2 5708   5.551   4.744   3.003 -0.5630 -0.3781 -0.1807
 1915TIP3    H1 5709   5.466   4.722   2.965 -1.3006 -0.0704  1.2101
 1915TIP3    H2 5710   5.607   4.670   2.980 -0.7823  0.0632 -2.3056
 1916TIP3   OH2 5711   6.336   6.609   5.538 -0.1728 -0.2204  0.3874
 1916TIP3    H1 5712   6.293   6.640   5.459  0.5321 -1.2220 -0.4195
 1916TIP3    H2 5713   6.406   6.551   5.506  1.3351  0.8198  1.6530
 1917TIP3   OH2 5714   0.731   5.190   1.059 -0.2102 -0.7789  0.5870
 1917TIP3    H1 5715   0.652   5.212   1.009  0.4996  0.5538 -0.0341
 1917TIP3    H2 5716   0.794   5.160   0.993  0.8401  1.2785  0.5536
 1918TIP3   OH2 5717   3.931   4.905   0.941 -0.0231  0.2322  0.2116
 1918TIP3    H1 5718   4.023   4.917   0.916 -0.3070  0.3539 -0.8387
 1918TIP3    H2 5719   3.888   4.878   0.860 -0.7382 -0.8213  0.9088
 1919TIP3   OH2 5720   0.293   1.307   4.475  0.2558  0.1817  0.6771
 1919TIP3    H1 5721   0.353   1.344   4.539  1.4473 -2.7239  1.4107
 1919TIP3    H2 5722   0.342   1.305   4.393  1.4084 -2.3932  1.3240
 1920TIP3   OH2 5723   4.823   6.165   4.103  0.1612  0.6053  0.8225
 1920TIP3    H1 5724   4.776   6.247   4.111 -1.5131 -0.0106 -1.4708
 1920TIP3    H2 5725   4.759   6.098   4.127  0.6296 -0.1236  0.1040
 1921TIP3   OH2 5726   0.916   3.183   2.571  0.4961 -0.7949  0.1444
 1921TIP3    H1 5727   0.895   3.094   2.601  2.2637 -1.5542 -0.7050
 1921TIP3    H2 5728   0.986   3.170   2.507 -0.1109  1.1303 -0.9556
 1922TIP3   OH2 5729   3.619   5.497   0.254 -0.5144 -0.0943 -0.5758
 1922TIP3    H1 5730   3.686   5.543   0.204 -0.1370 -0.5044 -0.4616
 1922TIP3    H2 5731   3.669   5.441   0.314 -0.9567 -0.9154 -0.9636
 1923TIP3   OH2 5732   2.210   2.606   1.708 -0.1935  0.3907  0.5088
 1923TIP3    H1 5733   2.115   2.595   1.708 -0.1595 -0.0670  1.8049
 1923TIP3    H2 5734   2.237   2.585   1.797  0.9038  2.5959  0.7643
 1924TIP3   OH2 5735   3.848   2.021   4.340  0.2634 -0.2802 -0.4124
 1924TIP3    H1 5736   3.930   1.976   4.321  0.3010 -0.1519 -0.5579
 1924TIP3    H2 5737   3.782   1.975   4.288  0.6999  1.4024 -2.6517
 1925TIP3   OH2 5738   3.122   0.274   1.574 -0.3016  0.2747 -0.4165
 1925TIP3    H1 5739   3.148   0.209   1.509  0.6094  0.1035  0.1011
 1925TIP3    H2 5740   3.165   0.355   1.546  0.1784  0.1758  0.0189
 1926TIP3   OH2 5741   2.019   6.684   5.515  0.2133 -0.2514 -0.6890
 1926TIP3    H1 5742   1.962   6.647   5.448 -0.8145  0.4528 -0.2149
 1926TIP3    H2 5743   2.027   6.615   5.581 -1.7973  0.3477  0.2512
 1927TIP3   OH2 5744   1.805   5.752   3.131 -0.5566  0.2469 -0.2983
 1927TIP3    H1 5745   1.781   5.660   3.122  0.4175 -0.2429  1.5173
 1927TIP3    H2 5746   1.764   5.796   3.057 -3.3340 -1.1874  0.2856
 1928TIP3   OH2 5747   1.299   4.412   0.201 -0.3701 -0.1143 -1.4359
 1928TIP3    H1 5748   1.315   4.365   0.119  0.6888 -1.1759 -0.6541
 1928TIP3    H2 5749   1.378   4.464   0.214 -1.0930  1.0988 -1.7465
 1929TIP3   OH2 5750   4.637   1.171   1.700  0.2451  0.0641  0.3246
 1929TIP3    H1 5751   4.561   1.194   1.753 -0.3941  0.5746 -0.7686
 1929TIP3    H2 5752   4.650   1.246   1.643  1.0037 -0.4060 -0.1436
 1930TIP3   OH2 5753   0.066   3.082   5.616  0.2803 -0.4225 -0.3710
 1930TIP3    H1 5754   0.130   3.065   5.547 -0.7413  0.3882 -1.5717
 1930TIP3    H2 5755   0.001   3.012   5.605 -0.2312  0.0927 -0.6826
 1931TIP3   OH2 5756   0.950   6.583   2.634  0.1824  0.1862 -0.4544
 1931TIP3    H1 5757   0.942   6.628   2.550  0.3257  0.2633 -0.4276
 1931TIP3    H2 5758   1.022   6.628   2.678 -0.6499  0.9223  0.1913
 1932TIP3   OH2 5759   1.400   5.023   3.868  0.0076 -0.1261 -0.1901
 1932TIP3    H1 5760   1.356   5.059   3.792  1.2596  0.1868 -0.7981
 1932TIP3    H2 5761   1.341   4.955   3.900 -0.7970  0.1204 -1.0933
 1933TIP3   OH2 5762   5.622   4.733   4.120 -0.2157 -0.1854 -0.0397
 1933TIP3    H1 5763   5.689   4.802   4.117  0.5790 -0.8735  1.1642
 1933TIP3    H2 5764   5.571   4.746   4.040  0.0028  1.7011  0.0809
 1934TIP3   OH2 5765   1.148   0.901   3.213 -0.0220  0.5482  0.3494
 1934TIP3    H1 5766   1.227   0.946   3.184 -0.1133 -0.2471 -1.2714
 1934TIP3    H2 5767   1.179   0.817   3.246 -0.1041  0.6842  0.7847
 1935TIP3   OH2 5768   0.838   2.938   4.598 -0.1722  0.1817 -0.0597
 1935TIP3    H1 5769   0.818   2.984   4.679 -1.6694  1.8668 -1.3037
 1935TIP3    H2 5770   0.928   2.907   4.610 -0.3642  0.3267  2.2292
 1936TIP3   OH2 5771   0.337   2.919   5.760 -0.1420 -0.1062  0.3939
 1936TIP3    H1 5772   0.284   2.950   5.833  2.0526 -0.3805  2.2081
 1936TIP3    H2 5773   0.354   2.827   5.780  0.6623 -0.1382 -0.3472
 1937TIP3   OH2 5774   5.037   2.051   4.269  0.1716  0.5158 -0.4220
 1937TIP3    H1 5775   5.061   2.026   4.359  2.0968  1.5572 -0.6066
 1937TIP3    H2 5776   4.976   2.124   4.280 -2.2048 -1.3891  0.0314
 1938TIP3   OH2 5777   4.270   4.428   3.582 -0.1581  0.1575 -0.1411
 1938TIP3    H1 5778   4.304   4.486   3.650  0.4669  0.3654 -0.6238
 1938TIP3    H2 5779   4.249   4.346   3.628  1.3273 -0.1009  0.1208
 1939TIP3   OH2 5780   1.761   0.795   2.610 -0.4469 -0.4014  0.4794
 1939TIP3    H1 5781   1.685   0.848   2.630 -1.0922 -0.8813 -0.6048
 1939TIP3    H2 5782   1.819   0.852   2.559  0.0980  0.0737  1.6090
 1940TIP3   OH2 5783   0.271   2.467   4.851 -0.3256  0.4761 -0.1247
 1940TIP3    H1 5784   0.317   2.535   4.800 -0.1942  1.0052  0.6832
 1940TIP3    H2 5785   0.181   2.470   4.818 -0.2850  0.9326 -0.2040
 1941TIP3   OH2 5786   5.940   1.535   4.925  0.0725  0.0184  0.2310
 1941TIP3    H1 5787   6.004   1.593   4.967 -1.3501  0.8018  1.3881
 1941TIP3    H2 5788   5.979   1.514   4.839  2.1268 -0.0077  1.1120
 1942TIP3   OH2 5789   3.331   4.507   0.066 -0.3668  0.2182 -0.6946
 1942TIP3    H1 5790   3.386   4.475  -0.006 -0.9599 -3.3374  0.2132
 1942TIP3    H2 5791   3.253   4.542   0.023 -0.1683 -0.6791 -1.8380
 1943TIP3   OH2 5792   1.247   2.937   2.096  0.5009 -0.2653 -0.4491
 1943TIP3    H1 5793   1.292   2.871   2.043  1.3537  0.3701 -0.5361
 1943TIP3    H2 5794   1.238   3.012   2.038  1.2591  0.3625  0.2296
 1944TIP3   OH2 5795   0.960   2.294   2.340  0.0959  0.8732  0.2808
 1944TIP3    H1 5796   1.016   2.369   2.319  0.4911  0.9141  1.3929
 1944TIP3    H2 5797   0.893   2.330   2.398 -0.1973  0.5238  0.1600
 1945TIP3   OH2 5798   2.701   4.628   3.055  0.2161  0.1880  0.6040
 1945TIP3    H1 5799   2.774   4.575   3.025  0.7612  0.5527  1.2659
 1945TIP3    H2 5800   2.705   4.624   3.151 -1.2673 -0.6557  0.6739
 1946TIP3   OH2 5801   6.039   6.459   4.861  0.5276  0.1040 -0.5383
 1946TIP3    H1 5802   6.115   6.514   4.846  1.1413 -0.3404  0.7384
 1946TIP3    H2 5803   6.056   6.379   4.812  0.7679  0.0985 -0.4442
 1947TIP3   OH2 5804   5.342   1.361   0.279  0.4293  0.4161 -0.0619
 1947TIP3    H1 5805   5.295   1.303   0.339 -0.2208  1.4359  0.4376
 1947TIP3    H2 5806   5.293   1.356   0.197  1.9824 -1.9050 -0.9854
 1948TIP3   OH2 5807   4.144   0.736   3.205  0.2059  0.9587  0.3222
 1948TIP3    H1 5808   4.061   0.761   3.245  0.8717  2.9547  0.5325
 1948TIP3    H2 5809   4.119   0.676   3.134 -1.2966  0.5945  1.1103
 1949TIP3   OH2 5810   0.320   0.284   1.249 -0.8976 -0.1393  0.7054
 1949TIP3    H1 5811   0.374   0.298   1.327  1.1865  1.1182 -0.8677
 1949TIP3    H2 5812   0.357   0.205   1.209 -0.8712  0.1545  0.1398
 1950TIP3   OH2 5813   3.795   1.871   5.413  0.2555  0.1752 -0.3164
 1950TIP3    H1 5814   3.888   1.882   5.397  0.8188 -1.7201  1.1933
 1950TIP3    H2 5815   3.771   1.945   5.470  0.5454  1.2597 -1.5682
 1951TIP3   OH2 5816   6.164   3.212   0.395  0.1547  0.2065 -0.5024
 1951TIP3    H1 5817   6.147   3.303   0.371  0.2978  0.4208  0.1928
 1951TIP3    H2 5818   6.142   3.208   0.488  0.9153 -0.2767 -0.3402
 1952TIP3   OH2 5819   5.854   1.796   4.386  0.1663 -0.9722 -0.1378
 1952TIP3    H1 5820   5.933   1.800   4.332 -0.1399 -1.3467 -0.6144
 1952TIP3    H2 5821   5.886   1.787   4.476  0.6771 -0.3701 -0.2515
 1953TIP3   OH2 5822   6.223   2.867   3.354  0.2445 -0.2581 -0.2872
 1953TIP3    H1 5823   6.289   2.833   3.294 -0.3952 -1.2609 -0.4465
 1953TIP3    H2 5824   6.262   2.947   3.389  0.8017  0.1507 -1.7315
 1954TIP3   OH2 5825   1.293   5.870   4.516 -0.1047  0.0283 -0.0635
 1954TIP3    H1 5826   1.382   5.902   4.501  0.1300  0.4342  1.9936
 1954TIP3    H2 5827   1.304   5.777   4.538 -0.2126  0.0330  0.0109
 1955TIP3   OH2 5828   3.053   1.523   4.022 -0.1862 -0.2674  0.1396
 1955TIP3    H1 5829   3.140   1.508   4.058  0.0743  0.1023 -0.3239
 1955TIP3    H2 5830   2.993   1.504   4.095  0.3010 -0.1113  0.5860
 1956TIP3   OH2 5831   5.798   2.647   2.704  0.2377  0.6505  0.3544
 1956TIP3    H1 5832   5.880   2.617   2.667 -0.2664  0.7584 -0.8938
 1956TIP3    H2 5833   5.737   2.575   2.688 -0.6874  1.7917 -1.6106
 1957TIP3   OH2 5834   2.150   1.291   1.255 -0.0474 -0.2268  0.0989
 1957TIP3    H1 5835   2.106   1.213   1.287  0.4811 -1.2594 -1.5341
 1957TIP3    H2 5836   2.078   1.351   1.232 -0.5953 -1.2289 -0.9479
 1958TIP3   OH2 5837   1.762   1.227   3.372 -0.0199 -0.1015 -0.2593
 1958TIP3    H1 5838   1.744   1.162   3.440  1.3590  0.9090  1.1500
 1958TIP3    H2 5839   1.835   1.189   3.322  1.3661  0.6591  1.0964
 1959TIP3   OH2 5840   1.432   3.303   3.142 -0.1038  0.0409  0.0290
 1959TIP3    H1 5841   1.511   3.256   3.115 -0.1642 -2.2218  3.2512
 1959TIP3    H2 5842   1.363   3.237   3.141 -1.4378  1.3853 -0.2952
 1960TIP3   OH2 5843   4.041   4.912   5.433 -0.1851 -0.4190 -0.4162
 1960TIP3    H1 5844   4.016   4.923   5.341 -1.2265 -1.0442 -0.2199
 1960TIP3    H2 5845   3.973   4.959   5.482  0.4052 -0.0224  0.0382
 1961TIP3   OH2 5846   1.188   3.279   5.517  0.4361 -0.3505 -0.0936
 1961TIP3    H1 5847   1.134   3.264   5.440 -0.4641 -0.1066  0.4627
 1961TIP3    H2 5848   1.125   3.298   5.587  1.2580  0.3160  0.5002
 1962TIP3   OH2 5849   2.959   1.916   1.269  0.6394 -0.0169  0.1487
 1962TIP3    H1 5850   2.917   1.938   1.185 -0.0938 -0.0774  0.4953
 1962TIP3    H2 5851   3.021   1.846   1.246  0.1512 -0.3209 -0.2794
 1963TIP3   OH2 5852   4.548   4.879   4.022 -0.6310 -0.1689  0.1090
 1963TIP3    H1 5853   4.635   4.919   4.022 -0.9579  0.6949  1.9290
 1963TIP3    H2 5854   4.550   4.814   3.953  1.7063 -0.6620  0.5751
 1964TIP3   OH2 5855   4.408   6.665   4.628 -1.0397 -0.0980  0.4710
 1964TIP3    H1 5856   4.378   6.720   4.556 -2.2287 -0.9381  0.2932
 1964TIP3    H2 5857   4.353   6.690   4.702 -0.4829  0.0772  0.8321
 1965TIP3   OH2 5858   2.444   6.089   5.463  0.6012 -1.0683  0.0751
 1965TIP3    H1 5859   2.353   6.081   5.435  0.7484 -2.4862 -0.0686
 1965TIP3    H2 5860   2.452   6.031   5.539  1.5192 -1.4067 -0.2589
 1966TIP3   OH2 5861   4.000   0.621   5.313  0.0469  0.0550  0.0887
 1966TIP3    H1 5862   4.001   0.526   5.306  0.7217  0.1401 -1.1802
 1966TIP3    H2 5863   4.079   0.643   5.362 -0.6783 -0.0851  1.3580
 1967TIP3   OH2 5864   3.545   2.331   2.926 -0.1170  0.3717 -0.2519
 1967TIP3    H1 5865   3.597   2.333   2.846 -0.1451  0.6450 -0.2662
 1967TIP3    H2 5866   3.559   2.244   2.962 -0.4930  0.0768 -0.8059
 1968TIP3   OH2 5867   5.474   3.476   2.850  0.0138  0.6059 -0.7292
 1968TIP3    H1 5868   5.512   3.452   2.766  0.3612  0.1211 -0.4393
 1968TIP3    H2 5869   5.483   3.571   2.854  2.9262  0.4187  0.0839
 1969TIP3   OH2 5870   0.740   2.464   3.818 -0.0651  0.3976 -0.1915
 1969TIP3    H1 5871   0.687   2.461   3.738  0.5931 -2.8632 -0.6244
 1969TIP3    H2 5872   0.828   2.443   3.789  1.5074  4.7505  0.6690
 1970TIP3   OH2 5873   6.947   3.180   2.943 -0.0987  0.0340 -0.1942
 1970TIP3    H1 5874   6.934   3.225   3.027 -1.0901 -0.2520 -0.1857
 1970TIP3    H2 5875   6.860   3.179   2.903  0.4985  0.8686 -1.5950
 1971TIP3   OH2 5876   0.768   6.072   1.541 -0.2762 -0.1350  0.0119
 1971TIP3    H1 5877   0.774   5.978   1.522  1.9030  0.1425 -0.8563
 1971TIP3    H2 5878   0.800   6.080   1.631  0.3226 -0.1456 -0.1959
 1972TIP3   OH2 5879   2.882   5.524   1.742  0.2095  0.6887  0.5155
 1972TIP3    H1 5880   2.801   5.538   1.692 -1.5186 -0.9660  2.6207
 1972TIP3    H2 5881   2.922   5.447   1.702 -0.3272  0.3140  0.6923
 1973TIP3   OH2 5882   1.490   2.429   1.332  0.4360 -0.2386  0.0664
 1973TIP3    H1 5883   1.561   2.488   1.309  0.6243 -0.2407  0.6338
 1973TIP3    H2 5884   1.435   2.479   1.393  0.5457 -0.6069  0.4765
 1974TIP3   OH2 5885   6.615   4.328   3.991 -0.0176 -0.1627 -0.0654
 1974TIP3    H1 5886   6.523   4.300   3.983  0.2763 -1.1157 -0.1966
 1974TIP3    H2 5887   6.665   4.257   3.951  0.7180  0.8683 -1.0296
 1975TIP3   OH2 5888   0.436   1.338   4.237 -0.6477 -0.0498 -0.3779
 1975TIP3    H1 5889   0.452   1.415   4.292 -1.3659 -1.1199  1.4230
 1975TIP3    H2 5890   0.523   1.308   4.212 -0.2728  0.2358  0.5445
 1976TIP3   OH2 5891   6.595   5.193   4.725  0.2400 -0.1910 -0.0817
 1976TIP3    H1 5892   6.529   5.124   4.718  0.1572 -0.0773 -0.4690
 1976TIP3    H2 5893   6.560   5.264   4.671 -0.5537  0.8611  1.7011
 1977TIP3   OH2 5894   3.915   2.375   0.781  0.3875  0.1898 -0.5474
 1977TIP3    H1 5895   3.967   2.294   0.782  1.6969  1.0166 -0.3196
 1977TIP3    H2 5896   3.918   2.403   0.689  1.9511  1.2135 -0.2269
 1978TIP3   OH2 5897   5.485   2.450   4.763  0.2323  0.4851 -0.1380
 1978TIP3    H1 5898   5.558   2.395   4.735  1.5072  1.3190  1.3369
 1978TIP3    H2 5899   5.421   2.389   4.800 -0.2888 -0.3491 -2.3165
 1979TIP3   OH2 5900   6.131   6.264   3.369  0.5907  0.4251 -0.7361
 1979TIP3    H1 5901   6.187   6.262   3.447 -0.3125  0.7301 -0.0668
 1979TIP3    H2 5902   6.069   6.335   3.386 -0.9744 -0.8733 -0.7617
 1980TIP3   OH2 5903   7.140   4.868   4.432 -0.1930 -0.2400 -0.0341
 1980TIP3    H1 5904   7.176   4.910   4.511  2.2121  0.8857 -1.6094
 1980TIP3    H2 5905   7.074   4.928   4.400 -0.8991 -0.5124  0.8856
 1981TIP3   OH2 5906   0.383   0.793   3.789  0.1342 -0.3619  0.4409
 1981TIP3    H1 5907   0.420   0.731   3.851  0.0199  0.7830  1.6914
 1981TIP3    H2 5908   0.293   0.763   3.776  0.2574 -0.7979  0.5734
 1982TIP3   OH2 5909   2.818   0.254   0.344 -0.2516  0.3722  0.0198
 1982TIP3    H1 5910   2.832   0.347   0.326  1.2052  0.7024  2.3752
 1982TIP3    H2 5911   2.779   0.219   0.264  0.3392  2.7426 -1.3913
 1983TIP3   OH2 5912   2.739   6.207   3.610  0.6964 -0.1598 -0.1586
 1983TIP3    H1 5913   2.660   6.232   3.659  1.1821  0.2333  0.4466
 1983TIP3    H2 5914   2.709   6.197   3.520 -0.5615 -2.5446  0.4542
 1984TIP3   OH2 5915   4.015   3.185   1.658  0.3984  0.0092  0.1447
 1984TIP3    H1 5916   4.053   3.105   1.696 -2.0553 -0.6046  1.4968
 1984TIP3    H2 5917   4.054   3.256   1.708  1.4761 -0.4124 -0.0625
 1985TIP3   OH2 5918   4.431   4.850   2.280 -0.0227  0.1336  0.6455
 1985TIP3    H1 5919   4.452   4.939   2.254  0.9067 -0.6210 -1.4573
 1985TIP3    H2 5920   4.469   4.839   2.367  3.0806  0.7157 -0.5203
 1986TIP3   OH2 5921   4.570   3.733   4.159 -0.4981  0.1028  0.4891
 1986TIP3    H1 5922   4.638   3.790   4.195 -0.2367 -0.2420  0.5496
 1986TIP3    H2 5923   4.541   3.777   4.079  0.4138 -0.1788 -0.0024
 1987TIP3   OH2 5924   2.516   3.682   5.051 -0.3838 -0.1829  0.3809
 1987TIP3    H1 5925   2.438   3.734   5.032  0.5988  0.5775 -1.8754
 1987TIP3    H2 5926   2.494   3.594   5.020 -0.3211  0.0599 -0.3763
 1988TIP3   OH2 5927   6.487   2.114   1.712 -0.0108 -0.3888 -0.1408
 1988TIP3    H1 5928   6.479   2.135   1.620 -0.1584 -0.9801 -0.2683
 1988TIP3    H2 5929   6.579   2.131   1.733 -0.1878  0.6172 -0.1660
 1989TIP3   OH2 5930   5.212   1.735   4.641 -0.0311  0.0353 -0.1775
 1989TIP3    H1 5931   5.279   1.666   4.640  0.6423  0.6714  0.1143
 1989TIP3    H2 5932   5.166   1.726   4.558 -1.1611 -1.9210  0.5787
 1990TIP3   OH2 5933   6.928   4.330   4.066 -0.5472 -0.0024  0.3571
 1990TIP3    H1 5934   6.898   4.279   4.142 -0.5087  0.9109  1.0131
 1990TIP3    H2 5935   6.992   4.274   4.023 -2.6341 -1.7396 -0.7000
 1991TIP3   OH2 5936   5.930   6.410   0.714 -0.4422  0.6404 -0.3230
 1991TIP3    H1 5937   5.925   6.441   0.804  0.1783  0.1030 -0.0898
 1991TIP3    H2 5938   6.024   6.402   0.697 -0.4663 -3.2826  0.4380
 1992TIP3   OH2 5939   6.233   5.701   3.656  0.2925 -0.4478 -0.1830
 1992TIP3    H1 5940   6.236   5.795   3.637  0.0723 -0.4143 -0.0561
 1992TIP3    H2 5941   6.242   5.659   3.571  0.2617 -0.3098 -0.2551
 1993TIP3   OH2 5942   1.198   2.263   0.634 -0.0648 -0.5566 -0.2226
 1993TIP3    H1 5943   1.121   2.318   0.651  0.5810  0.4681 -0.5264
 1993TIP3    H2 5944   1.241   2.256   0.720 -0.4580 -1.0787 -0.0653
 1994TIP3   OH2 5945   5.833   0.077   4.916 -0.3754 -0.4904 -0.3655
 1994TIP3    H1 5946   5.914   0.120   4.941 -0.9151  0.3147  0.0420
 1994TIP3    H2 5947   5.814   0.017   4.988 -0.0170 -0.8601 -0.5770
 1995TIP3   OH2 5948   5.498   3.069   0.181  0.4918  1.0555  0.2707
 1995TIP3    H1 5949   5.419   3.025   0.147  1.4581 -1.2481  0.8174
 1995TIP3    H2 5950   5.476   3.090   0.272  0.2782  1.0019  0.2334
 1996TIP3   OH2 5951   0.384   1.218   1.775  0.2238  0.4850  0.1911
 1996TIP3    H1 5952   0.356   1.279   1.706 -1.5400 -0.7364 -0.2207
 1996TIP3    H2 5953   0.475   1.244   1.793  0.2326  1.8407 -1.4876
 1997TIP3   OH2 5954   1.883   5.772   1.733 -0.0769  0.5690  0.0622
 1997TIP3    H1 5955   1.944   5.846   1.733  0.0428  0.4731  0.3023
 1997TIP3    H2 5956   1.923   5.708   1.674  0.5485  0.1125  0.9631
 1998TIP3   OH2 5957   1.914   4.306   0.256 -0.4955 -0.6438  0.0096
 1998TIP3    H1 5958   1.975   4.236   0.233  0.4830  0.4459 -0.8370
 1998TIP3    H2 5959   1.908   4.302   0.351  2.7484  0.6455  0.3869
 1999TIP3   OH2 5960   7.212   2.877   0.720 -0.0545 -0.2105  0.0347
 1999TIP3    H1 5961   7.196   2.785   0.737 -0.4073 -0.3621 -1.0410
 1999TIP3    H2 5962   7.168   2.923   0.792  0.0209 -0.8708  0.5066
 2000TIP3   OH2 5963   3.681   6.448   3.139  0.5824  0.2821  0.5831
 2000TIP3    H1 5964   3.666   6.424   3.047 -3.9733 -1.8946  1.5931
 2000TIP3    H2 5965   3.679   6.543   3.139  0.7263  0.3471 -1.5792
 2001TIP3   OH2 5966   3.048   2.108   3.321  0.2448  0.0370  1.0060
 2001TIP3    H1 5967   2.955   2.102   3.303  0.9385 -2.3288 -2.8439
 2001TIP3    H2 5968   3.075   2.192   3.284 -0.0409 -0.2545  0.1179
 2002TIP3   OH2 5969   2.974   3.936   2.940 -0.0079  0.0811 -0.4985
 2002TIP3    H1 5970   3.067   3.910   2.941  0.2966  1.1232  0.0351
 2002TIP3    H2 5971   2.953   3.949   3.033 -1.6229 -3.1991 -0.2593
 2003TIP3   OH2 5972   6.662   5.798   0.498  0.5495  0.0521  0.5946
 2003TIP3    H1 5973   6.685   5.721   0.550 -0.3116 -1.4180 -1.1101
 2003TIP3    H2 5974   6.746   5.838   0.477  1.1289 -1.2436  0.3337
 2004TIP3   OH2 5975   3.108   6.106   2.317  0.1561  0.4983  0.3396
 2004TIP3    H1 5976   3.064   6.181   2.278 -1.3268 -0.4078  0.1957
 2004TIP3    H2 5977   3.066   6.095   2.403 -0.4341 -0.8110 -0.0873
 2005TIP3   OH2 5978   4.504   5.274   4.413  0.5530  0.1044 -0.0492
 2005TIP3    H1 5979   4.574   5.331   4.446 -0.6809  1.4753  0.2636
 2005TIP3    H2 5980   4.539   5.186   4.424  1.7910  0.7008  1.1726
 2006TIP3   OH2 5981   2.848   5.013   0.843 -0.2776  0.1164 -0.0822
 2006TIP3    H1 5982   2.821   4.927   0.810 -2.4894  0.1878  1.2968
 2006TIP3    H2 5983   2.848   5.003   0.938 -1.7334  1.8983  0.1611
 2007TIP3   OH2 5984   2.013   5.550   5.901  0.3923 -0.6038  0.0959
 2007TIP3    H1 5985   1.921   5.574   5.912  0.2397 -1.2515  0.2685
 2007TIP3    H2 5986   2.020   5.528   5.808  0.7884  1.1252 -0.3213
 2008TIP3   OH2 5987   1.010   1.712   2.788  0.0173  0.3559 -0.2049
 2008TIP3    H1 5988   1.089   1.720   2.840  0.2696 -0.8000 -0.3693
 2008TIP3    H2 5989   0.939   1.736   2.847  0.3025 -0.8507  0.6721
 2009TIP3   OH2 5990   0.020   6.631   1.084 -0.1946 -0.3822  0.5832
 2009TIP3    H1 5991   0.079   6.566   1.046 -0.3544 -0.1874 -0.0092
 2009TIP3    H2 5992  -0.005   6.594   1.169  0.3195 -0.7352  0.5851
 2010TIP3   OH2 5993   6.281   2.000   4.591  0.4917 -0.1036  0.0656
 2010TIP3    H1 5994   6.208   2.054   4.621  0.2360 -0.1292 -0.4986
 2010TIP3    H2 5995   6.324   2.053   4.524  2.3009  0.8289  1.8405
 2011TIP3   OH2 5996   5.866   6.090   5.315 -0.0980  0.2719 -0.4496
 2011TIP3    H1 5997   5.916   6.154   5.265  0.3023  0.0607 -0.3220
 2011TIP3    H2 5998   5.785   6.080   5.265 -1.1628  2.5336  0.6833
 2012TIP3   OH2 5999   0.152   6.685   4.291  0.5443 -0.1501 -0.0743
 2012TIP3    H1 6000   0.241   6.718   4.279 -0.1195  0.6253 -4.4014
 2012TIP3    H2 6001   0.156   6.593   4.265 -0.0301  0.1456 -1.2842
 2013TIP3   OH2 6002   1.832   0.544   2.767  0.1579  0.6180 -0.1894
 2013TIP3    H1 6003   1.904   0.517   2.711 -0.9340 -0.5809 -1.0718
 2013TIP3    H2 6004   1.785   0.610   2.716  0.5703  1.3413  0.3520
 2014TIP3   OH2 6005   4.895   1.583   0.520 -0.4042  0.3235  0.2204
 2014TIP3    H1 6006   4.871   1.659   0.573 -1.0662  0.6144 -0.4641
 2014TIP3    H2 6007   4.989   1.574   0.532 -0.5226  0.4571  1.3274
 2015TIP3   OH2 6008   3.077   5.847   0.537 -0.0100  0.4666  0.0643
 2015TIP3    H1 6009   3.103   5.800   0.616  2.5261  2.1217  0.3206
 2015TIP3    H2 6010   3.116   5.797   0.466 -0.0414  0.4413  0.0647
 2016TIP3   OH2 6011   1.807   2.381   3.484 -0.2409  0.0432 -0.0366
 2016TIP3    H1 6012   1.887   2.389   3.432 -1.6057 -0.8105 -2.4629
 2016TIP3    H2 6013   1.807   2.459   3.540  1.3960  1.0102 -1.2807
 2017TIP3   OH2 6014   6.110   2.106   1.980  0.4760  0.1520  0.6160
 2017TIP3    H1 6015   6.081   2.099   1.889  0.7478 -0.1864  0.5516
 2017TIP3    H2 6016   6.031   2.128   2.029 -0.3860 -2.7033  0.7331
 2018TIP3   OH2 6017   5.725   0.494   4.763  0.1072 -0.2456  0.1121
 2018TIP3    H1 6018   5.817   0.472   4.772 -0.4916 -2.4821  1.4323
 2018TIP3    H2 6019   5.724   0.589   4.750  2.4994  0.0429  1.5189
 2019TIP3   OH2 6020   4.832   4.268   1.863  0.0742 -0.3156 -0.0816
 2019TIP3    H1 6021   4.828   4.361   1.839 -0.0035 -0.0814  0.8141
 2019TIP3    H2 6022   4.740   4.242   1.873 -0.0137 -1.0077 -2.1858
 2020TIP3   OH2 6023   1.666   3.211   3.000 -0.1444  0.2670  0.2282
 2020TIP3    H1 6024   1.658   3.140   2.937  0.9981  0.5615 -0.2814
 2020TIP3    H2 6025   1.659   3.291   2.947 -1.5308  0.5555  0.8052
 2021TIP3   OH2 6026   6.860   6.775   3.865 -0.3655 -0.0515  0.0055
 2021TIP3    H1 6027   6.866   6.856   3.915 -1.4352 -0.3341  0.6245
 2021TIP3    H2 6028   6.769   6.747   3.875  0.2794 -2.0126  0.8844
 2022TIP3   OH2 6029   0.632   3.671   3.234 -0.0974  0.2421  0.2632
 2022TIP3    H1 6030   0.727   3.658   3.235 -0.0233  0.6951 -0.5951
 2022TIP3    H2 6031   0.599   3.604   3.175 -0.3862 -0.3010  1.0159
 2023TIP3   OH2 6032   2.854   2.222   2.087  0.1540  0.8233  0.0220
 2023TIP3    H1 6033   2.830   2.135   2.119 -0.5834  0.8993 -0.3108
 2023TIP3    H2 6034   2.923   2.251   2.147  1.0513 -0.3583 -0.4001
 2024TIP3   OH2 6035   1.037   3.399   3.582  0.5739 -0.2639  0.0169
 2024TIP3    H1 6036   1.111   3.419   3.638  0.1157  0.2225  0.4629
 2024TIP3    H2 6037   1.076   3.378   3.497  1.2290 -0.2452  0.3097
 2025TIP3   OH2 6038   3.214   0.701   4.071 -0.4792  0.3174 -0.3536
 2025TIP3    H1 6039   3.149   0.676   4.006 -1.7037  1.8828  0.1825
 2025TIP3    H2 6040   3.275   0.627   4.075 -0.8094 -0.1538 -2.6659
 2026TIP3   OH2 6041   6.545   5.947   1.916 -0.4810  0.2947  0.0427
 2026TIP3    H1 6042   6.477   5.990   1.969 -0.8744  0.3780 -0.5136
 2026TIP3    H2 6043   6.499   5.921   1.836  0.0563 -0.0117 -0.1693
 2027TIP3   OH2 6044   1.450   0.591   4.899  0.5606 -0.4393 -0.6943
 2027TIP3    H1 6045   1.355   0.586   4.904  0.4967  0.5528 -0.7208
 2027TIP3    H2 6046   1.479   0.591   4.990  0.4735  0.0843 -0.6598
 2028TIP3   OH2 6047   3.753   3.635   2.569 -0.1848  0.9194  0.4637
 2028TIP3    H1 6048   3.703   3.554   2.579  0.1029  0.5885 -0.6486
 2028TIP3    H2 6049   3.833   3.620   2.619 -0.2650  0.6342  0.5086
 2029TIP3   OH2 6050   1.344   3.045   2.934  0.1571 -0.1381 -0.1225
 2029TIP3    H1 6051   1.394   2.967   2.958  1.2336  0.0023 -1.7382
 2029TIP3    H2 6052   1.364   3.059   2.842  1.4877  3.1270  0.5373
 2030TIP3   OH2 6053   5.430   1.926   0.984 -0.1189 -0.8138  0.6141
 2030TIP3    H1 6054   5.388   1.884   1.059 -0.1891 -0.6872  0.6460
 2030TIP3    H2 6055   5.474   1.855   0.938 -0.5877 -0.9924  0.4344
 2031TIP3   OH2 6056   1.290   1.627   4.968  0.2617  0.4653  0.0073
 2031TIP3    H1 6057   1.353   1.643   4.898  0.6502 -2.3207 -0.4308
 2031TIP3    H2 6058   1.310   1.692   5.035  1.5595  1.5783 -1.3985
 2032TIP3   OH2 6059   0.407   2.047   2.679  0.3156  0.2752 -0.3364
 2032TIP3    H1 6060   0.448   1.990   2.614  0.6056 -1.6235  1.3992
 2032TIP3    H2 6061   0.380   2.124   2.630  1.5717 -0.5495 -2.4612
 2033TIP3   OH2 6062   1.883   2.052   4.372  0.9605  0.3544 -0.0772
 2033TIP3    H1 6063   1.963   2.068   4.423 -0.0829  1.1787  1.3693
 2033TIP3    H2 6064   1.816   2.034   4.437 -0.0999 -0.1216 -1.2588
 2034TIP3   OH2 6065   5.683   5.960   0.164 -0.3341  0.4466  0.1587
 2034TIP3    H1 6066   5.752   5.989   0.223 -0.3193  2.2691 -0.6894
 2034TIP3    H2 6067   5.603   5.999   0.200 -0.5271  0.4265 -0.2489
 2035TIP3   OH2 6068   5.412   0.600   5.086  0.0633 -0.8511  0.4572
 2035TIP3    H1 6069   5.322   0.580   5.058  0.5794 -2.2900 -0.2897
 2035TIP3    H2 6070   5.467   0.542   5.033  1.4080 -0.4108  1.3171
 2036TIP3   OH2 6071   1.871   4.203   4.164 -0.0963 -0.3958  0.3157
 2036TIP3    H1 6072   1.885   4.292   4.130  0.0028 -1.0352 -1.4523
 2036TIP3    H2 6073   1.958   4.171   4.185  0.2006 -1.0208 -1.6851
 2037TIP3   OH2 6074   2.626   6.009   2.564  0.2924  0.0550  0.3591
 2037TIP3    H1 6075   2.614   6.078   2.628  1.2087 -0.0745  0.6863
 2037TIP3    H2 6076   2.539   5.993   2.528 -0.1071  0.5998  1.0790
 2038TIP3   OH2 6077   1.786   6.164   2.222 -0.2809  0.4341 -0.7543
 2038TIP3    H1 6078   1.825   6.215   2.293 -0.5697  1.8210 -1.5575
 2038TIP3    H2 6079   1.744   6.090   2.266 -1.2406  1.7448  0.6242
 2039TIP3   OH2 6080   4.259   4.183   4.702 -0.2884 -0.1026  0.3891
 2039TIP3    H1 6081   4.221   4.165   4.788  0.3892  1.3321  1.0151
 2039TIP3    H2 6082   4.183   4.194   4.645 -1.0437  3.7677  1.8113
 2040TIP3   OH2 6083   5.586   5.737   0.757  0.1032 -0.3894 -0.1600
 2040TIP3    H1 6084   5.537   5.656   0.742 -0.2284 -0.2695  0.2790
 2040TIP3    H2 6085   5.675   5.708   0.775 -0.1563 -0.7010  0.6775
 2041TIP3   OH2 6086   7.109   4.515   4.215  0.2389  0.2624 -0.4338
 2041TIP3    H1 6087   7.132   4.437   4.266 -0.3510 -0.0395 -0.6247
 2041TIP3    H2 6088   7.036   4.487   4.160  1.3629  0.3614 -2.0213
 2042TIP3   OH2 6089   3.624   3.308   4.885  0.0775 -0.0281 -0.3081
 2042TIP3    H1 6090   3.608   3.365   4.960 -2.0916 -1.4463  0.3909
 2042TIP3    H2 6091   3.681   3.240   4.918  0.2154  0.0812 -0.3201
 2043TIP3   OH2 6092   0.362   3.862   3.058 -0.1878  0.8498 -0.1127
 2043TIP3    H1 6093   0.428   3.908   3.108  0.8147 -0.4619 -0.1680
 2043TIP3    H2 6094   0.402   3.848   2.972 -0.5338  0.0712 -0.1596
 2044TIP3   OH2 6095   1.792   1.533   2.741 -0.6070  0.1317  0.5760
 2044TIP3    H1 6096   1.754   1.548   2.655  1.7771  1.5072 -0.3366
 2044TIP3    H2 6097   1.749   1.454   2.774 -1.9097 -0.1505 -1.6631
 2045TIP3   OH2 6098   6.224   5.690   2.288  0.3004 -0.1873  0.0971
 2045TIP3    H1 6099   6.191   5.746   2.218  2.5718 -1.0992 -1.8682
 2045TIP3    H2 6100   6.167   5.613   2.288  0.1864 -0.1020 -0.6585
 2046TIP3   OH2 6101   0.548   0.353   5.431 -0.1026 -0.2344  0.1775
 2046TIP3    H1 6102   0.510   0.265   5.433 -2.0017  0.4420  3.9549
 2046TIP3    H2 6103   0.507   0.395   5.356 -0.0767 -2.1694 -0.9872
 2047TIP3   OH2 6104   2.483   0.629   3.024  0.0408  0.1184 -0.0835
 2047TIP3    H1 6105   2.450   0.675   3.102  0.3619 -1.5747  1.1144
 2047TIP3    H2 6106   2.578   0.632   3.033  0.0828  0.0198 -0.4872
 2048TIP3   OH2 6107   4.426   1.728   2.079  0.1339  0.1945  0.0213
 2048TIP3    H1 6108   4.400   1.813   2.045 -2.5738 -0.6669 -0.2993
 2048TIP3    H2 6109   4.454   1.678   2.002 -0.8657 -0.0406 -0.2026
 2049TIP3   OH2 6110   0.377  -0.009   2.815  0.4104 -0.0194 -0.6049
 2049TIP3    H1 6111   0.282  -0.002   2.825  0.3857 -0.8792 -0.1686
 2049TIP3    H2 6112   0.402   0.072   2.769 -0.4082  0.6327  0.0627
 2050TIP3   OH2 6113   4.170   5.929   1.524  0.4534  0.6411 -0.7290
 2050TIP3    H1 6114   4.108   5.937   1.596  1.0427  3.1032 -0.4125
 2050TIP3    H2 6115   4.119   5.950   1.446  0.0212 -1.1891 -0.9871
 2051TIP3   OH2 6116   2.117   6.195   0.202 -0.0769  0.2337  0.2073
 2051TIP3    H1 6117   2.186   6.169   0.263 -0.2409  1.4787  0.9537
 2051TIP3    H2 6118   2.141   6.284   0.175 -0.7530  0.2254 -0.4649
 2052TIP3   OH2 6119   1.185   4.689   4.523  0.1935 -0.6737 -0.4414
 2052TIP3    H1 6120   1.151   4.605   4.493  1.7913 -0.6117 -2.6410
 2052TIP3    H2 6121   1.129   4.754   4.480 -1.3596 -0.5219  1.6439
 2053TIP3   OH2 6122   4.476   2.123   3.874  0.4477  0.0081 -0.4186
 2053TIP3    H1 6123   4.517   2.141   3.790 -0.0546  2.0053 -0.2775
 2053TIP3    H2 6124   4.549   2.102   3.932  1.0546  1.0321 -0.7865
 2054TIP3   OH2 6125   2.672   5.502   0.436  0.0834 -0.5430 -0.2062
 2054TIP3    H1 6126   2.712   5.485   0.521  1.6098 -0.1702 -0.8151
 2054TIP3    H2 6127   2.584   5.533   0.457  1.1718  1.8234  1.3874
 2055TIP3   OH2 6128   5.951   4.744   0.195  0.1728  0.4658 -0.3975
 2055TIP3    H1 6129   5.892   4.812   0.162 -0.2429 -0.2106 -1.0963
 2055TIP3    H2 6130   5.964   4.766   0.287  0.3796  1.7145 -0.7094
 2056TIP3   OH2 6131   1.236   5.531   3.062 -0.2538  0.2950 -0.4688
 2056TIP3    H1 6132   1.238   5.588   3.139  0.0583 -0.3151 -0.0199
 2056TIP3    H2 6133   1.328   5.520   3.038  0.0045 -2.4820  1.3171
 2057TIP3   OH2 6134   6.610   3.604   4.575 -0.2411 -0.2595  0.2491
 2057TIP3    H1 6135   6.697   3.642   4.584 -0.2046 -0.0233 -1.0365
 2057TIP3    H2 6136   6.625   3.509   4.577  0.1353 -0.2257 -0.6914
 2058TIP3   OH2 6137   3.959   1.772   0.184 -0.0095  0.4663 -0.0885
 2058TIP3    H1 6138   3.926   1.848   0.135 -1.1647 -0.1537 -0.3048
 2058TIP3    H2 6139   4.054   1.776   0.172 -0.2012  0.7719 -1.7590
 2059TIP3   OH2 6140   1.963   6.137   4.016 -0.2550 -0.4341 -0.2552
 2059TIP3    H1 6141   1.928   6.226   4.015  0.0809 -0.2488 -2.9445
 2059TIP3    H2 6142   1.885   6.082   4.028 -0.5897  0.1768  0.4509
 2060TIP3   OH2 6143   2.974   4.363   3.120 -0.4408 -0.0668 -0.3311
 2060TIP3    H1 6144   3.057   4.403   3.147  0.0760 -1.0921 -0.3432
 2060TIP3    H2 6145   2.962   4.392   3.030  1.5746 -2.4112 -1.4733
 2061TIP3   OH2 6146   2.434   3.511   0.727 -0.1236  0.5927 -0.2014
 2061TIP3    H1 6147   2.484   3.477   0.801 -0.2580 -0.1657 -0.4517
 2061TIP3    H2 6148   2.375   3.440   0.703 -1.0973  1.3544 -0.1211
 2062TIP3   OH2 6149   3.313   1.701   5.730  0.6568  0.3032 -0.5926
 2062TIP3    H1 6150   3.364   1.780   5.748  0.3360 -0.0142  2.1317
 2062TIP3    H2 6151   3.275   1.677   5.815 -0.0908 -2.1954 -1.5456
 2063TIP3   OH2 6152   4.754   2.161   3.502  0.2041 -0.3272  0.1308
 2063TIP3    H1 6153   4.808   2.119   3.434  0.3799  1.0702 -0.6338
 2063TIP3    H2 6154   4.814   2.221   3.546  0.0529 -1.1176  1.4677
 2064TIP3   OH2 6155   5.395   0.477   1.021  0.5190  0.0742 -0.0758
 2064TIP3    H1 6156   5.356   0.548   0.970 -1.4009 -0.7023  0.2461
 2064TIP3    H2 6157   5.432   0.418   0.955  0.2083  0.2996 -0.4571
 2065TIP3   OH2 6158   2.018   3.605   3.900  0.4796  0.4240  0.4023
 2065TIP3    H1 6159   2.040   3.697   3.887 -4.0555  1.4021 -2.9003
 2065TIP3    H2 6160   2.031   3.565   3.815 -2.1927 -0.6738  0.4077
 2066TIP3   OH2 6161   6.642   1.419   4.768  0.3650 -0.2425  0.5636
 2066TIP3    H1 6162   6.698   1.491   4.795  1.1476 -0.0398 -1.3965
 2066TIP3    H2 6163   6.584   1.457   4.702  0.6756 -1.3395 -0.3775
 2067TIP3   OH2 6164   0.450   0.153   4.813  0.6305  0.0050 -0.0145
 2067TIP3    H1 6165   0.515   0.204   4.765  0.9305  0.4242  0.8245
 2067TIP3    H2 6166   0.410   0.097   4.746  3.0301 -1.5324 -0.2936
 2068TIP3   OH2 6167   2.184   1.675   3.859  0.5723  0.0809  0.2115
 2068TIP3    H1 6168   2.092   1.653   3.874  0.5931  0.5756  1.1209
 2068TIP3    H2 6169   2.211   1.618   3.787  0.1043 -1.5020  1.2511
 2069TIP3   OH2 6170   4.668   5.629   2.756  0.0189 -0.1170  0.3426
 2069TIP3    H1 6171   4.621   5.559   2.801  0.9185 -1.0282 -0.0996
 2069TIP3    H2 6172   4.599   5.684   2.718 -0.7056 -0.4406  1.1756
 2070TIP3   OH2 6173   7.230   3.869   2.079  0.1031  0.3362 -0.0559
 2070TIP3    H1 6174   7.223   3.962   2.056  0.5359  0.6069  0.8351
 2070TIP3    H2 6175   7.144   3.846   2.114 -0.2575  0.1760 -1.0334
 2071TIP3   OH2 6176   1.717   3.110   3.867 -0.0016 -0.4138  0.6604
 2071TIP3    H1 6177   1.704   3.054   3.791  0.4350 -1.6338  1.4652
 2071TIP3    H2 6178   1.753   3.191   3.830  1.9614 -1.6422 -0.2973
 2072TIP3   OH2 6179   1.603   1.386   3.190 -0.5615  0.1944 -0.1881
 2072TIP3    H1 6180   1.662   1.459   3.175 -1.3085  1.4751  2.5033
 2072TIP3    H2 6181   1.655   1.323   3.240 -0.9264  0.4730  0.5453
 2073TIP3   OH2 6182   4.489   0.953   2.813 -0.0338 -0.0238 -0.0431
 2073TIP3    H1 6183   4.471   1.045   2.833  1.8470  0.2069  0.6972
 2073TIP3    H2 6184   4.465   0.905   2.892 -1.2952 -0.2587 -0.5275
 2074TIP3   OH2 6185   0.801   5.758   2.350  0.0460  0.4269  0.6941
 2074TIP3    H1 6186   0.751   5.728   2.273  0.7851 -0.3424  0.5012
 2074TIP3    H2 6187   0.867   5.817   2.314  1.2635 -0.9761  0.5395
 2075TIP3   OH2 6188   2.835   3.582   2.902  0.0421 -0.0013  0.2758
 2075TIP3    H1 6189   2.898   3.562   2.971 -0.7643  0.8746  1.3003
 2075TIP3    H2 6190   2.815   3.497   2.862  2.3631 -0.2149 -0.5479
 2076TIP3   OH2 6191   3.651   0.653   2.473 -0.1748  0.2203  0.1615
 2076TIP3    H1 6192   3.715   0.653   2.544 -0.4736  0.7194  0.4354
 2076TIP3    H2 6193   3.570   0.622   2.514 -0.7167  1.8403  0.3994
 2077TIP3   OH2 6194   1.549   3.699   1.646 -0.3365  0.1290  0.2060
 2077TIP3    H1 6195   1.517   3.632   1.587  0.3044 -1.3624  1.4779
 2077TIP3    H2 6196   1.621   3.741   1.598 -1.2346  0.4484 -0.8931
 2078TIP3   OH2 6197   3.858   3.777   0.608  0.2359 -0.2063 -0.9314
 2078TIP3    H1 6198   3.845   3.703   0.668  1.2608 -0.3459 -0.8604
 2078TIP3    H2 6199   3.939   3.756   0.562  0.7883  1.0912 -0.5929
 2079TIP3   OH2 6200   4.099   5.758   2.415  0.2131 -0.3426 -0.0819
 2079TIP3    H1 6201   4.044   5.826   2.377  0.1151 -0.5432 -0.3006
 2079TIP3    H2 6202   4.154   5.728   2.342 -0.1799 -0.9348 -0.1448
 2080TIP3   OH2 6203   3.260   4.472   1.383  0.8873  0.1742  0.1046
 2080TIP3    H1 6204   3.351   4.446   1.401  0.7490  0.0005  0.5576
 2080TIP3    H2 6205   3.210   4.433   1.454  0.3386 -0.4829 -0.6272
 2081TIP3   OH2 6206   0.759   4.510   3.398  0.1277 -0.2186 -0.0124
 2081TIP3    H1 6207   0.778   4.416   3.396 -1.3451 -0.6308  2.0826
 2081TIP3    H2 6208   0.664   4.515   3.390  0.3351  1.3377 -2.9828
 2082TIP3   OH2 6209   2.340   0.179   4.655 -0.0412  0.4115 -0.1496
 2082TIP3    H1 6210   2.298   0.249   4.706 -1.7694  0.1788 -1.1871
 2082TIP3    H2 6211   2.403   0.225   4.600  0.6918  0.8417  1.0012
 2083TIP3   OH2 6212   5.721   2.373   0.248 -0.4219  0.0317  0.7387
 2083TIP3    H1 6213   5.701   2.280   0.256 -0.0427  0.0137  1.5829
 2083TIP3    H2 6214   5.639   2.413   0.220  0.2617 -1.0064 -3.2719
 2084TIP3   OH2 6215   1.869   4.165   2.589 -0.3436 -0.4594  0.2153
 2084TIP3    H1 6216   1.903   4.172   2.678 -1.3410 -0.6861  0.6322
 2084TIP3    H2 6217   1.782   4.125   2.600 -0.3523 -0.7645 -0.8846
 2085TIP3   OH2 6218   6.587   5.077   5.267 -0.1269 -0.4040  0.6352
 2085TIP3    H1 6219   6.569   4.986   5.247  0.4288 -1.3127  3.7270
 2085TIP3    H2 6220   6.520   5.126   5.220 -1.0802 -2.4725 -0.2675
 2086TIP3   OH2 6221   2.658   4.343   2.925 -0.5143 -0.0859 -0.1368
 2086TIP3    H1 6222   2.578   4.323   2.876 -0.1242 -1.6009 -0.2042
 2086TIP3    H2 6223   2.726   4.291   2.882 -0.0617 -1.0576  1.6768
 2087TIP3   OH2 6224   4.462   3.673   5.747  0.3283  0.0253 -0.0357
 2087TIP3    H1 6225   4.414   3.726   5.683 -0.3058  2.5564  2.2988
 2087TIP3    H2 6226   4.553   3.696   5.733  0.2251  0.2758 -0.3131
 2088TIP3   OH2 6227   4.257   0.108   5.547  0.2398 -0.3676 -0.3294
 2088TIP3    H1 6228   4.282   0.158   5.469  1.4147 -0.0937  0.1953
 2088TIP3    H2 6229   4.303   0.024   5.537  0.1934 -0.4272 -0.0506
 2089TIP3   OH2 6230   3.018   0.092   1.125  0.2995 -0.2065  0.0345
 2089TIP3    H1 6231   2.959   0.154   1.168  0.3225  0.3939 -0.7597
 2089TIP3    H2 6232   3.091   0.146   1.094  0.0514 -0.5195 -1.1653
 2090TIP3   OH2 6233   4.288   5.330   3.936 -0.4021  0.5670  0.2130
 2090TIP3    H1 6234   4.198   5.306   3.958  0.1932  0.0068  2.1982
 2090TIP3    H2 6235   4.325   5.363   4.018  1.4093  0.1632 -0.3938
 2091TIP3   OH2 6236   0.644   2.758   2.904  0.2962  0.0901 -0.6135
 2091TIP3    H1 6237   0.607   2.751   2.993  0.3913  1.2815 -0.4548
 2091TIP3    H2 6238   0.586   2.821   2.860  0.8823  0.3355 -1.0442
 2092TIP3   OH2 6239   2.762   6.639   1.154  0.0747 -0.4081 -0.1822
 2092TIP3    H1 6240   2.770   6.550   1.118  1.0443 -0.4605  0.1432
 2092TIP3    H2 6241   2.827   6.643   1.223 -1.0511  0.0441  0.8976
 2093TIP3   OH2 6242   5.342   2.216   5.137 -0.0755  0.2069  0.8375
 2093TIP3    H1 6243   5.313   2.298   5.178 -0.4723 -0.0106  1.0008
 2093TIP3    H2 6244   5.415   2.186   5.191  0.5959  0.8602  0.3141
 2094TIP3   OH2 6245   2.996   2.136   2.865  0.0965 -0.1090 -0.1855
 2094TIP3    H1 6246   3.055   2.065   2.838  0.8209  1.0799 -1.9106
 2094TIP3    H2 6247   3.025   2.212   2.815 -1.0889  1.2665  1.0982
 2095TIP3   OH2 6248   4.148   6.208   3.006  0.1024 -0.2976 -0.0081
 2095TIP3    H1 6249   4.070   6.198   3.060 -0.2899  0.1872 -0.4824
 2095TIP3    H2 6250   4.115   6.221   2.917  0.7147  0.0501 -0.1931
 2096TIP3   OH2 6251   0.639   2.787   2.075  0.0775  0.0363 -0.2635
 2096TIP3    H1 6252   0.625   2.740   1.992  2.4530 -1.9987  0.3565
 2096TIP3    H2 6253   0.694   2.728   2.127  0.9471  2.4096  1.7054
 2097TIP3   OH2 6254   0.936   1.000   1.108 -1.1123  0.4753  0.5598
 2097TIP3    H1 6255   0.998   1.057   1.154 -1.0354 -0.1455  1.2466
 2097TIP3    H2 6256   0.933   1.035   1.019 -2.3912  2.6507  1.3653
 2098TIP3   OH2 6257   6.983   1.259   1.343  0.3215  0.2028 -0.0010
 2098TIP3    H1 6258   6.965   1.274   1.435 -0.7730  3.7580 -0.6695
 2098TIP3    H2 6259   7.077   1.240   1.340  0.5216  0.7470  1.7788
 2099TIP3   OH2 6260   4.674   2.586   1.820 -0.5759  0.6326  0.2464
 2099TIP3    H1 6261   4.606   2.583   1.753  0.4098 -0.7603 -0.7637
 2099TIP3    H2 6262   4.756   2.577   1.770  0.1584 -0.9110  1.6549
 2100TIP3   OH2 6263   1.859   3.573   0.033 -0.0786 -0.2162 -0.1283
 2100TIP3    H1 6264   1.945   3.579  -0.009  0.4157 -0.1812  0.8675
 2100TIP3    H2 6265   1.824   3.661   0.027 -0.4584 -0.4218 -1.3466
 2101TIP3   OH2 6266   5.437   3.358   2.326 -0.0700  0.1044  0.4810
 2101TIP3    H1 6267   5.488   3.340   2.246 -0.2061 -1.5920  0.7327
 2101TIP3    H2 6268   5.361   3.301   2.319 -0.9792  1.2101  1.0286
 2102TIP3   OH2 6269   4.498   3.551   4.450  0.4506 -0.3072  0.6143
 2102TIP3    H1 6270   4.481   3.488   4.381  1.5063  1.7349 -1.6888
 2102TIP3    H2 6271   4.447   3.628   4.426  0.9213  0.5121  2.0723
 2103TIP3   OH2 6272   5.351   0.886   0.275 -0.2618  0.2170  0.1881
 2103TIP3    H1 6273   5.424   0.845   0.320 -0.1243  1.3508  1.0493
 2103TIP3    H2 6274   5.391   0.949   0.215 -0.5015  0.0063 -0.2020
 2104TIP3   OH2 6275   0.799   4.610   4.265 -0.1879  0.3605  0.4159
 2104TIP3    H1 6276   0.757   4.663   4.197  1.2218 -0.6676 -1.3456
 2104TIP3    H2 6277   0.728   4.560   4.304 -0.8665 -0.0668 -1.2883
 2105TIP3   OH2 6278   5.691   3.354   3.272  0.1367  0.1975  0.1700
 2105TIP3    H1 6279   5.768   3.297   3.282 -1.2939 -2.0129 -0.6723
 2105TIP3    H2 6280   5.712   3.410   3.198  1.0212 -0.2259  0.0828
 2106TIP3   OH2 6281   1.318   3.184   5.053  0.5635 -0.3042 -0.3429
 2106TIP3    H1 6282   1.343   3.258   5.108 -1.5355  0.7971 -0.7701
 2106TIP3    H2 6283   1.328   3.217   4.963  0.2154 -0.7492 -0.5467
 2107TIP3   OH2 6284   4.357   2.828   0.676  0.1506 -0.0390 -0.2335
 2107TIP3    H1 6285   4.356   2.734   0.657 -1.2387 -0.2091  0.5587
 2107TIP3    H2 6286   4.435   2.840   0.730  0.8131 -0.5683 -1.0305
 2108TIP3   OH2 6287   6.158   6.663   3.361 -0.1192 -0.0589  0.1220
 2108TIP3    H1 6288   6.214   6.599   3.404  0.2148 -0.2011 -0.5072
 2108TIP3    H2 6289   6.217   6.711   3.303 -0.2992  1.0394  0.8119
 2109TIP3   OH2 6290   0.215   3.346   5.351  0.5918  0.3196 -0.4238
 2109TIP3    H1 6291   0.292   3.319   5.402  0.8383  0.4164 -0.7408
 2109TIP3    H2 6292   0.143   3.342   5.413  0.4668 -1.8615 -0.6403
 2110TIP3   OH2 6293   0.904   5.603   5.367  0.1090 -0.0551  0.4094
 2110TIP3    H1 6294   0.950   5.687   5.380  1.6571 -0.9148  0.6988
 2110TIP3    H2 6295   0.824   5.612   5.418  0.4375  1.1036  0.7595
 2111TIP3   OH2 6296   4.906   1.047   4.151  0.2233 -0.1686  0.1769
 2111TIP3    H1 6297   4.818   1.070   4.181 -0.0989 -0.5057 -0.4873
 2111TIP3    H2 6298   4.907   1.074   4.059  0.3262 -1.4743 -0.2191
 2112TIP3   OH2 6299   1.351   1.123   5.219 -0.4229 -0.0960  0.2908
 2112TIP3    H1 6300   1.430   1.116   5.272 -0.1957  0.7782  0.0798
 2112TIP3    H2 6301   1.340   1.217   5.204 -2.1090 -0.0983  1.2196
 2113TIP3   OH2 6302   0.274   0.095   0.893  0.2489  0.2828  0.0428
 2113TIP3    H1 6303   0.300   0.040   0.819  0.1575 -0.4977  0.5750
 2113TIP3    H2 6304   0.265   0.182   0.856  1.1542  0.0895 -0.6683
 2114TIP3   OH2 6305   6.479   4.917   4.878 -0.5191 -0.6433 -0.0851
 2114TIP3    H1 6306   6.532   4.871   4.813  0.7557 -1.9644  1.7915
 2114TIP3    H2 6307   6.520   4.896   4.962 -2.7123  0.1365  1.2731
 2115TIP3   OH2 6308   2.053   2.839   0.777 -0.1013  0.0648 -0.8587
 2115TIP3    H1 6309   2.127   2.801   0.730  0.1415 -0.8220  0.2012
 2115TIP3    H2 6310   1.990   2.767   0.785 -1.4232  0.9860 -2.3609
 2116TIP3   OH2 6311   1.161   0.714   2.760  0.4722  0.1007 -0.7542
 2116TIP3    H1 6312   1.203   0.777   2.819  1.9420 -1.1915 -0.3638
 2116TIP3    H2 6313   1.118   0.768   2.694  0.5592  1.5318  0.3074
 2117TIP3   OH2 6314   2.012   0.739   4.067  0.6543  0.0367  0.4342
 2117TIP3    H1 6315   2.013   0.801   4.140 -1.0132  0.0742  0.4775
 2117TIP3    H2 6316   1.944   0.675   4.092 -1.4548  1.1794 -1.9190
 2118TIP3   OH2 6317   4.283   1.674   0.423 -0.6975 -0.6186 -0.0815
 2118TIP3    H1 6318   4.368   1.660   0.383 -0.4084 -2.0732  0.9471
 2118TIP3    H2 6319   4.234   1.726   0.360  0.7142 -0.3540 -0.9854
 2119TIP3   OH2 6320   0.887   5.065   0.878  0.0143 -0.5993 -0.4402
 2119TIP3    H1 6321   0.845   4.983   0.904  0.4661 -0.8563 -0.5174
 2119TIP3    H2 6322   0.980   5.044   0.873  0.4418  0.4586  1.6972
 2120TIP3   OH2 6323   6.577   4.605   5.498 -0.3185  1.1602  0.4492
 2120TIP3    H1 6324   6.488   4.572   5.485 -0.1072  0.1089  1.4268
 2120TIP3    H2 6325   6.630   4.525   5.511  0.6495  1.7928  0.5124
 2121TIP3   OH2 6326   4.291   6.390   5.366 -0.3196 -0.2920  0.0530
 2121TIP3    H1 6327   4.383   6.408   5.386 -0.2190  0.4167 -0.9364
 2121TIP3    H2 6328   4.295   6.324   5.296 -0.6045 -1.2343  0.9101
 2122TIP3   OH2 6329   0.558   4.205   2.236 -0.3187  0.0624  0.3231
 2122TIP3    H1 6330   0.559   4.182   2.329 -1.2449 -1.7275 -0.0578
 2122TIP3    H2 6331   0.501   4.281   2.231  0.3904  0.6957  1.2886
 2123TIP3   OH2 6332   6.574   6.481   4.836  0.4374 -0.3548 -0.2144
 2123TIP3    H1 6333   6.604   6.511   4.922 -1.8529  2.4288 -0.2375
 2123TIP3    H2 6334   6.479   6.475   4.845  0.1834 -0.4199 -2.4526
 2124TIP3   OH2 6335   4.239   4.051   1.552  0.1855 -0.3936 -0.9512
 2124TIP3    H1 6336   4.201   4.030   1.637 -0.3425 -0.2029 -1.1367
 2124TIP3    H2 6337   4.312   4.110   1.572  0.5683 -0.9914 -0.5726
 2125TIP3   OH2 6338   2.207   2.492   0.709  0.1512 -0.9092 -0.1671
 2125TIP3    H1 6339   2.145   2.431   0.669  0.2364 -0.4550 -1.0178
 2125TIP3    H2 6340   2.213   2.464   0.800 -2.2629 -0.2508  0.2869
 2126TIP3   OH2 6341   0.181   0.316   2.173 -0.0691 -1.1996  0.1887
 2126TIP3    H1 6342   0.090   0.288   2.174 -0.4090 -0.1266  0.5490
 2126TIP3    H2 6343   0.185   0.381   2.102 -0.2309  0.7306  1.8676
 2127TIP3   OH2 6344   4.827   4.952   1.068  0.0751  0.4192 -0.0539
 2127TIP3    H1 6345   4.767   4.920   1.135 -1.5460  2.2611 -0.5116
 2127TIP3    H2 6346   4.913   4.919   1.094 -0.9843 -1.6107  1.1022
 2128TIP3   OH2 6347   2.080   1.536   4.424  0.2639 -0.0476 -0.0556
 2128TIP3    H1 6348   2.097   1.630   4.423 -2.8253  0.6307  0.3564
 2128TIP3    H2 6349   2.033   1.521   4.506 -1.9487 -1.3546 -1.4608
 2129TIP3   OH2 6350   6.533   4.553   3.070  0.3537 -0.0196 -0.6320
 2129TIP3    H1 6351   6.462   4.489   3.069 -0.2122  0.5323  0.7787
 2129TIP3    H2 6352   6.493   4.632   3.105  1.5851  0.4110 -0.1320
 2130TIP3   OH2 6353   1.166   4.662   3.555 -0.0962  0.0006  0.1923
 2130TIP3    H1 6354   1.201   4.573   3.562  2.7220  0.9725 -0.1073
 2130TIP3    H2 6355   1.243   4.716   3.538 -2.0016  2.2083 -2.2263
 2131TIP3   OH2 6356   1.939   5.157   5.222 -0.2344 -0.0318  0.2281
 2131TIP3    H1 6357   2.032   5.172   5.240 -0.0227 -1.9973  1.0141
 2131TIP3    H2 6358   1.893   5.210   5.287  0.3665 -0.1355  0.7410
 2132TIP3   OH2 6359   4.757   2.157   2.557 -0.0518  0.3816 -0.6140
 2132TIP3    H1 6360   4.718   2.099   2.622 -0.6408  1.3191 -0.0951
 2132TIP3    H2 6361   4.845   2.175   2.590  0.1720 -0.2884 -0.8345
 2133TIP3   OH2 6362   2.195   0.037   0.198 -0.3726 -0.8762  0.7695
 2133TIP3    H1 6363   2.263   0.000   0.255 -0.8516 -1.4602  0.9781
 2133TIP3    H2 6364   2.186   0.127   0.227  0.5145 -0.7065  0.5508
 2134TIP3   OH2 6365   5.172   1.522   5.769  0.4541  0.5781 -0.2022
 2134TIP3    H1 6366   5.223   1.551   5.845 -1.0407  0.3862  0.9288
 2134TIP3    H2 6367   5.236   1.515   5.698  2.3085 -1.2622  1.5405
 2135TIP3   OH2 6368   3.693   1.761   2.928  0.3048 -0.3399 -0.1830
 2135TIP3    H1 6369   3.688   1.696   2.998  0.0616 -0.6712 -0.5043
 2135TIP3    H2 6370   3.659   1.716   2.851  0.0963  0.1835 -0.4006
 2136TIP3   OH2 6371   1.814   5.308   5.409  0.1693  0.3102  0.2653
 2136TIP3    H1 6372   1.829   5.350   5.494  0.7411  1.5708 -0.4314
 2136TIP3    H2 6373   1.733   5.348   5.376  0.2428  0.2272 -0.0215
 2137TIP3   OH2 6374   0.993   1.121   3.228 -0.2248  0.1075 -0.5630
 2137TIP3    H1 6375   0.908   1.115   3.185 -1.1557 -0.4168  1.2330
 2137TIP3    H2 6376   1.025   1.030   3.230 -1.4522 -0.3846  2.0882
 2138TIP3   OH2 6377   0.124   1.208   4.792  0.3079  0.1468  0.2901
 2138TIP3    H1 6378   0.090   1.129   4.834 -1.7980  1.4138  1.1472
 2138TIP3    H2 6379   0.101   1.197   4.700 -0.6206  0.0323  0.5194
 2139TIP3   OH2 6380   0.818   3.461   1.800 -0.5762 -0.3446 -0.2742
 2139TIP3    H1 6381   0.837   3.528   1.735  0.3496 -0.2237  0.1117
 2139TIP3    H2 6382   0.873   3.483   1.875  0.1723 -1.8333 -0.3445
 2140TIP3   OH2 6383   3.897   3.035   4.274  0.0047  0.0147 -0.5016
 2140TIP3    H1 6384   3.884   3.099   4.204  4.7888  1.9473 -0.0386
 2140TIP3    H2 6385   3.973   2.985   4.247 -0.4796 -1.9770  1.5524
 2141TIP3   OH2 6386   2.725   1.416   5.351  0.0496 -0.5793  0.0575
 2141TIP3    H1 6387   2.795   1.444   5.293  1.6947  0.1558  2.2304
 2141TIP3    H2 6388   2.660   1.487   5.348 -0.7487 -1.3353 -2.0832
 2142TIP3   OH2 6389   4.036   5.811   0.147  0.0669  0.6073  0.9091
 2142TIP3    H1 6390   4.042   5.808   0.243  2.0116 -0.7484  0.7976
 2142TIP3    H2 6391   4.068   5.898   0.124 -2.0815  1.6320  1.5208
 2143TIP3   OH2 6392   6.933   0.855   0.110  0.1370  0.0274 -0.6908
 2143TIP3    H1 6393   6.953   0.925   0.048  0.1289  0.1674 -0.5346
 2143TIP3    H2 6394   6.845   0.826   0.086 -0.1707  0.5865 -0.2737
 2144TIP3   OH2 6395   5.278   3.556   0.373  0.0164 -0.1346 -0.0275
 2144TIP3    H1 6396   5.298   3.647   0.352 -1.2025  0.6792  2.0519
 2144TIP3    H2 6397   5.363   3.517   0.391  0.4517  0.9887  0.4535
 2145TIP3   OH2 6398   2.125   5.540   4.262  0.3271 -0.3989  0.0254
 2145TIP3    H1 6399   2.142   5.621   4.311  1.4946 -1.9896  2.4313
 2145TIP3    H2 6400   2.030   5.529   4.267 -0.0695  1.5769 -1.7481
 2146TIP3   OH2 6401   1.889   3.666   2.143  0.4238 -0.1305 -0.1484
 2146TIP3    H1 6402   1.837   3.638   2.067 -0.8575 -0.3629  0.7677
 2146TIP3    H2 6403   1.920   3.753   2.120  0.0599 -0.1983 -0.9462
 2147TIP3   OH2 6404   5.988   1.787   2.875  0.4043 -0.2103  0.3791
 2147TIP3    H1 6405   5.979   1.881   2.890 -0.9065 -0.6178  2.5673
 2147TIP3    H2 6406   6.062   1.761   2.928  0.7571 -0.4414 -0.2124
 2148TIP3   OH2 6407   4.477   0.482   4.402 -0.2200  1.2870 -0.1968
 2148TIP3    H1 6408   4.517   0.495   4.316  0.6150  1.4636  0.2050
 2148TIP3    H2 6409   4.474   0.569   4.441  0.3917  1.0726  0.3620
 2149TIP3   OH2 6410   2.287   5.646   4.069  0.3744  0.3779  0.2029
 2149TIP3    H1 6411   2.233   5.587   4.122  0.7571  2.2917  2.9461
 2149TIP3    H2 6412   2.372   5.647   4.113  0.8443  1.7924 -0.6753
 2150TIP3   OH2 6413   5.024   5.435   4.087 -0.1394  0.0197 -0.8504
 2150TIP3    H1 6414   5.055   5.488   4.160  1.0696 -1.6433 -0.1223
 2150TIP3    H2 6415   4.955   5.489   4.047  2.4114  3.1099 -1.4755
 2151TIP3   OH2 6416   1.243   3.133   0.678  0.1358 -0.2255 -0.1060
 2151TIP3    H1 6417   1.238   3.228   0.682  0.0460 -0.0260 -2.9699
 2151TIP3    H2 6418   1.292   3.114   0.598 -0.8739 -2.5822 -0.2806
 2152TIP3   OH2 6419   7.098   3.362   1.608 -0.0830 -0.0754 -0.0614
 2152TIP3    H1 6420   7.048   3.331   1.532 -1.9765  0.0655  1.0847
 2152TIP3    H2 6421   7.072   3.305   1.680  1.5243 -0.0672  0.5736
 2153TIP3   OH2 6422   2.856   4.077   1.634  0.1500 -0.1302  0.9544
 2153TIP3    H1 6423   2.765   4.047   1.632 -0.5044  1.7436  0.9126
 2153TIP3    H2 6424   2.873   4.105   1.544  1.2085 -1.6193  0.6621
 2154TIP3   OH2 6425   6.359   2.620   1.265  0.0247 -0.4698  0.6056
 2154TIP3    H1 6426   6.436   2.668   1.235  0.0984  1.7092  3.8413
 2154TIP3    H2 6427   6.390   2.531   1.278  2.0133  0.3326  1.7366
 2155TIP3   OH2 6428   2.128   1.059   2.648  0.2430  0.0155 -0.2145
 2155TIP3    H1 6429   2.159   0.971   2.626  1.4726 -0.3985  2.6695
 2155TIP3    H2 6430   2.191   1.117   2.605  0.4560 -0.5826 -0.7301
 2156TIP3   OH2 6431   4.591   1.169   2.373  0.1066 -0.1645  0.1276
 2156TIP3    H1 6432   4.675   1.206   2.400  0.5509 -0.6742 -0.5164
 2156TIP3    H2 6433   4.530   1.196   2.442  0.7508  0.3824  0.5019
 2157TIP3   OH2 6434   0.805   0.406   3.139 -1.0142  0.0690  0.4310
 2157TIP3    H1 6435   0.857   0.326   3.149  0.6823  1.1147  0.3894
 2157TIP3    H2 6436   0.715   0.375   3.130 -0.5875 -1.7669  1.8143
 2158TIP3   OH2 6437   4.384   0.240   4.488  0.0695 -0.3144 -0.5534
 2158TIP3    H1 6438   4.470   0.208   4.512 -0.0024 -0.7301 -0.8500
 2158TIP3    H2 6439   4.393   0.336   4.489  0.5143 -0.3545 -0.5256
 2159TIP3   OH2 6440   1.245   4.802   4.029 -0.6242 -0.1113  0.2509
 2159TIP3    H1 6441   1.248   4.883   4.080 -0.8024 -0.4570  0.8196
 2159TIP3    H2 6442   1.179   4.748   4.073 -0.4966 -0.5727 -0.1103
 2160TIP3   OH2 6443   4.021   2.240   5.548 -0.0681 -0.2693  0.9624
 2160TIP3    H1 6444   4.040   2.158   5.593  0.0204 -0.4757  0.5485
 2160TIP3    H2 6445   4.105   2.269   5.512  0.0573  0.4073  1.7712
 2161TIP3   OH2 6446   4.783   0.405   4.064  0.1544 -0.1780  0.4800
 2161TIP3    H1 6447   4.788   0.324   4.116 -2.1050 -0.4656  0.3249
 2161TIP3    H2 6448   4.708   0.452   4.099 -1.3460 -0.2751 -2.2953
 2162TIP3   OH2 6449   4.692   6.049   5.518  0.4266  0.0145 -0.1048
 2162TIP3    H1 6450   4.677   6.086   5.431  1.0470 -1.4278 -0.8597
 2162TIP3    H2 6451   4.606   6.017   5.545 -0.0061  1.4342  0.3309
 2163TIP3   OH2 6452   4.058   5.695   0.702  0.1132 -0.1142 -0.3841
 2163TIP3    H1 6453   4.034   5.637   0.773 -0.3857 -0.3418 -0.7293
 2163TIP3    H2 6454   4.012   5.777   0.721 -1.4423 -0.7199 -1.3258
 2164TIP3   OH2 6455   5.305   6.540   5.555  0.1282  0.3837 -0.1923
 2164TIP3    H1 6456   5.219   6.549   5.596 -0.4601  0.4697 -1.4074
 2164TIP3    H2 6457   5.288   6.549   5.461  1.4781  0.4989 -0.4448
 2165TIP3   OH2 6458   5.421   6.712   2.153 -0.0301 -0.0191 -0.1323
 2165TIP3    H1 6459   5.473   6.676   2.081 -0.6372  0.5603 -0.8742
 2165TIP3    H2 6460   5.343   6.748   2.111 -0.7755 -0.3784  0.9064
 2166TIP3   OH2 6461   3.008   6.079   4.741 -0.0902 -0.8733 -0.4487
 2166TIP3    H1 6462   3.089   6.045   4.778  0.6891 -1.4266 -2.5202
 2166TIP3    H2 6463   2.941   6.016   4.769  0.3985 -1.1021  0.2417
 2167TIP3   OH2 6464   3.114   5.272   4.299 -0.1650 -0.0811  0.0238
 2167TIP3    H1 6465   3.138   5.324   4.222 -0.8594 -1.5251 -1.2195
 2167TIP3    H2 6466   3.196   5.230   4.326 -0.1450 -0.4993 -0.6680
 2168TIP3   OH2 6467   7.106   2.002   5.057 -0.2222  0.7069 -0.6447
 2168TIP3    H1 6468   7.029   1.948   5.074  0.8651 -0.5977  0.3444
 2168TIP3    H2 6469   7.076   2.092   5.068 -1.7859  0.2776 -1.1179
 2169TIP3   OH2 6470   6.797   2.028   2.247 -0.3263 -0.2583  0.1061
 2169TIP3    H1 6471   6.772   1.949   2.295 -1.5122  1.1592  1.9290
 2169TIP3    H2 6472   6.856   2.075   2.306 -1.2390  1.1853 -0.0781
 2170TIP3   OH2 6473   3.633   1.281   5.650 -0.4203  0.1512 -0.1407
 2170TIP3    H1 6474   3.575   1.349   5.616 -2.3132 -0.7452  1.1466
 2170TIP3    H2 6475   3.676   1.246   5.572  0.0961  2.2945 -0.9051
 2171TIP3   OH2 6476   0.673   4.936   0.597 -0.4457  0.3037  0.1516
 2171TIP3    H1 6477   0.724   4.860   0.625 -2.1587 -0.8975  0.1715
 2171TIP3    H2 6478   0.647   4.979   0.679  2.1311  2.1320  0.1339
 2172TIP3   OH2 6479   1.127   0.296   4.934 -0.0732 -0.2428  0.5584
 2172TIP3    H1 6480   1.133   0.381   4.978  0.8152 -0.3132  0.5984
 2172TIP3    H2 6481   1.070   0.244   4.991  0.3645 -0.0577  1.1818
 2173TIP3   OH2 6482   1.276   1.576   3.626  0.2321 -0.2139 -0.6371
 2173TIP3    H1 6483   1.216   1.578   3.551  0.5192  0.8735 -0.8469
 2173TIP3    H2 6484   1.308   1.486   3.628 -1.3483 -0.8112 -0.5584
 2174TIP3   OH2 6485   1.763   3.870   3.105  0.2872 -0.2769 -0.1197
 2174TIP3    H1 6486   1.762   3.916   3.021 -1.6213  0.7766  0.4041
 2174TIP3    H2 6487   1.729   3.783   3.085  1.2006 -0.5236 -0.6518
 2175TIP3   OH2 6488   2.239   5.555   0.165  0.6579 -0.2544 -1.2014
 2175TIP3    H1 6489   2.269   5.579   0.077  0.9812  2.2998 -0.4598
 2175TIP3    H2 6490   2.157   5.602   0.177  0.1577 -1.2739 -0.4360
 2176TIP3   OH2 6491   0.731   6.339   0.524 -0.3096  0.0960  0.3472
 2176TIP3    H1 6492   0.824   6.339   0.543 -0.3931  0.6773  0.7908
 2176TIP3    H2 6493   0.715   6.256   0.479 -0.0133 -1.1568  2.4247
 2177TIP3   OH2 6494   4.769   2.852   0.144 -0.6374  0.2572  0.0963
 2177TIP3    H1 6495   4.760   2.937   0.188  0.7098 -0.2145  1.3916
 2177TIP3    H2 6496   4.846   2.862   0.087  0.8495 -0.6463  1.8278
 2178TIP3   OH2 6497   1.984   1.417   1.008 -0.1492 -0.5606  0.2234
 2178TIP3    H1 6498   1.936   1.334   1.013 -3.1359  1.0937  1.9063
 2178TIP3    H2 6499   1.926   1.476   0.962  1.3012  1.0047  0.2858
 2179TIP3   OH2 6500   5.506   4.609   5.166 -0.4170 -0.3818  0.4767
 2179TIP3    H1 6501   5.557   4.586   5.244 -0.4243 -1.3282  0.2188
 2179TIP3    H2 6502   5.535   4.547   5.099 -0.0638  0.7167 -0.4309
 2180TIP3   OH2 6503   3.037   1.575   2.817 -0.0901  0.9008 -0.2241
 2180TIP3    H1 6504   3.103   1.639   2.844  1.0917  0.0261 -0.9177
 2180TIP3    H2 6505   2.994   1.548   2.898 -0.8271  2.7656  0.0513
 2181TIP3   OH2 6506   1.145   0.358   1.348  0.3490  0.1813  0.2355
 2181TIP3    H1 6507   1.153   0.268   1.316 -0.6930  0.3563 -0.5813
 2181TIP3    H2 6508   1.212   0.366   1.416  0.4858 -1.1880  0.2807
 2182TIP3   OH2 6509   3.307   4.961   5.789  0.0912  0.4135  0.1036
 2182TIP3    H1 6510   3.290   4.870   5.811 -1.1876  0.9689  1.5789
 2182TIP3    H2 6511   3.358   4.957   5.708  1.3807 -1.6326  0.9319
 2183TIP3   OH2 6512   7.059   4.151   1.282 -0.5889  0.0682  0.4370
 2183TIP3    H1 6513   7.091   4.224   1.334  0.3097 -0.5318  0.7399
 2183TIP3    H2 6514   7.121   4.144   1.209 -1.2067  0.1959 -0.1169
 2184TIP3   OH2 6515   0.995   6.328   4.695 -0.0235  0.4766 -0.0959
 2184TIP3    H1 6516   1.030   6.312   4.606 -1.1037 -0.2002 -0.4174
 2184TIP3    H2 6517   1.053   6.276   4.752  0.1788  0.2543 -0.4948
 2185TIP3   OH2 6518   6.321   6.362   4.917  0.0853 -0.1816  0.0784
 2185TIP3    H1 6519   6.268   6.396   4.845  0.0448 -2.4206 -1.0283
 2185TIP3    H2 6520   6.288   6.274   4.932  3.0300 -1.4479 -0.2174
 2186TIP3   OH2 6521   3.863   5.838   1.023  0.5891  0.7290 -0.3842
 2186TIP3    H1 6522   3.955   5.812   1.011 -0.0587 -1.3648 -1.3881
 2186TIP3    H2 6523   3.830   5.776   1.088 -0.6154  0.0754 -1.5790
 2187TIP3   OH2 6524   2.609   3.797   3.554  0.0284 -0.1889 -0.0088
 2187TIP3    H1 6525   2.555   3.752   3.489 -0.9946  0.3492  0.4437
 2187TIP3    H2 6526   2.603   3.890   3.529 -0.5429  0.0433  0.9473
 2188TIP3   OH2 6527   1.814   6.635   4.055  0.9608  0.6269  0.0022
 2188TIP3    H1 6528   1.857   6.605   3.975  1.2009  1.1991 -0.0831
 2188TIP3    H2 6529   1.869   6.706   4.087  0.1771  1.2525 -0.0148
 2189TIP3   OH2 6530   5.194   0.605   3.819 -0.3910  0.0846  0.1262
 2189TIP3    H1 6531   5.233   0.542   3.880  2.2832  3.1349  1.9028
 2189TIP3    H2 6532   5.107   0.622   3.855 -1.6094 -3.0995 -0.9613
 2190TIP3   OH2 6533   1.860   5.184   0.854 -0.9106 -0.1475  0.3110
 2190TIP3    H1 6534   1.768   5.181   0.882 -1.8598  1.2651 -2.3119
 2190TIP3    H2 6535   1.897   5.258   0.902 -1.4241 -0.0806  0.6139
 2191TIP3   OH2 6536   3.776   3.362   1.050 -0.1211 -0.1575 -0.1655
 2191TIP3    H1 6537   3.686   3.386   1.068  0.4730  1.0319  1.3985
 2191TIP3    H2 6538   3.798   3.297   1.116  0.6378  0.7455  0.4969
 2192TIP3   OH2 6539   3.250   1.936   4.980 -0.2622  0.5124  0.0834
 2192TIP3    H1 6540   3.320   1.932   5.045 -0.8100  1.6977  0.7704
 2192TIP3    H2 6541   3.288   1.984   4.906  0.3123 -0.7110 -0.4628
 2193TIP3   OH2 6542   2.820   2.965   1.788  0.1427  0.3368 -0.0162
 2193TIP3    H1 6543   2.905   2.958   1.744  0.0698  1.2021 -0.3070
 2193TIP3    H2 6544   2.756   2.946   1.720  0.1003 -0.8706  0.3295
 2194TIP3   OH2 6545   2.511   4.821   1.879 -0.7649 -0.1158  0.2259
 2194TIP3    H1 6546   2.478   4.777   1.800 -1.1976 -0.6721  0.7025
 2194TIP3    H2 6547   2.568   4.756   1.920 -1.5028 -0.2951  1.0025
 2195TIP3   OH2 6548   4.699   6.765   2.957  0.4706  0.1404 -0.6289
 2195TIP3    H1 6549   4.713   6.746   3.050 -0.4597  0.8666 -0.3207
 2195TIP3    H2 6550   4.623   6.824   2.956  0.3103 -0.0572 -1.8673
 2196TIP3   OH2 6551   3.829   1.774   1.671  0.0134  0.1603 -0.0382
 2196TIP3    H1 6552   3.791   1.783   1.758 -1.0786 -1.4231 -0.2958
 2196TIP3    H2 6553   3.849   1.681   1.663 -0.1040  0.2359 -1.5480
 2197TIP3   OH2 6554   1.108   3.401   0.883 -0.2517 -0.0876  0.4885
 2197TIP3    H1 6555   1.075   3.488   0.906 -0.6886 -0.2884  0.6502
 2197TIP3    H2 6556   1.029   3.350   0.865  0.0650  0.0984 -1.6930
 2198TIP3   OH2 6557   6.471   4.004   4.398 -0.1272 -0.5689  1.1500
 2198TIP3    H1 6558   6.419   4.079   4.428  0.1164  0.2184 -0.2678
 2198TIP3    H2 6559   6.474   4.015   4.303  0.2088 -2.2107  0.9535
 2199TIP3   OH2 6560   6.441   5.924   1.024 -0.2424 -0.0805  0.3370
 2199TIP3    H1 6561   6.442   5.837   1.062  0.7665 -0.7594 -1.1810
 2199TIP3    H2 6562   6.385   5.916   0.946 -0.5966  0.7802  0.4815
 2200TIP3   OH2 6563   5.204   2.995   0.537  0.5511 -0.3985 -0.4790
 2200TIP3    H1 6564   5.276   2.947   0.497 -0.4452 -2.0924 -0.3583
 2200TIP3    H2 6565   5.153   2.928   0.584 -0.9612  0.7653 -0.3582
 2201TIP3   OH2 6566   3.907   6.726   5.149 -0.0691  0.2126 -0.3116
 2201TIP3    H1 6567   3.937   6.813   5.121  1.1836 -0.5966 -1.6499
 2201TIP3    H2 6568   3.858   6.693   5.074  1.5404 -1.1765 -0.7977
 2202TIP3   OH2 6569   5.781   2.382   1.654  0.5287 -0.2937 -0.6440
 2202TIP3    H1 6570   5.813   2.463   1.614 -0.7637 -0.4298 -2.0098
 2202TIP3    H2 6571   5.698   2.365   1.612 -0.1635 -1.3149  1.0229
 2203TIP3   OH2 6572   2.353   0.559   1.411  0.3686 -0.0695 -0.3860
 2203TIP3    H1 6573   2.346   0.649   1.442 -1.7224 -0.2255 -0.2463
 2203TIP3    H2 6574   2.375   0.508   1.490  1.9290  0.3143 -0.5347
 2204TIP3   OH2 6575   4.551   0.393   0.604 -0.1261  0.5297  0.0253
 2204TIP3    H1 6576   4.567   0.391   0.510  1.5796 -2.5782  0.2500
 2204TIP3    H2 6577   4.498   0.316   0.621 -0.6657  1.2038  1.6210
 2205TIP3   OH2 6578   0.910   1.127   0.860  0.4897 -0.1597 -0.0794
 2205TIP3    H1 6579   0.904   1.216   0.895 -1.7450  0.1728 -1.1432
 2205TIP3    H2 6580   0.923   1.140   0.766 -0.5670 -0.9226 -0.3453
 2206TIP3   OH2 6581   0.472   5.203   4.984 -0.0628 -0.4247  0.8595
 2206TIP3    H1 6582   0.401   5.233   4.927 -0.5455 -1.4534  0.8809
 2206TIP3    H2 6583   0.503   5.282   5.028 -1.1865  0.0614  0.8261
 2207TIP3   OH2 6584   6.723   2.669   5.518  0.4061 -0.4155  0.1624
 2207TIP3    H1 6585   6.815   2.674   5.490  0.4206 -1.0121  0.0924
 2207TIP3    H2 6586   6.675   2.713   5.448  0.7651  1.3258  0.9477
 2208TIP3   OH2 6587   6.874   1.451   4.563 -0.1685  0.0514  0.2412
 2208TIP3    H1 6588   6.779   1.442   4.571 -0.2807 -1.6801 -2.1506
 2208TIP3    H2 6589   6.886   1.539   4.527 -1.0108 -0.3019 -0.9799
 2209TIP3   OH2 6590   0.350   2.908   1.780  0.2665  0.0809 -0.6788
 2209TIP3    H1 6591   0.384   2.866   1.858  1.4874 -0.1056 -1.2841
 2209TIP3    H2 6592   0.259   2.928   1.801  0.9267  1.3199  1.3172
 2210TIP3   OH2 6593   4.543   4.246   4.959  0.0491  0.1842  0.3315
 2210TIP3    H1 6594   4.455   4.279   4.978  0.2113  1.1052 -0.4228
 2210TIP3    H2 6595   4.579   4.221   5.044 -1.0746 -0.5682  0.6030
 2211TIP3   OH2 6596   6.382   0.407   5.279 -0.7532 -0.3150 -0.2530
 2211TIP3    H1 6597   6.403   0.345   5.209 -1.3032  0.7656 -1.4129
 2211TIP3    H2 6598   6.452   0.395   5.343  0.3987 -0.5509 -1.5152
 2212TIP3   OH2 6599   5.155   5.845   0.671 -0.1517  0.0384 -0.1053
 2212TIP3    H1 6600   5.134   5.918   0.613 -1.4097 -0.8009 -0.7322
 2212TIP3    H2 6601   5.244   5.820   0.646  0.7112  1.9406  0.7938
 2213TIP3   OH2 6602   1.715   5.587   4.859 -0.5386  0.2372 -0.6005
 2213TIP3    H1 6603   1.786   5.547   4.809 -0.8072 -0.7003 -0.2523
 2213TIP3    H2 6604   1.636   5.543   4.828 -0.7960  0.1947  0.0891
 2214TIP3   OH2 6605   0.376   5.705   2.438 -0.0822 -0.0207 -0.2948
 2214TIP3    H1 6606   0.386   5.779   2.378  1.1006 -0.9614 -1.3069
 2214TIP3    H2 6607   0.287   5.714   2.471 -0.1331  1.5781 -0.7451
 2215TIP3   OH2 6608   6.981   4.125   1.586 -0.6120 -0.2175 -0.0581
 2215TIP3    H1 6609   6.885   4.124   1.589 -0.6384  1.2522  1.2013
 2215TIP3    H2 6610   7.002   4.208   1.542  0.0938 -0.6738 -0.5955
 2216TIP3   OH2 6611   7.010   4.906   5.304  0.4284 -0.0081 -0.0608
 2216TIP3    H1 6612   6.921   4.922   5.335  1.1201  2.0169  1.0449
 2216TIP3    H2 6613   7.019   4.810   5.308 -1.7006 -0.2655 -0.3046
 2217TIP3   OH2 6614   2.219   2.274   5.177 -0.2536  0.6340 -0.2050
 2217TIP3    H1 6615   2.261   2.251   5.260 -1.0077 -0.2126 -0.0450
 2217TIP3    H2 6616   2.132   2.304   5.201 -0.5109  0.2932 -0.6863
 2218TIP3   OH2 6617   1.758   2.330   1.069 -0.5258 -0.2784 -0.1812
 2218TIP3    H1 6618   1.763   2.381   0.988  1.1626  0.9726  0.6282
 2218TIP3    H2 6619   1.732   2.394   1.136 -0.7325 -1.0221  0.4688
 2219TIP3   OH2 6620   1.874   0.984   4.499 -0.4777 -0.5141 -0.4231
 2219TIP3    H1 6621   1.791   0.989   4.545  0.1427 -1.4666  0.8467
 2219TIP3    H2 6622   1.858   1.028   4.415 -1.2558  2.5009  1.1909
 2220TIP3   OH2 6623   2.872   3.254   5.644 -0.3172  0.2000  0.6297
 2220TIP3    H1 6624   2.802   3.233   5.582 -0.6775  1.9474  0.3687
 2220TIP3    H2 6625   2.934   3.306   5.592  0.9802 -0.9603  0.9686
 2221TIP3   OH2 6626   5.532   3.559   3.417  0.0948 -0.4409  0.3369
 2221TIP3    H1 6627   5.528   3.541   3.511  0.2821  1.7949  0.8114
 2221TIP3    H2 6628   5.569   3.479   3.380 -0.6260 -1.6419  2.0572
 2222TIP3   OH2 6629   6.711   3.810   4.844 -0.2844 -0.0782 -0.9333
 2222TIP3    H1 6630   6.727   3.723   4.805 -2.1517 -0.7966 -0.1829
 2222TIP3    H2 6631   6.641   3.848   4.791  0.3406  0.8957 -1.0929
 2223TIP3   OH2 6632   4.560   4.044   0.359 -0.1165  0.1344  0.2234
 2223TIP3    H1 6633   4.477   4.052   0.313 -0.2756 -2.0123  0.0604
 2223TIP3    H2 6634   4.538   4.063   0.451 -0.3163  1.7420 -0.1292
 2224TIP3   OH2 6635   4.592   6.597   3.807 -0.0797 -0.1171  0.3048
 2224TIP3    H1 6636   4.594   6.503   3.788 -2.6662 -0.2630  0.5103
 2224TIP3    H2 6637   4.504   6.614   3.838  1.1170  1.8998  3.0188
 2225TIP3   OH2 6638   5.431   6.518   2.707 -0.2331 -0.0152 -0.2625
 2225TIP3    H1 6639   5.366   6.504   2.638 -1.1096  0.0598  0.5305
 2225TIP3    H2 6640   5.454   6.611   2.701 -1.1139  0.2454  0.2223
 2226TIP3   OH2 6641   0.729   4.988   2.424  1.0735 -0.1788 -0.3608
 2226TIP3    H1 6642   0.671   4.942   2.365  1.4930  0.6006 -1.4208
 2226TIP3    H2 6643   0.804   4.930   2.435  1.8312  0.4077 -2.0899
 2227TIP3   OH2 6644   0.997   0.623   4.438  0.0678 -0.0895 -0.2352
 2227TIP3    H1 6645   1.030   0.636   4.527  1.8853  0.9375 -1.0022
 2227TIP3    H2 6646   0.922   0.564   4.448 -0.3620  0.7681  2.0582
 2228TIP3   OH2 6647   2.774   1.477   0.967 -0.1336  0.3854  0.1467
 2228TIP3    H1 6648   2.742   1.466   1.057  1.2148 -0.6287  0.5315
 2228TIP3    H2 6649   2.732   1.407   0.918 -0.7783  0.8680 -0.0113
 2229TIP3   OH2 6650   2.492   1.074   4.656 -0.1317 -0.4029 -0.2171
 2229TIP3    H1 6651   2.566   1.029   4.614  0.9034  1.1743 -0.1615
 2229TIP3    H2 6652   2.478   1.153   4.603 -1.1767 -0.2032  0.3246
 2230TIP3   OH2 6653   6.998   4.458   1.555 -0.3398  0.0655 -0.2413
 2230TIP3    H1 6654   6.987   4.471   1.461  0.7310 -0.1744 -0.4092
 2230TIP3    H2 6655   7.058   4.528   1.582 -0.4515 -0.0165  0.2221
 2231TIP3   OH2 6656   6.447   0.206   3.273 -0.4748  0.2464  0.4988
 2231TIP3    H1 6657   6.420   0.142   3.208 -0.6332  1.0168 -0.2144
 2231TIP3    H2 6658   6.412   0.173   3.356 -2.0654  0.3023 -0.1206
 2232TIP3   OH2 6659   1.438   5.456   5.088  0.1607 -0.1929 -0.1390
 2232TIP3    H1 6660   1.442   5.397   5.013  1.0120 -0.7600  0.3375
 2232TIP3    H2 6661   1.461   5.542   5.052  0.4082 -0.4284 -0.5576
 2233TIP3   OH2 6662   5.706   1.441   2.758  0.2035 -0.5323 -0.6253
 2233TIP3    H1 6663   5.786   1.418   2.709  1.2059  1.2293  0.0881
 2233TIP3    H2 6664   5.676   1.522   2.719  0.4377  0.3650  0.9780
 2234TIP3   OH2 6665   5.054   5.321   1.297 -0.4420  0.1247  0.2144
 2234TIP3    H1 6666   5.051   5.301   1.204  0.4563 -0.9680  0.3982
 2234TIP3    H2 6667   5.136   5.371   1.309 -0.7261  0.5619  0.3717
 2235TIP3   OH2 6668   2.236   5.443   0.791  0.1374 -0.1673  0.3129
 2235TIP3    H1 6669   2.204   5.383   0.724 -0.4911 -2.5213  2.5856
 2235TIP3    H2 6670   2.323   5.469   0.759  0.2732 -1.9615 -0.9612
 2236TIP3   OH2 6671   0.414   6.593   2.386  0.2305  0.2805 -0.2719
 2236TIP3    H1 6672   0.379   6.569   2.472  0.6050  0.4554 -0.0696
 2236TIP3    H2 6673   0.350   6.558   2.324  0.5849 -0.9731  0.0318
 2237TIP3   OH2 6674   5.257   6.583   3.559 -0.2126 -0.2712 -0.4035
 2237TIP3    H1 6675   5.169   6.551   3.543  0.0598 -1.7781  0.8096
 2237TIP3    H2 6676   5.249   6.640   3.635 -0.3393  0.7773 -1.1800
 2238TIP3   OH2 6677   0.803   0.169   2.491  0.0747 -0.7646 -0.2594
 2238TIP3    H1 6678   0.872   0.229   2.461  0.3101 -0.1537  1.3796
 2238TIP3    H2 6679   0.722   0.212   2.465  0.2757 -0.8986 -1.1493
 2239TIP3   OH2 6680   2.079   2.315   0.943  0.0249  0.5817  0.2113
 2239TIP3    H1 6681   2.082   2.373   1.019  0.5934 -0.2827  0.8733
 2239TIP3    H2 6682   2.138   2.244   0.965  1.2651  0.9672 -1.6054
 2240TIP3   OH2 6683   0.890   0.872   3.585  0.1844 -0.2703 -0.0486
 2240TIP3    H1 6684   0.851   0.839   3.666 -0.1581 -1.2355 -0.5934
 2240TIP3    H2 6685   0.887   0.967   3.595 -1.6033 -0.3146  0.2802
 2241TIP3   OH2 6686   6.966   6.558   0.184 -0.2800  0.4589  0.1634
 2241TIP3    H1 6687   6.980   6.652   0.193  0.9624  0.1519  2.0832
 2241TIP3    H2 6688   7.039   6.528   0.130 -0.4303  0.5515 -0.0882
 2242TIP3   OH2 6689   1.899   6.034   5.353  0.2388  0.1227  0.1438
 2242TIP3    H1 6690   1.806   6.057   5.357  0.2273  0.6632 -2.0148
 2242TIP3    H2 6691   1.902   5.956   5.298  1.0345 -0.2307  0.6680
 2243TIP3   OH2 6692   3.222   2.684   4.634 -0.2562  0.3465  0.2632
 2243TIP3    H1 6693   3.130   2.659   4.641  0.2175 -1.3971  0.7084
 2243TIP3    H2 6694   3.225   2.774   4.666 -1.7291  0.2650  0.7077
 2244TIP3   OH2 6695   1.231   0.809   4.370  0.3364 -0.1691 -0.2549
 2244TIP3    H1 6696   1.233   0.732   4.313  0.3975  0.9620 -1.8819
 2244TIP3    H2 6697   1.287   0.872   4.325  0.1292  0.8878  0.9320
 2245TIP3   OH2 6698   2.088   5.309   1.818 -0.1909  0.3131  0.2136
 2245TIP3    H1 6699   2.182   5.293   1.809 -0.3837 -1.0110  0.4349
 2245TIP3    H2 6700   2.048   5.222   1.821 -1.5763  0.8237 -1.3112
 2246TIP3   OH2 6701   1.180   2.523   2.764 -0.0678 -0.5229  0.5252
 2246TIP3    H1 6702   1.094   2.481   2.755  0.5450 -1.9723  1.1483
 2246TIP3    H2 6703   1.162   2.604   2.813 -1.5013  0.8957 -2.0889
 2247TIP3   OH2 6704   2.876   4.991   2.123  0.3029 -0.5106  0.4492
 2247TIP3    H1 6705   2.875   5.087   2.119 -2.1041 -0.4717 -3.4861
 2247TIP3    H2 6706   2.784   4.967   2.132  0.7698 -2.4831  0.3719
 2248TIP3   OH2 6707   2.658   4.865   3.936 -0.3945  0.4326 -0.6926
 2248TIP3    H1 6708   2.570   4.882   3.905 -0.8224  0.0327  0.2706
 2248TIP3    H2 6709   2.713   4.873   3.858 -1.0431  2.3156 -1.0111
 2249TIP3   OH2 6710   4.038   0.081   1.065 -0.2460  0.1057 -0.2163
 2249TIP3    H1 6711   4.111   0.102   1.124  0.5109  0.7003 -1.3131
 2249TIP3    H2 6712   4.012  -0.008   1.090 -1.3561  1.0763  2.3850
 2250TIP3   OH2 6713   2.807   2.435   5.659  0.4276  0.1601  0.1967
 2250TIP3    H1 6714   2.718   2.416   5.631  0.8440 -1.6183 -0.0785
 2250TIP3    H2 6715   2.808   2.415   5.753  0.2442  1.4133  0.4845
 2251TIP3   OH2 6716   6.906   0.773   5.026  0.4919 -0.3110  0.6072
 2251TIP3    H1 6717   6.932   0.781   4.934 -0.5939 -1.3412  0.1936
 2251TIP3    H2 6718   6.925   0.860   5.063 -0.0798  0.4731 -0.8553
 2252TIP3   OH2 6719   1.312   0.141   5.459 -0.0144  0.4932 -0.1899
 2252TIP3    H1 6720   1.310   0.156   5.554  0.6010  0.5598 -0.1826
 2252TIP3    H2 6721   1.220   0.135   5.434 -0.2264  1.6343  0.2340
 2253TIP3   OH2 6722   5.366   2.392   1.390  0.4005  0.2317 -0.7926
 2253TIP3    H1 6723   5.362   2.464   1.453 -0.2818 -0.8901  0.5222
 2253TIP3    H2 6724   5.277   2.355   1.392  1.1745 -1.7232 -0.0685
 2254TIP3   OH2 6725   6.565   0.423   3.510  0.5747 -0.0816 -0.5096
 2254TIP3    H1 6726   6.471   0.411   3.495  0.4703 -0.6875  0.5088
 2254TIP3    H2 6727   6.606   0.375   3.439  0.1462  1.8888 -2.1707
 2255TIP3   OH2 6728   1.132   6.394   5.443 -0.0569 -0.3890 -0.5594
 2255TIP3    H1 6729   1.191   6.364   5.374  0.6616 -1.0436  0.3086
 2255TIP3    H2 6730   1.057   6.335   5.437 -0.7539  0.5686 -1.7937
 2256TIP3   OH2 6731   0.554   5.318   5.656 -1.0508 -0.8222 -0.1723
 2256TIP3    H1 6732   0.630   5.286   5.606 -0.7433  1.9929 -1.7157
 2256TIP3    H2 6733   0.581   5.311   5.747 -0.1589 -2.6616 -0.5231
 2257TIP3   OH2 6734   2.764   5.874   4.573  0.5198  0.0731  0.3777
 2257TIP3    H1 6735   2.728   5.898   4.658 -0.3090 -0.5519  0.2181
 2257TIP3    H2 6736   2.790   5.782   4.584 -1.2355 -0.5720 -0.5389
 2258TIP3   OH2 6737   5.661   0.017   0.422  0.6113  0.1849 -0.0714
 2258TIP3    H1 6738   5.722  -0.050   0.454 -0.6846 -1.1015 -0.2065
 2258TIP3    H2 6739   5.665   0.087   0.487  3.4877  0.9550 -0.9296
 2259TIP3   OH2 6740   1.481   0.110   3.509 -0.0455  0.1136 -0.2945
 2259TIP3    H1 6741   1.552   0.072   3.457  0.3358 -0.4719  0.6206
 2259TIP3    H2 6742   1.441   0.176   3.452  0.1693 -0.7083 -1.4284
 2260TIP3   OH2 6743   3.111   2.183   1.267  0.1982 -0.1766  0.0795
 2260TIP3    H1 6744   3.098   2.273   1.296 -1.1823 -0.5064  0.5583
 2260TIP3    H2 6745   3.023   2.151   1.247  0.4310 -1.9567  1.5690
 2261TIP3   OH2 6746   6.108   5.525   5.536 -0.2497 -0.0886  0.3011
 2261TIP3    H1 6747   6.061   5.538   5.453  1.1905  1.2121 -0.3692
 2261TIP3    H2 6748   6.118   5.613   5.572 -1.0542 -0.6493  2.0176
 2262TIP3   OH2 6749   5.492   5.509   4.151  0.6541  0.1883 -0.1059
 2262TIP3    H1 6750   5.538   5.519   4.234 -0.3096 -0.5999  0.5270
 2262TIP3    H2 6751   5.418   5.452   4.170  0.5940 -0.2688 -1.5698
 2263TIP3   OH2 6752   6.197   5.012   1.974  0.6767 -0.1723 -0.3919
 2263TIP3    H1 6753   6.110   4.972   1.983  0.5718  0.1266 -0.0452
 2263TIP3    H2 6754   6.212   5.055   2.058  0.9232  0.2425 -0.6462
 2264TIP3   OH2 6755   3.384   2.160   0.101 -0.1485  0.9139  0.1876
 2264TIP3    H1 6756   3.463   2.214   0.092 -0.9632  2.1157  0.0713
 2264TIP3    H2 6757   3.359   2.139   0.011 -0.2459  0.9391  0.2092
 2265TIP3   OH2 6758   0.873   0.573   3.843 -0.5976 -0.1737  0.5089
 2265TIP3    H1 6759   0.822   0.570   3.763 -0.2592  1.2156  0.2108
 2265TIP3    H2 6760   0.918   0.489   3.847 -0.7082 -0.3042 -0.6987
 2266TIP3   OH2 6761   6.496   5.948   1.347 -0.5421  0.0582 -0.0906
 2266TIP3    H1 6762   6.533   5.953   1.258 -0.2359 -0.0894  0.0274
 2266TIP3    H2 6763   6.534   5.868   1.384 -1.2503 -0.2788 -0.0891
 2267TIP3   OH2 6764   2.287   4.870   3.584 -0.5232 -0.0018 -0.1180
 2267TIP3    H1 6765   2.256   4.819   3.509 -1.1692  3.1744 -2.1997
 2267TIP3    H2 6766   2.209   4.883   3.638 -0.7900  0.3104 -0.5688
 2268TIP3   OH2 6767   5.697   4.529   5.391 -0.2811 -0.1638  0.2374
 2268TIP3    H1 6768   5.654   4.551   5.474 -1.8148  0.8374 -0.7624
 2268TIP3    H2 6769   5.766   4.595   5.382 -0.6201  0.2157  0.3613
 2269TIP3   OH2 6770   7.187   6.186   0.786  0.0298 -0.3174  0.4279
 2269TIP3    H1 6771   7.249   6.237   0.733 -0.9566  1.3153  0.7720
 2269TIP3    H2 6772   7.104   6.232   0.776 -1.1051 -2.2996  0.2065
 2270TIP3   OH2 6773   6.767   4.097   4.412 -0.0224 -0.0381 -0.0471
 2270TIP3    H1 6774   6.676   4.078   4.435  0.6287 -2.6108  0.7506
 2270TIP3    H2 6775   6.766   4.105   4.317 -1.0145 -0.5619 -0.0996
 2271TIP3   OH2 6776   2.097   2.456   1.190  0.0508 -0.1692 -0.6371
 2271TIP3    H1 6777   2.072   2.483   1.278  0.9267 -0.5343 -0.2657
 2271TIP3    H2 6778   2.158   2.524   1.160 -0.2117 -0.0682 -0.9422
 2272TIP3   OH2 6779   3.769   4.611   0.618 -0.0914 -0.0539 -0.3124
 2272TIP3    H1 6780   3.808   4.595   0.705  0.5597  1.2469 -0.3440
 2272TIP3    H2 6781   3.795   4.535   0.567  0.7030 -0.1811  0.2521
 2273TIP3   OH2 6782   4.244   1.414   3.751  0.7232  0.3433  0.0921
 2273TIP3    H1 6783   4.311   1.372   3.698  1.4322  1.2427  0.2504
 2273TIP3    H2 6784   4.292   1.476   3.807 -0.3505  2.3031 -1.0203
 2274TIP3   OH2 6785   2.453   3.630   5.402 -0.1784 -0.1982 -0.1226
 2274TIP3    H1 6786   2.401   3.710   5.413 -0.6309 -0.5076  0.0005
 2274TIP3    H2 6787   2.435   3.603   5.311  2.3192  1.4831 -1.2115
 2275TIP3   OH2 6788   2.975   6.753   1.729 -0.7206  0.5684 -0.5677
 2275TIP3    H1 6789   3.064   6.781   1.751 -0.3133 -1.8331  1.2538
 2275TIP3    H2 6790   2.918   6.818   1.771  0.1401  1.3534 -0.5697
 2276TIP3   OH2 6791   1.969   1.048   3.216 -0.2136  0.0831 -0.0342
 2276TIP3    H1 6792   1.938   1.084   3.133 -0.3836  3.1752  1.2257
 2276TIP3    H2 6793   2.048   1.098   3.236  0.1837 -1.0284  1.3572
 2277TIP3   OH2 6794   5.041   3.387   4.110  0.1577 -0.2089  0.5768
 2277TIP3    H1 6795   5.122   3.339   4.127  1.1631  1.3599  0.3484
 2277TIP3    H2 6796   5.050   3.420   4.021 -0.4905  0.4299  0.7350
 2278TIP3   OH2 6797   4.178   2.056   4.345  0.1394 -0.3041 -0.0610
 2278TIP3    H1 6798   4.174   2.133   4.403  3.5100  0.0515 -0.1251
 2278TIP3    H2 6799   4.141   2.086   4.262  0.2935  0.8841  0.2833
 2279TIP3   OH2 6800   0.339   4.209   4.061  0.4765  0.4030  0.4792
 2279TIP3    H1 6801   0.340   4.123   4.018 -0.1801  0.1877  0.8872
 2279TIP3    H2 6802   0.262   4.253   4.023  1.4608  1.2684 -0.5961
 2280TIP3   OH2 6803   5.724   4.743   4.934 -0.3266 -0.2924 -0.5091
 2280TIP3    H1 6804   5.727   4.735   5.030  0.5611 -1.3464 -0.6015
 2280TIP3    H2 6805   5.815   4.745   4.907 -0.5554 -1.1617 -1.4145
 2281TIP3   OH2 6806   4.133   4.023   2.277  0.0897  0.2126  0.3428
 2281TIP3    H1 6807   4.121   4.016   2.371 -2.3607  1.7757  0.2189
 2281TIP3    H2 6808   4.055   3.983   2.239  0.8233 -0.0028 -1.0230
 2282TIP3   OH2 6809   1.341   3.354   1.019  0.3517  0.0227 -0.2052
 2282TIP3    H1 6810   1.318   3.308   1.100  0.1027  0.0300 -0.2701
 2282TIP3    H2 6811   1.256   3.374   0.979  0.4841 -0.3092 -0.6527
 2283TIP3   OH2 6812   5.138   4.431   5.384  0.0745  0.1940  0.1826
 2283TIP3    H1 6813   5.130   4.525   5.366  0.5573  0.1709 -0.1704
 2283TIP3    H2 6814   5.210   4.425   5.447 -1.1351  0.2110  1.6261
 2284TIP3   OH2 6815   4.424   5.300   5.167  0.7800  0.2241 -0.3150
 2284TIP3    H1 6816   4.519   5.297   5.179  0.9449  1.4149 -1.0742
 2284TIP3    H2 6817   4.408   5.243   5.092  0.8662 -0.1333 -0.0645
 2285TIP3   OH2 6818   5.138   0.891   2.464 -0.6215  0.5669 -0.1350
 2285TIP3    H1 6819   5.228   0.908   2.435 -0.5461 -0.2394 -0.3780
 2285TIP3    H2 6820   5.101   0.834   2.397 -0.8773 -0.2130  0.6617
 2286TIP3   OH2 6821   3.454   4.923   1.570 -0.1252 -0.0075 -1.3829
 2286TIP3    H1 6822   3.409   4.881   1.497 -3.6945  0.6402  0.2228
 2286TIP3    H2 6823   3.518   4.981   1.529 -2.1579  0.5339 -4.0199
 2287TIP3   OH2 6824   2.908   4.028   0.024 -0.0994  0.1701  0.0260
 2287TIP3    H1 6825   2.934   3.948   0.071  0.8718  0.7161  0.4479
 2287TIP3    H2 6826   2.911   4.004  -0.068 -0.5621 -0.4903  0.1711
 2288TIP3   OH2 6827   4.755   3.501   5.785 -0.5878 -0.1791 -0.6138
 2288TIP3    H1 6828   4.793   3.570   5.839 -3.2937  0.8805  0.1447
 2288TIP3    H2 6829   4.739   3.429   5.845  0.2050 -0.6366 -0.9360
 2289TIP3   OH2 6830   5.101   6.284   5.514  0.0006  0.6474  0.0167
 2289TIP3    H1 6831   5.099   6.316   5.604  0.8977 -2.1552  1.1558
 2289TIP3    H2 6832   5.063   6.196   5.520 -1.0773  0.8604 -2.6005
 2290TIP3   OH2 6833   1.914   2.438   3.158  0.1259 -0.2555 -0.0139
 2290TIP3    H1 6834   1.992   2.441   3.214  0.2116 -0.6813 -0.1128
 2290TIP3    H2 6835   1.947   2.419   3.071  0.0999  1.4478 -0.4318
 2291TIP3   OH2 6836   5.363   4.298   2.182  0.2211  0.2587 -0.4452
 2291TIP3    H1 6837   5.393   4.313   2.271 -1.8874  0.3309  0.3212
 2291TIP3    H2 6838   5.437   4.255   2.139  1.3734  0.4107  1.2640
 2292TIP3   OH2 6839   0.880   2.599   2.748  0.3173  0.2817  0.2659
 2292TIP3    H1 6840   0.871   2.514   2.790 -1.4224  0.1385 -0.3233
 2292TIP3    H2 6841   0.810   2.652   2.785  1.3556  1.4617  0.5926
 2293TIP3   OH2 6842   6.399   6.471   5.139  0.1336  0.4998  0.1825
 2293TIP3    H1 6843   6.409   6.563   5.115 -0.6666  0.6784  0.5219
 2293TIP3    H2 6844   6.402   6.424   5.055 -1.1205  0.9814 -0.1419
 2294TIP3   OH2 6845   4.662   4.477   3.672 -0.2481  0.1385  0.1183
 2294TIP3    H1 6846   4.569   4.491   3.688 -0.9076 -0.3856 -2.8123
 2294TIP3    H2 6847   4.671   4.382   3.663  0.8786  0.0477  1.7878
 2295TIP3   OH2 6848   2.943   5.405   3.781  0.4247 -0.3641  0.3153
 2295TIP3    H1 6849   2.925   5.480   3.724  0.8138 -0.8666 -0.4749
 2295TIP3    H2 6850   3.029   5.424   3.818 -0.4615  0.7247  2.0043
 2296TIP3   OH2 6851   6.431   3.432   5.821  0.0767 -0.4455 -0.2795
 2296TIP3    H1 6852   6.526   3.438   5.833  0.0781 -1.1690  0.1590
 2296TIP3    H2 6853   6.395   3.489   5.889  0.2164  1.1894 -1.5428
 2297TIP3   OH2 6854   0.186   2.764   0.548 -0.6377 -0.1626 -0.4376
 2297TIP3    H1 6855   0.124   2.826   0.587 -0.9715  0.4316 -1.8251
 2297TIP3    H2 6856   0.137   2.682   0.542 -0.6769 -0.1825  0.1120
 2298TIP3   OH2 6857   6.151   3.404   2.366 -0.4888 -0.0494 -0.3436
 2298TIP3    H1 6858   6.128   3.487   2.324  0.8303  0.5370  0.0182
 2298TIP3    H2 6859   6.177   3.347   2.293  1.2235  0.7709 -0.4356
 2299TIP3   OH2 6860   6.425   2.697   2.205 -0.1417  0.3327  0.1308
 2299TIP3    H1 6861   6.423   2.605   2.178 -0.7881  0.6081 -0.7884
 2299TIP3    H2 6862   6.370   2.700   2.283 -0.7949  0.0769 -0.3107
 2300TIP3   OH2 6863   3.079   5.779   4.552  0.5917  0.5321  0.1382
 2300TIP3    H1 6864   3.069   5.861   4.503  1.0911 -0.7587 -2.2972
 2300TIP3    H2 6865   2.997   5.731   4.535 -0.7453  1.3408  3.4521
 2301TIP3   OH2 6866   2.299   1.443   3.686  0.3752 -0.0230 -0.7109
 2301TIP3    H1 6867   2.314   1.379   3.756  0.7097 -1.1396 -1.7730
 2301TIP3    H2 6868   2.268   1.391   3.612 -0.1843  1.1665 -1.3399
 2302TIP3   OH2 6869   2.944   3.809   3.455 -0.0116  0.5335 -0.4369
 2302TIP3    H1 6870   2.850   3.817   3.440 -0.3303 -0.8002  0.6140
 2302TIP3    H2 6871   2.959   3.714   3.461  1.0592  0.7670  1.2823
 2303TIP3   OH2 6872   1.380   1.085   2.527 -0.0203  0.0480  0.0554
 2303TIP3    H1 6873   1.372   1.177   2.551 -0.1937  0.4756 -1.5212
 2303TIP3    H2 6874   1.443   1.084   2.455 -0.2735 -1.0232 -0.1763
 2304TIP3   OH2 6875   3.737   6.668   1.277 -0.0459  0.2706  0.1273
 2304TIP3    H1 6876   3.711   6.619   1.355 -0.7677  0.1047 -0.2040
 2304TIP3    H2 6877   3.672   6.643   1.211 -0.2483  1.4571 -0.1350
 2305TIP3   OH2 6878   6.485   0.381   2.519  0.3492  0.2239  0.0553
 2305TIP3    H1 6879   6.518   0.443   2.453  4.0013 -2.1938 -0.6960
 2305TIP3    H2 6880   6.538   0.399   2.597 -0.0373 -0.5884  0.5149
 2306TIP3   OH2 6881   4.663   3.671   5.437 -0.1858 -0.0718  0.2940
 2306TIP3    H1 6882   4.608   3.746   5.460  1.0903  0.8240  0.5955
 2306TIP3    H2 6883   4.619   3.629   5.364 -1.0353  0.8631  0.2495
 2307TIP3   OH2 6884   3.784   5.508   1.085 -0.2700 -0.4383  0.7990
 2307TIP3    H1 6885   3.768   5.416   1.103  3.2030 -1.4846 -0.5905
 2307TIP3    H2 6886   3.735   5.526   1.005 -1.8176 -0.7075  1.6443
 2308TIP3   OH2 6887   5.798   6.239   1.797 -0.1485 -0.2623  0.0865
 2308TIP3    H1 6888   5.828   6.330   1.795  1.3023 -0.7164  0.3500
 2308TIP3    H2 6889   5.705   6.244   1.775  0.6017  0.9901 -3.3536
 2309TIP3   OH2 6890   2.387   5.737   2.754  0.2068 -0.1548  0.0733
 2309TIP3    H1 6891   2.374   5.795   2.680  2.0072 -1.8512 -1.7219
 2309TIP3    H2 6892   2.446   5.785   2.813 -0.6866  0.9339  0.1069
 2310TIP3   OH2 6893   0.701   0.220   1.325  0.0304 -0.0369  0.5391
 2310TIP3    H1 6894   0.641   0.224   1.251  1.0204 -2.3115 -0.4707
 2310TIP3    H2 6895   0.748   0.304   1.321 -2.1021  1.2313  0.5854
 2311TIP3   OH2 6896   5.725  -0.003   1.399  0.2523  0.3997 -0.2224
 2311TIP3    H1 6897   5.799   0.025   1.454 -0.4512  1.5570  0.1651
 2311TIP3    H2 6898   5.672   0.076   1.388  0.7502  0.4358 -3.2390
 2312TIP3   OH2 6899   1.649   6.144   3.670 -0.0015  0.7235 -0.5158
 2312TIP3    H1 6900   1.575   6.129   3.729 -0.1207  0.7859 -0.6472
 2312TIP3    H2 6901   1.672   6.236   3.682  1.1271  0.2982  0.7424
 2313TIP3   OH2 6902   6.159   1.422   2.988 -0.4347  0.2196 -0.4059
 2313TIP3    H1 6903   6.204   1.472   2.920 -0.5198 -0.3635 -0.9001
 2313TIP3    H2 6904   6.073   1.463   2.995  0.2324  1.5238  0.7437
 2314TIP3   OH2 6905   1.805   5.744   0.437 -0.0605  0.8906  0.5328
 2314TIP3    H1 6906   1.871   5.810   0.416  0.2190  0.5578  0.3691
 2314TIP3    H2 6907   1.749   5.787   0.502  0.3743  1.1400  0.7490
 2315TIP3   OH2 6908   5.841   1.527   2.368 -0.2169 -0.0772  0.3306
 2315TIP3    H1 6909   5.760   1.481   2.387 -0.0764  0.1466  1.5254
 2315TIP3    H2 6910   5.814   1.617   2.349 -0.7802 -0.9610 -4.4454
 2316TIP3   OH2 6911   2.217   1.889   1.030  0.6968 -0.5085 -0.6872
 2316TIP3    H1 6912   2.131   1.873   1.069 -0.1879  2.2866 -1.2551
 2316TIP3    H2 6913   2.202   1.880   0.936  1.0811 -0.2414 -0.7729
 2317TIP3   OH2 6914   6.181   1.266   4.316  0.2892  0.1037 -0.2874
 2317TIP3    H1 6915   6.163   1.191   4.259  1.1568  0.5586 -1.1932
 2317TIP3    H2 6916   6.225   1.329   4.259  1.1475  0.5991  0.8774
 2318TIP3   OH2 6917   1.615   3.210   2.113 -0.7151  0.1207  0.2295
 2318TIP3    H1 6918   1.705   3.187   2.090 -1.4203 -0.2318 -2.5340
 2318TIP3    H2 6919   1.624   3.264   2.192  1.8681 -0.1839  0.2515
 2319TIP3   OH2 6920   6.762   5.866   4.529  0.5304 -0.0305 -0.2694
 2319TIP3    H1 6921   6.708   5.791   4.505  0.0017  0.4730 -0.6938
 2319TIP3    H2 6922   6.741   5.882   4.621  0.3995 -0.2018 -0.2687
 2320TIP3   OH2 6923   3.009   0.870   0.930 -0.2332 -0.2580  1.3085
 2320TIP3    H1 6924   2.931   0.820   0.906  0.4895 -2.0928  2.5915
 2320TIP3    H2 6925   3.003   0.882   1.025 -0.0231  1.5264  1.1347
 2321TIP3   OH2 6926   0.365   6.469   2.641 -0.0924  0.0133 -0.0015
 2321TIP3    H1 6927   0.282   6.446   2.684 -1.0248  0.6994 -1.3604
 2321TIP3    H2 6928   0.420   6.502   2.712 -2.3031  3.0748  0.4972
 2322TIP3   OH2 6929   5.053   3.899   3.170  0.5300 -0.3032 -0.5110
 2322TIP3    H1 6930   4.995   3.941   3.107  0.6782  0.1747 -0.3313
 2322TIP3    H2 6931   5.039   3.805   3.157  1.2214 -0.2341 -1.8617
 2323TIP3   OH2 6932   0.573   3.027   2.789 -0.4847  0.0102  0.1787
 2323TIP3    H1 6933   0.559   3.101   2.849  0.0810 -0.5182  0.9814
 2323TIP3    H2 6934   0.667   3.009   2.793 -0.7761 -1.5544  0.9996
 2324TIP3   OH2 6935   4.283   5.968   2.986 -0.3829  0.5572  0.0312
 2324TIP3    H1 6936   4.252   6.058   3.000 -2.8231 -0.3758  1.0615
 2324TIP3    H2 6937   4.327   5.945   3.068 -0.6392  0.4983  0.1554
 2325TIP3   OH2 6938   1.519   3.779   4.916 -0.5195 -0.4279 -0.3512
 2325TIP3    H1 6939   1.479   3.715   4.974 -2.1145  0.0118 -0.9323
 2325TIP3    H2 6940   1.577   3.727   4.860 -0.2064 -1.0630  0.5407
 2326TIP3   OH2 6941   3.398   3.723   5.697 -0.0190  0.1343 -0.4176
 2326TIP3    H1 6942   3.435   3.735   5.784 -1.5845  2.5791  0.0180
 2326TIP3    H2 6943   3.349   3.641   5.702 -1.3831  0.9873  1.5646
 2327TIP3   OH2 6944   5.880   2.483   4.332 -0.3795  0.0358 -0.7538
 2327TIP3    H1 6945   5.826   2.404   4.329 -0.4477  0.1107 -2.2314
 2327TIP3    H2 6946   5.919   2.482   4.420  0.4280 -2.1755 -1.0692
 2328TIP3   OH2 6947   2.362   3.702   1.203  0.0501  0.0199 -0.0833
 2328TIP3    H1 6948   2.365   3.609   1.226  0.8297 -0.3678 -1.5870
 2328TIP3    H2 6949   2.417   3.745   1.268  1.2373 -0.8503 -0.4785
 2329TIP3   OH2 6950   4.813   1.501   2.910 -0.1205 -0.1283  0.1227
 2329TIP3    H1 6951   4.805   1.508   2.815 -1.3081  0.0879  0.2305
 2329TIP3    H2 6952   4.897   1.544   2.930  0.5688 -0.9523 -0.8966
 2330TIP3   OH2 6953   5.316   5.135   5.528 -0.1381  0.4128  0.0930
 2330TIP3    H1 6954   5.341   5.045   5.509  2.4102  1.0553  0.0388
 2330TIP3    H2 6955   5.222   5.139   5.510  0.1863 -1.5338 -2.5849
 2331TIP3   OH2 6956   2.747   1.675   3.763  0.6781 -0.2605 -0.1631
 2331TIP3    H1 6957   2.741   1.587   3.727  0.7082 -0.6827  0.8383
 2331TIP3    H2 6958   2.689   1.674   3.840  1.2185  0.3775  0.2701
 2332TIP3   OH2 6959   0.394   1.712   0.816  0.4192  0.3355  0.4140
 2332TIP3    H1 6960   0.402   1.617   0.824  0.2684  0.4146  1.6024
 2332TIP3    H2 6961   0.481   1.742   0.791  0.7927 -0.0009  1.2918
 2333TIP3   OH2 6962   4.284   5.319   1.420  0.1448  0.3377  0.3544
 2333TIP3    H1 6963   4.357   5.271   1.380 -0.2045  0.8604 -0.9640
 2333TIP3    H2 6964   4.228   5.252   1.458 -0.6773 -0.4073 -2.0162
 2334TIP3   OH2 6965   1.971   3.967   2.165 -0.0298 -0.1510  0.7729
 2334TIP3    H1 6966   2.030   4.015   2.107 -1.0759  0.0301 -0.1667
 2334TIP3    H2 6967   1.995   3.998   2.253  0.3279  0.9789  0.3035
 2335TIP3   OH2 6968   6.125   1.557   2.274  0.0401  0.1639 -0.3721
 2335TIP3    H1 6969   6.135   1.532   2.366  1.3758 -1.2888 -0.8551
 2335TIP3    H2 6970   6.036   1.530   2.251 -1.1341  2.5426  1.0099
 2336TIP3   OH2 6971   3.695   5.349   4.809  0.1966 -0.3424 -0.4007
 2336TIP3    H1 6972   3.758   5.337   4.739 -0.3513 -1.1037 -0.7761
 2336TIP3    H2 6973   3.639   5.271   4.805 -1.1914  0.6171 -0.5405
 2337TIP3   OH2 6974   0.724   0.633   0.229  0.0007  0.1918  0.7721
 2337TIP3    H1 6975   0.769   0.656   0.310 -1.2554  1.4064  1.1586
 2337TIP3    H2 6976   0.684   0.714   0.199  0.4305 -0.2322 -1.0955
 2338TIP3   OH2 6977   2.671   1.623   2.932 -0.7468  0.3274 -0.0604
 2338TIP3    H1 6978   2.661   1.615   3.026 -0.5688  0.6635 -0.0094
 2338TIP3    H2 6979   2.743   1.685   2.921  0.1166 -0.6933 -0.4092
 2339TIP3   OH2 6980   4.596   2.237   5.224  0.2011 -0.2934 -0.3221
 2339TIP3    H1 6981   4.557   2.231   5.137  0.4462 -1.4108 -0.3770
 2339TIP3    H2 6982   4.661   2.306   5.217  1.2338 -1.3252 -1.4627
 2340TIP3   OH2 6983   5.895   4.094   0.897  0.0493 -0.4227 -0.2351
 2340TIP3    H1 6984   5.941   4.071   0.816  0.2523 -1.1674  0.0871
 2340TIP3    H2 6985   5.806   4.061   0.884 -0.2247  0.4455 -0.5985
 2341TIP3   OH2 6986   6.762   2.135   1.776 -0.2003 -0.2189 -0.2408
 2341TIP3    H1 6987   6.858   2.133   1.782 -0.2617 -1.0517  0.6513
 2341TIP3    H2 6988   6.733   2.157   1.865 -0.8719 -1.7102 -0.0592
 2342TIP3   OH2 6989   1.019   2.799   0.232 -0.1021 -0.2790  0.0965
 2342TIP3    H1 6990   0.929   2.770   0.247  0.8702 -3.3614  0.8752
 2342TIP3    H2 6991   1.068   2.764   0.307  1.5447  2.8328  0.6343
 2343TIP3   OH2 6992   1.212   5.232   0.938  0.0079  0.9320  0.4072
 2343TIP3    H1 6993   1.289   5.286   0.955  0.4635  0.6092 -0.5573
 2343TIP3    H2 6994   1.142   5.273   0.990  0.4019  2.2808 -0.0722
 2344TIP3   OH2 6995   6.586   3.050   2.143 -0.1136  0.7476  0.4881
 2344TIP3    H1 6996   6.515   3.070   2.204  0.3078  0.4712  1.0827
 2344TIP3    H2 6997   6.614   3.136   2.111 -0.5781  0.8708  0.4050
 2345TIP3   OH2 6998   3.670   6.211   0.754 -0.0801 -0.5104 -0.3363
 2345TIP3    H1 6999   3.758   6.237   0.783 -0.7328  1.9263 -0.3811
 2345TIP3    H2 7000   3.625   6.185   0.835  0.2834 -0.5508 -0.1434
 2346TIP3   OH2 7001   7.138   1.358   5.041  0.4888  0.3043  0.1672
 2346TIP3    H1 7002   7.233   1.347   5.041  0.5204  0.3356  1.5967
 2346TIP3    H2 7003   7.119   1.410   4.963  1.8537  1.8241  0.7954
 2347TIP3   OH2 7004   5.656   3.266   1.132  0.1286  0.0682 -0.0777
 2347TIP3    H1 7005   5.666   3.209   1.056 -0.6650  1.7486 -1.5165
 2347TIP3    H2 7006   5.726   3.331   1.123  0.0084  0.3034  0.6104
 2348TIP3   OH2 7007   4.852   4.380   0.196 -0.8441 -0.1594 -0.5049
 2348TIP3    H1 7008   4.841   4.285   0.197  0.3422 -0.3588  2.0330
 2348TIP3    H2 7009   4.787   4.413   0.257 -0.5543  0.5365 -0.5618
 2349TIP3   OH2 7010   5.970   4.821   4.288 -0.0207  0.3026  0.2311
 2349TIP3    H1 7011   5.969   4.881   4.214  0.9989 -0.2737 -0.2802
 2349TIP3    H2 7012   5.910   4.859   4.351  0.3875  1.6977 -0.1937
 2350TIP3   OH2 7013   3.149   5.515   4.126  0.3832  0.2714  0.1045
 2350TIP3    H1 7014   3.169   5.512   4.032  0.7156  1.3004  0.1360
 2350TIP3    H2 7015   3.054   5.520   4.130  0.2734 -1.1305 -0.1315
 2351TIP3   OH2 7016   3.412   4.147   5.339 -0.0645 -0.6283 -0.6192
 2351TIP3    H1 7017   3.408   4.158   5.244  0.8906 -0.4013 -0.6429
 2351TIP3    H2 7018   3.339   4.200   5.373 -0.7400 -1.1319 -1.2466
 2352TIP3   OH2 7019   6.541   4.524   1.742  0.1414  0.4216 -0.0637
 2352TIP3    H1 7020   6.608   4.592   1.737  0.6010  0.0113  0.4907
 2352TIP3    H2 7021   6.555   4.482   1.827 -1.0877  0.6164  0.2536
 2353TIP3   OH2 7022   4.356   1.631   2.472 -0.1949  0.1058  0.0576
 2353TIP3    H1 7023   4.345   1.563   2.538  0.2536 -0.2429 -0.2205
 2353TIP3    H2 7024   4.436   1.607   2.426 -0.8390  0.0003 -1.0344
 2354TIP3   OH2 7025   3.996   1.551   2.079  0.2851 -0.2506  0.4819
 2354TIP3    H1 7026   4.082   1.534   2.115 -0.8040 -1.8642  2.5337
 2354TIP3    H2 7027   3.991   1.647   2.072  1.4521  0.0068  2.4484
 2355TIP3   OH2 7028   4.641   2.218   2.337 -0.0028  0.0686 -0.1968
 2355TIP3    H1 7029   4.675   2.199   2.424 -3.1004  0.0719  1.1286
 2355TIP3    H2 7030   4.644   2.314   2.331 -1.0958  0.1625  0.5277
 2356TIP3   OH2 7031   0.293   5.362   0.628  0.4075  0.0566  0.2881
 2356TIP3    H1 7032   0.274   5.275   0.594 -0.1754  0.3471 -0.1467
 2356TIP3    H2 7033   0.355   5.399   0.565 -0.5985  0.5590 -0.4221
 2357TIP3   OH2 7034   3.489   0.833   2.932  0.5301 -0.2866  0.0636
 2357TIP3    H1 7035   3.455   0.772   2.866  0.6149  1.8159 -2.0703
 2357TIP3    H2 7036   3.568   0.790   2.965  0.3533 -1.5219 -1.0337
 2358TIP3   OH2 7037   0.812   6.054   4.480 -0.5154 -0.2952 -0.6039
 2358TIP3    H1 7038   0.832   5.990   4.412 -0.7049 -2.9001  1.6247
 2358TIP3    H2 7039   0.895   6.068   4.525 -0.7314  0.0860 -0.3208
 2359TIP3   OH2 7040   4.482   0.829   0.980 -0.5871 -0.1853 -0.8742
 2359TIP3    H1 7041   4.421   0.803   0.911  0.8638  0.7187 -2.5683
 2359TIP3    H2 7042   4.516   0.746   1.014 -1.4386 -0.6455 -1.1211
 2360TIP3   OH2 7043   7.224   5.292   3.408  0.3972 -0.8173  0.0513
 2360TIP3    H1 7044   7.161   5.267   3.341  0.4732 -1.1215  0.0914
 2360TIP3    H2 7045   7.182   5.269   3.491  0.3572 -0.5629  0.1033
 2361TIP3   OH2 7046   2.280   1.900   2.724  0.3951  0.0353  0.6877
 2361TIP3    H1 7047   2.206   1.956   2.746  0.0709 -0.4242  0.7862
 2361TIP3    H2 7048   2.357   1.955   2.738  0.0164  1.0541 -0.9923
 2362TIP3   OH2 7049   6.525   5.617   2.719  0.5447 -0.1413 -0.1236
 2362TIP3    H1 7050   6.460   5.547   2.731 -0.1198  0.5909  0.6548
 2362TIP3    H2 7051   6.494   5.666   2.643  1.0183 -0.6785 -0.6783
 2363TIP3   OH2 7052   2.282   0.453   2.707 -0.4759  0.8066 -0.7421
 2363TIP3    H1 7053   2.333   0.533   2.720  1.1979 -0.0861 -1.4313
 2363TIP3    H2 7054   2.261   0.423   2.795  0.2485  1.1752 -0.4328
 2364TIP3   OH2 7055   5.721   1.996   2.899  0.5268 -0.5567  0.1254
 2364TIP3    H1 7056   5.778   2.073   2.895 -1.7203  1.2102 -0.0392
 2364TIP3    H2 7057   5.660   2.015   2.969 -1.1961 -1.3543 -1.0833
 2365TIP3   OH2 7058   6.853   0.404   0.745 -0.0541 -0.2293 -0.4799
 2365TIP3    H1 7059   6.909   0.477   0.718  0.6215 -0.1312  1.1047
 2365TIP3    H2 7060   6.765   0.441   0.748  0.1673  0.2976 -0.4673
 2366TIP3   OH2 7061   4.694   4.937   4.754  0.4798 -0.5076  0.2205
 2366TIP3    H1 7062   4.712   4.862   4.698 -1.1774 -0.2364 -0.7448
 2366TIP3    H2 7063   4.665   4.899   4.837 -0.3445 -0.9774 -0.2580
 2367TIP3   OH2 7064   5.920   2.609   0.205  0.6243  0.1862  0.3354
 2367TIP3    H1 7065   5.866   2.583   0.279  0.2608  1.0636  0.3965
 2367TIP3    H2 7066   5.858   2.622   0.133  0.4884  2.7147  0.8086
 2368TIP3   OH2 7067   2.240   6.180   3.662 -0.1467  0.2933  0.3214
 2368TIP3    H1 7068   2.257   6.139   3.577  0.8840 -1.9685  1.5294
 2368TIP3    H2 7069   2.148   6.159   3.680  0.7158 -3.0515  1.5723
 2369TIP3   OH2 7070   7.121   3.263   4.220 -0.5632 -0.1508 -0.3760
 2369TIP3    H1 7071   7.110   3.322   4.146 -2.2928 -0.7480 -0.6560
 2369TIP3    H2 7072   7.085   3.312   4.295 -4.3576 -1.5696 -1.0274
 2370TIP3   OH2 7073   1.764   6.474   4.769 -0.2271  0.1533 -0.2819
 2370TIP3    H1 7074   1.817   6.414   4.717  0.0313  1.1937 -1.2590
 2370TIP3    H2 7075   1.763   6.436   4.856  0.4767 -0.9164 -0.7254
 2371TIP3   OH2 7076   1.395   4.810   2.305 -0.0066 -0.2099  0.1554
 2371TIP3    H1 7077   1.366   4.794   2.395 -1.0365 -0.8225 -0.2783
 2371TIP3    H2 7078   1.430   4.899   2.308 -0.2286 -0.1399  1.1197
 2372TIP3   OH2 7079   6.647   4.173   2.927 -0.1973  0.2028  0.1510
 2372TIP3    H1 7080   6.739   4.185   2.951 -0.4904 -2.0108  2.8883
 2372TIP3    H2 7081   6.648   4.106   2.859  0.1837 -0.9205  1.2329
 2373TIP3   OH2 7082   6.381   3.440   3.930 -0.1084  0.4954  0.0078
 2373TIP3    H1 7083   6.295   3.446   3.888  0.0636  2.4289 -0.1458
 2373TIP3    H2 7084   6.422   3.363   3.889 -1.0653  0.6134 -1.2391
 2374TIP3   OH2 7085   3.962   2.283   4.411 -0.1415  0.1961  0.2210
 2374TIP3    H1 7086   3.918   2.201   4.390  2.0012 -1.0415  0.3002
 2374TIP3    H2 7087   3.967   2.283   4.506 -1.1643  1.0354  0.2976
 2375TIP3   OH2 7088   6.242   6.133   1.132 -0.0512 -0.2810  0.0341
 2375TIP3    H1 7089   6.269   6.152   1.042  1.6719  1.0520  0.7872
 2375TIP3    H2 7090   6.163   6.186   1.144  1.7477  2.5521  0.3952
 2376TIP3   OH2 7091   1.672   2.745   1.480 -0.2173 -0.7053  0.3198
 2376TIP3    H1 7092   1.668   2.832   1.519  0.8026  0.3738 -1.8249
 2376TIP3    H2 7093   1.644   2.686   1.550 -1.6827  1.3782  1.6118
 2377TIP3   OH2 7094   3.122   1.821   1.073  0.4563 -0.1338  0.2135
 2377TIP3    H1 7095   3.157   1.876   1.003 -1.7372  0.7842 -0.2458
 2377TIP3    H2 7096   3.122   1.733   1.036 -2.3611  0.5689 -1.7649
 2378TIP3   OH2 7097   5.609   4.931   3.191  0.1449 -0.6373 -0.1359
 2378TIP3    H1 7098   5.530   4.964   3.234  1.0233  3.9920 -1.5910
 2378TIP3    H2 7099   5.575   4.868   3.126 -2.0110 -0.8696  1.1012
 2379TIP3   OH2 7100   5.054   0.101   5.511  0.1224  0.5801  0.1414
 2379TIP3    H1 7101   4.985   0.131   5.452  1.3180  0.5395 -1.3397
 2379TIP3    H2 7102   5.066   0.173   5.572  0.7895  1.8631 -1.4210
 2380TIP3   OH2 7103   0.329   5.521   3.357 -0.3531 -0.0846 -0.1370
 2380TIP3    H1 7104   0.246   5.539   3.312  1.2671 -0.4978 -3.5992
 2380TIP3    H2 7105   0.326   5.428   3.377 -0.1667 -0.4237 -1.6055
 2381TIP3   OH2 7106   2.109   5.921   2.430 -0.1797  0.0202 -0.6583
 2381TIP3    H1 7107   2.080   5.961   2.512 -0.5057  0.8308 -1.1512
 2381TIP3    H2 7108   2.148   5.993   2.380  0.6723 -0.6087 -0.9245
 2382TIP3   OH2 7109   7.051   5.276   1.705 -0.1298 -0.1793 -0.2691
 2382TIP3    H1 7110   7.039   5.262   1.799  0.0573  0.0686 -0.2087
 2382TIP3    H2 7111   7.145   5.264   1.691  0.0682  1.2057 -0.1855
 2383TIP3   OH2 7112   0.531   0.838   0.305 -0.7272 -0.5416  0.1671
 2383TIP3    H1 7113   0.569   0.852   0.391 -1.4337 -0.2368  0.4300
 2383TIP3    H2 7114   0.438   0.825   0.321 -0.9919  0.3035 -0.6219
 2384TIP3   OH2 7115   2.060   5.010   2.544 -0.2046 -0.3155 -0.1250
 2384TIP3    H1 7116   2.066   5.083   2.483  0.2737 -1.8194 -1.9823
 2384TIP3    H2 7117   2.137   5.020   2.600 -0.8465  1.2949  0.5403
 2385TIP3   OH2 7118   3.954   2.446   5.817 -0.4432 -0.0445  0.0398
 2385TIP3    H1 7119   3.905   2.415   5.894 -0.0708  1.9346  1.1399
 2385TIP3    H2 7120   3.898   2.512   5.777 -0.1236 -0.2273 -0.7296
 2386TIP3   OH2 7121   5.677   1.016   1.175 -0.0792  0.1727  0.3014
 2386TIP3    H1 7122   5.765   1.021   1.138 -0.0316  1.1736  0.5391
 2386TIP3    H2 7123   5.689   0.979   1.262  0.0082 -0.4122  0.0515
 2387TIP3   OH2 7124   3.021   1.871   1.962 -0.4034 -0.0420 -0.3966
 2387TIP3    H1 7125   3.009   1.938   1.894 -0.1375 -0.8392 -1.2447
 2387TIP3    H2 7126   3.008   1.788   1.916  1.3017 -0.6661  0.1733
 2388TIP3   OH2 7127   2.934   5.554  -0.002  0.5262  0.1059  0.3285
 2388TIP3    H1 7128   2.926   5.507   0.081 -0.5333  0.0113  0.1803
 2388TIP3    H2 7129   2.857   5.610  -0.006  0.3757 -0.1544 -0.7675
 2389TIP3   OH2 7130   3.117   4.872   0.421 -0.0167 -0.0873 -0.2277
 2389TIP3    H1 7131   3.120   4.878   0.517  1.5519 -0.6478 -0.2012
 2389TIP3    H2 7132   3.087   4.958   0.393  1.3199  0.7417  0.7396
 2390TIP3   OH2 7133   2.604   0.500   2.072 -0.0877 -0.1254 -0.6377
 2390TIP3    H1 7134   2.670   0.567   2.053  0.2329 -0.1750  0.2466
 2390TIP3    H2 7135   2.539   0.545   2.127 -2.2282  0.6697 -3.5873
 2391TIP3   OH2 7136   5.822   6.161   0.650  0.1299 -0.6934  0.1548
 2391TIP3    H1 7137   5.857   6.248   0.665 -0.4499 -0.3620 -0.3525
 2391TIP3    H2 7138   5.870   6.104   0.711  2.1613 -0.4222 -1.1252
 2392TIP3   OH2 7139   3.132   2.169   5.103  0.4000  1.0201  0.2796
 2392TIP3    H1 7140   3.211   2.222   5.112  0.7694  0.4856  0.1936
 2392TIP3    H2 7141   3.156   2.099   5.043  0.0538  0.4785  0.7634
 2393TIP3   OH2 7142   0.828   0.180   4.837 -0.1245  0.0875 -0.3409
 2393TIP3    H1 7143   0.794   0.146   4.919  0.0478  0.0095 -0.3001
 2393TIP3    H2 7144   0.822   0.275   4.845  1.7734  0.1870  0.6139
 2394TIP3   OH2 7145   1.662   5.124   0.112  0.1024 -0.3996 -0.3239
 2394TIP3    H1 7146   1.725   5.169   0.056 -0.6583  0.2077 -0.7113
 2394TIP3    H2 7147   1.674   5.031   0.093 -0.6946 -0.1695 -2.1101
 2395TIP3   OH2 7148   2.764   5.857   3.656 -0.2646 -0.1063  0.2969
 2395TIP3    H1 7149   2.809   5.913   3.719 -1.2452  0.2198  0.7330
 2395TIP3    H2 7150   2.710   5.799   3.710  0.7142 -1.4954 -0.1478
 2396TIP3   OH2 7151   3.879   0.868   4.779  0.1398  0.1602 -0.6207
 2396TIP3    H1 7152   3.837   0.797   4.730 -0.0490 -0.5255  0.4962
 2396TIP3    H2 7153   3.840   0.948   4.743 -1.1683 -0.3958 -0.5129
 2397TIP3   OH2 7154   0.983   0.920   4.519  0.1777 -0.1794 -0.5672
 2397TIP3    H1 7155   0.989   0.833   4.479 -1.5251 -0.2205 -0.7880
 2397TIP3    H2 7156   1.041   0.975   4.466  0.9100 -1.0597 -0.7130
 2398TIP3   OH2 7157   2.976   2.055   1.740 -0.3545  0.1528  0.3120
 2398TIP3    H1 7158   2.930   1.986   1.691  0.8851 -0.4175 -0.1013
 2398TIP3    H2 7159   3.046   2.082   1.682  0.7074 -0.0235  1.4712
 2399TIP3   OH2 7160   7.106   0.520   5.527  0.2862 -0.2217 -0.1738
 2399TIP3    H1 7161   7.056   0.456   5.579 -0.8249  0.8610  0.1198
 2399TIP3    H2 7162   7.042   0.559   5.468  0.9629  0.5944 -0.3869
 2400TIP3   OH2 7163   1.737   1.651   4.811 -0.1424 -0.1297  0.3655
 2400TIP3    H1 7164   1.650   1.690   4.806 -0.4828 -0.6926  1.4732
 2400TIP3    H2 7165   1.756   1.646   4.905  0.0704 -2.1555  0.2795
 2401TIP3   OH2 7166   1.877   4.149   1.806 -0.1024  0.0471  0.1151
 2401TIP3    H1 7167   1.891   4.202   1.728 -2.0542  1.2217  0.5076
 2401TIP3    H2 7168   1.942   4.180   1.869  0.3001  0.3379 -0.4452
 2402TIP3   OH2 7169   1.268   1.485   5.331 -0.4565 -0.3162  0.2562
 2402TIP3    H1 7170   1.256   1.458   5.240 -1.9165  1.7135 -0.2188
 2402TIP3    H2 7171   1.203   1.433   5.379 -1.2419  0.1905 -0.2237
 2403TIP3   OH2 7172   6.298   3.005   0.324  0.4106 -0.4053  0.4527
 2403TIP3    H1 7173   6.251   3.029   0.404  0.7119  1.0280  0.2243
 2403TIP3    H2 7174   6.358   3.078   0.309  1.6324 -1.4727 -0.1104
 2404TIP3   OH2 7175   2.856   1.657   5.449  0.1479 -0.3618  0.2291
 2404TIP3    H1 7176   2.914   1.592   5.489 -0.4866 -2.5994 -2.2112
 2404TIP3    H2 7177   2.878   1.653   5.355 -1.0152  1.8497 -0.1912
 2405TIP3   OH2 7178   7.009   6.463   1.085 -0.6447 -0.1065  0.2232
 2405TIP3    H1 7179   7.058   6.542   1.064  0.4681 -1.0933 -1.0698
 2405TIP3    H2 7180   6.935   6.464   1.024  0.8657 -1.3838 -1.7314
 2406TIP3   OH2 7181   2.518   1.671   3.408 -0.7168  0.8031 -0.1839
 2406TIP3    H1 7182   2.551   1.607   3.471 -1.6686  0.0684 -0.3939
 2406TIP3    H2 7183   2.574   1.659   3.331 -0.2678  0.9079  0.1264
 2407TIP3   OH2 7184   3.227   3.932   3.205 -0.1414  0.3442 -0.8331
 2407TIP3    H1 7185   3.266   3.896   3.126  1.3370 -0.3872  0.1862
 2407TIP3    H2 7186   3.133   3.933   3.187  0.0764 -0.7654 -2.2125
 2408TIP3   OH2 7187   4.858   0.630   4.706  0.1419  0.3209  0.0572
 2408TIP3    H1 7188   4.823   0.715   4.681 -1.4430  0.0237  1.1217
 2408TIP3    H2 7189   4.923   0.649   4.773  0.6692  0.7616 -0.5716
 2409TIP3   OH2 7190   2.069   6.433   3.486  0.5007  0.2503 -0.2818
 2409TIP3    H1 7191   1.989   6.479   3.511  0.0814 -0.3587 -0.4693
 2409TIP3    H2 7192   2.047   6.340   3.495  1.4238  0.0780  0.3934
 2410TIP3   OH2 7193   2.978   4.783   1.656  0.0818 -0.2931  0.4570
 2410TIP3    H1 7194   3.065   4.760   1.688  0.1214 -2.8146 -1.1934
 2410TIP3    H2 7195   2.921   4.774   1.733  0.9614 -0.7894  1.0725
 2411TIP3   OH2 7196   6.907   4.336   5.215 -0.1061 -0.2210 -0.3177
 2411TIP3    H1 7197   6.907   4.258   5.160  0.2511  0.4216 -1.2677
 2411TIP3    H2 7198   6.933   4.305   5.302  1.6969 -0.9230 -1.0536
 2412TIP3   OH2 7199   6.344   3.151   1.647  0.2304 -0.4301 -0.4507
 2412TIP3    H1 7200   6.336   3.149   1.551 -0.8278 -1.2702 -0.3753
 2412TIP3    H2 7201   6.287   3.222   1.674  2.1639  1.2328 -0.5282
 2413TIP3   OH2 7202   6.954   1.771   3.275 -0.0592 -0.1978 -0.1759
 2413TIP3    H1 7203   6.965   1.821   3.356 -0.5833  0.5838 -0.5769
 2413TIP3    H2 7204   6.860   1.751   3.272 -0.0520 -0.1835 -0.6023
 2414TIP3   OH2 7205   2.615   3.103   0.302 -0.2002 -0.0711 -0.1657
 2414TIP3    H1 7206   2.706   3.087   0.276 -0.5491 -1.0055 -0.9078
 2414TIP3    H2 7207   2.580   3.160   0.233 -0.3340 -0.2085 -0.2139
 2415TIP3   OH2 7208   4.248   3.304   2.788  0.3754  0.1547  0.1613
 2415TIP3    H1 7209   4.154   3.316   2.799  0.2799 -0.2547 -0.2061
 2415TIP3    H2 7210   4.273   3.242   2.857  0.5178  0.8738  0.7667
 2416TIP3   OH2 7211   1.949   5.919   3.270  0.0595 -0.7737  0.4900
 2416TIP3    H1 7212   2.019   5.859   3.244  0.6819  0.0367  0.2549
 2416TIP3    H2 7213   1.869   5.875   3.244  0.5826 -0.5917 -1.6501
 2417TIP3   OH2 7214   3.045   5.101   3.004  0.5762  0.6561 -0.8286
 2417TIP3    H1 7215   3.044   5.075   3.096  1.0856 -2.1598 -1.5217
 2417TIP3    H2 7216   2.998   5.184   3.002 -1.2174 -0.1722  1.7006
 2418TIP3   OH2 7217   6.642   3.444   3.823 -0.4167  0.4468 -0.2457
 2418TIP3    H1 7218   6.662   3.486   3.739 -1.0221  0.0561 -0.5933
 2418TIP3    H2 7219   6.564   3.489   3.854 -0.9496 -0.2793 -0.5232
 2419TIP3   OH2 7220   2.887   5.721   3.274  0.0780  0.4523  0.5292
 2419TIP3    H1 7221   2.905   5.671   3.195 -1.1095  0.5080  0.2028
 2419TIP3    H2 7222   2.858   5.656   3.337  0.5191  0.4751  0.7588
 2420TIP3   OH2 7223   1.387   1.140   1.572 -0.4196 -0.0107 -0.1771
 2420TIP3    H1 7224   1.343   1.209   1.622  0.2688  0.4709 -0.2247
 2420TIP3    H2 7225   1.382   1.063   1.629  0.2333  0.4965  0.5769
 2421TIP3   OH2 7226   0.643   2.738   0.768  0.7170 -0.0933  0.0149
 2421TIP3    H1 7227   0.657   2.709   0.859 -1.0823 -1.2983 -0.0333
 2421TIP3    H2 7228   0.547   2.745   0.760  0.8987  1.1926 -1.4569
 2422TIP3   OH2 7229   5.318   6.621   5.251  0.0686  0.2474  0.1903
 2422TIP3    H1 7230   5.312   6.670   5.169  1.6109  0.6897  0.3152
 2422TIP3    H2 7231   5.363   6.540   5.228  0.4755  0.3589  0.5922
 2423TIP3   OH2 7232   4.243   6.663   0.037  0.1984  0.5278 -0.5462
 2423TIP3    H1 7233   4.278   6.592   0.090 -0.0883  0.0807 -0.9511
 2423TIP3    H2 7234   4.271   6.743   0.082 -0.2771  0.1555  0.4184
 2424TIP3   OH2 7235   4.275   0.458   4.203 -0.2457 -0.1269  0.6384
 2424TIP3    H1 7236   4.284   0.553   4.200  0.9252 -0.1819  1.5729
 2424TIP3    H2 7237   4.299   0.434   4.293  0.6387 -1.4035  0.0926
 2425TIP3   OH2 7238   5.002   4.373   4.653 -0.0228  0.1262 -0.1317
 2425TIP3    H1 7239   4.930   4.372   4.716 -0.9581  0.7909 -1.1450
 2425TIP3    H2 7240   4.973   4.313   4.584  1.9203 -2.2693  1.0150
 2426TIP3   OH2 7241   6.332   1.519   1.044  0.0256 -0.1902  0.5508
 2426TIP3    H1 7242   6.401   1.580   1.069 -2.6473  3.8572 -0.8540
 2426TIP3    H2 7243   6.333   1.518   0.948 -1.3476 -0.6296  0.5044
 2427TIP3   OH2 7244   2.146   3.248   2.444 -0.0726  0.0728 -0.2974
 2427TIP3    H1 7245   2.219   3.265   2.503 -0.2065 -2.2867  0.6556
 2427TIP3    H2 7246   2.185   3.248   2.356  1.0683 -0.9787  0.1811
 2428TIP3   OH2 7247   3.017   2.929   1.613  0.3511 -0.0837 -0.4375
 2428TIP3    H1 7248   3.111   2.948   1.613  0.0080  1.8795  0.4870
 2428TIP3    H2 7249   2.993   2.925   1.521  0.5435  4.1777 -0.8472
 2429TIP3   OH2 7250   3.945   6.584   0.075 -0.6817 -0.3916  0.2873
 2429TIP3    H1 7251   4.040   6.595   0.074 -0.4688 -1.1782  3.0772
 2429TIP3    H2 7252   3.912   6.669   0.107 -1.2444  0.8607 -3.2201
 2430TIP3   OH2 7253   2.393   0.597   4.892 -0.6569 -0.2242 -0.2123
 2430TIP3    H1 7254   2.332   0.656   4.848  0.8639  1.5493 -0.0764
 2430TIP3    H2 7255   2.415   0.641   4.974  0.2876 -1.1389  0.0504
 2431TIP3   OH2 7256   0.438   5.672   3.615 -0.4553 -0.0968  0.1894
 2431TIP3    H1 7257   0.372   5.637   3.555 -0.5803  0.4901 -0.0226
 2431TIP3    H2 7258   0.493   5.727   3.561  0.5129 -0.9460  0.2742
 2432TIP3   OH2 7259   5.926   1.926   3.214  0.0373  0.4232  0.4648
 2432TIP3    H1 7260   5.984   1.981   3.266 -0.2135  3.3150 -1.9764
 2432TIP3    H2 7261   5.838   1.957   3.235 -0.1807  0.3151 -0.2394
 2433TIP3   OH2 7262   3.200   6.695   3.466 -0.0571 -0.7079  0.1420
 2433TIP3    H1 7263   3.240   6.674   3.381  1.2724 -1.5599  0.9382
 2433TIP3    H2 7264   3.229   6.784   3.486  2.2410 -1.5847  1.0762
 2434TIP3   OH2 7265   6.088   5.647   1.289 -0.1668 -0.1540 -0.0740
 2434TIP3    H1 7266   6.151   5.584   1.324  0.5008 -0.6855 -2.0740
 2434TIP3    H2 7267   6.140   5.726   1.271  0.0154 -0.6423 -1.8643
 2435TIP3   OH2 7268   6.585   6.145   1.088 -0.1375  0.3610  0.0022
 2435TIP3    H1 7269   6.563   6.198   1.012  1.3071 -0.8141 -1.2938
 2435TIP3    H2 7270   6.527   6.069   1.082 -0.4557  0.5562  0.4622
 2436TIP3   OH2 7271   4.812   1.753   1.451 -0.8674 -0.1505 -0.0358
 2436TIP3    H1 7272   4.823   1.830   1.396 -0.7024  0.9596  1.4913
 2436TIP3    H2 7273   4.899   1.713   1.454 -0.0903  1.5187  1.8212
 2437TIP3   OH2 7274   5.618   0.227   0.605 -0.4929 -0.0914  0.1824
 2437TIP3    H1 7275   5.535   0.272   0.620 -0.2272  0.4779 -0.0151
 2437TIP3    H2 7276   5.684   0.294   0.620 -0.1756  0.5466 -3.2577
 2438TIP3   OH2 7277   0.847   6.200   3.714 -0.5347 -0.1509  0.2095
 2438TIP3    H1 7278   0.919   6.138   3.705 -0.2764  0.0640  0.7358
 2438TIP3    H2 7279   0.806   6.203   3.627  1.3942  1.3220 -0.7165
 2439TIP3   OH2 7280   3.546   2.537   0.077 -0.2293 -0.0524 -0.5775
 2439TIP3    H1 7281   3.556   2.442   0.085  1.2676  0.0849 -0.6016
 2439TIP3    H2 7282   3.471   2.557   0.133 -1.2846 -1.3649 -1.4425
 2440TIP3   OH2 7283   7.234   6.283   3.655  0.3956 -0.8324 -0.7668
 2440TIP3    H1 7284   7.188   6.200   3.649 -2.2301  0.5620 -1.2844
 2440TIP3    H2 7285   7.196   6.337   3.585  3.2008  0.3036 -1.5566
 2441TIP3   OH2 7286   5.339   2.894   0.031 -0.1836 -0.3547  0.4531
 2441TIP3    H1 7287   5.287   2.937  -0.036  1.0214 -1.7921 -1.5365
 2441TIP3    H2 7288   5.277   2.871   0.099 -2.2207 -1.8374 -1.7321
 2442TIP3   OH2 7289   0.607   3.985   4.719 -0.0362 -0.1574 -0.2950
 2442TIP3    H1 7290   0.695   4.001   4.752  0.8978  0.2772 -2.7938
 2442TIP3    H2 7291   0.618   3.920   4.650 -2.1740 -2.5750  1.4500
 2443TIP3   OH2 7292   0.331   2.089   5.126  0.5910 -0.0681  0.0147
 2443TIP3    H1 7293   0.350   2.073   5.218  1.5435  1.3969  0.1120
 2443TIP3    H2 7294   0.290   2.175   5.124 -0.8262 -0.7262 -0.8026
 2444TIP3   OH2 7295   3.934   1.302   0.656 -0.3759 -0.1640 -0.1791
 2444TIP3    H1 7296   4.005   1.364   0.639  0.9805 -1.2647  1.2413
 2444TIP3    H2 7297   3.855   1.357   0.655  0.2721  0.9209 -2.9127
 2445TIP3   OH2 7298   2.438   6.015   1.620  0.2542 -0.0402 -0.6094
 2445TIP3    H1 7299   2.409   5.979   1.704  1.9234  0.2907  0.1409
 2445TIP3    H2 7300   2.473   5.941   1.572  1.6878  0.1776  0.0586
 2446TIP3   OH2 7301   4.489   2.108   5.462  0.3520  0.4442  0.0295
 2446TIP3    H1 7302   4.526   2.171   5.400  1.2488  0.5184  0.6270
 2446TIP3    H2 7303   4.489   2.154   5.546 -0.5864  0.2412  0.1587
 2447TIP3   OH2 7304   6.593   2.671   4.097 -0.3916  0.1736 -0.2527
 2447TIP3    H1 7305   6.518   2.717   4.061 -0.8219  1.1783  1.7587
 2447TIP3    H2 7306   6.668   2.702   4.046 -1.0428  0.9529 -0.7534
 2448TIP3   OH2 7307   6.049   1.968   2.549 -0.1559 -0.3344 -0.0418
 2448TIP3    H1 7308   6.084   1.891   2.594  0.0727  0.9931  2.1910
 2448TIP3    H2 7309   5.962   1.980   2.587 -0.2342  0.4188 -0.4472
 2449TIP3   OH2 7310   5.631   5.572   3.665  0.4113  0.3281 -0.3230
 2449TIP3    H1 7311   5.592   5.659   3.654  0.4510  0.5491  1.1385
 2449TIP3    H2 7312   5.641   5.561   3.760  0.6650 -1.1602 -0.4884
 2450TIP3   OH2 7313   1.191   5.083   4.095  0.2770  0.4205  0.4006
 2450TIP3    H1 7314   1.228   5.169   4.076 -0.9770  1.5552  2.6777
 2450TIP3    H2 7315   1.253   5.042   4.155  0.7532 -0.2002 -0.4922
 2451TIP3   OH2 7316   6.946   1.502   0.048 -0.0868  0.0317 -0.0042
 2451TIP3    H1 7317   6.873   1.484   0.108 -0.3999  1.3320  0.0177
 2451TIP3    H2 7318   6.924   1.453  -0.032  0.3555 -1.7538  0.8993
 2452TIP3   OH2 7319   7.124   1.812   5.874 -0.2736 -0.0443  0.5402
 2452TIP3    H1 7320   7.110   1.718   5.866 -1.8233  0.2349 -0.6865
 2452TIP3    H2 7321   7.218   1.824   5.863 -0.2028 -1.3668 -0.5344
 2453TIP3   OH2 7322   4.490   6.099   2.703  0.0845  0.0084 -0.0740
 2453TIP3    H1 7323   4.451   6.187   2.703  3.1691  1.5603  1.6246
 2453TIP3    H2 7324   4.551   6.101   2.629  1.3933 -0.0015  0.9585
 2454TIP3   OH2 7325   5.095   6.275   0.583  0.4812 -0.5706 -0.0483
 2454TIP3    H1 7326   5.161   6.274   0.652  1.5185 -0.6556 -1.0086
 2454TIP3    H2 7327   5.138   6.319   0.509 -1.1810  1.1117 -0.0965
 2455TIP3   OH2 7328   5.391   6.282   4.529  0.2289 -0.0273 -0.1212
 2455TIP3    H1 7329   5.332   6.324   4.466 -0.0824  0.4466  0.4648
 2455TIP3    H2 7330   5.445   6.223   4.477 -0.2536  0.1021 -0.7774
 2456TIP3   OH2 7331   5.090   2.620   1.843 -0.1423  0.4629 -0.4209
 2456TIP3    H1 7332   5.041   2.688   1.796 -0.2366  0.5610 -0.1850
 2456TIP3    H2 7333   5.109   2.660   1.928 -2.9565 -0.8833  0.9855
 2457TIP3   OH2 7334   4.201   5.142   1.991 -0.4016  0.0904  0.2067
 2457TIP3    H1 7335   4.183   5.212   2.053 -1.1332  1.3549 -1.3708
 2457TIP3    H2 7336   4.140   5.072   2.015  0.4875 -0.1342  1.9222
 2458TIP3   OH2 7337   1.876   1.316   5.080 -0.2224  0.0660  0.6195
 2458TIP3    H1 7338   1.809   1.305   5.147 -0.7186  0.6014  0.2288
 2458TIP3    H2 7339   1.893   1.411   5.079 -1.7471  0.3971 -1.4145
 2459TIP3   OH2 7340   4.325   4.571   3.257  0.1844 -0.1163 -0.3207
 2459TIP3    H1 7341   4.377   4.627   3.316 -0.5084  0.5011 -0.2788
 2459TIP3    H2 7342   4.384   4.552   3.184 -0.1034  2.1450 -1.2150
 2460TIP3   OH2 7343   3.399   5.235   1.441 -0.1774  0.2919 -0.2822
 2460TIP3    H1 7344   3.319   5.236   1.388 -1.2940 -2.2747  1.1476
 2460TIP3    H2 7345   3.409   5.325   1.472 -2.0468  0.8497 -1.1903
 2461TIP3   OH2 7346   5.012   6.534   0.977 -0.4950 -0.1609  0.1272
 2461TIP3    H1 7347   4.984   6.524   0.886  0.0595  1.5325 -0.2706
 2461TIP3    H2 7348   5.088   6.477   0.985 -0.1860  0.1279 -0.6616
 2462TIP3   OH2 7349   6.371   1.522   0.777 -0.1618  0.4220 -0.1543
 2462TIP3    H1 7350   6.385   1.430   0.755 -0.1238  0.0171  1.4542
 2462TIP3    H2 7351   6.336   1.561   0.697 -0.2540 -1.0068 -0.8355
 2463TIP3   OH2 7352   2.217   0.827   4.865 -0.3223 -0.0142  0.2266
 2463TIP3    H1 7353   2.212   0.850   4.772  1.5621 -0.2736  0.0078
 2463TIP3    H2 7354   2.144   0.874   4.905 -1.0832  0.2346 -1.3535
 2464TIP3   OH2 7355   2.535   6.349   0.621  0.5453  0.2242 -0.3432
 2464TIP3    H1 7356   2.541   6.425   0.564 -0.9369  0.0339 -0.8053
 2464TIP3    H2 7357   2.571   6.277   0.569  0.5770  0.3326 -0.4704
 2465TIP3   OH2 7358   3.542   6.170   1.007  0.1210  0.0977  0.4781
 2465TIP3    H1 7359   3.468   6.156   0.947 -0.9274 -1.0041  1.9346
 2465TIP3    H2 7360   3.532   6.100   1.073  1.2725  1.1839  1.8618
 2466TIP3   OH2 7361   3.094   0.935   3.067  0.1822 -0.9916  0.0762
 2466TIP3    H1 7362   3.190   0.941   3.067  0.2595 -1.6976 -1.7484
 2466TIP3    H2 7363   3.064   1.025   3.080  1.0623 -0.8445  1.3025
 2467TIP3   OH2 7364   4.318   3.369   3.495 -0.4330  0.3274 -0.0859
 2467TIP3    H1 7365   4.344   3.284   3.460  0.0059 -0.0720  1.1708
 2467TIP3    H2 7366   4.231   3.385   3.457 -0.0668 -0.1628 -1.1743
 2468TIP3   OH2 7367   2.815   2.445   3.174  0.0121  0.1820  0.3130
 2468TIP3    H1 7368   2.904   2.446   3.139  0.2273  0.8341  0.8582
 2468TIP3    H2 7369   2.821   2.495   3.256 -0.0162 -2.9769  2.4316
 2469TIP3   OH2 7370   0.399   5.300   5.352  0.3983 -0.6092  0.2984
 2469TIP3    H1 7371   0.332   5.351   5.307 -0.7230 -0.3393  2.1560
 2469TIP3    H2 7372   0.392   5.212   5.315  0.5437 -0.0674 -1.0612
 2470TIP3   OH2 7373   5.095   6.148   2.750 -0.2514  0.2113  0.8056
 2470TIP3    H1 7374   5.156   6.217   2.777 -0.2297  0.1211  0.9912
 2470TIP3    H2 7375   5.070   6.105   2.832 -0.4639  0.1641  0.7164
 2471TIP3   OH2 7376   3.776   1.655   4.233  0.1933  0.5182  0.7404
 2471TIP3    H1 7377   3.761   1.741   4.192 -1.3967  0.2250  0.6459
 2471TIP3    H2 7378   3.770   1.672   4.327 -2.2243  0.2134  0.6991
 2472TIP3   OH2 7379   0.526   3.546   4.024 -0.0841 -0.4189  0.3313
 2472TIP3    H1 7380   0.503   3.579   4.111 -1.3851  0.0547 -0.1715
 2472TIP3    H2 7381   0.480   3.462   4.018  1.8352 -1.5808  0.9418
 2473TIP3   OH2 7382   3.059   6.649   1.257  0.2480  0.1091  0.8662
 2473TIP3    H1 7383   3.141   6.660   1.208  0.4147  2.7944  1.5753
 2473TIP3    H2 7384   3.087   6.628   1.346  0.1682  0.9273  1.0864
 2474TIP3   OH2 7385   3.097   1.635   2.391 -0.2520  0.0838 -0.0651
 2474TIP3    H1 7386   3.132   1.723   2.401 -1.5254  0.7832 -1.3279
 2474TIP3    H2 7387   3.160   1.590   2.334  0.7609 -0.0686  1.1478
 2475TIP3   OH2 7388   6.776   2.194   0.465 -0.6395 -0.6268 -0.0463
 2475TIP3    H1 7389   6.722   2.258   0.511 -0.2090 -0.3802  0.1188
 2475TIP3    H2 7390   6.732   2.110   0.481 -1.2257 -0.3751 -0.2948
 2476TIP3   OH2 7391   0.967   1.295   1.916  0.3175  0.7560  0.0825
 2476TIP3    H1 7392   0.910   1.227   1.951  1.9941 -0.2262  1.0264
 2476TIP3    H2 7393   0.928   1.377   1.945 -1.7497  0.2475 -1.0749
 2477TIP3   OH2 7394   4.675   5.710   3.192  0.4855  0.0654 -0.0488
 2477TIP3    H1 7395   4.609   5.678   3.131 -0.6155  0.6198  0.8241
 2477TIP3    H2 7396   4.745   5.644   3.188 -0.0266 -0.4394 -1.1090
 2478TIP3   OH2 7397   5.728   1.297   0.931  0.2000  0.5240 -0.4244
 2478TIP3    H1 7398   5.788   1.263   0.997  0.4956  1.3494 -0.2536
 2478TIP3    H2 7399   5.722   1.227   0.865  1.0892  0.3062 -0.2843
 2479TIP3   OH2 7400   1.613   1.100   5.324 -0.3644  0.1327 -0.0688
 2479TIP3    H1 7401   1.629   1.011   5.354 -1.6221 -0.5816 -1.3654
 2479TIP3    H2 7402   1.600   1.151   5.404  0.1248 -0.8984  0.6824
 2480TIP3   OH2 7403   6.862   5.192   3.134 -0.2020  0.0469 -0.0076
 2480TIP3    H1 7404   6.843   5.130   3.064 -0.4945  0.3604 -0.2074
 2480TIP3    H2 7405   6.952   5.171   3.161 -0.6336 -1.0913  0.5821
 2481TIP3   OH2 7406   2.796   3.912   5.640 -0.4325 -0.1735  0.2362
 2481TIP3    H1 7407   2.789   3.897   5.546  2.9943 -2.1782  0.1195
 2481TIP3    H2 7408   2.812   4.006   5.649 -1.3932  0.1396 -1.0831
 2482TIP3   OH2 7409   3.307   0.127   2.558  0.2846 -0.7339  0.4100
 2482TIP3    H1 7410   3.366   0.068   2.510  0.3215 -0.9404  0.7029
 2482TIP3    H2 7411   3.293   0.200   2.499  0.1695 -1.0806  0.0016
 2483TIP3   OH2 7412   2.916   5.140   4.824  0.1443  0.1452 -0.5236
 2483TIP3    H1 7413   2.844   5.117   4.883 -0.4963  0.1761 -1.2807
 2483TIP3    H2 7414   2.974   5.064   4.826  0.2476  0.2342  0.3126
 2484TIP3   OH2 7415   6.508   4.628   4.038  0.5702  0.4781  0.2527
 2484TIP3    H1 7416   6.443   4.557   4.033  0.1148  0.9119 -0.0328
 2484TIP3    H2 7417   6.553   4.613   4.121  0.6127 -0.2685  0.0993
 2485TIP3   OH2 7418   6.289   1.801  -0.036  0.3507 -0.0191 -0.8412
 2485TIP3    H1 7419   6.289   1.743   0.040  1.7233  0.2785 -0.5809
 2485TIP3    H2 7420   6.306   1.888   0.000 -0.1980  0.3181 -1.3741
 2486TIP3   OH2 7421   4.157   1.436   1.526 -0.6974  0.5754 -0.3905
 2486TIP3    H1 7422   4.087   1.494   1.555 -0.5918 -0.2668  1.7227
 2486TIP3    H2 7423   4.112   1.370   1.473 -1.6530 -0.2724  1.3861
 2487TIP3   OH2 7424   3.148   5.470   5.741  0.4890  0.2028  0.0249
 2487TIP3    H1 7425   3.224   5.519   5.710 -0.5361  2.1061  0.3728
 2487TIP3    H2 7426   3.165   5.380   5.713  1.8513  0.9512 -1.7841
 2488TIP3   OH2 7427   6.412   2.005   5.798 -0.1036  0.0132  0.0620
 2488TIP3    H1 7428   6.428   1.996   5.892  1.8966 -0.7257 -0.3039
 2488TIP3    H2 7429   6.483   2.060   5.766 -1.3759  1.1952 -0.8883
 2489TIP3   OH2 7430   3.460   0.075   1.359 -0.5283  0.0736 -0.0650
 2489TIP3    H1 7431   3.366   0.063   1.345 -0.8239  0.3066  1.5159
 2489TIP3    H2 7432   3.498   0.071   1.271 -1.9105 -0.8476 -0.6600
 2490TIP3   OH2 7433   0.043   2.556   4.737  0.4212  0.8939  0.1537
 2490TIP3    H1 7434  -0.005   2.618   4.683 -1.1312  0.4867  1.0034
 2490TIP3    H2 7435  -0.014   2.479   4.743  0.8659  0.6402  1.7261
 2491TIP3   OH2 7436   4.884   3.579   4.822 -0.0404  0.1709 -0.2466
 2491TIP3    H1 7437   4.870   3.668   4.792  1.5226  0.6337  0.2857
 2491TIP3    H2 7438   4.797   3.548   4.846 -0.7004  1.3041 -1.0739
 2492TIP3   OH2 7439   5.784   2.404   3.252 -0.2213  0.2447  0.1213
 2492TIP3    H1 7440   5.820   2.417   3.340 -1.6238 -0.9595  0.9052
 2492TIP3    H2 7441   5.690   2.418   3.262 -0.2822  1.1729 -1.4434
 2493TIP3   OH2 7442   0.620   2.353   4.345  0.1836 -0.7722 -0.3784
 2493TIP3    H1 7443   0.584   2.342   4.257 -3.0934  0.6152  0.6239
 2493TIP3    H2 7444   0.568   2.424   4.384  2.0210 -0.7876  2.4326
 2494TIP3   OH2 7445   1.678   3.789   0.074 -0.0438  0.2123 -0.2538
 2494TIP3    H1 7446   1.758   3.837   0.095  1.1696 -2.2942  1.3432
 2494TIP3    H2 7447   1.623   3.798   0.152 -0.8839  0.9896 -0.9111
 2495TIP3   OH2 7448   1.388   4.195   3.901 -0.5880 -0.1129 -0.1861
 2495TIP3    H1 7449   1.325   4.224   3.968  1.6042  1.7514  1.2228
 2495TIP3    H2 7450   1.425   4.276   3.866 -0.7522 -1.0990 -2.8169
 2496TIP3   OH2 7451   0.710   5.567   4.454 -0.0764 -0.6298  0.0382
 2496TIP3    H1 7452   0.753   5.615   4.383  0.6841  1.4657  1.7940
 2496TIP3    H2 7453   0.617   5.569   4.431 -0.0682  1.7051 -0.0253
 2497TIP3   OH2 7454   3.253   0.669   2.813  1.1158  0.0548  1.0770
 2497TIP3    H1 7455   3.305   0.590   2.828  0.0233 -0.8998 -0.0221
 2497TIP3    H2 7456   3.171   0.653   2.859 -0.6971 -1.2243 -2.2712
 2498TIP3   OH2 7457   4.561   4.246   1.955  0.1180 -0.9468  0.2836
 2498TIP3    H1 7458   4.476   4.220   1.990  0.1602  0.0063  1.1359
 2498TIP3    H2 7459   4.556   4.341   1.950  0.9231 -0.9251 -0.2390
 2499TIP3   OH2 7460   2.228   3.391   5.043 -0.6789 -0.1528 -0.1480
 2499TIP3    H1 7461   2.170   3.375   5.118  0.1420 -0.3757  0.4627
 2499TIP3    H2 7462   2.212   3.483   5.020 -2.5464 -0.6893 -1.1338
 2500TIP3   OH2 7463   3.282   3.780   4.310 -0.2345  1.0960  0.0561
 2500TIP3    H1 7464   3.333   3.854   4.342  1.5521 -0.2457  0.4462
 2500TIP3    H2 7465   3.347   3.718   4.277 -1.7146 -0.0044 -0.9269
 2501TIP3   OH2 7466   0.449   4.338   4.605  0.0134 -0.0928 -0.5510
 2501TIP3    H1 7467   0.523   4.336   4.544  0.9077 -1.1056  0.5332
 2501TIP3    H2 7468   0.378   4.295   4.558  0.0191  1.0518 -1.6753
 2502TIP3   OH2 7469   0.668   1.605   5.190  0.4659 -0.1049  0.0787
 2502TIP3    H1 7470   0.750   1.633   5.231  1.6547 -0.3220 -2.0191
 2502TIP3    H2 7471   0.637   1.682   5.142  0.4849 -0.5629 -0.6913
 2503TIP3   OH2 7472   4.585   0.597   1.106 -0.6447 -0.5148 -0.0979
 2503TIP3    H1 7473   4.640   0.525   1.076  0.8330  0.0603  1.1274
 2503TIP3    H2 7474   4.558   0.572   1.194 -1.2075 -0.1514 -0.1618
 2504TIP3   OH2 7475   1.826   1.770   2.078 -0.2588 -0.1473  0.4380
 2504TIP3    H1 7476   1.877   1.760   1.998 -1.0696 -0.2306 -0.0823
 2504TIP3    H2 7477   1.752   1.710   2.067 -1.2998  1.0943  0.4877
 2505TIP3   OH2 7478   6.990   0.596   0.948 -0.4364  0.2512  0.4909
 2505TIP3    H1 7479   7.011   0.522   1.006  1.0997  0.8593  0.7682
 2505TIP3    H2 7480   7.035   0.575   0.866 -0.1204  0.7886  0.5242
 2506TIP3   OH2 7481   4.729   1.683   5.620 -0.7101  0.4355  0.3364
 2506TIP3    H1 7482   4.734   1.588   5.610  0.1494  0.5780 -0.6790
 2506TIP3    H2 7483   4.815   1.708   5.654 -0.6267  0.9440 -0.2363
 2507TIP3   OH2 7484   6.925   4.680   4.019  0.7148 -0.1847 -0.2948
 2507TIP3    H1 7485   6.910   4.745   4.087  1.0234 -2.3360  1.9548
 2507TIP3    H2 7486   6.974   4.727   3.952  0.7956  1.9210  1.1313
 2508TIP3   OH2 7487   4.205   5.953   2.212 -0.5758 -0.3035 -0.1172
 2508TIP3    H1 7488   4.296   5.926   2.204 -0.7813 -1.4442  1.1128
 2508TIP3    H2 7489   4.204   6.045   2.183  0.5469 -0.8972 -2.2317
 2509TIP3   OH2 7490   1.968   3.527   3.107  0.3027 -0.3170 -0.6483
 2509TIP3    H1 7491   1.959   3.442   3.063  0.6277 -0.1803 -0.9876
 2509TIP3    H2 7492   1.908   3.585   3.058  1.8564  0.2381 -1.9814
 2510TIP3   OH2 7493   1.131   6.064   1.173 -0.7537  0.1210 -0.2808
 2510TIP3    H1 7494   1.161   6.046   1.262  0.7852  0.4200 -0.7204
 2510TIP3    H2 7495   1.073   6.140   1.183 -1.5676 -0.5667  0.5958
 2511TIP3   OH2 7496   7.187   5.983   3.017 -0.6406 -0.2639 -0.0993
 2511TIP3    H1 7497   7.211   6.049   3.082  0.4006  1.4911 -2.1188
 2511TIP3    H2 7498   7.120   6.025   2.963 -0.5247 -1.1464 -0.9756
 2512TIP3   OH2 7499   6.288   1.774   1.297 -0.1888 -0.5340 -0.2295
 2512TIP3    H1 7500   6.206   1.724   1.298 -0.4280 -0.1898 -1.5384
 2512TIP3    H2 7501   6.350   1.717   1.251  0.2480 -0.6842  0.5296
 2513TIP3   OH2 7502   3.483   6.532   0.175 -0.1113 -0.0499  0.1352
 2513TIP3    H1 7503   3.420   6.600   0.154  2.8415  2.3050 -2.0240
 2513TIP3    H2 7504   3.520   6.559   0.259  0.2460  0.4056 -0.1627
 2514TIP3   OH2 7505   3.497   2.739   5.346 -0.0392  0.2549  0.3325
 2514TIP3    H1 7506   3.519   2.831   5.356  1.5513 -0.1209  0.5180
 2514TIP3    H2 7507   3.444   2.735   5.266  2.0409  1.0190 -1.1553
 2515TIP3   OH2 7508   3.900   6.297   1.523  0.0242 -0.3277  0.3512
 2515TIP3    H1 7509   3.844   6.263   1.454 -0.3980  0.8097  0.1058
 2515TIP3    H2 7510   3.971   6.342   1.477 -1.9496  3.3318  0.4333
 2516TIP3   OH2 7511   6.752   1.060   1.335  0.0422  0.6449  0.1993
 2516TIP3    H1 7512   6.714   1.051   1.422  1.0936  1.6363  0.7859
 2516TIP3    H2 7513   6.840   1.096   1.350  0.4611  0.3085 -1.2334
 2517TIP3   OH2 7514   2.274   1.646   2.839  0.9339 -0.3378 -0.0749
 2517TIP3    H1 7515   2.300   1.729   2.799  2.4225 -0.2906  0.9438
 2517TIP3    H2 7516   2.214   1.671   2.909  1.5777 -0.0987  0.3934
 2518TIP3   OH2 7517   0.786   0.844   2.362  0.1239  1.0650 -0.3470
 2518TIP3    H1 7518   0.792   0.880   2.451 -1.1523  2.0124 -0.6213
 2518TIP3    H2 7519   0.829   0.759   2.368 -0.1190  1.0225  1.2305
 2519TIP3   OH2 7520   1.641   5.840   4.410  0.2658 -0.3020 -0.0765
 2519TIP3    H1 7521   1.610   5.781   4.478  0.9807  1.1854  1.6272
 2519TIP3    H2 7522   1.590   5.817   4.333 -0.2954 -2.3144  0.8279
 2520TIP3   OH2 7523   6.510   0.862   2.550 -0.0214 -0.2537 -0.0872
 2520TIP3    H1 7524   6.419   0.840   2.570 -0.4564  1.3579 -0.1510
 2520TIP3    H2 7525   6.561   0.816   2.617 -0.8859 -0.9762  0.0977
 2521TIP3   OH2 7526   7.079   6.067   3.594 -0.0548 -0.2164  0.0482
 2521TIP3    H1 7527   6.991   6.043   3.622  0.6746 -2.0409  0.9472
 2521TIP3    H2 7528   7.094   6.017   3.514 -0.1223  0.7726 -0.6099
 2522TIP3   OH2 7529   6.775   6.060   1.637  0.1187  0.4183 -0.3101
 2522TIP3    H1 7530   6.761   5.966   1.633  2.9533 -0.1069  0.4160
 2522TIP3    H2 7531   6.747   6.085   1.725 -1.2821  0.4411 -0.7284
 2523TIP3   OH2 7532   2.853   2.388   0.854  0.0153 -0.2604 -0.0310
 2523TIP3    H1 7533   2.820   2.299   0.839  1.9230 -0.9493 -0.3516
 2523TIP3    H2 7534   2.930   2.377   0.910  2.1354  0.8129 -2.5185
 2524TIP3   OH2 7535   6.886   4.152   3.055  0.6691  0.1597  0.1741
 2524TIP3    H1 7536   6.883   4.247   3.044  0.1077 -0.0097 -1.3286
 2524TIP3    H2 7537   6.921   4.119   2.972  0.5722 -0.9698  0.5647
 2525TIP3   OH2 7538   6.258   3.315   4.152  0.2134 -0.1514 -0.0634
 2525TIP3    H1 7539   6.348   3.343   4.166 -0.0842  0.8545 -0.0504
 2525TIP3    H2 7540   6.216   3.325   4.237  0.2114 -1.1350  0.0623
 2526TIP3   OH2 7541   6.831   2.856   4.742 -0.1258  0.3753  0.0176
 2526TIP3    H1 7542   6.853   2.763   4.741 -0.6465  0.2411  0.4769
 2526TIP3    H2 7543   6.841   2.882   4.834 -4.7231 -0.4317  0.9711
 2527TIP3   OH2 7544   5.092   6.391   2.074  0.0275 -0.0324  0.6314
 2527TIP3    H1 7545   5.067   6.306   2.035  0.1164 -0.1311  0.7890
 2527TIP3    H2 7546   5.017   6.414   2.129  0.1844 -0.2183  0.9258
 2528TIP3   OH2 7547   6.158   4.187   3.221 -0.8434 -0.4058  0.2668
 2528TIP3    H1 7548   6.074   4.211   3.182 -1.1931 -2.2540 -0.2144
 2528TIP3    H2 7549   6.137   4.120   3.286  0.3190 -1.5048 -0.4348
 2529TIP3   OH2 7550   4.280   2.212   0.625 -0.7721 -0.8534  0.2646
 2529TIP3    H1 7551   4.209   2.181   0.681  0.6609 -1.0967  2.0555
 2529TIP3    H2 7552   4.343   2.140   0.625  1.5820  0.9994  2.6106
 2530TIP3   OH2 7553   2.088   1.462   5.422  0.0776  0.6492  0.0113
 2530TIP3    H1 7554   2.146   1.538   5.427  0.6484  0.3217 -1.3132
 2530TIP3    H2 7555   2.000   1.499   5.434  0.4458  1.3212  0.7560
 2531TIP3   OH2 7556   5.225   3.472   3.553  0.1192  0.4153  0.2823
 2531TIP3    H1 7557   5.142   3.425   3.553 -0.1238  0.8124 -1.3445
 2531TIP3    H2 7558   5.202   3.564   3.562  0.5493  0.3647  2.4585
 2532TIP3   OH2 7559   5.889   0.580   1.866 -0.2355 -0.1600  0.2835
 2532TIP3    H1 7560   5.816   0.637   1.842  0.8649  1.5732  0.9371
 2532TIP3    H2 7561   5.966   0.620   1.826  0.5518 -1.3257  0.5642
 2533TIP3   OH2 7562   3.178   4.671   1.827  0.2116  0.1552 -0.1390
 2533TIP3    H1 7563   3.271   4.694   1.821  0.0246  0.7054 -1.2551
 2533TIP3    H2 7564   3.145   4.726   1.898  0.3056  1.6033 -1.1596
 2534TIP3   OH2 7565   5.086   2.422   4.238 -0.2821  0.3546  0.0527
 2534TIP3    H1 7566   5.130   2.412   4.323 -0.7731  0.7745  0.3567
 2534TIP3    H2 7567   4.998   2.389   4.252  0.1124 -1.1533 -0.7478
 2535TIP3   OH2 7568   3.107   5.641   4.842 -0.3654  0.1335  0.2466
 2535TIP3    H1 7569   3.055   5.564   4.865 -1.1920  0.4015 -0.6511
 2535TIP3    H2 7570   3.049   5.715   4.858 -0.6319  0.3869 -1.6576
 2536TIP3   OH2 7571   4.647   1.519   3.161 -0.1195  0.2754 -0.0288
 2536TIP3    H1 7572   4.699   1.531   3.082  0.5394 -0.5654  0.2702
 2536TIP3    H2 7573   4.710   1.502   3.230 -0.7040  0.7571  0.6484
 2537TIP3   OH2 7574   6.880   3.651   2.341  0.3494 -0.1091  0.7335
 2537TIP3    H1 7575   6.789   3.636   2.364 -0.4283  1.0253 -1.3693
 2537TIP3    H2 7576   6.916   3.563   2.327 -1.0657 -0.4907 -0.6836
 2538TIP3   OH2 7577   1.794   1.482   1.361  0.7709 -0.0727  0.2106
 2538TIP3    H1 7578   1.748   1.494   1.278  2.5356  0.0250 -0.8088
 2538TIP3    H2 7579   1.778   1.391   1.385 -0.1168  0.0227  0.0040
 2539TIP3   OH2 7580   6.131   4.183   2.917 -0.1251  0.1751 -0.3953
 2539TIP3    H1 7581   6.090   4.269   2.910  0.6554  0.4840 -1.6153
 2539TIP3    H2 7582   6.221   4.197   2.887  0.3828 -0.8238  0.5885
 2540TIP3   OH2 7583   6.228   3.518   2.060 -0.8328 -0.2319  0.3040
 2540TIP3    H1 7584   6.317   3.531   2.027 -1.2533  1.2452 -0.3228
 2540TIP3    H2 7585   6.215   3.587   2.125 -1.0572 -1.3020  1.4525
 2541TIP3   OH2 7586   5.229   6.286   0.336  0.4744  0.3022  0.3459
 2541TIP3    H1 7587   5.175   6.349   0.289  0.6660  2.8667  3.2410
 2541TIP3    H2 7588   5.305   6.272   0.280 -0.7135  0.6871 -1.4403
 2542TIP3   OH2 7589   0.451   5.659   1.079 -0.2880 -0.4333 -0.0770
 2542TIP3    H1 7590   0.517   5.712   1.123 -0.4979 -0.4085  0.2080
 2542TIP3    H2 7591   0.483   5.569   1.087 -0.7294 -0.5128  0.8314
 2543TIP3   OH2 7592   3.527   0.917   4.202  0.3353 -0.6319 -0.2334
 2543TIP3    H1 7593   3.531   0.863   4.123 -0.5047 -0.7922 -0.1713
 2543TIP3    H2 7594   3.600   0.887   4.256  1.4180  0.0143 -1.2780
 2544TIP3   OH2 7595   5.036   4.174   1.000 -0.5321 -0.1715  0.2898
 2544TIP3    H1 7596   5.128   4.189   1.019 -0.3466 -1.5435  0.5319
 2544TIP3    H2 7597   4.998   4.143   1.082 -1.0310 -0.4048 -0.0183
 2545TIP3   OH2 7598   1.403   3.538   0.769 -0.0044  0.0450  0.2258
 2545TIP3    H1 7599   1.330   3.498   0.815 -0.1672  1.9687  1.7903
 2545TIP3    H2 7600   1.364   3.578   0.692 -0.1482 -1.0803 -0.3047
 2546TIP3   OH2 7601   2.121   3.803   2.429 -0.7151 -0.8147 -0.0113
 2546TIP3    H1 7602   2.098   3.895   2.440  0.4568 -0.6920  1.7858
 2546TIP3    H2 7603   2.062   3.757   2.489 -1.6141 -1.3209 -1.2388
 2547TIP3   OH2 7604   0.864   0.842   3.316  0.2119  0.2518 -0.2811
 2547TIP3    H1 7605   0.870   0.837   3.411  0.5863  0.7694 -0.2756
 2547TIP3    H2 7606   0.933   0.903   3.290  0.3505 -0.1548 -0.9134
 2548TIP3   OH2 7607   0.532   1.838   2.540  0.1209  0.1422  0.6193
 2548TIP3    H1 7608   0.524   1.837   2.445  2.5532  1.7286  0.2884
 2548TIP3    H2 7609   0.537   1.745   2.565  0.7757 -0.2757 -0.9588
 2549TIP3   OH2 7610   5.932   6.526   2.765 -0.7464 -0.8375  0.1528
 2549TIP3    H1 7611   5.962   6.573   2.687  1.5255 -2.0793  0.1831
 2549TIP3    H2 7612   5.849   6.486   2.738 -0.8749  0.1819 -1.0391
 2550TIP3   OH2 7613   6.417   6.748   0.120  0.7847  0.0198 -0.2751
 2550TIP3    H1 7614   6.428   6.759   0.026  1.7204  0.5407 -0.1181
 2550TIP3    H2 7615   6.487   6.688   0.146  0.2017 -0.5540  0.0168
 2551TIP3   OH2 7616   4.309   6.014   3.724 -0.2300 -0.1965 -0.0354
 2551TIP3    H1 7617   4.312   6.096   3.773  0.8141  0.6074 -1.3979
 2551TIP3    H2 7618   4.216   5.999   3.707 -0.5099  0.1184  1.1441
 2552TIP3   OH2 7619   1.617   0.149   4.533 -0.2510 -0.1456 -0.2057
 2552TIP3    H1 7620   1.615   0.179   4.442 -3.1384  0.5205 -0.0067
 2552TIP3    H2 7621   1.637   0.227   4.584  0.8847 -0.4236 -0.1906
 2553TIP3   OH2 7622   1.196   0.384   3.683 -0.0957 -0.0269  0.2835
 2553TIP3    H1 7623   1.230   0.383   3.772 -0.1290 -1.5370  0.3109
 2553TIP3    H2 7624   1.107   0.349   3.691 -0.7523  1.4794 -0.1253
 2554TIP3   OH2 7625   1.498   2.476   3.027  0.0582  0.7475 -0.5449
 2554TIP3    H1 7626   1.455   2.477   3.112  1.0775  0.8341 -0.0183
 2554TIP3    H2 7627   1.567   2.409   3.036  0.2208  0.8113 -1.2729
 2555TIP3   OH2 7628   0.977   6.498   3.495 -0.0793  0.0959 -0.1295
 2555TIP3    H1 7629   0.922   6.524   3.421 -0.7849  1.1799  0.7504
 2555TIP3    H2 7630   1.007   6.410   3.472 -3.2598 -1.1432 -0.0790
 2556TIP3   OH2 7631   3.272   2.956   2.366 -0.3761  0.2669  0.0941
 2556TIP3    H1 7632   3.272   2.867   2.331  1.6347  0.5072 -0.6393
 2556TIP3    H2 7633   3.207   2.954   2.437 -0.5452 -1.6975 -0.0663
 2557TIP3   OH2 7634   4.411   3.349   2.035 -0.5572  0.0525  0.1388
 2557TIP3    H1 7635   4.344   3.283   2.055 -0.2925 -0.2207  0.1272
 2557TIP3    H2 7636   4.413   3.405   2.113  0.8797 -1.3486  1.1818
 2558TIP3   OH2 7637   6.037   1.630   0.197  0.1781  0.2230 -0.4644
 2558TIP3    H1 7638   5.996   1.637   0.110 -0.3631  0.6635 -0.1767
 2558TIP3    H2 7639   6.002   1.549   0.234 -0.8127  0.8338 -0.0315
 2559TIP3   OH2 7640   2.495   2.060   5.207 -0.2753 -0.2545 -0.1432
 2559TIP3    H1 7641   2.568   2.063   5.146 -0.5182 -1.5433 -0.5281
 2559TIP3    H2 7642   2.422   2.024   5.157 -0.3501 -1.7982  1.0018
 2560TIP3   OH2 7643   2.772   0.984   4.233 -0.1162  0.2796  0.3482
 2560TIP3    H1 7644   2.823   1.000   4.312  2.4678 -1.0732 -0.9053
 2560TIP3    H2 7645   2.731   0.898   4.248 -1.0506  0.7946  0.8488
 2561TIP3   OH2 7646   6.792   0.449   3.664  0.0493 -0.6865 -0.5449
 2561TIP3    H1 7647   6.739   0.429   3.587  0.3667 -0.2902 -0.8692
 2561TIP3    H2 7648   6.740   0.418   3.738 -0.3900 -0.7989 -0.9008
 2562TIP3   OH2 7649   2.235   6.621   5.235 -0.6199 -0.6350  0.5445
 2562TIP3    H1 7650   2.304   6.639   5.171 -0.6989 -0.4929  0.4982
 2562TIP3    H2 7651   2.210   6.707   5.268  0.8050 -0.8329  2.2461
 2563TIP3   OH2 7652   0.099   2.033   1.063 -0.3979 -0.5766 -0.2092
 2563TIP3    H1 7653   0.072   2.098   0.998  0.1220 -0.4720 -0.3283
 2563TIP3    H2 7654   0.024   2.025   1.123 -1.0716 -1.0250 -1.0858
 2564TIP3   OH2 7655   5.964   0.277   3.188 -0.3095  0.2136  0.5988
 2564TIP3    H1 7656   5.995   0.186   3.184 -1.6168 -0.2459  0.3938
 2564TIP3    H2 7657   6.044   0.330   3.186  0.4131 -0.7912 -3.0705
 2565TIP3   OH2 7658   2.185   2.121   2.991 -0.0704 -0.3627  0.3032
 2565TIP3    H1 7659   2.134   2.067   2.932  0.9275  0.6646 -1.6039
 2565TIP3    H2 7660   2.219   2.061   3.057 -3.0390 -1.1868  1.2029
 2566TIP3   OH2 7661   1.449   4.066   4.257 -0.3352 -0.0994  0.2095
 2566TIP3    H1 7662   1.496   4.148   4.275  0.7042 -0.2609 -1.5414
 2566TIP3    H2 7663   1.514   3.998   4.267 -0.8814 -0.5956  0.4203
 2567TIP3   OH2 7664   2.710   5.255   1.124 -0.5656  1.0839  0.0591
 2567TIP3    H1 7665   2.729   5.254   1.030 -1.6797  0.4861 -0.1805
 2567TIP3    H2 7666   2.615   5.268   1.129 -0.8072 -0.6619  1.0164
 2568TIP3   OH2 7667   1.591   6.614   5.231 -0.1410  0.0809  0.5299
 2568TIP3    H1 7668   1.590   6.560   5.310 -0.3974 -0.7709 -0.0512
 2568TIP3    H2 7669   1.652   6.685   5.252 -0.8296  0.3273  1.7900
 2569TIP3   OH2 7670   0.915   6.255   4.080  0.3054  0.2423 -0.4054
 2569TIP3    H1 7671   0.986   6.301   4.034  1.7703 -0.2218  1.2509
 2569TIP3    H2 7672   0.923   6.284   4.171 -1.9844  0.5277 -0.2397
 2570TIP3   OH2 7673   1.611   4.293   1.273 -0.6750  0.2344 -0.1874
 2570TIP3    H1 7674   1.580   4.248   1.352 -0.4559  0.3619 -0.0266
 2570TIP3    H2 7675   1.532   4.322   1.228 -0.7811  0.7781  0.3433
 2571TIP3   OH2 7676   0.972   0.369   5.217  0.4255  0.8401  0.2252
 2571TIP3    H1 7677   0.924   0.325   5.287 -0.9968 -1.3202 -1.9208
 2571TIP3    H2 7678   0.978   0.460   5.245 -1.5220  0.3914  2.3780
 2572TIP3   OH2 7679   5.554   0.195   5.018 -0.5303 -0.0206  0.0785
 2572TIP3    H1 7680   5.511   0.156   5.095  0.6555  0.0496  0.8039
 2572TIP3    H2 7681   5.635   0.233   5.053  0.5177 -0.8451 -1.3656
 2573TIP3   OH2 7682   2.175   5.668   2.929  0.3492 -0.0873 -0.3160
 2573TIP3    H1 7683   2.241   5.688   2.863  2.5791 -1.5731  1.3245
 2573TIP3    H2 7684   2.163   5.573   2.924  1.6229 -0.4730  2.2155
 2574TIP3   OH2 7685   2.426   5.795   5.525  0.3373  0.3544  0.0254
 2574TIP3    H1 7686   2.434   5.747   5.608  0.3170  2.2970  1.2115
 2574TIP3    H2 7687   2.341   5.767   5.490 -0.3735  0.6287  1.4467
 2575TIP3   OH2 7688   1.601   2.242   5.310  0.1231 -0.1871  0.1434
 2575TIP3    H1 7689   1.514   2.204   5.297  0.6850 -1.3571 -0.2913
 2575TIP3    H2 7690   1.649   2.220   5.230  1.2980 -0.8962  1.0146
 2576TIP3   OH2 7691   6.883   3.555   0.288  0.1839  0.3845 -0.2322
 2576TIP3    H1 7692   6.811   3.500   0.316  0.1967  0.2762 -0.4076
 2576TIP3    H2 7693   6.914   3.514   0.207  1.9218 -0.9056  0.9954
 2577TIP3   OH2 7694   5.980   1.132   2.208  0.0404 -0.0516 -0.3581
 2577TIP3    H1 7695   6.001   1.075   2.282 -0.3274 -0.4435 -0.5530
 2577TIP3    H2 7696   6.066   1.161   2.175  0.2123 -0.1324  0.0189
 2578TIP3   OH2 7697   3.225   2.453   3.246 -0.6906  0.3289  1.0220
 2578TIP3    H1 7698   3.314   2.486   3.234 -1.4367  2.0475 -0.2125
 2578TIP3    H2 7699   3.190   2.445   3.157 -2.5337  1.9707  1.5472
 2579TIP3   OH2 7700   3.262   2.210   0.737 -0.2977  0.2170 -0.4572
 2579TIP3    H1 7701   3.252   2.246   0.825  1.2521  0.3820 -0.3239
 2579TIP3    H2 7702   3.311   2.277   0.689  3.1574 -1.7970 -0.0424
 2580TIP3   OH2 7703   5.838   3.804   1.001  0.0549 -0.5452 -0.0273
 2580TIP3    H1 7704   5.784   3.770   1.072 -1.0615 -2.9921 -1.8638
 2580TIP3    H2 7705   5.790   3.880   0.969 -0.1165 -0.2216  0.9617
 2581TIP3   OH2 7706   5.431   5.366   3.521 -0.1463  0.5042  0.2699
 2581TIP3    H1 7707   5.486   5.350   3.598 -2.4973 -1.2883  1.7327
 2581TIP3    H2 7708   5.402   5.457   3.530  1.7238  1.1602 -0.0112
 2582TIP3   OH2 7709   0.707   1.999   1.068 -0.4672 -0.4231  0.5183
 2582TIP3    H1 7710   0.730   1.916   1.027  0.5598  0.3016 -0.4338
 2582TIP3    H2 7711   0.724   1.985   1.162  1.9688 -0.5766  0.0991
 2583TIP3   OH2 7712   2.794   0.649   0.667 -0.4228 -0.5828  0.0809
 2583TIP3    H1 7713   2.789   0.671   0.760  3.1648  0.0790  0.2612
 2583TIP3    H2 7714   2.805   0.733   0.623 -3.9436 -0.6806 -1.2918
 2584TIP3   OH2 7715   4.218   4.018   0.588 -0.3843 -0.1723  0.5354
 2584TIP3    H1 7716   4.237   3.947   0.649 -3.9992 -0.5564  1.4642
 2584TIP3    H2 7717   4.140   3.990   0.541  0.6359  1.3699 -2.3161
 2585TIP3   OH2 7718   5.330   0.475   0.545 -0.4518  0.0629  0.1485
 2585TIP3    H1 7719   5.277   0.401   0.571 -0.1886  0.1887  1.0639
 2585TIP3    H2 7720   5.309   0.544   0.608  0.2012  0.3689  0.0426
 2586TIP3   OH2 7721   5.840   3.326   4.627  0.6448  0.4584 -0.3360
 2586TIP3    H1 7722   5.848   3.236   4.660  0.3660 -0.0130 -1.4962
 2586TIP3    H2 7723   5.831   3.380   4.705  1.8620 -0.4088  0.4364
 2587TIP3   OH2 7724   6.058   2.865   3.748  0.6442  0.0461 -0.1398
 2587TIP3    H1 7725   6.072   2.837   3.839 -1.3423 -0.3239  0.1022
 2587TIP3    H2 7726   5.998   2.799   3.712 -0.0895  1.2104 -1.1304
 2588TIP3   OH2 7727   3.605   3.530   5.073 -1.1715 -0.1962  0.3060
 2588TIP3    H1 7728   3.698   3.526   5.096 -1.4587 -1.6375  1.3498
 2588TIP3    H2 7729   3.587   3.624   5.062  0.4866  0.0840 -0.3546
 2589TIP3   OH2 7730   3.020   5.372   4.535 -0.5620  0.3911 -0.2724
 2589TIP3    H1 7731   3.064   5.324   4.464  0.5323 -0.7455  1.1044
 2589TIP3    H2 7732   3.084   5.437   4.563  0.2157 -1.0664  1.5384
 2590TIP3   OH2 7733   5.038   0.674   4.922 -0.7236  0.0045  0.2335
 2590TIP3    H1 7734   5.030   0.589   4.965 -0.4534 -0.5120 -0.7023
 2590TIP3    H2 7735   5.063   0.734   4.992 -1.7532 -0.5043  1.0720
 2591TIP3   OH2 7736   1.949   3.889   0.050 -0.5138 -0.1727  0.2193
 2591TIP3    H1 7737   1.993   3.958   0.001  2.3365 -3.0863 -1.7475
 2591TIP3    H2 7738   1.967   3.909   0.142 -0.1249  1.8520 -0.2497
 2592TIP3   OH2 7739   4.486   4.849   5.107 -0.2433 -0.1410 -0.0693
 2592TIP3    H1 7740   4.481   4.934   5.063 -0.1253 -0.1834 -0.1660
 2592TIP3    H2 7741   4.545   4.863   5.181  0.1439 -0.2552 -0.3562
 2593TIP3   OH2 7742   3.593   5.394   1.718 -0.8409  0.1005  0.0622
 2593TIP3    H1 7743   3.605   5.313   1.669 -0.6834  0.1095  0.0867
 2593TIP3    H2 7744   3.525   5.374   1.782 -0.9883  0.0644 -0.1062
 2594TIP3   OH2 7745   4.794   0.903   4.677  0.0115 -0.8297  0.0418
 2594TIP3    H1 7746   4.726   0.950   4.629 -0.0158 -1.2973 -0.3837
 2594TIP3    H2 7747   4.806   0.954   4.757  0.0800 -0.0230 -0.4666
 2595TIP3   OH2 7748   5.367   1.741   1.792  0.3078  0.3662  0.3599
 2595TIP3    H1 7749   5.302   1.803   1.825  1.1398  1.0525  0.7788
 2595TIP3    H2 7750   5.444   1.795   1.773  0.8100 -0.4398  0.0425
 2596TIP3   OH2 7751   0.726   0.248   0.292  0.1114  0.0487  0.2591
 2596TIP3    H1 7752   0.816   0.218   0.300  1.0784  2.3199 -0.9448
 2596TIP3    H2 7753   0.724   0.295   0.208 -1.8664  1.0567  0.8008
 2597TIP3   OH2 7754   7.023   3.270   5.337  0.3254  0.1380 -0.0107
 2597TIP3    H1 7755   7.052   3.232   5.254 -0.4499 -0.2444 -0.1139
 2597TIP3    H2 7756   6.958   3.207   5.371 -0.0224  0.7348  0.4462
 2598TIP3   OH2 7757   2.175   4.079   3.584  0.3937  0.0943  0.3753
 2598TIP3    H1 7758   2.216   4.119   3.660 -1.5090  2.0345  0.4864
 2598TIP3    H2 7759   2.159   4.152   3.524  2.8305 -1.5040 -2.4747
 2599TIP3   OH2 7760   1.516   6.616   2.673 -0.0154  0.4865  0.3582
 2599TIP3    H1 7761   1.433   6.619   2.626  0.4100  2.4125 -0.3328
 2599TIP3    H2 7762   1.536   6.522   2.680 -1.0934  0.0704 -1.5188
 2600TIP3   OH2 7763   6.546   1.380   1.943  0.5527  0.3148 -0.0458
 2600TIP3    H1 7764   6.454   1.395   1.967  0.4833  0.4709 -0.4009
 2600TIP3    H2 7765   6.596   1.425   2.011  0.3632  0.4016  0.0382
 2601TIP3   OH2 7766   5.701   4.886   5.216 -0.1221  0.3799  0.1463
 2601TIP3    H1 7767   5.627   4.848   5.170  0.5108  0.0672 -0.6152
 2601TIP3    H2 7768   5.663   4.959   5.266 -0.9480  0.1699 -0.1673
 2602TIP3   OH2 7769   6.691   2.756   0.418 -0.1704  0.2292  0.0935
 2602TIP3    H1 7770   6.686   2.754   0.513 -1.5990  0.0952  0.0315
 2602TIP3    H2 7771   6.602   2.774   0.389  0.0299 -0.7480 -1.2482
 2603TIP3   OH2 7772   2.072   5.211   4.968 -0.6902 -0.3223 -1.0132
 2603TIP3    H1 7773   2.047   5.216   5.061  2.5338  2.8896 -0.0848
 2603TIP3    H2 7774   2.072   5.117   4.948 -1.6778 -1.1178  2.1541
 2604TIP3   OH2 7775   5.374   1.929   3.648  0.0415 -0.4217  0.2324
 2604TIP3    H1 7776   5.336   1.878   3.721 -0.8201 -1.5608 -0.9642
 2604TIP3    H2 7777   5.321   2.009   3.646 -0.1807 -0.5508  0.6196
 2605TIP3   OH2 7778   1.727   0.488   5.718 -0.7196 -0.0543  0.0727
 2605TIP3    H1 7779   1.772   0.497   5.802  0.8805  0.3748 -0.7972
 2605TIP3    H2 7780   1.718   0.578   5.686 -1.8431 -0.1662  0.0183
 2606TIP3   OH2 7781   4.816   1.314   0.121 -0.1931 -0.0035 -0.0194
 2606TIP3    H1 7782   4.811   1.401   0.161  1.6093  0.7077 -1.2040
 2606TIP3    H2 7783   4.755   1.318   0.047  0.4429  0.5416 -0.5275
 2607TIP3   OH2 7784   6.712   1.423   1.721  0.2648  0.0269  0.0775
 2607TIP3    H1 7785   6.754   1.505   1.747 -0.2532 -0.3741  2.3477
 2607TIP3    H2 7786   6.638   1.414   1.781 -0.9055 -1.1313 -1.4421
 2608TIP3   OH2 7787   1.981   2.135   2.093  0.2648  0.2580  0.0074
 2608TIP3    H1 7788   2.061   2.125   2.144 -0.7369 -1.0696  1.4107
 2608TIP3    H2 7789   1.936   2.051   2.102 -0.2494  0.1497 -2.6416
 2609TIP3   OH2 7790   6.733   2.175   2.786  0.2914  0.3928 -0.0749
 2609TIP3    H1 7791   6.746   2.267   2.806 -1.9773  0.5387  1.0367
 2609TIP3    H2 7792   6.810   2.131   2.821  1.0296  1.7875  0.0824
 2610TIP3   OH2 7793   3.783   6.742   4.602  0.1325 -0.2800 -0.1006
 2610TIP3    H1 7794   3.699   6.700   4.621  0.9966 -2.7716 -1.3075
 2610TIP3    H2 7795   3.847   6.691   4.652  1.3208 -0.9619 -2.1896
 2611TIP3   OH2 7796   0.897   0.805   1.935  0.0744 -0.0648 -0.2329
 2611TIP3    H1 7797   0.898   0.717   1.898  1.2156  0.1727 -0.7900
 2611TIP3    H2 7798   0.987   0.820   1.965 -0.0194  1.0311 -0.4428
 2612TIP3   OH2 7799   7.188   3.644   1.087 -0.6314 -0.8093  0.6979
 2612TIP3    H1 7800   7.157   3.704   1.155  0.5166  1.3539 -0.5875
 2612TIP3    H2 7801   7.117   3.642   1.023 -0.7018 -0.9057  0.7777
 2613TIP3   OH2 7802   2.389   6.527   4.298  0.0933 -0.0801  0.3377
 2613TIP3    H1 7803   2.443   6.471   4.243 -1.1940 -0.7089 -0.3123
 2613TIP3    H2 7804   2.396   6.488   4.386 -0.0807 -0.7467  0.0636
 2614TIP3   OH2 7805   5.213   0.416   2.848 -0.3584 -0.1754  0.2778
 2614TIP3    H1 7806   5.172   0.414   2.935 -0.1110 -0.7333  0.3868
 2614TIP3    H2 7807   5.240   0.507   2.836 -0.3267 -0.1105  0.8230
 2615TIP3   OH2 7808   4.046   5.523   0.990  0.0323 -0.3241 -0.4767
 2615TIP3    H1 7809   3.964   5.520   1.040  0.2171  1.1082 -0.0195
 2615TIP3    H2 7810   4.114   5.510   1.056  0.2619  1.1945 -0.3761
 2616TIP3   OH2 7811   5.772   2.207   2.059  0.1305 -0.5308 -0.3380
 2616TIP3    H1 7812   5.831   2.279   2.079  2.1191 -0.8265 -4.1919
 2616TIP3    H2 7813   5.804   2.134   2.113  0.7090  0.3454  0.5338
 2617TIP3   OH2 7814   2.713   5.547   3.462  0.5674 -0.2039  0.7950
 2617TIP3    H1 7815   2.644   5.545   3.396  1.1571  0.9090  0.1101
 2617TIP3    H2 7816   2.679   5.495   3.535 -1.0851  0.4950  0.5553
 2618TIP3   OH2 7817   0.903   3.692   3.301 -0.2999  0.0713 -0.2540
 2618TIP3    H1 7818   0.879   3.704   3.393 -1.4987 -0.7026 -0.4393
 2618TIP3    H2 7819   0.995   3.666   3.303 -0.0206  1.0440  0.6448
 2619TIP3   OH2 7820   3.782   3.926   1.689  0.5040  0.3609 -0.3534
 2619TIP3    H1 7821   3.872   3.896   1.674  0.6135  0.7845 -0.5740
 2619TIP3    H2 7822   3.753   3.956   1.603  0.1310  0.1747 -0.2922
 2620TIP3   OH2 7823   5.858   1.551   0.485 -0.0417 -0.4958  0.0751
 2620TIP3    H1 7824   5.926   1.485   0.470 -0.3651 -0.5501 -1.3160
 2620TIP3    H2 7825   5.807   1.551   0.404 -1.0162  0.3461  0.6646
 2621TIP3   OH2 7826   3.101   6.032   1.388 -0.3540  0.1055  0.1764
 2621TIP3    H1 7827   3.195   6.044   1.377 -0.2802 -1.0977 -0.6333
 2621TIP3    H2 7828   3.065   6.121   1.386  0.9968  0.8468  3.1589
 2622TIP3   OH2 7829   2.797   4.614   4.017  0.0786  0.0409  0.0460
 2622TIP3    H1 7830   2.834   4.681   4.073  1.0562 -0.5107  0.0750
 2622TIP3    H2 7831   2.713   4.651   3.987  0.1071  0.8186  0.9025
 2623TIP3   OH2 7832   6.033   4.870   4.028 -0.2312 -0.3954  0.3585
 2623TIP3    H1 7833   6.127   4.886   4.035 -0.3858  0.2381  1.1761
 2623TIP3    H2 7834   6.024   4.810   3.955  0.8423 -0.7046  0.4641
 2624TIP3   OH2 7835   0.175   4.804   1.089 -0.3858 -0.0355  0.3356
 2624TIP3    H1 7836   0.239   4.739   1.062 -0.9394 -0.4292 -0.0446
 2624TIP3    H2 7837   0.148   4.848   1.008 -1.4169 -0.6426  0.3255
 2625TIP3   OH2 7838   7.036   0.549   3.694 -0.1081  0.0456 -0.0939
 2625TIP3    H1 7839   6.963   0.498   3.659  0.9895 -0.7226 -1.3703
 2625TIP3    H2 7840   7.062   0.606   3.622  1.3856 -0.6539 -0.1539
 2626TIP3   OH2 7841   5.621   6.150   0.474 -0.6870  0.6362  0.0041
 2626TIP3    H1 7842   5.567   6.222   0.507 -0.6141  0.5366  0.3538
 2626TIP3    H2 7843   5.689   6.139   0.541 -0.6193  0.3355 -0.1129
 2627TIP3   OH2 7844   6.550   2.135   2.603 -0.0209  0.1978  0.4271
 2627TIP3    H1 7845   6.469   2.113   2.649 -1.2399  2.3087 -0.5499
 2627TIP3    H2 7846   6.614   2.151   2.672 -0.3271 -1.7203  1.2145
 2628TIP3   OH2 7847   3.624   5.925   2.139  0.7004  0.0073 -0.7450
 2628TIP3    H1 7848   3.668   6.005   2.110 -0.8635  0.7986 -1.0255
 2628TIP3    H2 7849   3.531   5.941   2.122  0.3559 -1.9153 -0.9021
 2629TIP3   OH2 7850   7.054   1.004   0.296  0.1017  0.1540  0.4265
 2629TIP3    H1 7851   6.984   1.050   0.343  1.0343  0.4657  1.5540
 2629TIP3    H2 7852   7.008   0.943   0.239 -1.1124  0.8838  0.5824
 2630TIP3   OH2 7853   4.719   0.788   1.420 -0.0705  0.6509  0.0361
 2630TIP3    H1 7854   4.653   0.837   1.372 -0.4531  0.0402 -0.0702
 2630TIP3    H2 7855   4.673   0.712   1.454  0.2944  0.8416  1.0055
 2631TIP3   OH2 7856   0.071   6.375   4.828  0.7150 -0.5877 -0.7232
 2631TIP3    H1 7857   0.019   6.375   4.747 -0.9065 -0.0986  0.2790
 2631TIP3    H2 7858   0.104   6.465   4.835 -0.1305 -0.3004 -0.2600
 2632TIP3   OH2 7859   4.938   5.160   3.195 -0.5702 -0.1363  0.1094
 2632TIP3    H1 7860   4.904   5.090   3.141  0.0068  1.1847 -2.0899
 2632TIP3    H2 7861   4.938   5.237   3.138 -1.0998  1.6652  2.3782
 2633TIP3   OH2 7862   6.587   6.394   3.991  0.5631 -0.9405  0.1365
 2633TIP3    H1 7863   6.682   6.403   3.982  0.5633  0.0742  0.9134
 2633TIP3    H2 7864   6.551   6.467   3.941  0.2993  0.0389  1.6829
 2634TIP3   OH2 7865   5.414   3.286   1.752  0.5401  0.1371  0.2519
 2634TIP3    H1 7866   5.423   3.343   1.675 -0.9740 -1.3254 -1.0808
 2634TIP3    H2 7867   5.479   3.319   1.814  0.3052  2.7558 -0.7784
 2635TIP3   OH2 7868   0.072   1.203   2.178  0.2878  0.1047  0.1255
 2635TIP3    H1 7869   0.120   1.163   2.106 -1.6289  0.4796 -1.4417
 2635TIP3    H2 7870   0.057   1.294   2.149 -0.7446  0.1891  0.8583
 2636TIP3   OH2 7871   4.992   6.589   3.438  0.4560  0.4553  0.0275
 2636TIP3    H1 7872   4.989   6.612   3.345  0.2905  0.0174 -0.0803
 2636TIP3    H2 7873   4.928   6.647   3.479  0.7149  0.8254 -0.0938
 2637TIP3   OH2 7874   0.208   0.356   0.826  1.3488  0.1797  0.1116
 2637TIP3    H1 7875   0.162   0.369   0.743  2.3697  0.2333 -0.4525
 2637TIP3    H2 7876   0.266   0.432   0.834 -0.9203  1.8494  2.3876
 2638TIP3   OH2 7877   2.238   3.241   2.189  0.0114  0.5538 -0.1226
 2638TIP3    H1 7878   2.183   3.318   2.170 -2.0141 -0.6344  0.5777
 2638TIP3    H2 7879   2.202   3.172   2.134  0.6400 -0.3528  0.5742
 2639TIP3   OH2 7880   5.175   2.747   2.055 -0.0866  0.2468 -0.4855
 2639TIP3    H1 7881   5.250   2.694   2.083  0.0513  1.1321  0.9568
 2639TIP3    H2 7882   5.136   2.778   2.137 -1.3422  0.7566 -1.2465
 2640TIP3   OH2 7883   2.994   3.373   1.171  0.3781  0.1615 -0.3585
 2640TIP3    H1 7884   2.951   3.345   1.252  1.6721 -1.8984 -0.3170
 2640TIP3    H2 7885   3.001   3.468   1.179 -2.2965  0.3580  0.5043
 2641TIP3   OH2 7886   5.205   0.507   0.301  0.1152  0.3290  0.0300
 2641TIP3    H1 7887   5.272   0.508   0.369  0.1671 -0.7642  0.0171
 2641TIP3    H2 7888   5.128   0.547   0.342  0.0862 -0.4977  0.8138
 2642TIP3   OH2 7889   5.453   0.649   3.111  0.7963 -0.5027 -0.6794
 2642TIP3    H1 7890   5.500   0.704   3.174  1.1480  0.6609 -1.9329
 2642TIP3    H2 7891   5.425   0.574   3.163 -0.8007  1.3932  1.4155
 2643TIP3   OH2 7892   2.443   4.451   4.781 -0.2874 -0.1956  0.0221
 2643TIP3    H1 7893   2.394   4.525   4.745 -0.4619 -0.3497 -0.0535
 2643TIP3    H2 7894   2.534   4.482   4.783 -0.4348  0.2355  0.5232
 2644TIP3   OH2 7895   5.171   1.141   2.184  0.5417 -0.1480 -0.4713
 2644TIP3    H1 7896   5.247   1.190   2.154 -0.9546  2.6907  0.0577
 2644TIP3    H2 7897   5.174   1.148   2.280  0.6118 -1.6836 -0.3381
 2645TIP3   OH2 7898   1.011   3.526   2.501 -0.2482 -0.5671  0.1895
 2645TIP3    H1 7899   0.916   3.513   2.509 -0.0140 -0.9579  3.7968
 2645TIP3    H2 7900   1.020   3.588   2.429 -3.3023  0.1189  0.2421
 2646TIP3   OH2 7901   7.011   2.635   3.104 -0.1455 -0.3909 -0.6591
 2646TIP3    H1 7902   7.076   2.566   3.112 -2.0800 -2.3905 -1.0953
 2646TIP3    H2 7903   6.960   2.630   3.185  0.4516  1.4680 -0.1010
 2647TIP3   OH2 7904   0.152   5.843   3.452  0.4607 -0.6026 -0.6190
 2647TIP3    H1 7905   0.096   5.766   3.463 -1.4787  0.5805 -1.6202
 2647TIP3    H2 7906   0.195   5.830   3.367  1.5024 -1.3553 -0.0002
 2648TIP3   OH2 7907   6.807   4.863   0.860 -0.5194  0.4037  0.1581
 2648TIP3    H1 7908   6.725   4.815   0.856 -0.7312  0.5474  1.8755
 2648TIP3    H2 7909   6.874   4.797   0.876 -0.5469  0.4532  0.4976
 2649TIP3   OH2 7910   4.346   5.384   4.709  0.0439  0.3684 -0.1468
 2649TIP3    H1 7911   4.371   5.468   4.746  0.4909  0.3736 -0.4552
 2649TIP3    H2 7912   4.429   5.343   4.684 -0.2308  0.2697 -0.9277
 2650TIP3   OH2 7913   3.721   3.568   1.637 -0.6919 -0.0565  0.0178
 2650TIP3    H1 7914   3.654   3.631   1.661  1.9710  2.8097  0.6356
 2650TIP3    H2 7915   3.729   3.511   1.714 -1.2935  0.6093  0.5886
 2651TIP3   OH2 7916   1.312   0.494   5.629 -0.0487 -1.0134  0.2863
 2651TIP3    H1 7917   1.365   0.443   5.567 -1.7030 -1.6752 -0.6571
 2651TIP3    H2 7918   1.357   0.485   5.713  0.9504 -2.0999 -0.3381
 2652TIP3   OH2 7919   6.205   2.059   4.158 -0.3817  0.4542 -0.0419
 2652TIP3    H1 7920   6.241   2.073   4.070  0.5469  0.8251  0.3908
 2652TIP3    H2 7921   6.149   2.136   4.173 -0.7702  0.2531 -0.4064
 2653TIP3   OH2 7922   2.227   3.775   1.867 -0.1935 -0.4471 -0.7135
 2653TIP3    H1 7923   2.311   3.774   1.821 -0.3352  0.3898 -1.0017
 2653TIP3    H2 7924   2.249   3.793   1.958  0.0766 -1.9600 -0.4521
 2654TIP3   OH2 7925   2.751   0.765   0.912  0.2369 -0.0474  0.1615
 2654TIP3    H1 7926   2.670   0.810   0.890  1.0625  0.9918 -0.8575
 2654TIP3    H2 7927   2.761   0.778   1.006  0.0915  1.3109  0.0067
 2655TIP3   OH2 7928   2.293   1.385   0.258  0.2004  0.0524  0.3054
 2655TIP3    H1 7929   2.343   1.459   0.224  2.0338 -1.1226  0.2833
 2655TIP3    H2 7930   2.315   1.312   0.200 -0.9452 -0.6991  0.7757
 2656TIP3   OH2 7931   1.256   6.564   0.913 -0.7013 -0.4430 -0.2829
 2656TIP3    H1 7932   1.167   6.554   0.879 -1.0460  1.7501 -0.1776
 2656TIP3    H2 7933   1.248   6.628   0.984  0.9140 -0.4468 -0.0508
 2657TIP3   OH2 7934   0.842   3.487   0.107  0.1789 -0.3152 -0.3374
 2657TIP3    H1 7935   0.821   3.579   0.089 -3.2609 -0.8840  0.1331
 2657TIP3    H2 7936   0.847   3.482   0.202 -0.7304 -0.7632 -0.2987
 2658TIP3   OH2 7937   5.074   5.698   4.797  0.0491  0.0556 -1.1341
 2658TIP3    H1 7938   5.156   5.650   4.786  0.5174  0.2582  0.9039
 2658TIP3    H2 7939   5.093   5.761   4.867 -2.1057 -0.6166  0.1649
 2659TIP3   OH2 7940   5.567   2.975   3.389  0.6962 -0.3429  0.2777
 2659TIP3    H1 7941   5.557   2.888   3.349  2.8826  0.2158 -1.7441
 2659TIP3    H2 7942   5.543   3.036   3.320  0.9706  0.6833  1.0666
 2660TIP3   OH2 7943   5.307   2.359   5.633 -0.1249 -0.4320  0.5152
 2660TIP3    H1 7944   5.326   2.452   5.622 -0.6934 -0.4963 -1.4435
 2660TIP3    H2 7945   5.243   2.339   5.565  2.7177 -3.0363 -1.7706
 2661TIP3   OH2 7946   4.828   5.766   4.369  0.3894 -0.3063  0.5173
 2661TIP3    H1 7947   4.820   5.855   4.334 -0.8036 -0.4103  0.4833
 2661TIP3    H2 7948   4.770   5.764   4.445  1.2066 -0.7608  1.1444
 2662TIP3   OH2 7949   0.233   6.419   1.095 -0.0788  0.5765  0.2753
 2662TIP3    H1 7950   0.293   6.428   1.169 -0.2670  0.1165  0.4876
 2662TIP3    H2 7951   0.193   6.333   1.107 -1.6168  1.3147  0.7621
 2663TIP3   OH2 7952   3.351   6.143   4.482 -0.0004  0.6668  0.0260
 2663TIP3    H1 7953   3.407   6.072   4.452 -0.7536  0.7538 -1.7309
 2663TIP3    H2 7954   3.306   6.173   4.403 -1.4308  1.5578  1.1237
 2664TIP3   OH2 7955   0.321   4.137   2.764 -0.2323  0.2687 -0.1521
 2664TIP3    H1 7956   0.356   4.174   2.683  0.7030 -2.1280 -0.9374
 2664TIP3    H2 7957   0.397   4.124   2.820 -0.4860 -0.6391  0.0018
 2665TIP3   OH2 7958   3.076   1.391   0.837 -0.1570  0.1042  0.2639
 2665TIP3    H1 7959   3.032   1.306   0.835  0.7405 -0.5176  2.7353
 2665TIP3    H2 7960   3.168   1.371   0.819  0.4285  0.1679  2.8386
 2666TIP3   OH2 7961   6.538   4.209   2.379  0.5627 -0.4948 -0.1306
 2666TIP3    H1 7962   6.539   4.157   2.299 -0.5078 -2.0869  0.8295
 2666TIP3    H2 7963   6.490   4.288   2.356 -1.4737 -1.7868 -0.6235
 2667TIP3   OH2 7964   7.088   2.620   5.500  0.2959  0.1505 -0.2725
 2667TIP3    H1 7965   7.037   2.668   5.435 -0.1922 -1.4640 -1.1344
 2667TIP3    H2 7966   7.140   2.558   5.448  0.9963 -0.1865  0.7910
 2668TIP3   OH2 7967   5.499   0.048   5.497  0.4245  0.1347  0.2482
 2668TIP3    H1 7968   5.581   0.038   5.545  0.1080  0.2636  0.8187
 2668TIP3    H2 7969   5.431   0.031   5.562  0.0110 -1.7355 -0.6024
 2669TIP3   OH2 7970   4.417   0.049   0.372 -0.7995  0.1413 -0.5876
 2669TIP3    H1 7971   4.419   0.131   0.323 -0.7513 -0.1551 -1.0961
 2669TIP3    H2 7972   4.397  -0.018   0.306  0.2433 -0.3972 -0.3882
 2670TIP3   OH2 7973   5.405   2.235   3.210 -0.0836  0.2757 -0.0492
 2670TIP3    H1 7974   5.426   2.315   3.259 -0.0650  0.5532 -0.5043
 2670TIP3    H2 7975   5.449   2.247   3.126  1.0368 -0.8042  0.3546
 2671TIP3   OH2 7976   0.635   6.450   5.187 -0.1923  0.2345  0.3871
 2671TIP3    H1 7977   0.604   6.392   5.117  0.4149 -0.1768  0.4504
 2671TIP3    H2 7978   0.722   6.418   5.208  0.0948  1.0745  0.5396
 2672TIP3   OH2 7979   4.443   4.807   1.024 -0.0234 -0.1581 -0.2924
 2672TIP3    H1 7980   4.505   4.780   1.092  0.4600  0.2369 -0.5758
 2672TIP3    H2 7981   4.484   4.883   0.983 -0.7974  0.2466 -0.3328
 2673TIP3   OH2 7982   3.378   4.325   4.276 -0.2955  0.0951  0.0951
 2673TIP3    H1 7983   3.319   4.265   4.230  1.7516 -2.2113  0.2747
 2673TIP3    H2 7984   3.450   4.339   4.215  0.6385  0.0060  1.1470
 2674TIP3   OH2 7985   0.599   0.112   3.285 -0.2308 -0.1140 -0.6618
 2674TIP3    H1 7986   0.581   0.098   3.192  1.3454  1.2103 -1.2103
 2674TIP3    H2 7987   0.646   0.034   3.313  1.0901  0.3541 -1.5158
 2675TIP3   OH2 7988   3.421   3.403   0.303 -0.2419 -0.5354  0.2124
 2675TIP3    H1 7989   3.396   3.397   0.211  0.7469 -1.0249 -0.0351
 2675TIP3    H2 7990   3.364   3.471   0.339 -0.6597 -0.3611 -0.7512
 2676TIP3   OH2 7991   6.186   1.488   5.345  0.0977  0.0271  0.4080
 2676TIP3    H1 7992   6.096   1.483   5.380  0.3254  0.5881  1.0892
 2676TIP3    H2 7993   6.221   1.570   5.379  0.1025  0.9854 -1.7503
 2677TIP3   OH2 7994   0.434   6.299   0.800  0.1003  0.0618  0.4852
 2677TIP3    H1 7995   0.392   6.385   0.794 -2.8962 -1.1847  1.6830
 2677TIP3    H2 7996   0.502   6.311   0.865  0.3228  1.7204  0.0052
 2678TIP3   OH2 7997   7.078   4.646   5.393 -0.2087  0.4462 -0.0271
 2678TIP3    H1 7998   7.115   4.559   5.407 -2.1093 -0.3014  0.7330
 2678TIP3    H2 7999   7.018   4.635   5.320  1.0957  1.6623 -1.3486
 2679TIP3   OH2 8000   6.700   1.358   1.268  0.3412 -0.0461  0.7964
 2679TIP3    H1 8001   6.690   1.268   1.297  1.6619 -0.6694 -0.4922
 2679TIP3    H2 8002   6.787   1.383   1.298  1.4129 -0.4403 -1.7114
 2680TIP3   OH2 8003   0.851   1.129   2.307  0.4011  0.3132  0.0754
 2680TIP3    H1 8004   0.832   1.036   2.295 -0.5125  0.6838 -1.5783
 2680TIP3    H2 8005   0.932   1.130   2.358  0.1077 -1.3762  0.6390
 2681TIP3   OH2 8006   4.952   5.290   3.699  0.1655 -0.4317 -0.2887
 2681TIP3    H1 8007   4.980   5.382   3.692  0.9752 -0.6758 -0.3715
 2681TIP3    H2 8008   4.966   5.254   3.611  2.4030 -1.3112  0.3505
 2682TIP3   OH2 8009   6.204   0.888   4.243  0.2093 -0.6528 -0.1762
 2682TIP3    H1 8010   6.256   0.837   4.181  0.1862  1.4579 -2.0757
 2682TIP3    H2 8011   6.176   0.965   4.193 -0.5765  0.7356  2.2287
 2683TIP3   OH2 8012   6.347   4.474   5.490 -0.1510  0.8837 -0.2099
 2683TIP3    H1 8013   6.338   4.389   5.532  1.7092  0.1206 -1.2154
 2683TIP3    H2 8014   6.263   4.489   5.447 -0.0699 -1.1731 -1.2160
 2684TIP3   OH2 8015   2.428   0.378   1.593 -0.6466  0.5529 -0.2629
 2684TIP3    H1 8016   2.424   0.408   1.684  0.0217 -1.2204  0.3987
 2684TIP3    H2 8017   2.382   0.294   1.594  0.7143 -0.2418 -1.2183
 2685TIP3   OH2 8018   2.959   0.474   2.605 -0.6571 -0.4933  0.2393
 2685TIP3    H1 8019   2.897   0.472   2.678  0.5225  0.2899  1.2986
 2685TIP3    H2 8020   3.034   0.424   2.635  0.5001  1.1645  0.2155
 2686TIP3   OH2 8021   1.113   5.147   5.441 -0.2660  0.1335  0.5913
 2686TIP3    H1 8022   1.141   5.105   5.522  0.0365 -0.9536 -0.0479
 2686TIP3    H2 8023   1.177   5.117   5.376 -0.1134  1.5065  0.0736
 2687TIP3   OH2 8024   5.056   3.535   0.546  0.0714 -0.1625  0.3450
 2687TIP3    H1 8025   5.094   3.447   0.553 -2.1611 -1.2920 -0.7543
 2687TIP3    H2 8026   5.114   3.582   0.486  0.8857 -1.1068  0.3620
 2688TIP3   OH2 8027   1.522   2.731   0.233 -0.0073 -0.3727 -0.1558
 2688TIP3    H1 8028   1.442   2.687   0.261  1.1023 -2.5931 -0.3049
 2688TIP3    H2 8029   1.548   2.784   0.309 -1.2472 -0.1139  0.1119
 2689TIP3   OH2 8030   0.870   0.529   1.008 -0.2898 -0.5452  0.1610
 2689TIP3    H1 8031   0.877   0.496   0.919 -0.7978 -1.6363  0.5078
 2689TIP3    H2 8032   0.958   0.561   1.029  0.1350 -1.3669 -0.3257
 2690TIP3   OH2 8033   0.119   2.204   2.906 -0.2144 -0.2098  0.3459
 2690TIP3    H1 8034   0.208   2.223   2.877 -0.3094 -2.6434 -1.9802
 2690TIP3    H2 8035   0.118   2.109   2.920 -2.2985 -0.1710  0.8207
 2691TIP3   OH2 8036   5.987   3.876   2.296 -0.4266 -0.1803  0.2712
 2691TIP3    H1 8037   5.911   3.824   2.269 -1.7655  0.6403  2.2339
 2691TIP3    H2 8038   5.954   3.932   2.366  1.3221  2.2834 -0.7617
 2692TIP3   OH2 8039   6.698   6.569   2.523  1.1498  0.2207 -0.3404
 2692TIP3    H1 8040   6.649   6.491   2.500  0.6494  0.6133 -0.6362
 2692TIP3    H2 8041   6.759   6.540   2.591  1.3919 -0.5500 -0.8741
 2693TIP3   OH2 8042   2.785   1.348   2.354 -0.2886 -0.2340 -0.1678
 2693TIP3    H1 8043   2.781   1.437   2.319  1.6431 -0.0560 -0.0492
 2693TIP3    H2 8044   2.798   1.359   2.448  0.0298 -0.6266 -0.1601
 2694TIP3   OH2 8045   5.649   5.104   5.735 -0.2203  0.2790 -0.5389
 2694TIP3    H1 8046   5.632   5.062   5.651  1.7640 -0.6560 -0.5299
 2694TIP3    H2 8047   5.696   5.038   5.786 -0.7314  1.0880  1.0465
 2695TIP3   OH2 8048   1.657   3.154   5.084 -0.3214 -0.3228  0.3189
 2695TIP3    H1 8049   1.678   3.116   5.169 -0.5951  1.0169  1.0086
 2695TIP3    H2 8050   1.716   3.111   5.023 -0.5625 -1.7728  1.0685
 2696TIP3   OH2 8051   5.563   4.513   0.470 -0.1947  0.0901  0.9276
 2696TIP3    H1 8052   5.558   4.558   0.386  1.2925 -1.0426  0.1836
 2696TIP3    H2 8053   5.518   4.571   0.531 -1.2544  0.9753 -0.6214
 2697TIP3   OH2 8054   0.519   5.129   1.452 -0.0991 -0.0791 -0.1723
 2697TIP3    H1 8055   0.560   5.045   1.473  0.8086  0.4864  0.3922
 2697TIP3    H2 8056   0.452   5.108   1.387  0.0597 -1.2477  0.0240
 2698TIP3   OH2 8057   0.186   4.374   3.557 -0.3657  0.1083  0.0592
 2698TIP3    H1 8058   0.269   4.390   3.512 -1.0114 -1.6157 -1.9287
 2698TIP3    H2 8059   0.121   4.421   3.505 -1.0443 -1.4060 -0.5325
 2699TIP3   OH2 8060   0.554   1.576   2.603 -0.3326 -0.3506 -0.3380
 2699TIP3    H1 8061   0.572   1.510   2.536  0.0540 -2.0458  1.3250
 2699TIP3    H2 8062   0.568   1.529   2.686 -0.2013  1.7993  0.9253
 2700TIP3   OH2 8063   6.421   5.064   4.549  0.4079  0.1285 -0.3997
 2700TIP3    H1 8064   6.393   5.130   4.487 -0.9864  0.0645  0.1195
 2700TIP3    H2 8065   6.404   4.981   4.505 -1.8641  0.0479  0.5240
 2701TIP3   OH2 8066   4.884   6.698   2.539  0.2048  0.2196 -0.3915
 2701TIP3    H1 8067   4.790   6.688   2.551  0.6041 -4.0471  0.6975
 2701TIP3    H2 8068   4.917   6.717   2.627  0.4592  1.3136 -0.7045
 2702TIP3   OH2 8069   0.739   4.832   5.802  0.4951 -0.0610 -0.1572
 2702TIP3    H1 8070   0.774   4.870   5.722  2.8496  0.1871  0.9014
 2702TIP3    H2 8071   0.653   4.871   5.812  0.9077  1.3101 -1.6034
 2703TIP3   OH2 8072   3.672   2.795   0.080  0.3098  0.4637  0.2348
 2703TIP3    H1 8073   3.657   2.701   0.089  1.6098 -0.0891 -2.4114
 2703TIP3    H2 8074   3.750   2.811   0.134  0.1734 -0.0042  0.5788
 2704TIP3   OH2 8075   0.480   3.208   5.849 -0.3197  0.8563  0.1069
 2704TIP3    H1 8076   0.477   3.170   5.761 -0.0602 -0.4527  0.6302
 2704TIP3    H2 8077   0.468   3.302   5.836  0.3901  0.7631 -1.3765
 2705TIP3   OH2 8078   1.801   3.975   0.332  0.0329  0.2388  0.1492
 2705TIP3    H1 8079   1.883   4.014   0.304  0.3856 -0.6293 -0.0695
 2705TIP3    H2 8080   1.733   4.029   0.291  0.4979  0.7854  0.0936
 2706TIP3   OH2 8081   6.893   0.092   4.880 -0.2795  0.4445 -0.4282
 2706TIP3    H1 8082   6.875   0.175   4.836  0.4941  0.2383 -1.1527
 2706TIP3    H2 8083   6.816   0.038   4.861 -0.0261  0.4127 -1.4284
 2707TIP3   OH2 8084   2.571   6.810   0.438  0.1575 -0.8928 -0.2280
 2707TIP3    H1 8085   2.553   6.739   0.500  0.0564 -0.7864 -0.1349
 2707TIP3    H2 8086   2.652   6.784   0.395  1.8503  0.3602  1.9651
 2708TIP3   OH2 8087   3.096   1.470   4.921 -1.0836 -0.4438 -0.1483
 2708TIP3    H1 8088   3.032   1.403   4.942  0.6877 -1.4599  2.5742
 2708TIP3    H2 8089   3.173   1.422   4.893 -0.2132  0.4799  0.5496
 2709TIP3   OH2 8090   4.841   5.318   1.849 -0.1538  0.1628  0.2433
 2709TIP3    H1 8091   4.919   5.297   1.901 -0.2833 -1.7308 -0.2421
 2709TIP3    H2 8092   4.768   5.286   1.902 -0.4849  0.5115  0.0043
 2710TIP3   OH2 8093   5.821   1.838   1.037  0.2975 -0.2523 -0.2228
 2710TIP3    H1 8094   5.802   1.811   1.126 -0.3155  0.5464 -0.0997
 2710TIP3    H2 8095   5.907   1.801   1.018  0.1400 -0.9811  0.4627
 2711TIP3   OH2 8096   0.989   0.610   5.369  0.0251 -0.0078 -0.0687
 2711TIP3    H1 8097   1.064   0.593   5.312  0.6482 -1.0681  1.0113
 2711TIP3    H2 8098   0.996   0.702   5.392  0.7858 -0.0076 -0.2741
 2712TIP3   OH2 8099   5.022   1.784   2.840 -0.0144 -0.4579  0.2152
 2712TIP3    H1 8100   5.044   1.691   2.838 -0.9513 -0.6910  0.0146
 2712TIP3    H2 8101   4.988   1.803   2.752 -0.2456 -0.0441  0.3880
 2713TIP3   OH2 8102   4.309   1.948   5.354 -0.2309  0.1776 -0.0428
 2713TIP3    H1 8103   4.357   2.000   5.419 -1.3429  2.0131 -0.5938
 2713TIP3    H2 8104   4.365   1.950   5.277 -0.3552  0.7894 -0.1270
 2714TIP3   OH2 8105   1.427   5.167   1.311  0.2120  0.0521 -0.5018
 2714TIP3    H1 8106   1.503   5.221   1.292 -1.7047  2.2459 -2.7146
 2714TIP3    H2 8107   1.431   5.096   1.246  0.4019  0.1371 -0.5839
 2715TIP3   OH2 8108   1.528   5.533   0.279 -0.1393  0.2446  0.3307
 2715TIP3    H1 8109   1.619   5.503   0.291  0.6321  1.8851 -1.0753
 2715TIP3    H2 8110   1.482   5.498   0.355  1.6279 -0.7880  0.9949
 2716TIP3   OH2 8111   2.734   3.490   3.175 -0.0468  0.1438  0.4751
 2716TIP3    H1 8112   2.674   3.564   3.182 -0.6962 -0.2171 -0.9342
 2716TIP3    H2 8113   2.820   3.530   3.165 -0.3806  0.7145 -0.1687
 2717TIP3   OH2 8114   1.970   2.385   0.556 -0.2951  0.3724 -0.3279
 2717TIP3    H1 8115   1.966   2.291   0.574  0.3124  0.3469 -0.2968
 2717TIP3    H2 8116   1.931   2.426   0.633  1.3818  0.2219  0.6630
 2718TIP3   OH2 8117   0.954   2.835   1.265  0.2584  0.3211  0.0170
 2718TIP3    H1 8118   0.876   2.875   1.225 -0.0264 -0.0537  0.1957
 2718TIP3    H2 8119   0.920   2.765   1.320  0.7662 -0.3234 -0.4704
 2719TIP3   OH2 8120   2.127   6.295   1.549 -0.6830 -0.2962  0.0482
 2719TIP3    H1 8121   2.157   6.293   1.640 -0.2837 -1.2378 -0.0890
 2719TIP3    H2 8122   2.205   6.274   1.498 -0.6268  1.3665 -0.6054
 2720TIP3   OH2 8123   6.978   5.558   5.612 -0.4630 -0.0933  0.8197
 2720TIP3    H1 8124   6.935   5.582   5.530 -0.2924  0.0876  0.7818
 2720TIP3    H2 8125   6.946   5.622   5.676 -3.0249 -2.0449  1.6641
 2721TIP3   OH2 8126   0.377   6.712   0.616 -0.0279  0.0985 -0.0708
 2721TIP3    H1 8127   0.338   6.663   0.688 -0.5580 -0.2871 -0.6069
 2721TIP3    H2 8128   0.438   6.651   0.575  0.4681  0.4024  0.2053
 2722TIP3   OH2 8129   5.734   1.048   2.253 -0.3405  0.5689 -0.5329
 2722TIP3    H1 8130   5.826   1.067   2.231  0.7210 -2.8218  0.3129
 2722TIP3    H2 8131   5.690   1.038   2.169  0.8300 -0.6731 -1.0324
 2723TIP3   OH2 8132   1.333   4.456   2.508  0.1353  0.1962  0.1951
 2723TIP3    H1 8133   1.332   4.386   2.573  0.0418 -0.8533 -0.9096
 2723TIP3    H2 8134   1.350   4.536   2.559 -1.4222 -0.3741  1.6953
 2724TIP3   OH2 8135   5.152   6.733   0.027  0.1699  0.5904  0.6077
 2724TIP3    H1 8136   5.212   6.721  -0.047  2.2219 -0.7896  2.3912
 2724TIP3    H2 8137   5.152   6.828   0.043 -0.7803  1.0008 -1.4514
 2725TIP3   OH2 8138   4.223   1.867   0.206  0.0823  0.2194  0.3244
 2725TIP3    H1 8139   4.185   1.954   0.206  1.0322  0.6515  0.0344
 2725TIP3    H2 8140   4.314   1.881   0.179 -0.4151 -1.1375 -2.4102
 2726TIP3   OH2 8141   5.355   4.658   1.318  0.0162 -0.0178  0.3808
 2726TIP3    H1 8142   5.321   4.578   1.358  0.7581 -0.5402 -0.0083
 2726TIP3    H2 8143   5.346   4.644   1.224 -1.2851  1.0099  0.3323
 2727TIP3   OH2 8144   4.219   1.028   5.336  0.1225 -0.1174 -0.1703
 2727TIP3    H1 8145   4.262   1.113   5.348 -1.8279  0.8323  0.3953
 2727TIP3    H2 8146   4.227   1.010   5.242 -0.0620  1.0298 -0.4178
 2728TIP3   OH2 8147   5.609   3.890   1.378 -0.0024  0.1128  0.0803
 2728TIP3    H1 8148   5.656   3.924   1.454 -1.3920  0.0623  1.0050
 2728TIP3    H2 8149   5.606   3.964   1.317 -1.4250  1.1308  1.3183
 2729TIP3   OH2 8150   1.155   2.297   2.010  0.1927 -0.2034 -0.0216
 2729TIP3    H1 8151   1.235   2.246   1.997  1.3850  1.3652  0.7933
 2729TIP3    H2 8152   1.151   2.354   1.933  0.3125  0.2860  0.3346
 2730TIP3   OH2 8153   3.597   6.451   5.096 -0.0521 -0.0234  0.2319
 2730TIP3    H1 8154   3.639   6.535   5.080 -1.5228  0.2897 -2.6922
 2730TIP3    H2 8155   3.654   6.387   5.052 -1.1540  0.0743 -1.4312
 2731TIP3   OH2 8156   7.039   3.267   4.826 -0.5903 -0.1472 -0.3536
 2731TIP3    H1 8157   7.102   3.200   4.853 -0.1942  0.2852 -0.1985
 2731TIP3    H2 8158   6.960   3.217   4.805  0.1799 -0.8189 -1.7934
 2732TIP3   OH2 8159   2.540   3.330   5.620  0.2221 -0.8086 -0.6778
 2732TIP3    H1 8160   2.575   3.242   5.611  2.0956 -0.2439  0.5742
 2732TIP3    H2 8161   2.505   3.334   5.709  0.3469 -0.2318 -0.6480
 2733TIP3   OH2 8162   6.872   1.070   2.701  0.3876  0.1498 -0.1095
 2733TIP3    H1 8163   6.820   1.140   2.740  0.6418  1.5891 -2.2243
 2733TIP3    H2 8164   6.844   1.066   2.610  2.2134 -0.7343 -0.6955
 2734TIP3   OH2 8165   1.357   4.364   2.237  0.4420  0.0770 -0.2620
 2734TIP3    H1 8166   1.365   4.394   2.327 -1.8313  0.5857 -0.1769
 2734TIP3    H2 8167   1.324   4.440   2.189 -0.1792 -0.7265 -1.1433
 2735TIP3   OH2 8168   6.429   0.017   5.886 -0.1887 -0.2777 -0.4374
 2735TIP3    H1 8169   6.446   0.003   5.793 -1.1538 -0.9331 -0.5325
 2735TIP3    H2 8170   6.501   0.073   5.916 -0.6002  1.0790 -1.8747
 2736TIP3   OH2 8171   3.869   5.067   3.135  0.2153 -0.3149 -0.1612
 2736TIP3    H1 8172   3.774   5.064   3.123  0.0193 -2.4372  1.4639
 2736TIP3    H2 8173   3.903   4.997   3.079  0.6450 -0.6871  0.5455
 2737TIP3   OH2 8174   6.007   4.084   0.025 -0.0472  0.2897  0.4076
 2737TIP3    H1 8175   5.949   4.109  -0.047  0.5835 -1.8408 -0.9473
 2737TIP3    H2 8176   5.949   4.071   0.100 -0.8987  1.2166 -0.0652
 2738TIP3   OH2 8177   3.475   3.912   2.001  0.3237  0.3510  0.0434
 2738TIP3    H1 8178   3.401   3.972   1.998  0.6399  0.9225  2.2679
 2738TIP3    H2 8179   3.451   3.847   2.067 -0.2678 -2.4352 -2.7034
 2739TIP3   OH2 8180   2.995   4.279   5.240 -0.3367 -0.3509 -0.3698
 2739TIP3    H1 8181   2.922   4.277   5.302  0.5062 -0.8830  0.6660
 2739TIP3    H2 8182   2.981   4.357   5.188 -1.1856  0.0145  0.3799
 2740TIP3   OH2 8183   1.480   1.226   5.799  0.0452  0.1562 -0.2043
 2740TIP3    H1 8184   1.519   1.252   5.715  1.9758 -0.8720  0.3147
 2740TIP3    H2 8185   1.542   1.256   5.865 -0.9084 -0.0248  0.8114
 2741TIP3   OH2 8186   4.831   4.859   5.272 -0.5475  0.1270  0.0077
 2741TIP3    H1 8187   4.845   4.886   5.181 -1.5407  1.5222  0.2409
 2741TIP3    H2 8188   4.761   4.916   5.304 -0.2558 -0.3677  1.6439
 2742TIP3   OH2 8189   2.735   2.197   5.508  0.3063  0.1711  0.2521
 2742TIP3    H1 8190   2.667   2.263   5.515  0.2722  0.0877  0.7724
 2742TIP3    H2 8191   2.793   2.229   5.440 -1.2489 -0.6743 -1.5543
 2743TIP3   OH2 8192   4.419  -0.003   4.143 -0.2907 -0.0996 -0.1404
 2743TIP3    H1 8193   4.511  -0.026   4.136 -0.7019 -2.0771  0.3094
 2743TIP3    H2 8194   4.407   0.068   4.081  1.5579  0.3008 -0.0906
 2744TIP3   OH2 8195   1.287   6.506   3.778 -0.3122  0.3671  0.2424
 2744TIP3    H1 8196   1.299   6.536   3.688  1.8760  0.2286  0.4350
 2744TIP3    H2 8197   1.314   6.580   3.832 -1.1053  0.2668  0.7914
 2745TIP3   OH2 8198   0.053   4.443   3.171 -0.3325  0.4535  0.1118
 2745TIP3    H1 8199  -0.027   4.475   3.129  0.0876  0.2560 -0.8735
 2745TIP3    H2 8200   0.059   4.492   3.253 -3.2584 -1.8607  1.9272
 2746TIP3   OH2 8201   5.660   0.894   2.992  0.0435 -0.3621 -0.2149
 2746TIP3    H1 8202   5.599   0.843   3.046  2.0435 -2.7763 -0.0336
 2746TIP3    H2 8203   5.745   0.880   3.033  0.9533  1.7351 -1.2565
 2747TIP3   OH2 8204   0.198   6.438   4.213  0.3882  0.6836 -0.0309
 2747TIP3    H1 8205   0.244   6.429   4.130  0.0342  0.7071 -0.2345
 2747TIP3    H2 8206   0.254   6.394   4.277  0.2555 -0.0819 -0.4305
 2748TIP3   OH2 8207   0.220   1.374   1.623 -0.3142 -0.2997 -0.3736
 2748TIP3    H1 8208   0.125   1.378   1.628 -0.3118  2.2022 -1.0067
 2748TIP3    H2 8209   0.250   1.444   1.680  1.1787 -1.0010 -0.2455
 2749TIP3   OH2 8210   0.547   1.366   4.580  0.7132 -0.3104 -0.2509
 2749TIP3    H1 8211   0.601   1.301   4.625 -0.8349 -1.6425 -0.1990
 2749TIP3    H2 8212   0.518   1.426   4.649  1.5296 -0.0143 -0.1612
 2750TIP3   OH2 8213   1.461   3.987   0.784  0.1361 -0.5142  0.2469
 2750TIP3    H1 8214   1.413   3.960   0.706  0.7016  2.0722 -1.1018
 2750TIP3    H2 8215   1.401   4.046   0.830  0.8123  0.1343  0.3072
 2751TIP3   OH2 8216   2.918   4.482   2.893 -0.5713  0.3062  0.1394
 2751TIP3    H1 8217   2.877   4.433   2.821 -0.1461  0.2827 -0.0874
 2751TIP3    H2 8218   2.950   4.562   2.853  1.0819 -0.3974 -0.0494
 2752TIP3   OH2 8219   1.074   3.816   0.867 -0.5611  0.1131  0.0195
 2752TIP3    H1 8220   1.044   3.730   0.898 -2.4198  0.0015 -1.8709
 2752TIP3    H2 8221   1.055   3.815   0.773  1.1730  1.8963 -0.4042
 2753TIP3   OH2 8222   4.720   1.188   3.534 -0.0050  0.0195 -0.7353
 2753TIP3    H1 8223   4.694   1.122   3.469 -1.0091 -0.1200 -0.2229
 2753TIP3    H2 8224   4.814   1.178   3.542 -0.2250 -1.8914 -0.1133
 2754TIP3   OH2 8225   6.526   2.344   5.342  0.2526 -0.1454  0.0052
 2754TIP3    H1 8226   6.589   2.278   5.370 -0.0694 -1.1320 -1.4689
 2754TIP3    H2 8227   6.543   2.420   5.399  1.9903 -0.7815  0.3863
 2755TIP3   OH2 8228   1.168   6.310   3.118  0.3828  0.6109  0.2473
 2755TIP3    H1 8229   1.146   6.338   3.029 -2.7298 -0.0119  0.7246
 2755TIP3    H2 8230   1.181   6.392   3.167  0.1844  0.9943 -0.3362
 2756TIP3   OH2 8231   0.614   4.152   5.067 -0.4388  0.3743  0.0661
 2756TIP3    H1 8232   0.569   4.230   5.035  2.4804  1.5631 -1.5672
 2756TIP3    H2 8233   0.694   4.186   5.107 -0.2147 -1.6947  1.5440
 2757TIP3   OH2 8234   7.021   5.912   3.968  0.0507  0.9369  0.0927
 2757TIP3    H1 8235   7.097   5.859   3.945  1.1922  1.9196  1.4421
 2757TIP3    H2 8236   6.957   5.849   4.001  0.0095  0.0258 -1.6145
 2758TIP3   OH2 8237   6.225   5.451   3.526  0.2178 -0.3608  0.0648
 2758TIP3    H1 8238   6.154   5.402   3.486  0.8616 -1.4658  0.2553
 2758TIP3    H2 8239   6.302   5.430   3.472  0.3955  0.9287 -0.2275
 2759TIP3   OH2 8240   6.855   5.255   4.765  0.1274 -0.0841  0.6699
 2759TIP3    H1 8241   6.760   5.261   4.777  0.0068 -0.8050  0.1057
 2759TIP3    H2 8242   6.869   5.172   4.720  0.8650  0.7992 -0.8290
 2760TIP3   OH2 8243   3.079   2.273   3.081  0.1107  0.2162  0.1183
 2760TIP3    H1 8244   3.054   2.212   3.011 -0.0052 -1.0162  1.1956
 2760TIP3    H2 8245   3.069   2.360   3.042  0.4226 -0.4435 -1.5139
 2761TIP3   OH2 8246   5.523   0.207   1.441 -0.4873  0.9596  0.5666
 2761TIP3    H1 8247   5.444   0.168   1.479  0.0223 -0.7639 -0.0649
 2761TIP3    H2 8248   5.491   0.264   1.371 -1.1478 -1.0858 -0.8766
 2762TIP3   OH2 8249   1.778   0.518   4.409 -0.6247 -0.4997 -1.0589
 2762TIP3    H1 8250   1.734   0.549   4.330 -0.5249 -0.2433 -1.0141
 2762TIP3    H2 8251   1.707   0.499   4.470 -0.6447  0.9954 -0.5833
 2763TIP3   OH2 8252   4.599   2.038   5.853  0.6075  0.2160  0.8330
 2763TIP3    H1 8253   4.667   2.106   5.848  0.4691  0.3329  0.4922
 2763TIP3    H2 8254   4.518   2.087   5.869  0.1923  0.3365 -1.3113
 2764TIP3   OH2 8255   1.314   3.642   2.887  0.1170  0.1877 -0.6115
 2764TIP3    H1 8256   1.360   3.600   2.815 -0.8034  0.0268 -1.1274
 2764TIP3    H2 8257   1.382   3.688   2.936  0.8260 -0.1196 -1.2895
 2765TIP3   OH2 8258   1.361   4.992   4.779 -0.3504 -0.3632 -0.0579
 2765TIP3    H1 8259   1.352   5.002   4.684  1.4387 -0.2370 -0.2450
 2765TIP3    H2 8260   1.311   4.913   4.799 -0.0042 -0.9067 -1.2410
 2766TIP3   OH2 8261   6.472   3.376   3.559 -0.0238 -0.3976  0.1582
 2766TIP3    H1 8262   6.396   3.385   3.501  0.0640  2.1076  0.3196
 2766TIP3    H2 8263   6.466   3.451   3.618  2.3430 -0.3703  0.4637
 2767TIP3   OH2 8264   3.367   0.494   3.231  0.0800  0.5111  0.0291
 2767TIP3    H1 8265   3.299   0.427   3.239 -1.4280  1.9837  0.1125
 2767TIP3    H2 8266   3.408   0.477   3.146 -1.2272  0.3244 -0.5843
 2768TIP3   OH2 8267   5.326   4.958   0.232  0.0642  0.1100  0.5970
 2768TIP3    H1 8268   5.272   4.953   0.310 -2.9046 -0.9994 -1.3326
 2768TIP3    H2 8269   5.351   5.051   0.226 -1.1561  0.5546  1.8995
 2769TIP3   OH2 8270   6.941   3.733   0.482 -0.4491  0.3700  0.2679
 2769TIP3    H1 8271   6.990   3.800   0.434 -0.3503  0.1565  0.0672
 2769TIP3    H2 8272   6.921   3.666   0.416  0.4696 -0.3608  0.7018
 2770TIP3   OH2 8273   6.675   6.564   3.453 -0.0996  0.1576  0.3051
 2770TIP3    H1 8274   6.666   6.558   3.548  1.1119 -0.2299  0.4146
 2770TIP3    H2 8275   6.701   6.476   3.426 -2.6024 -0.3375 -0.6824
 2771TIP3   OH2 8276   2.345   4.242   4.654  0.0443  0.3749 -0.0887
 2771TIP3    H1 8277   2.381   4.317   4.702  0.0713  0.0797  0.3549
 2771TIP3    H2 8278   2.363   4.167   4.710  2.4614 -0.3934 -1.7154
 2772TIP3   OH2 8279   6.911   5.808   4.248  0.2147  0.5859 -0.4445
 2772TIP3    H1 8280   6.936   5.722   4.284 -0.7011 -0.4121 -2.0585
 2772TIP3    H2 8281   6.987   5.836   4.199 -0.1569 -0.2707 -1.5511
 2773TIP3   OH2 8282   4.604   5.981   4.078  0.3301 -0.0070 -0.1109
 2773TIP3    H1 8283   4.574   5.891   4.082  0.4527 -0.0100  1.7254
 2773TIP3    H2 8284   4.526   6.032   4.058  0.0820 -0.4412 -0.2469
 2774TIP3   OH2 8285   1.594   2.659   5.711  0.2651 -0.0403  0.1689
 2774TIP3    H1 8286   1.672   2.711   5.691  0.9691 -1.7086 -1.7102
 2774TIP3    H2 8287   1.537   2.720   5.758  1.9271  1.7673 -0.0059
 2775TIP3   OH2 8288   4.271   3.798   0.729  0.0976  0.1560 -0.2297
 2775TIP3    H1 8289   4.331   3.818   0.801 -1.2132 -0.8186  1.1970
 2775TIP3    H2 8290   4.265   3.702   0.729 -0.5963  0.1874 -1.0814
 2776TIP3   OH2 8291   4.462   4.529   1.520 -0.0566  0.6724 -0.5764
 2776TIP3    H1 8292   4.387   4.586   1.539 -0.1714 -0.0796  1.5275
 2776TIP3    H2 8293   4.423   4.455   1.472 -0.6570  0.3803  0.3299
 2777TIP3   OH2 8294   0.118   3.906   4.305  0.7551  0.2528 -0.2467
 2777TIP3    H1 8295   0.171   3.929   4.382  0.5599 -1.4196  0.4204
 2777TIP3    H2 8296   0.030   3.893   4.339  0.0795  2.0315 -1.1993
 2778TIP3   OH2 8297   3.512   0.728   3.749  0.3155 -0.3287  0.0227
 2778TIP3    H1 8298   3.489   0.729   3.656  1.6392 -0.2716 -0.3139
 2778TIP3    H2 8299   3.512   0.636   3.773  0.6775 -0.3896 -0.2136
 2779TIP3   OH2 8300   7.151   4.361   0.693 -0.0439  0.1130  0.2816
 2779TIP3    H1 8301   7.058   4.383   0.679 -0.6634 -1.5589  1.4459
 2779TIP3    H2 8302   7.190   4.443   0.724 -1.5267  0.4519  1.3913
 2780TIP3   OH2 8303   2.626   3.692   1.951 -0.5314  0.3284  0.6676
 2780TIP3    H1 8304   2.712   3.731   1.938 -0.3540 -0.4653 -0.6974
 2780TIP3    H2 8305   2.635   3.640   2.031  0.6054 -0.6194 -0.0386
 2781TIP3   OH2 8306   1.288   6.571   1.578 -0.5080 -0.4867 -0.8968
 2781TIP3    H1 8307   1.228   6.502   1.605 -1.1057  0.1760 -0.4909
 2781TIP3    H2 8308   1.356   6.572   1.646 -0.7250 -0.3979 -0.6822
 2782TIP3   OH2 8309   6.638   2.440   1.988  0.1938 -0.0727  0.1023
 2782TIP3    H1 8310   6.654   2.372   2.054 -1.3689 -0.0386  0.5575
 2782TIP3    H2 8311   6.589   2.396   1.919  0.6631  0.2025 -0.4109
 2783TIP3   OH2 8312   2.426   5.687   0.357 -0.6556  0.4691  0.0477
 2783TIP3    H1 8313   2.393   5.750   0.422 -2.2970 -2.0337  1.8478
 2783TIP3    H2 8314   2.348   5.640   0.327  0.5429 -1.1587 -0.6788
 2784TIP3   OH2 8315   2.568   4.250   5.826 -0.0706  0.2805 -0.3026
 2784TIP3    H1 8316   2.635   4.261   5.893 -0.0569 -0.2008 -0.2349
 2784TIP3    H2 8317   2.522   4.334   5.824 -0.1556  0.2533  0.3935
 2785TIP3   OH2 8318   5.402   1.629   4.885 -0.4422 -0.5417 -0.2476
 2785TIP3    H1 8319   5.472   1.567   4.908 -1.0839 -0.8344  1.0572
 2785TIP3    H2 8320   5.447   1.705   4.850  0.4525 -1.1800 -0.5275
 2786TIP3   OH2 8321   1.919   0.581   0.885  0.2266 -0.1282 -0.2284
 2786TIP3    H1 8322   1.838   0.575   0.936  0.3367 -1.4077 -0.1775
 2786TIP3    H2 8323   1.926   0.497   0.841  0.8147  0.4865 -1.3463
 2787TIP3   OH2 8324   6.896   0.805   2.790 -0.1609  0.0223  0.0429
 2787TIP3    H1 8325   6.888   0.894   2.755 -0.4759 -0.2785 -0.6593
 2787TIP3    H2 8326   6.965   0.765   2.737 -0.1296 -0.2027  0.2530
 2788TIP3   OH2 8327   5.789   0.445   5.569 -0.2351 -0.6268  0.3609
 2788TIP3    H1 8328   5.759   0.378   5.630 -0.1393 -1.0721 -0.0806
 2788TIP3    H2 8329   5.797   0.400   5.485  0.1429 -0.1397  0.1315
 2789TIP3   OH2 8330   5.559   6.390   3.222  0.0654 -0.5522  0.4878
 2789TIP3    H1 8331   5.631   6.332   3.248  0.3070 -1.0724 -1.1893
 2789TIP3    H2 8332   5.480   6.348   3.256  0.3668 -1.1992  0.4035
 2790TIP3   OH2 8333   1.795   2.243   2.816 -0.0657  0.0042  0.1800
 2790TIP3    H1 8334   1.880   2.284   2.825  0.2822 -0.4002 -0.9987
 2790TIP3    H2 8335   1.766   2.225   2.905  0.0225  2.2436  0.7197
 2791TIP3   OH2 8336   4.188   1.095   2.569 -0.0727 -0.1683  0.5228
 2791TIP3    H1 8337   4.152   1.039   2.638  0.4679 -0.7751  0.3240
 2791TIP3    H2 8338   4.218   1.034   2.501  0.7227  0.3417  0.3910
 2792TIP3   OH2 8339   3.357   1.351   5.383  0.6968  0.0067  0.0980
 2792TIP3    H1 8340   3.327   1.424   5.330  0.9956  0.1015  0.0572
 2792TIP3    H2 8341   3.401   1.391   5.457 -0.8088 -0.0996  1.0975
 2793TIP3   OH2 8342   1.122   3.815   3.551  0.1608 -0.6321 -0.6652
 2793TIP3    H1 8343   1.057   3.823   3.622 -0.4079  2.4151 -1.3725
 2793TIP3    H2 8344   1.204   3.796   3.596 -0.4428 -0.1608  0.6910
 2794TIP3   OH2 8345   2.644   5.229   1.603 -0.3413  0.4521  0.6535
 2794TIP3    H1 8346   2.706   5.192   1.667  0.6399  3.4069  1.5631
 2794TIP3    H2 8347   2.696   5.242   1.524  0.6166  3.6780  1.6576
 2795TIP3   OH2 8348   2.013   6.466   1.191  0.5973 -0.1297 -0.1372
 2795TIP3    H1 8349   1.931   6.515   1.190  0.7573  0.1565  0.3846
 2795TIP3    H2 8350   2.081   6.533   1.196  0.9420 -0.3016 -1.8584
 2796TIP3   OH2 8351   3.555   6.567   3.667  0.8639 -0.0940  0.2649
 2796TIP3    H1 8352   3.643   6.530   3.667  0.2232 -1.8843  3.1382
 2796TIP3    H2 8353   3.498   6.495   3.641 -0.0498 -0.0143  1.9301
 2797TIP3   OH2 8354   6.921   1.031   4.639  0.2135  0.0397 -0.5167
 2797TIP3    H1 8355   6.958   1.097   4.698  0.5935 -0.0889 -0.6045
 2797TIP3    H2 8356   6.844   1.073   4.600  0.0583  0.1839 -0.0560
 2798TIP3   OH2 8357   2.026   5.846   3.842  0.3771 -0.5779 -0.6420
 2798TIP3    H1 8358   2.005   5.935   3.813  1.4918 -0.5093 -1.2822
 2798TIP3    H2 8359   1.943   5.812   3.876 -0.0590  0.7199 -0.3312
 2799TIP3   OH2 8360   6.700   5.408   3.631  0.1253 -0.2324 -0.0122
 2799TIP3    H1 8361   6.760   5.421   3.558 -0.0568 -0.5634 -0.2255
 2799TIP3    H2 8362   6.688   5.313   3.635 -0.6161 -0.1499 -0.1622
 2800TIP3   OH2 8363   2.262   3.238   1.846 -0.2456  0.2605 -0.1945
 2800TIP3    H1 8364   2.239   3.331   1.834  2.2713  0.9812 -0.0093
 2800TIP3    H2 8365   2.311   3.236   1.928  1.5323 -0.8526 -1.2324
 2801TIP3   OH2 8366   6.727   1.351   5.383  0.2163 -0.3675 -0.1246
 2801TIP3    H1 8367   6.721   1.258   5.407  0.4942 -0.7072 -1.3364
 2801TIP3    H2 8368   6.657   1.393   5.434 -0.0560 -1.2669  0.2702
 2802TIP3   OH2 8369   0.167   5.030   4.213 -0.4973  0.1396 -0.1281
 2802TIP3    H1 8370   0.163   4.956   4.274 -0.9818  0.2225 -0.0581
 2802TIP3    H2 8371   0.209   5.100   4.264  0.4897 -0.2487 -0.3710
 2803TIP3   OH2 8372   6.747   5.590   3.302  0.1828 -0.4059  0.0005
 2803TIP3    H1 8373   6.728   5.520   3.239 -1.5953 -0.3564  0.4080
 2803TIP3    H2 8374   6.670   5.647   3.297  0.9776  0.7544  0.6854
 2804TIP3   OH2 8375   5.613   2.449   2.672 -0.1499  0.7350  0.1535
 2804TIP3    H1 8376   5.646   2.375   2.724 -0.3091  0.7099  0.2180
 2804TIP3    H2 8377   5.577   2.408   2.594 -0.7022  0.7000  0.4205
 2805TIP3   OH2 8378   4.868   5.519   3.405 -0.0111  0.6617 -0.4273
 2805TIP3    H1 8379   4.787   5.477   3.435  0.0391 -0.2221 -1.4507
 2805TIP3    H2 8380   4.938   5.473   3.452  0.0738 -0.7896 -1.8474
 2806TIP3   OH2 8381   4.285   5.663   0.570 -0.5518  0.5557  0.4492
 2806TIP3    H1 8382   4.274   5.682   0.476 -0.5075 -0.9886  0.1117
 2806TIP3    H2 8383   4.203   5.623   0.597  0.0391 -0.5755  0.6404
 2807TIP3   OH2 8384   2.768   2.829   0.691  0.4574 -0.3180  0.1539
 2807TIP3    H1 8385   2.674   2.813   0.693  0.5162 -1.0372  3.5027
 2807TIP3    H2 8386   2.807   2.742   0.677  0.6364 -0.1255 -0.5612
 2808TIP3   OH2 8387   2.449   2.009   4.278  0.3986 -0.0098  0.4043
 2808TIP3    H1 8388   2.357   1.994   4.257  0.4070  1.0850 -0.5341
 2808TIP3    H2 8389   2.453   2.102   4.303  1.6802  0.7748 -2.3542
 2809TIP3   OH2 8390   2.042   2.545   0.013  0.0485 -0.1079 -0.3638
 2809TIP3    H1 8391   2.046   2.532   0.108 -0.3557 -0.6139 -0.4104
 2809TIP3    H2 8392   1.992   2.626   0.002 -0.8678 -0.6342 -0.1692
 2810TIP3   OH2 8393   6.460   5.846   3.493 -0.3601 -0.3657  0.3152
 2810TIP3    H1 8394   6.515   5.894   3.556 -0.7120 -1.4754  1.5183
 2810TIP3    H2 8395   6.480   5.754   3.509 -0.6217 -0.6873 -1.0814
 2811TIP3   OH2 8396   6.091   1.677   5.102 -0.4065  0.4051 -0.0698
 2811TIP3    H1 8397   6.106   1.748   5.163  0.7513 -0.7855  1.0724
 2811TIP3    H2 8398   6.178   1.651   5.071 -0.7418 -0.8855 -0.0185
 2812TIP3   OH2 8399   2.212   6.675   0.440  0.3461 -0.1587 -0.1237
 2812TIP3    H1 8400   2.259   6.670   0.357 -0.0531  0.0800 -0.3693
 2812TIP3    H2 8401   2.156   6.752   0.431 -0.3430 -0.6340  0.0217
 2813TIP3   OH2 8402   5.402   2.137   0.507  0.0938 -0.4492  0.3486
 2813TIP3    H1 8403   5.307   2.154   0.503  0.1838  0.5809  1.7910
 2813TIP3    H2 8404   5.409   2.052   0.551 -0.1824 -1.1652 -0.9566
 2814TIP3   OH2 8405   1.053   5.612   3.544 -0.0864  0.0489 -0.2978
 2814TIP3    H1 8406   1.074   5.579   3.631  3.8046  0.2566 -0.9663
 2814TIP3    H2 8407   1.000   5.691   3.560 -0.7354 -0.7415  1.7473
 2815TIP3   OH2 8408   2.847   5.073   5.255  0.4320 -0.2045 -0.2475
 2815TIP3    H1 8409   2.942   5.073   5.266  0.4850 -1.0623 -0.6214
 2815TIP3    H2 8410   2.813   5.033   5.335  0.3590  0.4311  0.0438
 2816TIP3   OH2 8411   2.948   6.825   3.708  0.3906 -0.4054  0.6553
 2816TIP3    H1 8412   2.882   6.782   3.764  1.0608 -1.7287  0.4811
 2816TIP3    H2 8413   3.027   6.772   3.720  1.0495  0.3589 -0.1772
 2817TIP3   OH2 8414   3.492   6.135   5.450  0.6139 -0.2658 -0.2179
 2817TIP3    H1 8415   3.571   6.187   5.466  1.7251 -1.5506 -1.3494
 2817TIP3    H2 8416   3.445   6.184   5.382  0.3140  0.5969  0.5862
 2818TIP3   OH2 8417   3.803   4.605   3.582 -0.6900  0.4198 -0.6064
 2818TIP3    H1 8418   3.886   4.588   3.537 -0.3028 -1.7990  0.7864
 2818TIP3    H2 8419   3.827   4.659   3.657 -0.4153 -0.5740  0.0313
 2819TIP3   OH2 8420   5.204   6.424   4.367 -0.2044 -0.2414  1.0514
 2819TIP3    H1 8421   5.143   6.351   4.355 -0.9285  0.6180 -0.9877
 2819TIP3    H2 8422   5.166   6.476   4.437 -3.1885  1.4974 -1.6437
 2820TIP3   OH2 8423   2.200   5.607   5.082 -0.2094 -0.1984 -0.0646
 2820TIP3    H1 8424   2.117   5.560   5.089 -1.2338  1.5810  0.3584
 2820TIP3    H2 8425   2.262   5.541   5.049 -2.1790 -1.1415 -2.2255
 2821TIP3   OH2 8426   2.949   4.659   1.144  0.1494 -0.1314  0.0117
 2821TIP3    H1 8427   2.973   4.667   1.237  0.7065 -0.1027 -0.1286
 2821TIP3    H2 8428   2.859   4.627   1.145  0.1883 -0.2389  0.5621
 2822TIP3   OH2 8429   5.798   4.071   1.522 -0.5137  0.0257 -0.0624
 2822TIP3    H1 8430   5.870   4.044   1.464  0.5995 -0.0329  1.2940
 2822TIP3    H2 8431   5.761   4.148   1.478 -0.4496 -0.6867 -1.4172
 2823TIP3   OH2 8432   1.454   0.207   0.206 -0.4411 -0.3974  0.1242
 2823TIP3    H1 8433   1.517   0.165   0.147 -1.1653 -0.9973 -0.2452
 2823TIP3    H2 8434   1.485   0.297   0.215  0.7845 -0.8394  0.4126
 2824TIP3   OH2 8435   1.877   1.623   0.856  0.1242 -0.4621  0.3195
 2824TIP3    H1 8436   1.878   1.719   0.853  1.3447 -0.4132  1.5859
 2824TIP3    H2 8437   1.917   1.596   0.774 -2.4716  0.0244 -1.2223
 2825TIP3   OH2 8438   2.253   1.092   0.884 -0.9175  0.6108 -0.8071
 2825TIP3    H1 8439   2.246   1.055   0.795  0.4723  0.7000 -0.9807
 2825TIP3    H2 8440   2.273   1.185   0.869 -0.5546  0.5989 -0.4142
 2826TIP3   OH2 8441   1.458   5.779   0.174  0.2146  0.1041 -0.2971
 2826TIP3    H1 8442   1.472   5.694   0.216 -0.5061 -0.0721 -0.4097
 2826TIP3    H2 8443   1.546   5.815   0.163  0.4284  0.8401  2.7457
 2827TIP3   OH2 8444   1.192   4.730   0.013  0.1781  0.1807 -0.6263
 2827TIP3    H1 8445   1.281   4.765   0.023  0.1950  0.2503 -1.0342
 2827TIP3    H2 8446   1.136   4.807   0.007 -0.0257  0.1501  0.5703
 2828TIP3   OH2 8447   0.452   6.112   3.257 -0.3301  0.1793 -0.6405
 2828TIP3    H1 8448   0.534   6.135   3.212 -0.2166 -0.9628 -1.0786
 2828TIP3    H2 8449   0.407   6.195   3.270  1.2833  0.9337  0.3823
 2829TIP3   OH2 8450   4.544   5.414   2.235  0.2113 -0.1345  0.3044
 2829TIP3    H1 8451   4.625   5.415   2.287  1.7618 -1.1634 -1.9254
 2829TIP3    H2 8452   4.527   5.506   2.216 -0.6454  0.3169  2.8740
 2830TIP3   OH2 8453   3.598   5.915   5.736 -0.1708  0.1156 -0.6200
 2830TIP3    H1 8454   3.678   5.919   5.683  1.0093 -0.0634  1.0575
 2830TIP3    H2 8455   3.588   6.004   5.770 -0.8580  0.2049 -1.0468
 2831TIP3   OH2 8456   0.181   5.060   3.397 -0.0082 -0.3217 -0.2723
 2831TIP3    H1 8457   0.163   5.154   3.409  2.2134  0.1363 -0.1355
 2831TIP3    H2 8458   0.240   5.038   3.469 -1.1284 -2.0655  0.1785
 2832TIP3   OH2 8459   4.776   5.939   0.991 -0.3438 -0.2952 -0.3436
 2832TIP3    H1 8460   4.782   6.029   0.958  0.9685 -0.0258  0.5439
 2832TIP3    H2 8461   4.842   5.891   0.941  0.8537 -0.1311  0.9927
 2833TIP3   OH2 8462   5.806   4.962   2.885 -0.1088 -0.0168 -0.3332
 2833TIP3    H1 8463   5.777   4.961   2.794 -1.8610 -0.4573  0.2097
 2833TIP3    H2 8464   5.774   5.045   2.919 -1.0052 -0.6381  0.3582
 2834TIP3   OH2 8465   2.386   0.655   4.554 -0.2204  0.0080 -0.3506
 2834TIP3    H1 8466   2.339   0.606   4.621 -0.6386 -1.2109 -1.4883
 2834TIP3    H2 8467   2.341   0.740   4.551 -0.4998 -0.0957  0.5550
 2835TIP3   OH2 8468   4.724   3.112   0.120 -0.6015  0.4566  0.1281
 2835TIP3    H1 8469   4.636   3.130   0.088 -0.5384 -0.0317 -0.3386
 2835TIP3    H2 8470   4.781   3.167   0.067 -0.6786  1.3477  0.9447
 2836TIP3   OH2 8471   0.364   3.999   5.054 -0.4346 -0.4663 -0.1859
 2836TIP3    H1 8472   0.434   4.063   5.064 -1.0953  0.1696  0.4318
 2836TIP3    H2 8473   0.409   3.918   5.027  0.3819  0.3023 -1.2299
 2837TIP3   OH2 8474   5.241   0.359   2.296 -0.1280  0.1345  0.6842
 2837TIP3    H1 8475   5.207   0.327   2.380  0.6585 -2.0531  0.2330
 2837TIP3    H2 8476   5.336   0.357   2.307 -0.0398  0.8169  0.0705
 2838TIP3   OH2 8477   7.137   0.286   3.096 -0.5014  0.6147  0.2687
 2838TIP3    H1 8478   7.138   0.280   3.000 -0.1785  0.5494  0.2771
 2838TIP3    H2 8479   7.191   0.213   3.125 -1.2656  0.1419  0.5269
 2839TIP3   OH2 8480   4.163   6.364   2.485  0.3402  0.3968 -0.1010
 2839TIP3    H1 8481   4.247   6.350   2.441  0.7455 -1.6937  1.2223
 2839TIP3    H2 8482   4.103   6.390   2.415  1.7888  0.7298 -1.2635
 2840TIP3   OH2 8483   4.730   4.057   5.165 -0.0241 -0.2976  0.2034
 2840TIP3    H1 8484   4.780   4.018   5.236 -0.4634  0.9934  1.2605
 2840TIP3    H2 8485   4.638   4.043   5.188 -0.1798 -0.8287 -0.6748
 2841TIP3   OH2 8486   1.324   2.018   2.365  0.2632  0.4030 -0.5194
 2841TIP3    H1 8487   1.291   2.013   2.275 -0.8363 -0.8239 -0.0722
 2841TIP3    H2 8488   1.255   1.979   2.418  1.2125  0.4488  0.7871
 2842TIP3   OH2 8489   6.413   0.431   4.592  0.3268  0.5098  0.5591
 2842TIP3    H1 8490   6.395   0.479   4.512  2.9827  0.0012 -0.4741
 2842TIP3    H2 8491   6.394   0.339   4.570 -0.0789  0.5137  0.8962
 2843TIP3   OH2 8492   1.978   3.648   5.762 -0.3572  0.9748 -0.2264
 2843TIP3    H1 8493   2.012   3.636   5.851 -0.8992 -1.7637 -0.3095
 2843TIP3    H2 8494   1.884   3.661   5.775 -0.7915 -1.5615 -0.4258
 2844TIP3   OH2 8495   4.264   4.091   3.905  0.9735 -0.4060 -0.2422
 2844TIP3    H1 8496   4.228   4.029   3.969  2.2302 -0.7140  0.2013
 2844TIP3    H2 8497   4.349   4.115   3.941  0.2766  2.0814 -0.0798
 2845TIP3   OH2 8498   5.602   5.032   3.599  0.2200 -0.1462  0.3711
 2845TIP3    H1 8499   5.509   5.009   3.609  0.0730  0.6221  0.8354
 2845TIP3    H2 8500   5.606   5.125   3.621  0.8631  0.1852 -1.0532
 2846TIP3   OH2 8501   3.072   0.153   3.500  0.0329 -0.2344  0.0469
 2846TIP3    H1 8502   3.079   0.081   3.563 -0.4898  0.4481  0.9188
 2846TIP3    H2 8503   2.981   0.183   3.510  0.4246  0.9420  0.1526
 2847TIP3   OH2 8504   3.897   3.502   4.733 -0.1906 -0.2091  0.9435
 2847TIP3    H1 8505   3.807   3.528   4.714  0.2877  0.8497 -0.0120
 2847TIP3    H2 8506   3.893   3.407   4.743 -0.9869 -0.5901 -1.9134
 2848TIP3   OH2 8507   6.392   1.759   4.473  0.5338 -0.2744  0.3054
 2848TIP3    H1 8508   6.410   1.697   4.544  3.8792  0.2745  0.0833
 2848TIP3    H2 8509   6.359   1.837   4.517 -0.5639 -1.0137  0.8717
 2849TIP3   OH2 8510   5.202   2.576   5.282  0.2585 -0.4733  0.1899
 2849TIP3    H1 8511   5.223   2.546   5.371 -2.4906 -0.1716  1.0617
 2849TIP3    H2 8512   5.135   2.514   5.252  0.8889 -0.3540 -1.5603
 2850TIP3   OH2 8513   2.911   0.737   4.174  0.3228  0.2454  0.3665
 2850TIP3    H1 8514   2.873   0.649   4.179  0.0535  0.1487 -1.8935
 2850TIP3    H2 8515   3.004   0.725   4.192  0.1307 -0.3339  1.0016
 2851TIP3   OH2 8516   3.672   5.936   5.207 -0.4593 -0.0535 -0.3178
 2851TIP3    H1 8517   3.632   5.850   5.205 -0.0104 -0.2541 -1.5646
 2851TIP3    H2 8518   3.611   5.992   5.159  0.0197 -0.0404 -0.9253
 2852TIP3   OH2 8519   4.513   5.648   1.327  1.1810 -0.3577 -0.3087
 2852TIP3    H1 8520   4.570   5.617   1.257  0.3634 -1.0896 -0.6693
 2852TIP3    H2 8521   4.518   5.581   1.394  1.5894  0.1132  0.1450
 2853TIP3   OH2 8522   3.928   0.995   5.332  0.8289  0.2533 -0.0611
 2853TIP3    H1 8523   4.022   0.986   5.348  1.3125  0.1267 -2.5556
 2853TIP3    H2 8524   3.921   1.001   5.237 -1.5924  1.7865  0.1560
 2854TIP3   OH2 8525   3.725   4.095   0.132 -0.1456 -0.0455 -0.1940
 2854TIP3    H1 8526   3.645   4.053   0.100 -0.1026  0.7100 -1.3538
 2854TIP3    H2 8527   3.794   4.032   0.112 -0.2915 -0.1652 -0.3281
 2855TIP3   OH2 8528   0.248   1.287   2.364  0.0427  0.5411  0.2960
 2855TIP3    H1 8529   0.175   1.252   2.314  2.2968 -2.2662 -1.3317
 2855TIP3    H2 8530   0.287   1.353   2.307  1.4728 -1.3115 -0.9884
 2856TIP3   OH2 8531   5.196   6.744   4.471  0.4845  0.0040  0.3377
 2856TIP3    H1 8532   5.193   6.838   4.483 -1.0066  0.4199 -2.3093
 2856TIP3    H2 8533   5.271   6.729   4.413  2.6068 -0.9090  3.0968
 2857TIP3   OH2 8534   0.136   6.697   3.676  0.0299 -0.2598 -0.3199
 2857TIP3    H1 8535   0.199   6.760   3.641  1.1871  0.1364  2.2771
 2857TIP3    H2 8536   0.072   6.751   3.723 -0.1989 -0.9032  0.1154
 2858TIP3   OH2 8537   4.875   2.464   0.901 -0.3314  0.0028 -0.4571
 2858TIP3    H1 8538   4.842   2.528   0.839 -1.0561  0.0947  0.0078
 2858TIP3    H2 8539   4.855   2.501   0.987  0.6588 -0.1183 -0.1582
 2859TIP3   OH2 8540   6.873   0.832   5.513 -0.3137  0.1592 -0.4899
 2859TIP3    H1 8541   6.824   0.900   5.559  0.3502  0.2616  0.0806
 2859TIP3    H2 8542   6.815   0.756   5.513  0.0193 -0.1404  1.3557
 2860TIP3   OH2 8543   6.867   4.067   5.158  0.0008 -0.3011 -0.3498
 2860TIP3    H1 8544   6.828   3.991   5.203 -1.3461 -0.1661 -1.2386
 2860TIP3    H2 8545   6.935   4.029   5.103 -0.3558 -0.8266 -0.4421
 2861TIP3   OH2 8546   6.393   3.228   5.617 -0.2925 -0.2172 -0.2617
 2861TIP3    H1 8547   6.374   3.287   5.690 -1.6724 -3.0285  1.8515
 2861TIP3    H2 8548   6.310   3.221   5.570 -0.3637 -1.0220 -0.0296
 2862TIP3   OH2 8549   6.732   1.030   3.109  0.9634 -0.1920  0.2795
 2862TIP3    H1 8550   6.807   1.081   3.138  0.7424  0.9488 -1.0575
 2862TIP3    H2 8551   6.656   1.078   3.142  0.7705 -1.4637  1.8288
 2863TIP3   OH2 8552   4.278   0.162   0.029 -0.5913  0.2944  0.3578
 2863TIP3    H1 8553   4.289   0.191   0.119  0.7129 -0.8795  0.6144
 2863TIP3    H2 8554   4.290   0.241  -0.023  0.0849  0.7379  1.1582
 2864TIP3   OH2 8555   5.160   0.259   2.056 -0.0375  0.4424  0.5154
 2864TIP3    H1 8556   5.078   0.227   2.094 -0.1841  1.9856  1.6357
 2864TIP3    H2 8557   5.198   0.314   2.125  1.7051  0.1595 -0.1632
 2865TIP3   OH2 8558   6.206   0.634   0.700  0.5834 -0.3323 -1.1519
 2865TIP3    H1 8559   6.294   0.670   0.689  0.9524 -1.2067 -1.1332
 2865TIP3    H2 8560   6.206   0.554   0.646  0.0428 -0.7333 -0.5692
 2866TIP3   OH2 8561   2.723   1.317   4.090  0.6967 -0.2158 -0.0130
 2866TIP3    H1 8562   2.715   1.317   4.185 -1.1889  1.9540 -0.0721
 2866TIP3    H2 8563   2.688   1.233   4.062  1.3342 -0.8977  1.1808
 2867TIP3   OH2 8564   5.016   6.275   1.597 -0.1459 -0.0284 -0.1443
 2867TIP3    H1 8565   5.107   6.258   1.621 -0.2014 -0.6870 -0.3981
 2867TIP3    H2 8566   5.015   6.369   1.576  0.5555 -0.0923 -0.4962
 2868TIP3   OH2 8567   2.188   6.438   0.100  0.0615 -0.3697  0.4498
 2868TIP3    H1 8568   2.268   6.485   0.075 -0.1624 -0.4757 -0.5054
 2868TIP3    H2 8569   2.148   6.412   0.017 -0.8835 -0.4632  0.9147
 2869TIP3   OH2 8570   3.814   1.063   4.555  0.2762  0.8281 -0.4254
 2869TIP3    H1 8571   3.734   1.034   4.511  0.4544  0.6107 -0.6076
 2869TIP3    H2 8572   3.879   1.071   4.485  0.8561 -0.5482 -0.0961
 2870TIP3   OH2 8573   3.250   5.680   0.721  0.3052 -0.3879  0.7809
 2870TIP3    H1 8574   3.217   5.751   0.776 -0.7706 -0.8441  0.7706
 2870TIP3    H2 8575   3.345   5.685   0.728  0.2095 -0.2430  2.4548
 2871TIP3   OH2 8576   6.948   1.192   4.867 -0.2845 -0.2657  0.1265
 2871TIP3    H1 8577   7.012   1.189   4.939 -0.2466  0.3828  0.1313
 2871TIP3    H2 8578   6.869   1.228   4.908 -0.2134  0.2584 -0.1847
 2872TIP3   OH2 8579   3.428   4.757   2.136  0.2128  0.0420  0.3936
 2872TIP3    H1 8580   3.519   4.760   2.165  0.6250 -0.6454 -0.7748
 2872TIP3    H2 8581   3.406   4.848   2.116  0.0610  0.4676  2.3346
 2873TIP3   OH2 8582   2.785   4.752   0.400 -0.3363 -0.2700  0.0230
 2873TIP3    H1 8583   2.717   4.722   0.339 -0.3275 -0.5146  0.1327
 2873TIP3    H2 8584   2.867   4.721   0.361 -0.0031  2.1723 -1.4591
 2874TIP3   OH2 8585   3.210   0.773   5.167 -0.1534  0.4299 -0.4385
 2874TIP3    H1 8586   3.199   0.694   5.114  1.4932 -0.1627  0.0494
 2874TIP3    H2 8587   3.301   0.799   5.153 -0.1349  1.1517  0.8854
 2875TIP3   OH2 8588   4.695   6.025   3.080 -0.2938  0.0247  0.2259
 2875TIP3    H1 8589   4.713   5.933   3.061 -1.5275 -0.3653  0.8903
 2875TIP3    H2 8590   4.611   6.025   3.125  0.3924  1.3402  1.6086
 2876TIP3   OH2 8591   1.920   1.816   5.281 -0.0629  0.2888 -0.3218
 2876TIP3    H1 8592   1.926   1.883   5.213 -1.1538 -0.3199 -1.0334
 2876TIP3    H2 8593   1.955   1.859   5.359 -1.4707  1.9715 -0.5492
 2877TIP3   OH2 8594   6.679   1.088   5.409  0.2271  0.1340  0.2545
 2877TIP3    H1 8595   6.668   1.081   5.314  1.7322  1.1674 -0.0308
 2877TIP3    H2 8596   6.594   1.062   5.445  0.1664 -2.1232 -1.2722
 2878TIP3   OH2 8597   1.887   2.049   1.795  0.6477 -0.0162  0.2676
 2878TIP3    H1 8598   1.918   2.105   1.725  0.7433 -0.1079  0.2364
 2878TIP3    H2 8599   1.924   1.963   1.776  1.9408  0.2904  1.2436
 2879TIP3   OH2 8600   3.238   2.810   1.904 -0.1293 -0.1196 -0.3499
 2879TIP3    H1 8601   3.236   2.723   1.942  0.6504  0.2858  0.6773
 2879TIP3    H2 8602   3.177   2.861   1.957  0.5428  0.3142  0.0236
 2880TIP3   OH2 8603   3.268   4.232   0.139 -0.0163  0.7198 -0.8049
 2880TIP3    H1 8604   3.251   4.323   0.163  1.1857  0.8127 -0.2731
 2880TIP3    H2 8605   3.275   4.186   0.223  4.5494  1.0987 -0.7441
 2881TIP3   OH2 8606   6.466   3.713   0.774  0.1164 -0.2199  0.5390
 2881TIP3    H1 8607   6.398   3.689   0.837 -0.7201 -0.9496 -0.5981
 2881TIP3    H2 8608   6.423   3.773   0.714  0.5189 -0.5821 -0.1202
 2882TIP3   OH2 8609   4.223   5.178   1.708  0.5084  0.2868  0.0373
 2882TIP3    H1 8610   4.222   5.163   1.802  0.2153  1.7142  0.2926
 2882TIP3    H2 8611   4.244   5.271   1.699 -3.2981  1.2213 -1.0975
 2883TIP3   OH2 8612   6.911   5.639   0.945 -0.6456 -0.1810 -0.1431
 2883TIP3    H1 8613   6.918   5.598   1.032 -0.6397 -0.4661 -0.2783
 2883TIP3    H2 8614   6.820   5.624   0.920 -0.1878 -1.7749 -1.0101
 2884TIP3   OH2 8615   6.544   3.084   4.012  0.1289 -0.7082  0.3829
 2884TIP3    H1 8616   6.488   3.140   3.959 -0.3811 -0.9438  0.6677
 2884TIP3    H2 8617   6.606   3.144   4.053 -1.3292 -0.1343  1.8647
 2885TIP3   OH2 8618   5.674   4.724   3.381 -0.2413 -0.1951 -0.0781
 2885TIP3    H1 8619   5.663   4.789   3.311 -0.9904 -1.0536 -0.7918
 2885TIP3    H2 8620   5.592   4.675   3.381 -0.0570 -0.5225  1.0953
 2886TIP3   OH2 8621   3.186   4.543   3.200 -0.0280  0.5918 -0.5115
 2886TIP3    H1 8622   3.208   4.608   3.133 -2.2241  2.7599  0.6732
 2886TIP3    H2 8623   3.207   4.586   3.283  0.0434 -0.9252  0.2916
 2887TIP3   OH2 8624   2.012   5.381   3.985  0.4982 -0.6565  0.1138
 2887TIP3    H1 8625   1.978   5.389   3.896  0.7531 -0.7929  0.0074
 2887TIP3    H2 8626   1.963   5.447   4.035 -1.2158 -2.0283  0.3451
 2888TIP3   OH2 8627   3.630   3.187   4.541  0.1328  0.0838  0.3094
 2888TIP3    H1 8628   3.621   3.110   4.484  0.0897 -0.2718  0.7846
 2888TIP3    H2 8629   3.676   3.251   4.488  0.6185 -0.4516  0.0665
 2889TIP3   OH2 8630   2.211   4.892   0.262 -0.2745 -0.0427 -0.3107
 2889TIP3    H1 8631   2.141   4.859   0.319  0.4963 -0.1207  0.6390
 2889TIP3    H2 8632   2.187   4.982   0.242 -1.2117 -0.4282 -0.9453
 2890TIP3   OH2 8633   5.754   1.742   2.732 -0.2412 -0.2842 -0.2075
 2890TIP3    H1 8634   5.716   1.823   2.765 -0.2330  0.5561 -2.1039
 2890TIP3    H2 8635   5.844   1.743   2.763 -0.3448  0.2549  0.0836
 2891TIP3   OH2 8636   6.715   6.369   5.720 -0.4816 -0.5745  0.0471
 2891TIP3    H1 8637   6.654   6.338   5.653 -1.9853  2.1007  0.0284
 2891TIP3    H2 8638   6.669   6.352   5.803 -1.2820  1.2768  0.0403
 2892TIP3   OH2 8639   0.044   5.887   2.318  0.0815  0.2654 -0.1026
 2892TIP3    H1 8640  -0.013   5.962   2.301 -1.2455 -0.9377 -1.2377
 2892TIP3    H2 8641   0.107   5.918   2.383 -0.4984  2.3085 -0.4670
 2893TIP3   OH2 8642   4.126   6.758   2.106 -0.0147 -0.5861  0.1859
 2893TIP3    H1 8643   4.085   6.706   2.175 -0.6092 -0.6611 -0.2106
 2893TIP3    H2 8644   4.086   6.726   2.025  0.6119 -0.4421 -0.1881
 2894TIP3   OH2 8645   3.377   5.502   1.538 -0.2194  0.2955 -0.5993
 2894TIP3    H1 8646   3.366   5.536   1.627  0.7070  0.4237 -0.5255
 2894TIP3    H2 8647   3.465   5.530   1.513 -0.9090  1.3168 -2.0124
 2895TIP3   OH2 8648   3.141   2.688   3.363  0.1252  0.2113 -0.1115
 2895TIP3    H1 8649   3.175   2.599   3.352 -0.5246 -0.1529  0.6972
 2895TIP3    H2 8650   3.046   2.678   3.362  0.0428  0.8152  0.5978
 2896TIP3   OH2 8651   0.822   1.393   4.574 -0.1491 -0.8763  0.3376
 2896TIP3    H1 8652   0.860   1.481   4.571 -0.7413 -0.5401  1.9760
 2896TIP3    H2 8653   0.783   1.386   4.661  0.8061 -3.1483  0.6582
 2897TIP3   OH2 8654   6.371   3.039   2.990  0.4245  0.3884 -0.0007
 2897TIP3    H1 8655   6.430   3.070   2.921  0.0044  0.6071 -0.2703
 2897TIP3    H2 8656   6.294   3.007   2.942  0.1844  0.4247  0.3582
 2898TIP3   OH2 8657   2.349   1.933   1.706  0.1593  0.6547 -0.0988
 2898TIP3    H1 8658   2.306   2.017   1.689 -2.1072 -0.4633 -0.2725
 2898TIP3    H2 8659   2.405   1.949   1.783 -0.4765  2.2236  0.0610
 2899TIP3   OH2 8660   6.558   1.850   1.794  0.1221 -0.6173  0.1613
 2899TIP3    H1 8661   6.541   1.936   1.756  1.0507 -0.1435  0.8139
 2899TIP3    H2 8662   6.471   1.815   1.814 -0.3008 -0.1770 -0.8240
 2900TIP3   OH2 8663   0.984   0.281   2.735  0.1653  0.0537  0.5338
 2900TIP3    H1 8664   1.033   0.233   2.668 -0.4657  0.1305  0.0070
 2900TIP3    H2 8665   1.049   0.338   2.775  0.3431  0.8505 -0.8032
 2901TIP3   OH2 8666   1.413   2.326   4.125 -0.1783  0.6989  0.2681
 2901TIP3    H1 8667   1.449   2.350   4.040  0.6008  0.4518  0.5154
 2901TIP3    H2 8668   1.465   2.250   4.152  0.3220  1.4399  1.4533
 2902TIP3   OH2 8669   4.495   4.524   2.496 -0.6202  0.2967  0.1017
 2902TIP3    H1 8670   4.541   4.516   2.580 -1.6591 -0.7455  0.6058
 2902TIP3    H2 8671   4.411   4.479   2.511 -0.9965  0.4729 -1.3697
 2903TIP3   OH2 8672   2.066   4.818   4.195 -0.1326 -0.0379 -0.1669
 2903TIP3    H1 8673   2.104   4.906   4.192 -0.8798  0.3034 -0.0038
 2903TIP3    H2 8674   2.123   4.769   4.253  0.3114  0.3323 -0.2852
 2904TIP3   OH2 8675   2.576   5.463   2.497  0.1053 -0.0896 -0.2867
 2904TIP3    H1 8676   2.607   5.538   2.547 -1.2864 -0.0351  0.5621
 2904TIP3    H2 8677   2.649   5.439   2.441  1.3365  0.5367  0.9934
 2905TIP3   OH2 8678   2.242   6.707   2.088  0.5997  0.1002 -0.5490
 2905TIP3    H1 8679   2.247   6.733   1.996  2.3693 -1.7894 -1.0564
 2905TIP3    H2 8680   2.330   6.721   2.122 -0.4851  2.8231  1.5525
 2906TIP3   OH2 8681   3.680   5.828   2.693 -0.2405  0.2044 -0.5161
 2906TIP3    H1 8682   3.762   5.785   2.670 -0.2978 -0.0292 -0.2805
 2906TIP3    H2 8683   3.613   5.762   2.676 -0.4321  0.5701 -1.2252
 2907TIP3   OH2 8684   5.151   1.663   2.352 -0.2963 -0.0144 -0.1929
 2907TIP3    H1 8685   5.133   1.670   2.259 -0.6918 -1.8404 -0.2806
 2907TIP3    H2 8686   5.115   1.578   2.378 -0.2659  0.4852  1.6414
 2908TIP3   OH2 8687   5.508   2.649   4.958 -0.9843 -0.3028  0.6160
 2908TIP3    H1 8688   5.507   2.584   4.888 -0.4863 -1.5914  1.7562
 2908TIP3    H2 8689   5.423   2.694   4.951  0.3118  1.9896 -2.8813
 2909TIP3   OH2 8690   6.296   6.271   5.311 -0.3177 -0.1655 -0.4389
 2909TIP3    H1 8691   6.203   6.275   5.332 -1.0567 -1.2554 -3.0183
 2909TIP3    H2 8692   6.309   6.343   5.249  1.4884  2.2850  2.5245
 2910TIP3   OH2 8693   4.727   2.463   5.262  0.7349 -0.2191 -0.2156
 2910TIP3    H1 8694   4.735   2.548   5.219  1.3823  0.1560  0.6180
 2910TIP3    H2 8695   4.712   2.485   5.354  2.5196 -0.9864  0.2913
 2911TIP3   OH2 8696   7.081   1.990   1.224 -0.4194  0.3053  0.0411
 2911TIP3    H1 8697   7.098   1.917   1.282 -0.1667  0.1999 -0.1602
 2911TIP3    H2 8698   6.986   1.993   1.214 -0.5523  1.0200  1.3496
 2912TIP3   OH2 8699   3.005   6.659   4.781 -0.2655  0.1259  0.1047
 2912TIP3    H1 8700   3.055   6.619   4.710 -0.6567 -1.6354  0.7601
 2912TIP3    H2 8701   3.011   6.753   4.765  0.2901 -0.1960 -1.8089
 2913TIP3   OH2 8702   3.201   4.784   3.415 -0.1673  0.8511  0.0723
 2913TIP3    H1 8703   3.216   4.698   3.454 -0.5407  0.6600 -0.2061
 2913TIP3    H2 8704   3.188   4.842   3.489 -2.0052  0.2880  0.2404
 2914TIP3   OH2 8705   4.221   2.790   3.320  0.0064 -0.2728  0.0065
 2914TIP3    H1 8706   4.273   2.797   3.400 -1.1810  2.3529  0.6321
 2914TIP3    H2 8707   4.132   2.812   3.346 -0.7342 -0.9609 -1.7598
 2915TIP3   OH2 8708   6.622   2.950   0.963 -0.1600  0.2564 -0.3531
 2915TIP3    H1 8709   6.630   2.886   0.891  2.0887  0.2286 -0.1418
 2915TIP3    H2 8710   6.616   3.035   0.919  1.5767  0.2712 -0.6109
 2916TIP3   OH2 8711   0.122   2.124   4.780 -0.1711  0.0893 -0.3525
 2916TIP3    H1 8712   0.072   2.201   4.752  2.1096  2.3329  1.4058
 2916TIP3    H2 8713   0.064   2.078   4.841 -0.3552  2.4094  1.3352
 2917TIP3   OH2 8714   6.254   0.550   2.698  0.1931 -0.3514  0.8887
 2917TIP3    H1 8715   6.275   0.600   2.619 -0.8667  0.3461  1.0292
 2917TIP3    H2 8716   6.319   0.578   2.762  1.1974 -1.0860  0.2101
 2918TIP3   OH2 8717   2.559   6.057   4.450 -0.1355  0.2445  0.1552
 2918TIP3    H1 8718   2.487   6.047   4.387  1.5162 -4.4973 -1.4674
 2918TIP3    H2 8719   2.528   6.013   4.529  1.1972 -3.1632 -1.0355
 2919TIP3   OH2 8720   0.151   5.784   5.605 -0.2923 -0.1405  0.0376
 2919TIP3    H1 8721   0.235   5.809   5.645 -0.4286  1.3641 -0.5391
 2919TIP3    H2 8722   0.175   5.730   5.530  0.0592 -1.2529  0.9334
 2920TIP3   OH2 8723   1.630   5.633   3.516  0.0100  0.0089 -0.4042
 2920TIP3    H1 8724   1.559   5.685   3.477 -1.3167 -0.1697  1.6613
 2920TIP3    H2 8725   1.592   5.547   3.532  0.7925 -0.2015  0.4319
 2921TIP3   OH2 8726   3.869   3.743   1.288  0.0230 -0.0157 -0.3240
 2921TIP3    H1 8727   3.948   3.793   1.267  0.7714 -0.8319  0.4878
 2921TIP3    H2 8728   3.818   3.802   1.344 -0.1632  0.6773 -1.2016
 2922TIP3   OH2 8729   1.561   1.849   3.476  0.3731 -0.2742 -0.1759
 2922TIP3    H1 8730   1.540   1.797   3.553 -4.4033 -2.3572 -2.4423
 2922TIP3    H2 8731   1.528   1.937   3.496  1.2562 -0.1575  0.8674
 2923TIP3   OH2 8732   6.598   5.471   4.989 -0.0798  0.3320  0.3731
 2923TIP3    H1 8733   6.616   5.528   5.064 -1.0268  1.2815 -0.1082
 2923TIP3    H2 8734   6.627   5.384   5.018  0.9237  0.9542  1.2930
 2924TIP3   OH2 8735   0.420   0.078   3.512  0.3218 -0.3468 -0.6528
 2924TIP3    H1 8736   0.461   0.118   3.435  1.6301  0.1590  0.2612
 2924TIP3    H2 8737   0.494   0.050   3.567 -0.5428  0.3380  0.9415
 2925TIP3   OH2 8738   6.224   6.674   0.332  0.3310 -0.3313 -0.6122
 2925TIP3    H1 8739   6.263   6.591   0.357  1.1515  0.0742 -0.5173
 2925TIP3    H2 8740   6.277   6.705   0.259  0.2325  0.2620 -0.4373
 2926TIP3   OH2 8741   4.701   5.953   4.895 -0.2611 -0.3950  0.1069
 2926TIP3    H1 8742   4.762   5.891   4.935 -1.7439 -1.5526  0.6696
 2926TIP3    H2 8743   4.678   5.913   4.812  0.1450  0.3125 -0.3567
 2927TIP3   OH2 8744   4.190   3.680   1.733 -0.3533 -0.2569 -0.5303
 2927TIP3    H1 8745   4.269   3.653   1.780 -0.2678 -0.4008 -0.7589
 2927TIP3    H2 8746   4.165   3.763   1.774 -0.5573 -0.6211  0.1060
 2928TIP3   OH2 8747   2.891   5.061   4.281  0.0503 -0.5626  0.0803
 2928TIP3    H1 8748   2.978   5.100   4.289  0.2459 -1.1264  0.7862
 2928TIP3    H2 8749   2.861   5.051   4.371 -0.2158 -1.5506 -0.1051
 2929TIP3   OH2 8750   5.221   6.242   5.283  0.4033  0.4773 -0.2221
 2929TIP3    H1 8751   5.142   6.216   5.236 -0.0373 -0.6059  1.0466
 2929TIP3    H2 8752   5.189   6.274   5.367  1.2808  0.6780  0.0469
 2930TIP3   OH2 8753   1.850   2.680   0.753 -0.2512 -0.6050  0.6529
 2930TIP3    H1 8754   1.769   2.707   0.797  0.0775  0.8285  0.3974
 2930TIP3    H2 8755   1.833   2.589   0.727 -0.8329 -1.1474  2.7955
 2931TIP3   OH2 8756   1.149   1.900   3.594  0.7787 -0.0711 -0.8058
 2931TIP3    H1 8757   1.132   1.919   3.686  0.3858  0.6602 -1.0256
 2931TIP3    H2 8758   1.140   1.805   3.588 -0.5459  0.0087 -0.3633
 2932TIP3   OH2 8759   4.357   6.683   5.843 -0.1470 -0.2088  0.1402
 2932TIP3    H1 8760   4.286   6.628   5.809 -0.4180 -0.1428  0.5906
 2932TIP3    H2 8761   4.328   6.773   5.825 -0.5243 -0.1536  0.9764
 2933TIP3   OH2 8762   1.527   1.247   4.833  0.3478  0.0354 -0.1413
 2933TIP3    H1 8763   1.605   1.209   4.793  0.0235  0.0063 -0.7604
 2933TIP3    H2 8764   1.520   1.203   4.918  2.4378  1.8732  1.0744
 2934TIP3   OH2 8765   0.052   5.608   0.320 -0.3294  0.1947 -0.1475
 2934TIP3    H1 8766   0.135   5.607   0.272  0.0354 -0.5562  0.4568
 2934TIP3    H2 8767  -0.002   5.542   0.277 -0.9880  1.3551 -1.1397
 2935TIP3   OH2 8768   6.042   5.180   4.850 -0.2100 -0.1282  0.0731
 2935TIP3    H1 8769   6.077   5.232   4.778 -2.2495 -0.7778 -1.4878
 2935TIP3    H2 8770   6.075   5.091   4.833 -0.8501 -0.3206 -0.2137
 2936TIP3   OH2 8771   0.836   6.329   2.097 -0.0045  0.4515  0.3757
 2936TIP3    H1 8772   0.865   6.412   2.060 -0.7431  0.0469 -1.1903
 2936TIP3    H2 8773   0.763   6.352   2.154  0.2835  0.9490  0.5475
 2937TIP3   OH2 8774   1.468   5.381   1.916 -0.0126  0.3328  0.6563
 2937TIP3    H1 8775   1.492   5.471   1.937  3.8903 -0.2696 -0.4572
 2937TIP3    H2 8776   1.466   5.378   1.820 -3.0265 -0.2376  0.6176
 2938TIP3   OH2 8777   5.443   5.376   5.598 -0.4696  0.4473 -0.3708
 2938TIP3    H1 8778   5.422   5.426   5.518  0.4348  0.9261 -0.3231
 2938TIP3    H2 8779   5.403   5.290   5.583 -3.4407  1.5943  0.2072
 2939TIP3   OH2 8780   6.088   5.109   5.118  0.0275  0.3717 -0.0706
 2939TIP3    H1 8781   6.072   5.181   5.179 -2.6641  0.2951 -0.5785
 2939TIP3    H2 8782   6.070   5.147   5.032  0.9567 -0.2910 -0.5672
 2940TIP3   OH2 8783   3.324   0.957   3.914 -0.2973  0.2820  0.3363
 2940TIP3    H1 8784   3.365   0.883   3.868 -0.1857 -0.5409  1.7089
 2940TIP3    H2 8785   3.270   0.917   3.982 -2.1768  1.4087 -0.4206
 2941TIP3   OH2 8786   5.133   5.767   0.297 -0.0186  0.3345 -0.2238
 2941TIP3    H1 8787   5.200   5.714   0.342 -0.6288 -0.4090 -0.1887
 2941TIP3    H2 8788   5.057   5.762   0.355  0.4710  2.8284  0.7797
 2942TIP3   OH2 8789   2.088   2.945   0.164 -0.0220  0.2869 -0.2423
 2942TIP3    H1 8790   2.154   3.011   0.184  1.2685 -1.2641  0.8453
 2942TIP3    H2 8791   2.101   2.927   0.070  2.7753 -1.6281  0.3891
 2943TIP3   OH2 8792   5.057   6.529   1.514  0.4419  0.0073 -0.5500
 2943TIP3    H1 8793   5.002   6.580   1.573 -1.5190 -1.4333 -1.0139
 2943TIP3    H2 8794   5.140   6.577   1.510 -0.0143  1.1192  1.8674
 2944TIP3   OH2 8795   5.349   4.969   3.285 -0.2655  0.2046  0.0526
 2944TIP3    H1 8796   5.305   4.884   3.296  0.2236 -0.1228 -0.4894
 2944TIP3    H2 8797   5.317   5.001   3.201  0.6720 -0.1299 -0.4469
 2945TIP3   OH2 8798   0.179   5.022   2.610  0.2553 -0.1848  0.0643
 2945TIP3    H1 8799   0.226   5.099   2.576 -1.3054  0.8773  0.1899
 2945TIP3    H2 8800   0.095   5.023   2.564 -0.3249 -1.0309  1.0650
 2946TIP3   OH2 8801   2.475   1.079   3.381  0.1604 -0.0773  0.6410
 2946TIP3    H1 8802   2.498   1.024   3.455  0.4861 -2.1723 -0.9128
 2946TIP3    H2 8803   2.520   1.162   3.398  0.3033 -0.5182  2.6825
 2947TIP3   OH2 8804   2.271   5.668   5.767 -0.4048 -0.0827 -0.3321
 2947TIP3    H1 8805   2.178   5.648   5.773  0.0954 -2.3592  0.9275
 2947TIP3    H2 8806   2.289   5.721   5.845 -0.5878  0.0911 -0.4089
 2948TIP3   OH2 8807   4.150   6.230   2.126 -0.0105  0.2828 -0.8766
 2948TIP3    H1 8808   4.112   6.227   2.039  0.1892  2.3811 -1.0919
 2948TIP3    H2 8809   4.244   6.221   2.112  0.2084  2.3453 -1.1297
 2949TIP3   OH2 8810   6.070   2.321   2.447 -0.0635  0.2430 -0.0246
 2949TIP3    H1 8811   6.116   2.238   2.438  2.1392  1.2704  0.9368
 2949TIP3    H2 8812   6.063   2.355   2.358  0.4877 -0.2429 -0.2581
 2950TIP3   OH2 8813   4.085   1.828   2.401  0.0935  0.2094  0.3958
 2950TIP3    H1 8814   4.125   1.755   2.448  0.5159  1.0551  1.3856
 2950TIP3    H2 8815   4.152   1.857   2.339 -0.0073 -0.1097  0.1324
 2951TIP3   OH2 8816   1.491   3.206   3.429  0.2036  0.2879  0.0102
 2951TIP3    H1 8817   1.487   3.183   3.336 -0.2393 -0.6859  0.2519
 2951TIP3    H2 8818   1.556   3.276   3.433  0.1050  0.4677 -1.0545
 2952TIP3   OH2 8819   0.129   5.816   4.231 -0.0719 -0.0723  0.1965
 2952TIP3    H1 8820   0.224   5.822   4.246  0.4970 -1.1506 -2.2899
 2952TIP3    H2 8821   0.117   5.858   4.146 -2.3522  2.6498  1.7082
 2953TIP3   OH2 8822   2.951   3.217   0.032 -0.0447 -0.2201  0.8053
 2953TIP3    H1 8823   2.970   3.225   0.125  0.2492 -0.3186  0.7575
 2953TIP3    H2 8824   3.015   3.274  -0.010  0.2371 -0.6619  0.6295
 2954TIP3   OH2 8825   7.039   6.330   5.742 -0.1750  0.9365 -0.1130
 2954TIP3    H1 8826   7.111   6.275   5.773 -0.0338  1.5565  0.6779
 2954TIP3    H2 8827   7.049   6.412   5.789 -0.7570  1.4251 -0.8190
 2955TIP3   OH2 8828   0.439   0.917   1.860 -0.5657 -0.5558  0.2844
 2955TIP3    H1 8829   0.492   0.956   1.929  0.9840  0.8762 -1.6210
 2955TIP3    H2 8830   0.377   0.985   1.835 -1.3246 -1.1723  0.4442
 2956TIP3   OH2 8831   5.220   5.237   3.967 -0.3328 -0.2633  0.2163
 2956TIP3    H1 8832   5.149   5.299   3.986 -0.5081 -0.4718  0.2335
 2956TIP3    H2 8833   5.176   5.155   3.948 -0.1217 -0.2517 -0.3314
 2957TIP3   OH2 8834   5.092   0.166   1.117  0.0449  0.2649 -0.2463
 2957TIP3    H1 8835   5.039   0.170   1.037  0.5297 -0.9210 -0.6513
 2957TIP3    H2 8836   5.136   0.081   1.112  3.0885  1.7362 -0.6225
 2958TIP3   OH2 8837   4.666   0.166   2.751 -0.2272 -0.5956 -0.8151
 2958TIP3    H1 8838   4.652   0.071   2.749 -0.0974 -0.5999 -1.6714
 2958TIP3    H2 8839   4.595   0.201   2.697 -0.6260 -0.1546 -0.0214
 2959TIP3   OH2 8840   4.253   4.690   1.613 -0.2541 -0.2027 -0.0279
 2959TIP3    H1 8841   4.271   4.778   1.648  0.7840 -0.2881 -0.3131
 2959TIP3    H2 8842   4.208   4.645   1.685  2.0609 -0.4547  1.3810
 2960TIP3   OH2 8843   3.036   6.618   2.902 -0.0657  0.1138  0.3159
 2960TIP3    H1 8844   2.983   6.654   2.831 -0.7186 -2.0726 -0.3976
 2960TIP3    H2 8845   3.115   6.586   2.858  0.6913  1.0070  0.9877
 2961TIP3   OH2 8846   5.518   1.071   0.146  0.2422 -0.1417 -0.0447
 2961TIP3    H1 8847   5.606   1.035   0.161  0.0546 -0.1119  1.2565
 2961TIP3    H2 8848   5.531   1.166   0.150  0.3681 -0.0897 -1.2722
 2962TIP3   OH2 8849   5.075   2.687   0.036  0.1146  0.2619 -0.0028
 2962TIP3    H1 8850   5.108   2.597   0.045  1.0290  0.4125 -1.5476
 2962TIP3    H2 8851   5.093   2.728   0.120  1.2865 -0.5083  0.1365
 2963TIP3   OH2 8852   6.181   2.570   4.424 -0.5413 -0.0854  0.0414
 2963TIP3    H1 8853   6.116   2.558   4.493  0.7381 -3.9046  0.7646
 2963TIP3    H2 8854   6.241   2.636   4.459 -2.9136  2.2050  0.0869
 2964TIP3   OH2 8855   0.205   1.223   3.157  0.2913 -0.5684  0.2925
 2964TIP3    H1 8856   0.157   1.265   3.229  1.8332 -1.5187  1.9754
 2964TIP3    H2 8857   0.165   1.137   3.149 -0.5154 -0.1124 -0.6796
 2965TIP3   OH2 8858   0.347   2.556   1.951 -0.2993 -0.2719 -0.1472
 2965TIP3    H1 8859   0.312   2.474   1.916 -0.9702  0.2976 -0.8434
 2965TIP3    H2 8860   0.302   2.567   2.034 -0.0403 -0.7149  0.0583
 2966TIP3   OH2 8861   6.893   1.873   0.655  0.4824 -0.0691 -0.2805
 2966TIP3    H1 8862   6.950   1.949   0.662 -0.5415  0.6451  0.5412
 2966TIP3    H2 8863   6.839   1.890   0.578 -0.8930  0.8566  0.8558
 2967TIP3   OH2 8864   4.112   3.879   1.339  0.2025 -0.6392  0.6083
 2967TIP3    H1 8865   4.152   3.802   1.379  1.0442  0.1278  1.2959
 2967TIP3    H2 8866   4.129   3.950   1.401  1.3089  0.5553 -0.9763
 2968TIP3   OH2 8867   2.662   2.360   2.303  0.1769 -0.1022 -0.1824
 2968TIP3    H1 8868   2.706   2.276   2.294 -1.9541 -1.3551  0.3249
 2968TIP3    H2 8869   2.704   2.402   2.378 -0.1084 -1.6611  0.8899
 2969TIP3   OH2 8870   3.475   3.975   4.344 -0.2106  0.2409  0.0971
 2969TIP3    H1 8871   3.425   4.048   4.379 -0.1597 -0.2031  1.1318
 2969TIP3    H2 8872   3.563   3.986   4.381 -0.4495 -0.8515  1.0289
 2970TIP3   OH2 8873   6.876   4.942   1.195 -0.1184 -0.0971 -0.5771
 2970TIP3    H1 8874   6.813   4.871   1.177  0.0987 -0.0142 -1.7649
 2970TIP3    H2 8875   6.828   5.022   1.173 -0.3634  0.1495  0.7630
 2971TIP3   OH2 8876   4.230   2.613   4.194  0.2741  0.3482 -0.0893
 2971TIP3    H1 8877   4.252   2.584   4.105 -3.5237  3.3338 -2.3063
 2971TIP3    H2 8878   4.166   2.549   4.225  0.1456  0.3765 -0.2986
 2972TIP3   OH2 8879   2.486   3.249   4.545 -0.0484  0.2555  0.2297
 2972TIP3    H1 8880   2.438   3.330   4.561 -2.0700 -0.8789  0.1860
 2972TIP3    H2 8881   2.508   3.252   4.451 -2.2383 -0.2717 -0.3625
 2973TIP3   OH2 8882   2.214   2.631   4.984  0.1580 -0.3523 -0.3946
 2973TIP3    H1 8883   2.172   2.627   5.071  0.6595  1.2094 -0.0424
 2973TIP3    H2 8884   2.143   2.656   4.925  0.4944  2.5101  0.2356
 2974TIP3   OH2 8885   3.957   1.263   1.856 -0.1727  0.0055 -0.1323
 2974TIP3    H1 8886   4.050   1.275   1.871 -0.0047 -0.7219 -0.5452
 2974TIP3    H2 8887   3.922   1.233   1.939 -0.1693  0.9227  0.2153
 2975TIP3   OH2 8888   0.191   1.939   1.316  0.0403  0.0652  0.0286
 2975TIP3    H1 8889   0.254   1.873   1.287  2.0762  2.4751 -1.3835
 2975TIP3    H2 8890   0.158   1.977   1.235 -2.6920 -0.5181  0.7633
 2976TIP3   OH2 8891   1.374   0.563   2.173 -0.3882  0.2130 -0.1626
 2976TIP3    H1 8892   1.310   0.567   2.102 -1.0454 -2.0999  0.2144
 2976TIP3    H2 8893   1.321   0.571   2.253  0.1269  0.9210  0.1184
 2977TIP3   OH2 8894   3.054   1.771   5.092 -0.6357  0.3724 -0.5010
 2977TIP3    H1 8895   3.081   1.685   5.061  1.0440  0.5722  0.3101
 2977TIP3    H2 8896   3.131   1.827   5.082 -1.2868  1.4560  0.2003
 2978TIP3   OH2 8897   2.579   2.885   1.274  0.0679 -0.0828  0.1816
 2978TIP3    H1 8898   2.539   2.891   1.187 -2.3986 -0.1828  1.2384
 2978TIP3    H2 8899   2.614   2.796   1.278 -0.1955 -0.2269 -0.5250
 2979TIP3   OH2 8900   5.508   0.901   5.736 -0.0453  0.1146 -0.3732
 2979TIP3    H1 8901   5.423   0.857   5.729 -0.4582  1.1270 -2.8035
 2979TIP3    H2 8902   5.516   0.951   5.655  3.1933 -0.4875 -0.5615
 2980TIP3   OH2 8903   3.359   4.077   1.137  0.1678  0.1470 -0.0784
 2980TIP3    H1 8904   3.316   4.162   1.146 -2.0130 -0.9816  1.0424
 2980TIP3    H2 8905   3.353   4.038   1.225  0.7168 -1.3378 -0.6619
 2981TIP3   OH2 8906   0.383   1.521   4.713  0.0302 -0.5792  0.0812
 2981TIP3    H1 8907   0.437   1.571   4.775  1.0263 -0.9561 -0.4675
 2981TIP3    H2 8908   0.364   1.583   4.643 -1.1944 -0.1179  0.8000
 2982TIP3   OH2 8909   2.679   5.376   5.165 -0.2845  0.0518 -0.5535
 2982TIP3    H1 8910   2.650   5.366   5.256 -0.9399  0.6107 -0.6958
 2982TIP3    H2 8911   2.774   5.371   5.170 -0.2751  0.7374  0.2528
 2983TIP3   OH2 8912   5.708   6.751   2.976 -0.1257 -0.3220 -0.1744
 2983TIP3    H1 8913   5.671   6.664   2.961 -0.4628  0.0452 -1.6411
 2983TIP3    H2 8914   5.802   6.737   2.981 -0.1735 -0.7529 -0.4961
 2984TIP3   OH2 8915   4.221   3.506   5.138 -0.4421  0.0615 -0.0410
 2984TIP3    H1 8916   4.202   3.509   5.044 -0.8998  0.6981  0.0688
 2984TIP3    H2 8917   4.199   3.417   5.164  1.0877 -0.5955 -0.8216
 2985TIP3   OH2 8918   5.660   0.399   3.737 -0.0489 -0.5257  0.1769
 2985TIP3    H1 8919   5.662   0.327   3.675  1.4515  1.6057 -2.4699
 2985TIP3    H2 8920   5.745   0.396   3.781 -0.2349 -0.7208  0.5285
 2986TIP3   OH2 8921   1.210   4.374   0.490  0.4351 -0.0831 -0.0701
 2986TIP3    H1 8922   1.212   4.375   0.394  2.0953 -1.2373 -0.0890
 2986TIP3    H2 8923   1.260   4.451   0.515 -0.8876  0.8173 -0.0851
 2987TIP3   OH2 8924   1.807   2.922   2.943 -0.5985  0.4866 -0.4852
 2987TIP3    H1 8925   1.751   2.930   2.866 -0.9958 -0.3422 -0.2947
 2987TIP3    H2 8926   1.797   2.830   2.970 -0.3525  0.7338  0.4679
 2988TIP3   OH2 8927   5.527   1.674   3.845  0.5646 -0.5572 -0.2908
 2988TIP3    H1 8928   5.454   1.736   3.850 -0.6704 -1.8739 -1.2636
 2988TIP3    H2 8929   5.598   1.724   3.805  0.0632  0.6037  0.2132
 2989TIP3   OH2 8930   2.254   2.586   5.461 -0.2004  0.0524 -0.1456
 2989TIP3    H1 8931   2.341   2.546   5.462  0.5314  1.5646  1.5235
 2989TIP3    H2 8932   2.219   2.572   5.549 -1.4119 -0.0130 -0.6151
 2990TIP3   OH2 8933   6.187   2.706   2.777  0.2393 -0.2709  0.3957
 2990TIP3    H1 8934   6.141   2.718   2.860  0.3854  0.6321  0.3545
 2990TIP3    H2 8935   6.124   2.659   2.722 -0.3336  0.2442  0.6018
 2991TIP3   OH2 8936   2.638   1.930   2.588 -0.2502  0.3944  0.0732
 2991TIP3    H1 8937   2.611   1.839   2.582  0.7700  0.1844 -2.2491
 2991TIP3    H2 8938   2.579   1.968   2.653  0.0840 -2.1452  2.0186
 2992TIP3   OH2 8939   1.113   3.097   4.679 -1.0467 -0.1172  0.1324
 2992TIP3    H1 8940   1.085   3.101   4.587 -1.9413 -1.0375  0.3478
 2992TIP3    H2 8941   1.122   3.003   4.697  0.6385  0.0894  0.5575
 2993TIP3   OH2 8942   0.051   3.213   2.222 -0.3995 -0.2683  0.0596
 2993TIP3    H1 8943   0.056   3.180   2.132 -1.2405  1.5964 -0.7438
 2993TIP3    H2 8944   0.123   3.275   2.229 -0.1834 -0.5917  0.7760
 2994TIP3   OH2 8945   0.865   4.516   1.299 -0.1207  0.1470 -0.0253
 2994TIP3    H1 8946   0.785   4.526   1.247 -0.2047 -0.9614 -0.1297
 2994TIP3    H2 8947   0.931   4.488   1.235  0.5074  1.5967 -0.0440
 2995TIP3   OH2 8948   6.784   1.309   5.070  0.1990  0.2543 -0.0308
 2995TIP3    H1 8949   6.849   1.344   5.131 -0.9036  0.3703  1.1141
 2995TIP3    H2 8950   6.710   1.368   5.078 -1.4627 -1.8785  1.4377
 2996TIP3   OH2 8951   2.749   3.952   3.297  0.2831 -0.3555  0.2914
 2996TIP3    H1 8952   2.839   3.984   3.289  0.4552 -0.9793 -0.3794
 2996TIP3    H2 8953   2.721   3.981   3.384  1.3596 -0.7156  0.7793
 2997TIP3   OH2 8954   7.164   5.633   2.446 -0.6164  0.4732  0.1232
 2997TIP3    H1 8955   7.175   5.722   2.413  0.7554 -0.0760 -0.9589
 2997TIP3    H2 8956   7.213   5.631   2.528  2.7064 -0.2623 -1.7038
 2998TIP3   OH2 8957   5.980   1.379   0.289 -0.4801  0.4972 -0.2035
 2998TIP3    H1 8958   6.051   1.334   0.335 -0.1292  0.6869 -0.5634
 2998TIP3    H2 8959   5.968   1.329   0.209 -0.3025  0.8578 -0.4559
 2999TIP3   OH2 8960   3.841   0.259   4.015 -0.1735 -0.4268  0.1499
 2999TIP3    H1 8961   3.894   0.333   3.986  0.2542 -0.6804  0.2752
 2999TIP3    H2 8962   3.892   0.219   4.085 -0.0159 -1.3283 -0.4643
 3000TIP3   OH2 8963   4.434   2.275   0.383  0.3214 -0.9553 -0.0021
 3000TIP3    H1 8964   4.340   2.295   0.386  0.3121 -1.0813  0.7435
 3000TIP3    H2 8965   4.440   2.196   0.331  0.0021 -0.9971  0.0238
 3001TIP3   OH2 8966   3.110   2.464   1.396  0.0307 -0.5053 -0.0122
 3001TIP3    H1 8967   3.112   2.497   1.306 -0.2757 -0.2295  0.0805
 3001TIP3    H2 8968   3.021   2.431   1.407  0.2477 -1.1048 -0.0102
 3002TIP3   OH2 8969   2.198   1.858   0.753  0.4946  0.5335 -0.6294
 3002TIP3    H1 8970   2.291   1.850   0.732  0.8884 -1.8356  1.5516
 3002TIP3    H2 8971   2.162   1.770   0.739 -0.9085  0.8504  0.7098
 3003TIP3   OH2 8972   3.388   1.036   1.567  0.1874 -0.0188 -0.7842
 3003TIP3    H1 8973   3.393   1.120   1.611  1.8921  0.1783 -1.2772
 3003TIP3    H2 8974   3.320   1.047   1.501  0.6131  1.0974 -1.0608
 3004TIP3   OH2 8975   7.141   3.364   3.143 -0.1752  0.6478 -0.4836
 3004TIP3    H1 8976   7.048   3.386   3.137  0.2640  2.9540  0.2072
 3004TIP3    H2 8977   7.166   3.391   3.231  0.8614 -1.3037 -0.1337
 3005TIP3   OH2 8978   6.084   2.866   0.185 -0.4183 -0.1372  0.2876
 3005TIP3    H1 8979   6.141   2.914   0.244 -2.2141  0.0866  1.9475
 3005TIP3    H2 8980   6.049   2.794   0.238 -2.6979  0.5288 -0.2142
 3006TIP3   OH2 8981   3.303   1.401   0.690 -0.0423 -0.1303 -0.2925
 3006TIP3    H1 8982   3.322   1.494   0.681  1.4764 -0.5022 -1.2294
 3006TIP3    H2 8983   3.256   1.378   0.610  0.5130 -0.3832 -0.5490
 3007TIP3   OH2 8984   4.433   4.229   1.621  0.7138  0.5947 -0.2102
 3007TIP3    H1 8985   4.516   4.230   1.573  1.0588  0.5979  0.3801
 3007TIP3    H2 8986   4.458   4.222   1.713  0.0238 -1.9620 -0.1406
 3008TIP3   OH2 8987   5.533   3.942   4.310 -0.0531  0.0376 -0.2338
 3008TIP3    H1 8988   5.611   3.890   4.290  0.1615 -0.7150  2.2530
 3008TIP3    H2 8989   5.502   3.907   4.393 -1.4734  2.1480  0.1946
 3009TIP3   OH2 8990   3.506   6.671   2.314  0.0821  0.2192 -0.4146
 3009TIP3    H1 8991   3.461   6.623   2.384 -0.3568 -0.7498 -1.3320
 3009TIP3    H2 8992   3.572   6.610   2.282  0.3156  0.6756 -0.8094
 3010TIP3   OH2 8993   4.757   2.057   0.704  0.0642  0.1246  0.0700
 3010TIP3    H1 8994   4.754   2.144   0.664 -1.3582 -0.2053 -0.5936
 3010TIP3    H2 8995   4.761   2.074   0.798  1.0315  0.8934 -0.0890
 3011TIP3   OH2 8996   3.840   0.173   3.008  0.6527  0.4327 -0.2975
 3011TIP3    H1 8997   3.779   0.127   2.950 -0.5126 -0.4252  1.4995
 3011TIP3    H2 8998   3.922   0.124   3.001 -0.1374 -1.0754  0.4365
 3012TIP3   OH2 8999   0.605   5.611   3.296 -0.1235 -0.9077  0.0608
 3012TIP3    H1 9000   0.529   5.566   3.333 -0.9453 -0.6173 -1.1926
 3012TIP3    H2 9001   0.571   5.696   3.267  1.5538  0.9861  3.1324
 3013TIP3   OH2 9002   2.016   0.592   4.940 -0.0366  0.1329  0.0689
 3013TIP3    H1 9003   1.994   0.663   4.879  1.1297  0.9221  0.5333
 3013TIP3    H2 9004   2.082   0.630   4.998  0.4357 -1.2708  0.4818
 3014TIP3   OH2 9005   4.159   5.401   3.210  0.2880  0.0871 -0.1294
 3014TIP3    H1 9006   4.142   5.455   3.132  0.3704 -0.1877 -0.3378
 3014TIP3    H2 9007   4.085   5.340   3.214  0.9056 -0.7203 -0.7007
 3015TIP3   OH2 9008   4.903   2.094   5.512 -0.0803  0.3826 -0.3077
 3015TIP3    H1 9009   4.888   2.189   5.512  0.0819  0.4072  0.1442
 3015TIP3    H2 9010   4.827   2.058   5.466 -0.6153  0.6577  0.3535
 3016TIP3   OH2 9011   6.219   1.587   1.830  0.0940  0.2391  0.2621
 3016TIP3    H1 9012   6.134   1.630   1.835  0.7057  1.4930  0.3683
 3016TIP3    H2 9013   6.237   1.559   1.920  0.6197  1.6778  0.6285
 3017TIP3   OH2 9014   1.881   0.348   4.914  0.6930 -0.4072  0.3053
 3017TIP3    H1 9015   1.919   0.436   4.907  0.1067 -0.1811 -0.1469
 3017TIP3    H2 9016   1.873   0.332   5.008 -0.6476  0.6767  0.4048
 3018TIP3   OH2 9017   6.884   5.246   2.380 -0.1767 -0.0116  0.2613
 3018TIP3    H1 9018   6.924   5.333   2.387 -0.4795  0.1002  0.5989
 3018TIP3    H2 9019   6.901   5.220   2.289 -0.8624  0.7911 -0.1166
 3019TIP3   OH2 9020   3.610   3.958   3.847 -0.1360  0.4118  0.2886
 3019TIP3    H1 9021   3.607   4.043   3.803 -0.2350 -1.2321 -3.2255
 3019TIP3    H2 9022   3.524   3.948   3.887 -0.4737  1.5186 -0.1271
 3020TIP3   OH2 9023   0.051   3.974   1.129  0.2728  0.0294  0.3643
 3020TIP3    H1 9024  -0.036   3.948   1.100  0.2706  2.6919 -2.5834
 3020TIP3    H2 9025   0.052   3.954   1.222 -3.2966 -0.5919  0.4211
 3021TIP3   OH2 9026   6.325   0.579   5.480  0.5246  0.1632 -0.8136
 3021TIP3    H1 9027   6.314   0.518   5.407 -1.9702  1.8240 -1.9715
 3021TIP3    H2 9028   6.372   0.653   5.442 -0.3486  0.8221 -0.6238
 3022TIP3   OH2 9029   2.358   5.183   5.522  1.0577  0.4455 -0.1142
 3022TIP3    H1 9030   2.360   5.141   5.608 -0.3405  0.1735 -0.1812
 3022TIP3    H2 9031   2.327   5.272   5.540 -0.1613  0.1006 -0.4103
 3023TIP3   OH2 9032   3.202   5.379   0.909 -0.4602 -0.0646  0.0699
 3023TIP3    H1 9033   3.245   5.463   0.928 -1.0244  0.3430 -0.4165
 3023TIP3    H2 9034   3.253   5.342   0.837 -0.3865 -0.0048  0.0904
 3024TIP3   OH2 9035   0.682   4.902   1.437 -0.1619 -0.2946  0.2187
 3024TIP3    H1 9036   0.742   4.838   1.475  0.5264 -0.7696 -1.5463
 3024TIP3    H2 9037   0.738   4.966   1.394 -0.8781 -0.0028 -0.3182
 3025TIP3   OH2 9038   0.653   5.372   5.113 -0.1476  0.1415  0.2772
 3025TIP3    H1 9039   0.672   5.424   5.035 -0.8653  1.2261  0.8020
 3025TIP3    H2 9040   0.689   5.285   5.093 -3.4975 -0.7799 -2.8209
 3026TIP3   OH2 9041   6.115   0.859   3.878  0.2570 -0.9367 -0.6181
 3026TIP3    H1 9042   6.181   0.846   3.946  0.2568  2.3646  0.1749
 3026TIP3    H2 9043   6.161   0.906   3.808 -0.0180 -3.3092 -2.5256
 3027TIP3   OH2 9044   5.791   3.174   3.581 -0.2020  0.2525 -0.1049
 3027TIP3    H1 9045   5.745   3.258   3.589 -0.4609 -0.0339  2.9123
 3027TIP3    H2 9046   5.884   3.197   3.580 -0.2984  0.6238 -0.9086
 3028TIP3   OH2 9047   5.275   5.486   1.296 -0.0169 -0.1092 -0.2189
 3028TIP3    H1 9048   5.349   5.425   1.295  0.9829  0.7359  3.7315
 3028TIP3    H2 9049   5.314   5.571   1.274 -0.4084 -0.1068 -0.9196
 3029TIP3   OH2 9050   2.642   4.914   1.263 -0.3066  0.4739  0.1709
 3029TIP3    H1 9051   2.696   4.957   1.196  0.5396 -1.2174 -0.2842
 3029TIP3    H2 9052   2.679   4.945   1.346 -0.1819  1.1718 -0.1343
 3030TIP3   OH2 9053   6.711   4.719   2.380 -0.5456  0.1030 -0.3279
 3030TIP3    H1 9054   6.621   4.751   2.385 -0.7704 -0.2691 -1.7627
 3030TIP3    H2 9055   6.763   4.795   2.355 -0.1811  0.7017  1.9693
 3031TIP3   OH2 9056   2.447   1.357   5.736 -0.3312  0.8867  0.4177
 3031TIP3    H1 9057   2.524   1.391   5.781 -1.2906  0.7642  2.2490
 3031TIP3    H2 9058   2.459   1.262   5.735 -1.0794  0.7526  1.9760
 3032TIP3   OH2 9059   0.789   1.008   3.073 -0.5721  0.1389  0.4052
 3032TIP3    H1 9060   0.703   0.966   3.071 -0.9259  0.7505  1.6267
 3032TIP3    H2 9061   0.849   0.943   3.037 -1.3977 -0.6768  0.4727
 3033TIP3   OH2 9062   3.595   2.490   3.631 -0.1373 -0.0657  0.0556
 3033TIP3    H1 9063   3.552   2.405   3.627 -0.8142  0.3153 -1.2889
 3033TIP3    H2 9064   3.531   2.551   3.593  1.2185  0.6613 -1.1459
 3034TIP3   OH2 9065   4.546   6.231   3.428 -0.6591 -0.1408  0.3471
 3034TIP3    H1 9066   4.587   6.153   3.466  1.8046  0.6350 -0.4953
 3034TIP3    H2 9067   4.583   6.304   3.478 -0.1030  0.6633 -1.1808
 3035TIP3   OH2 9068   0.491   1.602   1.551  0.2243 -0.1276 -0.4451
 3035TIP3    H1 9069   0.537   1.518   1.555 -1.0136 -0.8464 -0.8127
 3035TIP3    H2 9070   0.434   1.594   1.474  0.5420  1.2987 -0.8601
 3036TIP3   OH2 9071   4.926   3.043   0.334  0.3381 -0.5742  0.3833
 3036TIP3    H1 9072   4.873   3.092   0.398 -0.3284 -1.1618  0.2891
 3036TIP3    H2 9073   4.912   3.089   0.251  0.1767 -0.5825  0.4062
 3037TIP3   OH2 9074   3.646   0.640   1.122  0.3221 -0.1929  0.3675
 3037TIP3    H1 9075   3.727   0.601   1.154  0.9726 -1.0474 -2.1535
 3037TIP3    H2 9076   3.633   0.717   1.178  1.0685 -1.8192  2.9388
 3038TIP3   OH2 9077   1.612   0.441   2.189 -0.2871  0.1773 -0.6946
 3038TIP3    H1 9078   1.630   0.489   2.270 -0.0531 -0.3742 -0.4123
 3038TIP3    H2 9079   1.525   0.471   2.163 -0.5598  0.0413  0.0115
 3039TIP3   OH2 9080   1.601   0.938   3.184  0.0799 -0.0974  0.3154
 3039TIP3    H1 9081   1.612   0.877   3.258  0.8275 -1.1338 -0.6158
 3039TIP3    H2 9082   1.689   0.947   3.147 -0.2495  0.5840 -0.3222
 3040TIP3   OH2 9083   2.361   3.276   4.032 -0.2623 -0.3987  0.0621
 3040TIP3    H1 9084   2.447   3.311   4.010  0.6854 -1.7589  1.3788
 3040TIP3    H2 9085   2.346   3.207   3.968 -0.5695  0.1181 -0.4257
 3041TIP3   OH2 9086   4.427   5.673   3.018 -0.1934 -0.0345 -0.2052
 3041TIP3    H1 9087   4.332   5.677   3.024 -0.1181  3.4113  0.4612
 3041TIP3    H2 9088   4.449   5.729   2.943  1.3268 -1.4566 -0.8977
 3042TIP3   OH2 9089   0.488   3.665   3.511  0.3569  0.3615 -0.3359
 3042TIP3    H1 9090   0.557   3.645   3.574  0.0518  1.7572  0.4757
 3042TIP3    H2 9091   0.535   3.681   3.428  0.7710 -1.2997 -0.4569
 3043TIP3   OH2 9092   2.896   0.000   4.680 -0.4490  0.8704 -0.5158
 3043TIP3    H1 9093   2.808   0.033   4.662 -0.1969  1.7018 -0.2944
 3043TIP3    H2 9094   2.949   0.033   4.608 -0.1238  1.2641 -0.1093
 3044TIP3   OH2 9095   4.694   0.881   0.431  0.2447 -0.3076  0.2565
 3044TIP3    H1 9096   4.686   0.971   0.401 -2.6955 -0.9004 -1.0683
 3044TIP3    H2 9097   4.737   0.835   0.359  0.1467 -0.2928  0.1883
 3045TIP3   OH2 9098   3.827   3.016   2.829  0.1961  0.3157  0.0731
 3045TIP3    H1 9099   3.896   3.050   2.886  2.1935 -1.0678 -1.3881
 3045TIP3    H2 9100   3.832   2.921   2.839 -1.3462  0.1734 -0.2764
 3046TIP3   OH2 9101   3.904   4.762   5.721  0.4479  0.6086 -0.1848
 3046TIP3    H1 9102   3.902   4.701   5.647  2.3549 -0.3881  0.5180
 3046TIP3    H2 9103   3.873   4.845   5.684 -0.3799 -0.2999 -1.6333
 3047TIP3   OH2 9104   5.764   0.343   3.352 -0.0652 -0.3050 -0.5717
 3047TIP3    H1 9105   5.840   0.332   3.295 -1.5346 -1.6328 -2.3989
 3047TIP3    H2 9106   5.750   0.256   3.391  0.1715  0.2823  0.9058
 3048TIP3   OH2 9107   4.142   0.873   4.560  0.0633  0.0771 -0.0507
 3048TIP3    H1 9108   4.111   0.889   4.649  0.8585  1.1674  0.0463
 3048TIP3    H2 9109   4.070   0.900   4.503  0.7010  2.5188  0.1739
 3049TIP3   OH2 9110   2.829   5.540   1.353  0.2737  0.1200  0.1144
 3049TIP3    H1 9111   2.828   5.632   1.379  0.4477 -0.2587  1.5605
 3049TIP3    H2 9112   2.766   5.534   1.281 -1.4928  0.9608  1.5224
 3050TIP3   OH2 9113   3.943   0.090   2.756 -0.1222 -0.1318  0.3133
 3050TIP3    H1 9114   4.001   0.060   2.826 -1.4512  0.6681  1.8182
 3050TIP3    H2 9115   3.904   0.010   2.721 -0.8240 -0.4403  1.7491
 3051TIP3   OH2 9116   0.876   3.579   3.818  0.1368  0.2156 -0.0992
 3051TIP3    H1 9117   0.865   3.490   3.784  2.9758  0.1632 -1.1800
 3051TIP3    H2 9118   0.955   3.574   3.872  1.4289  2.3837 -1.6328
 3052TIP3   OH2 9119   4.873   4.381   5.428 -0.1281  0.5391  0.0475
 3052TIP3    H1 9120   4.852   4.443   5.498 -1.4319 -0.1516  0.3151
 3052TIP3    H2 9121   4.967   4.389   5.416 -0.3709  3.2805 -0.6319
 3053TIP3   OH2 9122   3.416   2.965   4.169 -0.3456  0.2598 -0.2703
 3053TIP3    H1 9123   3.379   3.051   4.189  0.3465  0.8397 -1.3544
 3053TIP3    H2 9124   3.498   2.962   4.219 -0.0993  0.4753 -0.6488
 3054TIP3   OH2 9125   2.943   0.169   2.846 -0.3483  0.0800  0.8881
 3054TIP3    H1 9126   2.956   0.214   2.929  2.4916 -2.5655  2.0736
 3054TIP3    H2 9127   2.887   0.094   2.867 -2.1076  0.9657 -0.3173
 3055TIP3   OH2 9128   6.098   3.387   5.712 -0.0845 -1.0037  0.1584
 3055TIP3    H1 9129   6.113   3.413   5.803  3.2299 -0.8679 -0.3081
 3055TIP3    H2 9130   6.135   3.458   5.660 -1.3273 -1.3858 -1.3245
 3056TIP3   OH2 9131   3.060   2.026   2.409  0.1883  0.4425 -0.2920
 3056TIP3    H1 9132   3.105   2.041   2.492  0.3214 -1.5091  0.0215
 3056TIP3    H2 9133   3.126   1.984   2.354 -0.0862  1.1761 -1.2115
 3057TIP3   OH2 9134   5.121   4.014   2.631  0.5872  0.1985 -0.5491
 3057TIP3    H1 9135   5.046   3.972   2.674  1.4653  0.1818  1.0561
 3057TIP3    H2 9136   5.098   4.107   2.629  0.4122  0.1619 -0.2872
 3058TIP3   OH2 9137   4.909   6.676   3.173  0.4616 -0.4321  0.3838
 3058TIP3    H1 9138   4.889   6.608   3.108 -0.5221  0.4582 -0.2796
 3058TIP3    H2 9139   4.995   6.710   3.147  1.3733 -1.9652  1.2298
 3059TIP3   OH2 9140   6.330   0.085   1.335  0.0815 -0.2701  0.1527
 3059TIP3    H1 9141   6.263   0.021   1.311 -0.9440  0.9790 -0.3733
 3059TIP3    H2 9142   6.406   0.062   1.280 -0.3563 -0.8816 -0.2023
 3060TIP3   OH2 9143   4.822   4.707   3.046 -0.2402  0.4873 -0.0594
 3060TIP3    H1 9144   4.872   4.747   3.117  1.3230 -0.5548 -0.5315
 3060TIP3    H2 9145   4.761   4.776   3.018  0.1561  1.4144  1.2611
 3061TIP3   OH2 9146   5.004   2.372   5.182  0.0878  0.5897  0.0010
 3061TIP3    H1 9147   4.921   2.404   5.219  0.4536  1.8634 -0.2284
 3061TIP3    H2 9148   5.015   2.423   5.102 -0.4524 -1.7680 -1.7027
 3062TIP3   OH2 9149   6.530   3.263   5.169  0.0064  0.4249  0.7166
 3062TIP3    H1 9150   6.542   3.206   5.245 -0.4972 -0.3666  0.2172
 3062TIP3    H2 9151   6.580   3.220   5.099 -3.5105 -1.7138 -0.7891
 3063TIP3   OH2 9152   2.718   1.617   4.198  0.1165 -0.2878 -0.1305
 3063TIP3    H1 9153   2.780   1.686   4.222 -0.1783  0.2404 -0.8588
 3063TIP3    H2 9154   2.765   1.535   4.213  0.8197  0.0958 -0.2334
 3064TIP3   OH2 9155   5.592   2.790   4.061  0.0565 -0.0331  0.3812
 3064TIP3    H1 9156   5.625   2.873   4.026  0.0593 -0.1328  0.1458
 3064TIP3    H2 9157   5.610   2.795   4.155  1.8880 -0.5962  0.1045
 3065TIP3   OH2 9158   0.050   5.455   3.773  0.4932 -0.1004 -0.0700
 3065TIP3    H1 9159   0.023   5.404   3.850 -2.8220  1.1876 -0.2257
 3065TIP3    H2 9160   0.116   5.515   3.807  0.3533 -0.7065  1.3753
 3066TIP3   OH2 9161   5.824   3.522   4.165  0.7879  0.1878  0.2099
 3066TIP3    H1 9162   5.812   3.447   4.106  1.9574  0.9169 -1.0376
 3066TIP3    H2 9163   5.764   3.506   4.237 -0.6465 -0.8075 -1.1347
 3067TIP3   OH2 9164   0.115   5.952   3.715 -0.2619 -0.3091  0.3950
 3067TIP3    H1 9165   0.136   5.918   3.628 -0.9876 -0.4601  0.2669
 3067TIP3    H2 9166   0.029   5.993   3.704 -0.3599 -0.3309  1.0444
 3068TIP3   OH2 9167   3.647   4.369   4.193 -0.0733 -0.4702  0.2534
 3068TIP3    H1 9168   3.730   4.377   4.147  0.2377 -0.6436  0.7813
 3068TIP3    H2 9169   3.659   4.420   4.273 -0.5107 -0.4115  0.2834
 3069TIP3   OH2 9170   2.319   0.839   3.236 -0.1374  0.5538  0.7937
 3069TIP3    H1 9171   2.309   0.932   3.215 -0.1353  0.2503 -0.7072
 3069TIP3    H2 9172   2.236   0.814   3.277 -1.3587  0.5693 -1.4980
 3070TIP3   OH2 9173   6.561   5.029   1.108  0.0832 -0.0301  0.3937
 3070TIP3    H1 9174   6.524   4.947   1.074  1.5041 -0.2800 -0.6159
 3070TIP3    H2 9175   6.485   5.077   1.141 -1.0855 -0.7509 -1.0966
 3071TIP3   OH2 9176   1.665   0.893   3.724 -0.2454 -0.6694 -0.0340
 3071TIP3    H1 9177   1.650   0.820   3.785 -2.6892  0.7420  1.1844
 3071TIP3    H2 9178   1.738   0.941   3.762  1.1254 -2.1672 -0.6302
 3072TIP3   OH2 9179   5.484   5.799   3.669  0.3210  0.1645  0.1908
 3072TIP3    H1 9180   5.532   5.871   3.629 -0.4222  0.8850  0.5549
 3072TIP3    H2 9181   5.420   5.842   3.726  0.2888 -0.8052  0.9068
 3073TIP3   OH2 9182   1.030   5.341   3.721  0.1944  0.4469  0.2480
 3073TIP3    H1 9183   0.998   5.336   3.631 -0.8603  1.1662  0.5554
 3073TIP3    H2 9184   1.043   5.250   3.747  0.1437  0.2167 -0.5041
 3074TIP3   OH2 9185   6.186   4.544   3.312 -0.5286  0.2315 -0.0856
 3074TIP3    H1 9186   6.202   4.470   3.370  1.1065  0.3046 -0.4060
 3074TIP3    H2 9187   6.096   4.571   3.333 -0.4964 -0.6531  1.3601
 3075TIP3   OH2 9188   0.489   4.452   2.318 -0.1653  0.2223  0.3121
 3075TIP3    H1 9189   0.487   4.491   2.231  0.0922  0.7624  0.5424
 3075TIP3    H2 9190   0.484   4.526   2.378 -0.9029 -0.1759  0.7633
 3076TIP3   OH2 9191   4.733   5.353   5.370  0.3380 -0.4891 -0.5580
 3076TIP3    H1 9192   4.658   5.383   5.421  1.3635 -1.2937  1.5618
 3076TIP3    H2 9193   4.808   5.399   5.407  1.2110 -1.5681 -0.9067
 3077TIP3   OH2 9194   4.350   0.679   4.839 -0.2699  0.1631 -0.0500
 3077TIP3    H1 9195   4.263   0.720   4.833  0.3841  1.4173 -1.4646
 3077TIP3    H2 9196   4.409   0.740   4.795  1.4629 -0.3752  1.4125
 3078TIP3   OH2 9197   4.520   1.861   4.726 -0.2556  0.0902  0.0989
 3078TIP3    H1 9198   4.542   1.919   4.799 -2.2538  2.4595 -0.9973
 3078TIP3    H2 9199   4.426   1.872   4.715  0.0585  0.5497 -3.3152
 3079TIP3   OH2 9200   5.520   0.392   2.306  0.0628  0.1869  0.0193
 3079TIP3    H1 9201   5.582   0.386   2.378  0.6981 -2.0718 -0.6302
 3079TIP3    H2 9202   5.545   0.472   2.260  1.0080  0.5279  1.0727
 3080TIP3   OH2 9203   1.002   4.414   3.672  0.1059 -0.2048 -0.1972
 3080TIP3    H1 9204   1.014   4.489   3.729  0.6368 -0.1385 -0.3904
 3080TIP3    H2 9205   1.045   4.438   3.590  0.6392 -0.8763 -0.1222
 3081TIP3   OH2 9206   5.840   5.821   0.563 -0.2134  0.0740 -0.1638
 3081TIP3    H1 9207   5.899   5.897   0.566 -0.4150  0.2290 -0.1167
 3081TIP3    H2 9208   5.897   5.748   0.538 -0.2513  0.4703 -1.5105
 3082TIP3   OH2 9209   2.665   5.785   0.970  0.0903 -0.2632  0.3753
 3082TIP3    H1 9210   2.580   5.782   0.926  0.5555  0.2891 -0.5774
 3082TIP3    H2 9211   2.691   5.877   0.967  0.6380 -0.3976  0.8307
 3083TIP3   OH2 9212   3.613   6.017   2.863 -0.1611  0.3110 -0.6909
 3083TIP3    H1 9213   3.627   5.948   2.798 -1.5928  0.8788 -1.6428
 3083TIP3    H2 9214   3.678   6.084   2.842  0.4365 -0.2029 -0.5131
 3084TIP3   OH2 9215   4.135   0.554   5.673  0.0301 -0.5740 -0.3875
 3084TIP3    H1 9216   4.221   0.570   5.711  0.0622  2.5385 -1.4805
 3084TIP3    H2 9217   4.151   0.544   5.580 -0.8246  0.9747 -0.7311
 3085TIP3   OH2 9218   3.506   1.949   0.552  0.0617  0.7886  0.3402
 3085TIP3    H1 9219   3.508   2.006   0.628  1.0269  0.6744  0.4126
 3085TIP3    H2 9220   3.500   1.860   0.588 -0.4691  0.7862  0.2530
 3086TIP3   OH2 9221   0.202   0.516   1.973  0.2971 -0.6678 -0.5135
 3086TIP3    H1 9222   0.292   0.502   1.946 -0.1298 -0.4341 -2.1490
 3086TIP3    H2 9223   0.161   0.561   1.899 -1.6613 -2.4983 -0.6285
 3087TIP3   OH2 9224   5.778   3.073   3.019  0.3685 -0.1146 -0.1404
 3087TIP3    H1 9225   5.781   3.106   3.108  0.1122  1.6917 -0.7622
 3087TIP3    H2 9226   5.731   3.140   2.970 -0.0689 -1.3680 -1.5188
 3088TIP3   OH2 9227   5.263   6.260   3.302 -0.0963  0.6623 -0.8802
 3088TIP3    H1 9228   5.237   6.257   3.210  0.2058  2.4091 -1.0697
 3088TIP3    H2 9229   5.183   6.283   3.349 -0.2980 -0.4355 -0.6573
 3089TIP3   OH2 9230   2.038   2.306   5.411  0.7271  0.0781  0.0461
 3089TIP3    H1 9231   1.946   2.330   5.405  0.8662  0.4260 -0.8879
 3089TIP3    H2 9232   2.050   2.280   5.503 -0.1762  0.5144  0.3048
 3090TIP3   OH2 9233   6.214   4.433   2.557 -0.0988 -0.3584  0.4673
 3090TIP3    H1 9234   6.289   4.451   2.501 -0.4132 -1.9514 -0.5425
 3090TIP3    H2 9235   6.246   4.445   2.646  1.6552 -1.9088  0.1151
 3091TIP3   OH2 9236   2.572   4.395   1.699 -0.3799  0.7220  0.1540
 3091TIP3    H1 9237   2.520   4.315   1.683  0.7389  0.4893 -3.1112
 3091TIP3    H2 9238   2.605   4.384   1.788 -1.3705 -1.8229  0.3123
 3092TIP3   OH2 9239   1.135   4.365   1.937  0.2136  0.0852 -0.0552
 3092TIP3    H1 9240   1.123   4.385   1.845 -1.5956 -0.0891  0.1206
 3092TIP3    H2 9241   1.217   4.315   1.940  0.5218  0.4646 -1.4899
 3093TIP3   OH2 9242   3.504   5.770   3.257  0.1499 -0.5643 -0.6815
 3093TIP3    H1 9243   3.581   5.765   3.313 -1.1386 -0.4680  1.1720
 3093TIP3    H2 9244   3.466   5.856   3.276 -0.6176 -0.7531 -1.3158
 3094TIP3   OH2 9245   4.262   2.769   2.203  0.2509 -0.3703  0.3993
 3094TIP3    H1 9246   4.303   2.767   2.117  1.5160 -2.7458  0.9518
 3094TIP3    H2 9247   4.318   2.712   2.257 -1.2770 -0.0681  2.4179
 3095TIP3   OH2 9248   3.692   3.457   3.312 -0.1960  0.4771 -0.0740
 3095TIP3    H1 9249   3.645   3.480   3.232  0.0592 -0.0152 -0.3700
 3095TIP3    H2 9250   3.727   3.540   3.344 -1.1496  0.8291  0.0746
 3096TIP3   OH2 9251   2.186   5.403   2.752 -0.4799  0.1107 -0.1083
 3096TIP3    H1 9252   2.171   5.318   2.794 -1.3572  0.4255  0.2218
 3096TIP3    H2 9253   2.279   5.401   2.729 -0.3934 -0.7788  0.2575
 3097TIP3   OH2 9254   2.597   1.322   1.912 -0.0497  0.1473  0.2227
 3097TIP3    H1 9255   2.621   1.413   1.895  1.2999  0.1939  2.1013
 3097TIP3    H2 9256   2.511   1.312   1.871  0.3142  1.8830 -1.1080
 3098TIP3   OH2 9257   2.177   6.072   5.350 -0.8259 -0.4775 -0.5024
 3098TIP3    H1 9258   2.083   6.061   5.362 -0.7570  0.4018  1.0711
 3098TIP3    H2 9259   2.207   5.987   5.318 -2.0982 -0.8829 -0.6547
 3099TIP3   OH2 9260   1.910   5.748   2.861  0.6787  0.1370 -0.3158
 3099TIP3    H1 9261   2.001   5.723   2.844  0.9472  0.8910 -0.0642
 3099TIP3    H2 9262   1.860   5.667   2.853  0.8637  0.2074 -3.8116
 3100TIP3   OH2 9263   2.407   0.105   3.801  0.3041 -0.2959  0.0097
 3100TIP3    H1 9264   2.388   0.047   3.875 -1.5046  1.6498  1.1844
 3100TIP3    H2 9265   2.357   0.184   3.820  2.0336  1.3625 -1.9165
 3101TIP3   OH2 9266   4.044   2.248   1.985 -0.0188  0.5881 -0.2595
 3101TIP3    H1 9267   3.959   2.208   1.967 -0.3150  0.8221  0.5897
 3101TIP3    H2 9268   4.024   2.338   2.009  0.4528  0.6021  0.1153
 3102TIP3   OH2 9269   3.671   3.869   0.439 -0.7291 -0.3639  0.3679
 3102TIP3    H1 9270   3.710   3.818   0.367  2.8384  1.3489  0.8766
 3102TIP3    H2 9271   3.712   3.833   0.518 -0.6060  1.1569  1.0178
 3103TIP3   OH2 9272   4.034   6.533   5.491  0.6531 -0.3817 -0.2211
 3103TIP3    H1 9273   4.081   6.463   5.445 -1.8665 -1.6974 -0.9665
 3103TIP3    H2 9274   3.964   6.558   5.432 -0.2016  0.8137  1.2279
 3104TIP3   OH2 9275   1.043   4.249   2.625  0.4147  0.0944 -0.1405
 3104TIP3    H1 9276   1.014   4.184   2.689 -1.4985  1.1268  0.1053
 3104TIP3    H2 9277   1.117   4.293   2.668 -0.6044  0.5251  1.2419
 3105TIP3   OH2 9278   0.375   5.447   3.092  0.3082  0.1823  0.3717
 3105TIP3    H1 9279   0.363   5.478   3.182 -1.3700 -1.1189  0.6441
 3105TIP3    H2 9280   0.390   5.353   3.101 -0.2349 -0.0250 -0.7362
 3106TIP3   OH2 9281   1.943   1.903   0.966 -0.2433  0.0484  0.0677
 3106TIP3    H1 9282   1.924   1.890   0.873  0.4831  0.0879 -0.0913
 3106TIP3    H2 9283   1.857   1.900   1.009 -0.5088 -0.8041 -0.5007
 3107TIP3   OH2 9284   6.703   0.621   0.178  0.0045  0.6215 -0.0237
 3107TIP3    H1 9285   6.785   0.604   0.131 -0.3734  0.2395 -0.5630
 3107TIP3    H2 9286   6.724   0.692   0.239  1.1672 -0.5412  1.0034
 3108TIP3   OH2 9287   1.084   3.126   2.865 -0.2897 -0.0479  0.3540
 3108TIP3    H1 9288   1.062   3.218   2.876  1.0059  0.3575 -0.2061
 3108TIP3    H2 9289   1.174   3.118   2.898  0.4396 -0.6040 -1.5876
 3109TIP3   OH2 9290   4.432   5.397   4.169 -0.4610 -0.1634  0.2012
 3109TIP3    H1 9291   4.445   5.345   4.248 -0.2502 -0.4738 -0.0328
 3109TIP3    H2 9292   4.503   5.369   4.110 -1.5845 -1.1564 -0.7339
 3110TIP3   OH2 9293   5.072   5.478   2.293 -0.3063 -0.4372 -0.6388
 3110TIP3    H1 9294   5.064   5.517   2.380  0.5579  1.4903 -1.3552
 3110TIP3    H2 9295   5.156   5.432   2.294  0.0897  0.2662 -0.6695
 3111TIP3   OH2 9296   3.034   2.269   0.616  0.1369 -0.0704 -0.5408
 3111TIP3    H1 9297   3.088   2.212   0.671  1.1831 -0.0271 -1.4768
 3111TIP3    H2 9298   2.944   2.239   0.631  0.2622  0.6020  1.9425
 3112TIP3   OH2 9299   1.503   3.879   5.236 -0.2459 -0.6102 -0.4837
 3112TIP3    H1 9300   1.517   3.964   5.194 -0.4077 -0.3364  0.0071
 3112TIP3    H2 9301   1.452   3.899   5.315 -0.1894 -1.1492 -0.3052
 3113TIP3   OH2 9302   5.114   3.266   5.160  0.0032 -0.0735 -0.0859
 3113TIP3    H1 9303   5.147   3.337   5.104  0.0243 -0.4599 -0.5690
 3113TIP3    H2 9304   5.079   3.311   5.237  2.4537  0.3177  0.8791
 3114TIP3   OH2 9305   0.360   4.902   3.002  0.2828 -0.1712  0.1311
 3114TIP3    H1 9306   0.405   4.858   2.929  2.2957  1.5361  0.2608
 3114TIP3    H2 9307   0.354   4.835   3.070  0.2321 -1.1969 -0.8385
 3115TIP3   OH2 9308   2.169   1.136   5.780  0.0351  0.3258  0.2852
 3115TIP3    H1 9309   2.136   1.158   5.692  0.5385 -1.2492 -0.3233
 3115TIP3    H2 9310   2.103   1.172   5.839  0.6746  3.2440 -0.5861
 3116TIP3   OH2 9311   6.770   5.372   2.835 -0.6155 -0.5751 -0.1198
 3116TIP3    H1 9312   6.714   5.296   2.852 -0.9376 -0.5578 -1.0455
 3116TIP3    H2 9313   6.735   5.409   2.754  1.8899 -1.6302 -1.8017
 3117TIP3   OH2 9314   4.368   3.419   2.497 -0.0560  0.1313  0.6414
 3117TIP3    H1 9315   4.275   3.441   2.496  0.5658  3.1799  0.8729
 3117TIP3    H2 9316   4.399   3.447   2.583  1.5539  1.7374 -0.3819
 3118TIP3   OH2 9317   3.134   6.027   5.073 -0.7777  0.1222  0.3204
 3118TIP3    H1 9318   3.097   6.023   5.161  1.9070 -0.6359  1.5323
 3118TIP3    H2 9319   3.168   6.116   5.065  0.3898 -0.2659  0.7308
 3119TIP3   OH2 9320   1.688   6.291   0.825  0.1113  0.3867 -0.5375
 3119TIP3    H1 9321   1.690   6.285   0.920  1.4231  0.3173 -0.5575
 3119TIP3    H2 9322   1.601   6.327   0.805  0.3323  1.7484  0.7634
 3120TIP3   OH2 9323   3.345   0.414   1.265 -0.3948  0.0035  0.0868
 3120TIP3    H1 9324   3.286   0.485   1.239 -0.0878  0.3696  0.3715
 3120TIP3    H2 9325   3.348   0.420   1.361  1.7539  1.3607  0.0002
 3121TIP3   OH2 9326   2.597   3.574   1.482 -0.0060 -0.3243  0.3997
 3121TIP3    H1 9327   2.678   3.523   1.483  0.2618  0.0600 -0.8549
 3121TIP3    H2 9328   2.540   3.529   1.545  0.6191 -1.5132  0.1440
 3122TIP3   OH2 9329   2.747   3.727   0.314  0.1655 -0.3079 -0.0662
 3122TIP3    H1 9330   2.714   3.790   0.250  1.8734 -0.2436 -0.9410
 3122TIP3    H2 9331   2.761   3.778   0.394 -0.7201 -0.1128 -0.0231
 3123TIP3   OH2 9332   5.448   4.410   2.428  0.1587 -0.1795  0.4452
 3123TIP3    H1 9333   5.391   4.485   2.442  0.5502  0.6385 -1.8264
 3123TIP3    H2 9334   5.439   4.357   2.507 -2.4600  0.7307  0.8600
 3124TIP3   OH2 9335   6.907   1.790   0.090  0.1856 -0.2217 -0.4320
 3124TIP3    H1 9336   6.926   1.814  -0.000 -0.2452  0.1144 -0.4398
 3124TIP3    H2 9337   6.945   1.703   0.101  1.1853  0.1824 -0.6053
 3125TIP3   OH2 9338   0.723   0.145   3.606  0.2593 -0.1857 -0.3190
 3125TIP3    H1 9339   0.814   0.161   3.583  0.1005  0.2236 -0.6981
 3125TIP3    H2 9340   0.724   0.064   3.657  0.9444  0.3335  0.5026
 3126TIP3   OH2 9341   6.942   0.467   2.822  0.2221  0.3935  0.4199
 3126TIP3    H1 9342   6.932   0.385   2.774 -0.1614  0.9777 -0.5352
 3126TIP3    H2 9343   7.022   0.505   2.786 -0.5696  1.2770 -0.4549
 3127TIP3   OH2 9344   5.197   3.908   1.121 -0.2041 -0.2000 -0.0196
 3127TIP3    H1 9345   5.107   3.929   1.148  0.2755  0.5632  1.0744
 3127TIP3    H2 9346   5.249   3.923   1.200  1.1088  0.9803 -1.0589
 3128TIP3   OH2 9347   6.810   6.764   1.510  0.2129  0.2823 -0.0711
 3128TIP3    H1 9348   6.818   6.724   1.423  1.8319  0.0670  0.1456
 3128TIP3    H2 9349   6.833   6.856   1.495 -0.0386  0.3619  0.0346
 3129TIP3   OH2 9350   3.011   3.344   0.686  0.3744  0.0605 -0.0647
 3129TIP3    H1 9351   2.996   3.355   0.592  0.4060  0.0047 -0.0764
 3129TIP3    H2 9352   2.924   3.346   0.725  0.3214 -0.4041 -0.1479
 3130TIP3   OH2 9353   0.932   2.808   3.707  0.2551 -0.5186 -0.8140
 3130TIP3    H1 9354   0.997   2.828   3.774  0.4639 -0.5552 -1.0076
 3130TIP3    H2 9355   0.944   2.876   3.641 -1.5865  1.0299  0.3356
 3131TIP3   OH2 9356   6.047   3.230   3.673 -0.1959 -0.4090  0.0515
 3131TIP3    H1 9357   6.080   3.198   3.758  0.8503  1.0503  0.2359
 3131TIP3    H2 9358   6.063   3.157   3.613 -2.1275 -1.9717  1.3053
 3132TIP3   OH2 9359   5.314   4.732   4.658  0.9321  0.4578 -0.2021
 3132TIP3    H1 9360   5.228   4.773   4.660  0.9181  0.4547 -0.5877
 3132TIP3    H2 9361   5.303   4.650   4.707  1.4319  1.7661  2.2592
 3133TIP3   OH2 9362   1.409   2.561   3.717  0.1785  0.0560 -0.3838
 3133TIP3    H1 9363   1.379   2.616   3.789 -0.5388 -0.6071 -0.1643
 3133TIP3    H2 9364   1.330   2.517   3.685  0.7825 -1.1031 -0.3266
 3134TIP3   OH2 9365   1.856   5.379   0.130 -0.6166  0.0942  0.1132
 3134TIP3    H1 9366   1.929   5.380   0.192 -0.2041 -2.7157 -0.2173
 3134TIP3    H2 9367   1.898   5.386   0.044 -0.4656 -3.0646 -0.1793
 3135TIP3   OH2 9368   5.823   4.462   0.549 -0.1290 -0.2339  0.5253
 3135TIP3    H1 9369   5.729   4.466   0.531 -0.2990  2.6926  1.5338
 3135TIP3    H2 9370   5.864   4.452   0.463 -1.3224  0.0450 -0.0918
 3136TIP3   OH2 9371   0.044   1.201   0.261  0.2833 -1.1874 -0.0082
 3136TIP3    H1 9372  -0.009   1.127   0.231  0.3270 -0.8348 -0.9756
 3136TIP3    H2 9373   0.101   1.222   0.188  0.1529 -0.0786  0.1779
 3137TIP3   OH2 9374   0.687   4.998   5.509  0.0543 -0.5807  0.1525
 3137TIP3    H1 9375   0.736   5.075   5.539  1.5216  0.2541 -3.8464
 3137TIP3    H2 9376   0.595   5.022   5.523  0.5381  0.1171  2.6906
 3138TIP3   OH2 9377   5.286   6.507   1.258 -0.1795  0.2623 -0.8989
 3138TIP3    H1 9378   5.332   6.496   1.175  1.6000 -1.7263  0.2553
 3138TIP3    H2 9379   5.294   6.422   1.302 -1.3633  1.1339  1.1835
 3139TIP3   OH2 9380   0.532   3.729   5.224 -0.4066 -0.1645  0.3105
 3139TIP3    H1 9381   0.577   3.737   5.140 -0.9816  0.4945  0.0562
 3139TIP3    H2 9382   0.471   3.657   5.212  0.4018 -0.9119  0.5845
 3140TIP3   OH2 9383   4.042   4.613   4.399  0.1062 -0.1581  0.0424
 3140TIP3    H1 9384   4.068   4.575   4.483 -0.8078 -3.0322 -0.8552
 3140TIP3    H2 9385   4.125   4.625   4.352  0.4664 -0.6787  0.5300
 3141TIP3   OH2 9386   2.145   3.018   0.516  0.2897  0.2185 -0.2429
 3141TIP3    H1 9387   2.175   3.025   0.425  0.7674 -0.6181 -0.1536
 3141TIP3    H2 9388   2.209   2.961   0.558 -1.4500 -1.7009 -0.0755
 3142TIP3   OH2 9389   1.483   3.340   1.916 -0.0589 -0.1584  0.5059
 3142TIP3    H1 9390   1.527   3.302   1.992  0.7925 -1.0903 -0.4183
 3142TIP3    H2 9391   1.401   3.292   1.909  0.3263 -0.7957  0.2475
 3143TIP3   OH2 9392   1.684   3.216   0.739  0.2773  0.0438  0.2430
 3143TIP3    H1 9393   1.714   3.305   0.723  0.7421 -0.2606 -0.6267
 3143TIP3    H2 9394   1.760   3.170   0.773  0.1765 -0.1398  0.2240
 3144TIP3   OH2 9395   6.699   1.029   3.820 -0.2472  0.7822  0.5370
 3144TIP3    H1 9396   6.793   1.012   3.815 -0.5963 -1.4183  0.6959
 3144TIP3    H2 9397   6.686   1.107   3.765  1.5014  0.4973 -0.3497
 3145TIP3   OH2 9398   5.168   3.154   2.746  0.2938  0.0474  0.2709
 3145TIP3    H1 9399   5.247   3.204   2.766 -0.2925  0.0081  3.1695
 3145TIP3    H2 9400   5.099   3.220   2.741  0.0933 -0.1446  0.4649
 3146TIP3   OH2 9401   2.463   2.107   3.215 -0.0167 -0.5374 -0.7482
 3146TIP3    H1 9402   2.551   2.069   3.205  0.2811 -0.1404  0.2931
 3146TIP3    H2 9403   2.415   2.042   3.266  0.1513 -0.0597  0.0381
 3147TIP3   OH2 9404   3.811   1.540   4.812 -0.3741  0.3441 -0.1085
 3147TIP3    H1 9405   3.872   1.596   4.764  0.5281 -0.5302 -0.0085
 3147TIP3    H2 9406   3.778   1.478   4.745 -2.4099  1.7842 -0.5402
 3148TIP3   OH2 9407   3.081   3.384   1.537 -0.2021 -0.0018  0.3579
 3148TIP3    H1 9408   3.152   3.321   1.549  0.6111  0.9825  0.8925
 3148TIP3    H2 9409   3.111   3.462   1.584 -1.7100  0.3807  0.7291
 3149TIP3   OH2 9410   0.466   3.207   4.600  0.0456  0.3133  0.0854
 3149TIP3    H1 9411   0.540   3.210   4.540  0.9563 -0.3256  1.1379
 3149TIP3    H2 9412   0.464   3.294   4.641  0.3907  0.2404  0.2571
 3150TIP3   OH2 9413   4.010   4.462   3.216 -0.2731  0.5936 -0.0702
 3150TIP3    H1 9414   3.985   4.428   3.130 -2.2911 -0.0796  0.7016
 3150TIP3    H2 9415   3.942   4.527   3.236  0.5821  1.2725  0.7097
 3151TIP3   OH2 9416   6.705   4.133   1.532 -0.6913  0.0447 -0.1771
 3151TIP3    H1 9417   6.612   4.145   1.512 -0.3348  1.4486 -1.2299
 3151TIP3    H2 9418   6.731   4.215   1.574  0.1953 -0.0937 -0.4305
 3152TIP3   OH2 9419   3.043   0.423   5.851 -0.2075 -0.1524 -0.2386
 3152TIP3    H1 9420   3.059   0.349   5.910 -0.8298 -0.5750 -0.5879
 3152TIP3    H2 9421   3.043   0.383   5.764 -2.0844 -0.0082 -0.3309
 3153TIP3   OH2 9422   1.168   5.859   4.962 -0.4049  0.1120  0.1305
 3153TIP3    H1 9423   1.175   5.954   4.963  1.4261  0.0071  0.8448
 3153TIP3    H2 9424   1.102   5.840   4.895 -0.5067  1.8565 -0.2975
 3154TIP3   OH2 9425   4.430   2.913   4.527  0.2262  0.4217  0.1995
 3154TIP3    H1 9426   4.368   2.967   4.477 -1.3311 -0.6839  0.8690
 3154TIP3    H2 9427   4.447   2.838   4.471  0.5296  0.4566  0.2449
 3155TIP3   OH2 9428   3.174   3.604   5.043  0.1647 -0.1220 -0.0526
 3155TIP3    H1 9429   3.160   3.527   5.098  0.1532  0.6077  0.9989
 3155TIP3    H2 9430   3.238   3.576   4.978 -0.3077 -1.1990 -0.0767
 3156TIP3   OH2 9431   2.599   1.458   3.662  0.3759  0.2648 -0.5020
 3156TIP3    H1 9432   2.609   1.408   3.581  0.8719 -0.2482 -0.1353
 3156TIP3    H2 9433   2.506   1.454   3.682  0.2749  0.2705 -0.9685
 3157TIP3   OH2 9434   4.062   2.947   2.152 -0.4501 -0.2117  0.3542
 3157TIP3    H1 9435   4.112   2.870   2.178 -1.1988 -0.6047  0.6745
 3157TIP3    H2 9436   3.979   2.939   2.199 -0.2785  1.1551  0.9288
 3158TIP3   OH2 9437   7.032   2.213   1.747 -0.1306  0.5208  0.3210
 3158TIP3    H1 9438   7.048   2.228   1.653  0.6948  2.1444  0.6948
 3158TIP3    H2 9439   7.010   2.299   1.782 -1.7659 -0.2815  1.4054
 3159TIP3   OH2 9440   4.928   0.620   3.888 -0.4251 -0.2544 -0.0482
 3159TIP3    H1 9441   4.886   0.546   3.843  0.9339 -1.2006  0.1704
 3159TIP3    H2 9442   4.871   0.638   3.963 -0.4318 -1.5479  0.2862
 3160TIP3   OH2 9443   2.938   4.511   5.497  0.4447  0.0729  0.2830
 3160TIP3    H1 9444   2.960   4.550   5.581 -0.7823 -1.9798  1.6356
 3160TIP3    H2 9445   2.882   4.576   5.454  1.5295  1.3765  0.7627
 3161TIP3   OH2 9446   1.648   4.658   5.143 -0.1577 -0.1732 -0.8653
 3161TIP3    H1 9447   1.599   4.664   5.061 -0.5845  2.4031 -0.5230
 3161TIP3    H2 9448   1.699   4.739   5.146  0.7018 -0.7286  0.9139
 3162TIP3   OH2 9449   6.108   5.855   3.150  0.3976 -0.2110 -0.4449
 3162TIP3    H1 9450   6.163   5.902   3.087 -0.1463  0.4156 -0.4672
 3162TIP3    H2 9451   6.131   5.893   3.235  0.6873 -0.6210 -0.3398
 3163TIP3   OH2 9452   0.537   6.759   3.990 -0.2530  0.2914  0.0188
 3163TIP3    H1 9453   0.622   6.779   3.951 -0.8445  0.1532 -1.3788
 3163TIP3    H2 9454   0.553   6.681   4.044  1.1317  1.9296  2.1695
 3164TIP3   OH2 9455   6.539   5.704   4.440  0.4784 -0.0109 -0.1340
 3164TIP3    H1 9456   6.563   5.702   4.347  3.1322  0.8557  0.4265
 3164TIP3    H2 9457   6.488   5.784   4.450  2.0606  1.1113 -0.5493
 3165TIP3   OH2 9458   5.045   3.340   0.908  0.3105  0.6017  0.4159
 3165TIP3    H1 9459   4.995   3.358   0.988  0.2009  0.5916  0.3508
 3165TIP3    H2 9460   4.981   3.352   0.838 -0.5513 -2.6647  0.4819
 3166TIP3   OH2 9461   3.392   2.420   1.141  0.2345  0.6101 -0.3270
 3166TIP3    H1 9462   3.419   2.474   1.215 -0.0542  1.2731 -0.6986
 3166TIP3    H2 9463   3.423   2.468   1.064  2.5032 -1.1330 -0.6171
 3167TIP3   OH2 9464   3.961   1.835   2.899  0.1637  0.2599 -0.4670
 3167TIP3    H1 9465   3.869   1.811   2.887 -0.1497  1.5243 -0.7578
 3167TIP3    H2 9466   3.958   1.924   2.935  1.2628 -0.0029  0.3316
 3168TIP3   OH2 9467   6.020   2.060   4.456  0.2909 -0.0577  0.1619
 3168TIP3    H1 9468   5.982   2.081   4.371  0.9206  2.4907  0.4301
 3168TIP3    H2 9469   6.092   2.000   4.436  0.4364  0.5194 -1.1343
 3169TIP3   OH2 9470   4.730   1.502   1.932  0.2463 -0.3293 -0.4064
 3169TIP3    H1 9471   4.720   1.515   1.838 -0.1665 -0.9770 -0.4546
 3169TIP3    H2 9472   4.714   1.588   1.970  0.0733 -0.1414 -0.9017
 3170TIP3   OH2 9473   2.520   5.135   3.264 -0.2039  0.2739  0.4868
 3170TIP3    H1 9474   2.611   5.123   3.290 -0.1357 -1.8597 -0.4492
 3170TIP3    H2 9475   2.477   5.174   3.340  0.8869 -1.4968  2.1078
 3171TIP3   OH2 9476   6.788   2.005   1.432  0.1211 -0.0657  0.1250
 3171TIP3    H1 9477   6.694   1.995   1.448  0.3379 -0.0649  1.5789
 3171TIP3    H2 9478   6.797   2.002   1.337 -1.1310 -2.1701 -0.0028
 3172TIP3   OH2 9479   0.020   0.973   4.867  0.1428 -0.0394 -0.1713
 3172TIP3    H1 9480   0.095   0.913   4.869  0.9172  0.8930 -0.1590
 3172TIP3    H2 9481  -0.053   0.920   4.837  0.7718 -1.0234 -0.0063
 3173TIP3   OH2 9482   5.003   2.570   1.343 -0.3861 -0.2213 -0.1687
 3173TIP3    H1 9483   5.077   2.603   1.395 -0.7375  0.6513 -0.2198
 3173TIP3    H2 9484   5.020   2.476   1.336  0.1969 -0.1893  0.6702
 3174TIP3   OH2 9485   6.958   4.597   5.143 -0.3972  0.3710 -0.1819
 3174TIP3    H1 9486   6.945   4.503   5.160  0.6429  0.6658  2.8821
 3174TIP3    H2 9487   7.042   4.601   5.099 -1.2121 -0.1984 -1.8668
 3175TIP3   OH2 9488   4.745   0.409   3.449  0.5008  0.1418 -0.3624
 3175TIP3    H1 9489   4.657   0.376   3.433  0.4245  0.6139 -0.9571
 3175TIP3    H2 9490   4.733   0.483   3.508  0.4790  0.2742 -0.5291
 3176TIP3   OH2 9491   1.424   2.006   4.734 -0.0230 -0.3954  0.3558
 3176TIP3    H1 9492   1.398   2.047   4.652  1.0737 -0.4535 -0.0307
 3176TIP3    H2 9493   1.434   2.079   4.795  0.0942 -0.2640  0.1795
 3177TIP3   OH2 9494   2.563   0.966   2.246  0.7985 -0.2506  0.6094
 3177TIP3    H1 9495   2.651   0.988   2.277  2.3790 -0.9115 -2.9755
 3177TIP3    H2 9496   2.523   1.050   2.224  0.9778 -0.0471  1.0370
 3178TIP3   OH2 9497   1.696   3.629   3.043 -0.2923  0.0337  0.6395
 3178TIP3    H1 9498   1.613   3.606   3.083 -0.2589 -2.1772 -0.4280
 3178TIP3    H2 9499   1.703   3.572   2.966  1.8487  0.7055  0.2635
 3179TIP3   OH2 9500   6.222   2.990   5.170  0.0526  0.5102 -0.9614
 3179TIP3    H1 9501   6.266   3.070   5.142  0.1202  0.7185 -0.2697
 3179TIP3    H2 9502   6.129   3.010   5.160  0.0774  0.5840 -1.0452
 3180TIP3   OH2 9503   4.037   0.769   0.599 -0.0424 -0.4617  0.3998
 3180TIP3    H1 9504   3.997   0.854   0.579  0.0130 -0.1458  1.5835
 3180TIP3    H2 9505   4.073   0.740   0.515 -1.7258 -0.2277 -0.4514
 3181TIP3   OH2 9506   5.676   2.046   3.296 -0.2302  0.2832 -0.5654
 3181TIP3    H1 9507   5.620   1.991   3.241 -1.7761  1.6534 -0.3998
 3181TIP3    H2 9508   5.638   2.133   3.291 -0.4812  0.4661  2.7451
 3182TIP3   OH2 9509   0.019   1.139   5.243  0.1810 -0.3707 -0.8050
 3182TIP3    H1 9510   0.009   1.098   5.329  0.3030 -1.7259 -1.4028
 3182TIP3    H2 9511   0.079   1.211   5.258 -0.4896 -0.0336  0.4086
 3183TIP3   OH2 9512   4.214   1.834   4.728  0.2697 -0.1870 -0.0977
 3183TIP3    H1 9513   4.169   1.918   4.727  0.5956 -0.0110 -0.1624
 3183TIP3    H2 9514   4.207   1.801   4.638  0.6349  0.0399 -0.2127
 3184TIP3   OH2 9515   3.856   6.517   0.492 -0.4115 -0.1189 -0.2270
 3184TIP3    H1 9516   3.866   6.604   0.531 -1.2118 -1.0331  2.2327
 3184TIP3    H2 9517   3.768   6.518   0.454  0.2203  0.6432 -1.7887
 3185TIP3   OH2 9518   7.096   1.742   3.682 -0.2532  0.4250 -0.1231
 3185TIP3    H1 9519   7.081   1.674   3.748 -3.0167  0.9625 -0.0768
 3185TIP3    H2 9520   7.117   1.821   3.733  0.0005  0.2914 -0.0204
 3186TIP3   OH2 9521   4.709   3.895   0.649  0.0366 -0.5082  0.2617
 3186TIP3    H1 9522   4.776   3.938   0.703  0.2448  1.5713 -1.5088
 3186TIP3    H2 9523   4.650   3.966   0.624 -0.8601 -1.6658 -1.0463
 3187TIP3   OH2 9524   6.943   1.124   5.394 -0.2773  0.0887 -0.5896
 3187TIP3    H1 9525   7.006   1.057   5.422  1.1502  1.9747  0.9896
 3187TIP3    H2 9526   6.858   1.085   5.412  0.5112 -1.2288  0.5432
 3188TIP3   OH2 9527   3.342   4.209   3.916  0.6744 -0.8885 -0.5276
 3188TIP3    H1 9528   3.333   4.127   3.869  0.7623 -1.4644  0.4364
 3188TIP3    H2 9529   3.275   4.205   3.985  1.9057 -1.0048  0.7182
 3189TIP3   OH2 9530   6.988   2.867   1.677 -0.3409  0.7165 -0.3690
 3189TIP3    H1 9531   6.921   2.927   1.709  1.6812  2.6828  0.4605
 3189TIP3    H2 9532   7.005   2.809   1.751 -2.9190 -1.6695 -1.4462
 3190TIP3   OH2 9533   0.335   3.915   5.598  0.2974 -0.8855 -0.7529
 3190TIP3    H1 9534   0.354   3.874   5.514  1.6555  0.2797 -1.0565
 3190TIP3    H2 9535   0.263   3.864   5.634  0.2701 -1.9465 -2.2251
 3191TIP3   OH2 9536   1.520   5.109   0.644 -0.0203  0.2847 -0.0131
 3191TIP3    H1 9537   1.533   5.082   0.553 -1.2982 -0.6767  0.0521
 3191TIP3    H2 9538   1.428   5.089   0.661  0.4003 -0.3065  1.7346
 3192TIP3   OH2 9539   1.915   3.420   1.723 -0.7900 -0.2244 -0.0878
 3192TIP3    H1 9540   1.860   3.443   1.648  0.3324  1.0233 -0.5696
 3192TIP3    H2 9541   1.894   3.329   1.741 -0.8275 -0.6676 -2.1654
 3193TIP3   OH2 9542   4.449   1.330   1.832 -0.3000 -0.1295 -0.6421
 3193TIP3    H1 9543   4.494   1.318   1.916 -0.2032 -0.0512 -0.6829
 3193TIP3    H2 9544   4.357   1.310   1.851 -0.1963 -0.6185 -0.6300
 3194TIP3   OH2 9545   6.523   0.585   1.109  0.3619 -0.2431 -0.0346
 3194TIP3    H1 9546   6.605   0.608   1.064  0.4653  2.0327  1.2044
 3194TIP3    H2 9547   6.456   0.636   1.064 -0.0153 -0.3378  0.4140
 3195TIP3   OH2 9548   0.383   0.943   2.244  0.0835  0.1745  0.0215
 3195TIP3    H1 9549   0.292   0.913   2.239  0.4876 -1.4784  1.6898
 3195TIP3    H2 9550   0.436   0.865   2.227  1.2125  1.0376 -0.5781
 3196TIP3   OH2 9551   3.879   5.579   5.307 -0.0398  0.6988 -0.4422
 3196TIP3    H1 9552   3.811   5.586   5.240 -0.3964 -1.4690 -0.3869
 3196TIP3    H2 9553   3.907   5.488   5.303 -0.3553  0.3516  2.6127
 3197TIP3   OH2 9554   4.131   0.220   2.590  0.2161 -0.1402  0.4841
 3197TIP3    H1 9555   4.053   0.170   2.612  0.8199 -1.0483  0.5847
 3197TIP3    H2 9556   4.186   0.159   2.541  0.2128  0.9315 -0.9368
 3198TIP3   OH2 9557   0.833   0.307   5.454 -0.4748 -0.0755 -0.2577
 3198TIP3    H1 9558   0.738   0.321   5.452 -0.3031  1.4198  0.6643
 3198TIP3    H2 9559   0.863   0.355   5.532  0.7568 -2.4107  0.8170
 3199TIP3   OH2 9560   0.511   4.575   0.678 -0.2703  0.5120 -0.4185
 3199TIP3    H1 9561   0.562   4.616   0.608 -1.4249 -0.3612 -1.8265
 3199TIP3    H2 9562   0.569   4.506   0.712  0.0007  0.4077 -1.0748
 3200TIP3   OH2 9563   6.212   4.838   3.693 -0.0515  0.0569  0.2673
 3200TIP3    H1 9564   6.276   4.898   3.730 -2.1682  2.2773  0.6079
 3200TIP3    H2 9565   6.184   4.783   3.766  0.1240  0.3330  0.5422
 3201TIP3   OH2 9566   6.422   3.212   3.783 -0.8588 -0.0247  0.0908
 3201TIP3    H1 9567   6.381   3.129   3.756 -1.5810  0.4140 -0.1851
 3201TIP3    H2 9568   6.447   3.254   3.701  2.2419 -1.2763  0.2784
 3202TIP3   OH2 9569   4.735   3.476   2.613 -0.5897 -0.3565 -0.3536
 3202TIP3    H1 9570   4.654   3.476   2.664 -0.1474 -1.3101  0.3854
 3202TIP3    H2 9571   4.782   3.554   2.642 -0.2927 -0.9475  0.7949
 3203TIP3   OH2 9572   3.038   2.071   3.720  0.0512  0.2988 -0.2557
 3203TIP3    H1 9573   2.979   1.996   3.732 -0.1208 -0.1728 -3.3648
 3203TIP3    H2 9574   2.979   2.146   3.715 -0.0237  0.2417 -0.2461
 3204TIP3   OH2 9575   0.018   5.486   0.711 -0.1545 -0.0812  0.4359
 3204TIP3    H1 9576   0.104   5.454   0.683 -1.1012 -1.2335 -1.4004
 3204TIP3    H2 9577  -0.035   5.486   0.631 -1.1185  3.3660  0.9054
 3205TIP3   OH2 9578   5.575   4.143   5.334  0.4287 -1.0625 -0.1239
 3205TIP3    H1 9579   5.557   4.101   5.250 -1.2559 -0.2633 -0.2016
 3205TIP3    H2 9580   5.635   4.215   5.313 -1.0855  0.0251 -0.9201
 3206TIP3   OH2 9581   7.130   0.228   2.254  0.6016 -0.0773  0.1195
 3206TIP3    H1 9582   7.053   0.248   2.307 -0.4551 -2.0546 -0.5797
 3206TIP3    H2 9583   7.109   0.146   2.210  3.3436 -0.9911  0.3165
 3207TIP3   OH2 9584   4.117   4.973   2.579  0.0884  0.0574 -0.0865
 3207TIP3    H1 9585   4.162   4.959   2.662 -0.6266 -1.0845  0.1252
 3207TIP3    H2 9586   4.034   5.014   2.603  0.4515  0.9864 -0.3680
 3208TIP3   OH2 9587   4.542   0.846   0.081  0.0209 -0.3814  0.1789
 3208TIP3    H1 9588   4.622   0.899   0.077 -1.8403  3.1785  3.3725
 3208TIP3    H2 9589   4.488   0.878   0.009 -0.2345  0.5631  0.7719
 3209TIP3   OH2 9590   2.306   4.949   5.394 -0.4238  0.3693 -0.0336
 3209TIP3    H1 9591   2.303   4.997   5.311  1.5818  0.9591  0.1819
 3209TIP3    H2 9592   2.354   5.007   5.453 -1.7393 -0.0695  1.5531
 3210TIP3   OH2 9593   2.689   5.167   3.762 -0.0673  0.3919  0.3015
 3210TIP3    H1 9594   2.763   5.170   3.823 -1.0042  1.5669  1.4169
 3210TIP3    H2 9595   2.718   5.219   3.687  0.8376 -0.5143 -0.0099
 3211TIP3   OH2 9596   1.963   4.488   4.152 -0.0232 -0.1105  0.3600
 3211TIP3    H1 9597   2.055   4.510   4.143 -0.1621  2.5654  3.5666
 3211TIP3    H2 9598   1.918   4.541   4.086  0.6151 -0.5984 -0.4801
 3212TIP3   OH2 9599   1.051   2.933   3.146  0.1680 -0.2748  0.7002
 3212TIP3    H1 9600   0.965   2.972   3.132  0.7230  0.4042 -1.1328
 3212TIP3    H2 9601   1.036   2.862   3.208 -1.7709 -0.3686  0.1804
 3213TIP3   OH2 9602   3.555   1.210   0.563 -0.2110 -0.0930 -0.1499
 3213TIP3    H1 9603   3.496   1.141   0.534 -1.8670  2.0188 -2.2439
 3213TIP3    H2 9604   3.623   1.214   0.496 -1.3757  1.6792 -1.3033
 3214TIP3   OH2 9605   6.448   5.373   2.149  0.1260 -0.1204  0.4623
 3214TIP3    H1 9606   6.494   5.365   2.065 -3.6212  1.6094 -2.0319
 3214TIP3    H2 9607   6.434   5.467   2.160 -1.2690 -0.4535  1.9628
 3215TIP3   OH2 9608   4.128   5.694   5.327  0.3230  0.1251 -0.1740
 3215TIP3    H1 9609   4.170   5.624   5.279 -0.9693  0.3361 -1.6952
 3215TIP3    H2 9610   4.040   5.661   5.348  0.6559  0.2388  1.6260
 3216TIP3   OH2 9611   2.917   5.252   2.119  0.4460  0.4291 -0.2594
 3216TIP3    H1 9612   2.832   5.294   2.132  0.6349  0.7377 -0.0104
 3216TIP3    H2 9613   2.972   5.287   2.189  1.1422  1.2180 -1.1589
 3217TIP3   OH2 9614   0.103   3.032   4.622 -0.0723  0.0660  0.0944
 3217TIP3    H1 9615   0.104   3.099   4.553  0.3457 -0.6799 -0.6416
 3217TIP3    H2 9616   0.194   3.004   4.630 -0.6357 -2.7595 -1.9726
 3218TIP3   OH2 9617   4.150   0.973   0.931  0.4560  0.7138  0.2409
 3218TIP3    H1 9618   4.182   0.888   0.899 -0.6609  0.2335  0.3568
 3218TIP3    H2 9619   4.202   1.037   0.882  1.8389 -0.0188  0.6895
 3219TIP3   OH2 9620   5.511   1.939   3.115  0.4300 -0.4397  0.4540
 3219TIP3    H1 9621   5.440   1.962   3.055  0.2937  0.9203  1.1068
 3219TIP3    H2 9622   5.468   1.896   3.189  0.1758  1.0467  1.1933
 3220TIP3   OH2 9623   5.208   0.349   0.038  0.0451  0.0060  0.5379
 3220TIP3    H1 9624   5.217   0.398   0.120  0.1577 -1.4827  1.4407
 3220TIP3    H2 9625   5.118   0.368   0.009  0.8323  2.7066 -0.4907
 3221TIP3   OH2 9626   2.891   1.979   0.234 -0.0605 -0.4491 -0.5270
 3221TIP3    H1 9627   2.951   1.987   0.308 -0.3114  3.0182 -0.5456
 3221TIP3    H2 9628   2.947   1.962   0.158  0.2874 -2.9838  0.2169
 3222TIP3   OH2 9629   1.531   6.488   2.973  0.4661 -0.1887 -0.5900
 3222TIP3    H1 9630   1.570   6.535   2.899  1.6517  0.6231  0.5053
 3222TIP3    H2 9631   1.438   6.512   2.971  1.1544  2.9633  0.3928
 3223TIP3   OH2 9632   6.886   2.214   2.469  0.4170  0.0946  0.2051
 3223TIP3    H1 9633   6.815   2.274   2.446  1.0856  1.2877  1.1552
 3223TIP3    H2 9634   6.850   2.158   2.537  0.6556  1.3781  1.4384
 3224TIP3   OH2 9635   3.894   5.498   0.371  0.0680  0.1216  0.4831
 3224TIP3    H1 9636   3.826   5.481   0.435  0.3876 -1.8643  0.3788
 3224TIP3    H2 9637   3.973   5.460   0.409 -0.3438 -4.1899 -2.2769
 3225TIP3   OH2 9638   3.361   3.262   5.023  0.3516  0.5516  0.4478
 3225TIP3    H1 9639   3.368   3.339   4.966 -2.4951 -0.1883 -1.1040
 3225TIP3    H2 9640   3.282   3.277   5.073  0.4461 -0.8160  1.0352
 3226TIP3   OH2 9641   6.257   0.513   1.955 -0.5232 -0.1802 -0.7070
 3226TIP3    H1 9642   6.285   0.601   1.929  1.9688 -0.7572 -0.1589
 3226TIP3    H2 9643   6.272   0.459   1.877 -3.2212  0.0081 -1.4705
 3227TIP3   OH2 9644   0.092   3.953   5.150  0.2208  0.1990 -0.1843
 3227TIP3    H1 9645   0.095   4.046   5.172  0.8829 -0.4350  2.8036
 3227TIP3    H2 9646   0.170   3.938   5.097 -0.2771  1.4238 -1.3395
 3228TIP3   OH2 9647   1.052   2.501   1.181 -0.2602 -0.6381  0.3864
 3228TIP3    H1 9648   1.068   2.472   1.271 -1.3043 -1.5871  0.3001
 3228TIP3    H2 9649   0.959   2.480   1.166 -0.0229 -0.7760 -1.0106
 3229TIP3   OH2 9650   2.356   5.778   1.001 -0.1567  0.2344  0.4400
 3229TIP3    H1 9651   2.260   5.771   1.003 -0.2407  1.4092  1.9899
 3229TIP3    H2 9652   2.376   5.858   1.050  1.6469 -0.2310  0.5446
 3230TIP3   OH2 9653   3.840   5.860   3.904  0.1899  0.1507 -0.0062
 3230TIP3    H1 9654   3.839   5.847   3.999  0.9239 -0.3620 -0.0640
 3230TIP3    H2 9655   3.843   5.956   3.893  1.5079  0.1886  0.5146
 3231TIP3   OH2 9656   1.234   1.156   0.971 -0.2440 -0.4853 -0.5150
 3231TIP3    H1 9657   1.166   1.210   1.010  1.4918  1.3229  0.1996
 3231TIP3    H2 9658   1.224   1.169   0.876  1.2404  2.7116 -0.3472
 3232TIP3   OH2 9659   0.729   2.565   3.194 -0.1314 -0.2766  0.3625
 3232TIP3    H1 9660   0.672   2.540   3.122  0.2454 -1.5005  0.4788
 3232TIP3    H2 9661   0.807   2.601   3.152 -0.4529  0.2345  0.1907
 3233TIP3   OH2 9662   3.165   6.009   3.665  0.1384 -0.0133 -0.2150
 3233TIP3    H1 9663   3.113   5.964   3.597  1.5198 -0.1598 -1.2257
 3233TIP3    H2 9664   3.122   6.094   3.675  0.6287  0.5501 -2.2735
 3234TIP3   OH2 9665   3.048   2.247   0.060  0.2286 -0.1308  0.2825
 3234TIP3    H1 9666   3.074   2.241   0.152  3.0089  0.6708 -0.3625
 3234TIP3    H2 9667   3.121   2.209   0.012 -0.9505 -0.0969 -1.6323
 3235TIP3   OH2 9668   4.503  -0.003   5.824  0.3716 -0.0950  0.7343
 3235TIP3    H1 9669   4.520   0.088   5.801  2.0576 -0.2611  1.2469
 3235TIP3    H2 9670   4.412  -0.017   5.796 -0.5364  2.2209  2.1564
 3236TIP3   OH2 9671   5.400   6.372   5.125 -0.4367  0.3499 -0.0617
 3236TIP3    H1 9672   5.353   6.391   5.044  0.2874 -3.0159 -1.4262
 3236TIP3    H2 9673   5.340   6.317   5.175  1.2930 -2.8093 -1.2005
 3237TIP3   OH2 9674   6.343   4.240   4.464  0.3611  0.0365 -0.6438
 3237TIP3    H1 9675   6.343   4.308   4.532  0.8803 -1.5519  1.0169
 3237TIP3    H2 9676   6.261   4.253   4.418 -0.3043  0.7983  0.6884
 3238TIP3   OH2 9677   4.787   6.293   1.076 -0.0876  0.0026  0.4678
 3238TIP3    H1 9678   4.856   6.344   1.118 -0.7488  1.5179 -0.1981
 3238TIP3    H2 9679   4.816   6.284   0.985 -0.2402 -0.3288  0.4524
 3239TIP3   OH2 9680   2.066   2.854   1.293  0.0874  0.2663 -0.0261
 3239TIP3    H1 9681   2.143   2.797   1.299  0.6796  1.0531  0.0545
 3239TIP3    H2 9682   2.066   2.885   1.203 -1.0536 -0.9460 -0.4832
 3240TIP3   OH2 9683   4.055   3.642   4.529 -0.1019  0.7785  0.3327
 3240TIP3    H1 9684   3.996   3.597   4.589  0.2236 -0.3543 -0.1680
 3240TIP3    H2 9685   4.099   3.708   4.584 -1.7958  1.6517  0.7083
 3241TIP3   OH2 9686   0.119   4.997   5.409  0.4069 -0.4240  0.3859
 3241TIP3    H1 9687   0.030   4.965   5.424  0.0505  0.0203 -0.6615
 3241TIP3    H2 9688   0.138   4.972   5.318  0.1393  2.1753 -0.4638
 3242TIP3   OH2 9689   0.890   5.601   1.360 -0.4036  0.2483  0.0305
 3242TIP3    H1 9690   0.948   5.573   1.431 -0.8929  2.0931  1.2282
 3242TIP3    H2 9691   0.813   5.545   1.369 -0.0274 -0.2335  0.2919
 3243TIP3   OH2 9692   5.433   0.122   2.734 -0.4597  0.6097  0.0864
 3243TIP3    H1 9693   5.398   0.041   2.697 -0.3473 -0.0624  1.4081
 3243TIP3    H2 9694   5.380   0.137   2.813 -0.1117  1.5223  0.1558
 3244TIP3   OH2 9695   3.421   1.047   2.542 -0.0994  0.3694  0.1811
 3244TIP3    H1 9696   3.353   0.985   2.569  0.9250 -0.3944  1.1126
 3244TIP3    H2 9697   3.478   1.053   2.618  3.4796 -2.5670 -1.9346
 3245TIP3   OH2 9698   1.002   1.770   2.122 -0.0048 -0.5263  0.3948
 3245TIP3    H1 9699   0.928   1.804   2.173 -0.7542 -1.7364  0.1483
 3245TIP3    H2 9700   0.961   1.716   2.055  1.0448  0.0188 -0.7036
 3246TIP3   OH2 9701   2.238   1.371   5.201  0.2049  0.0176 -0.3224
 3246TIP3    H1 9702   2.193   1.401   5.280 -0.2925  1.6631 -1.1839
 3246TIP3    H2 9703   2.328   1.355   5.229 -0.2161 -0.5007  0.7985
 3247TIP3   OH2 9704   2.377   2.079   3.585 -0.4333  0.2088  0.5209
 3247TIP3    H1 9705   2.394   2.034   3.503  1.9098 -1.2520  1.6865
 3247TIP3    H2 9706   2.381   2.010   3.652 -1.1031  1.5184  1.9994
 3248TIP3   OH2 9707   3.962   2.761   4.758 -0.4083  0.6290 -0.1756
 3248TIP3    H1 9708   3.995   2.794   4.674  0.7297 -0.5533 -0.2204
 3248TIP3    H2 9709   3.988   2.827   4.822  1.1116  0.2685 -0.3793
 3249TIP3   OH2 9710   6.701   0.610   5.564  0.0844  0.2865  0.1861
 3249TIP3    H1 9711   6.731   0.521   5.546 -1.6700  0.0388 -1.9771
 3249TIP3    H2 9712   6.663   0.605   5.651 -3.3907 -2.1940 -1.2216
 3250TIP3   OH2 9713   1.540   4.949   2.656  0.4592  0.6430 -0.3495
 3250TIP3    H1 9714   1.600   4.984   2.590  0.2063 -1.1513 -1.5805
 3250TIP3    H2 9715   1.595   4.898   2.715  0.3974  0.5961 -0.3326
 3251TIP3   OH2 9716   4.866   0.644   5.174  0.0153  0.2001 -0.6993
 3251TIP3    H1 9717   4.809   0.685   5.109  1.7476 -0.7456 -2.9400
 3251TIP3    H2 9718   4.924   0.715   5.201 -0.6728  0.5850 -0.1836
 3252TIP3   OH2 9719   1.219   6.100   3.739  0.4229  0.0917 -0.1341
 3252TIP3    H1 9720   1.186   6.104   3.649  0.9255  0.3346 -0.3107
 3252TIP3    H2 9721   1.140   6.106   3.793  0.1902  1.0180 -0.5430
 3253TIP3   OH2 9722   3.938   3.397   1.959  0.0082 -0.0556  0.3690
 3253TIP3    H1 9723   3.976   3.425   1.876  2.4600 -1.5635  0.8871
 3253TIP3    H2 9724   3.992   3.440   2.026 -1.2777  0.3235  1.1974
 3254TIP3   OH2 9725   0.451   4.083   4.263  0.0205  0.6807 -0.1475
 3254TIP3    H1 9726   0.413   3.996   4.265 -0.2183  0.7933  0.2944
 3254TIP3    H2 9727   0.420   4.121   4.180  1.2130 -0.1259 -0.9989
 3255TIP3   OH2 9728   0.337   1.910   5.338 -0.5492 -0.0708  0.0790
 3255TIP3    H1 9729   0.369   1.897   5.427  1.6584 -0.9260 -0.7848
 3255TIP3    H2 9730   0.244   1.888   5.344 -0.5349  0.1797  2.2099
 3256TIP3   OH2 9731   6.031   6.067   2.909  0.7270 -0.2475 -0.2355
 3256TIP3    H1 9732   5.956   6.126   2.916  0.8440 -0.1655  0.3548
 3256TIP3    H2 9733   6.107   6.124   2.912  0.8611 -0.4625  1.0000
 3257TIP3   OH2 9734   1.281   3.476   3.714  0.1874 -0.0156 -0.3837
 3257TIP3    H1 9735   1.317   3.469   3.626  1.4210  1.1778 -0.0155
 3257TIP3    H2 9736   1.286   3.569   3.735  1.0886 -0.4029  1.3866
 3258TIP3   OH2 9737   2.982   5.768   1.666  0.7539 -0.5762  0.0283
 3258TIP3    H1 9738   3.068   5.800   1.693  0.3858  0.4456  0.0128
 3258TIP3    H2 9739   2.968   5.690   1.720  1.9383 -1.1070 -0.3923
 3259TIP3   OH2 9740   3.020   6.289   1.478  0.2090 -0.1531  0.5533
 3259TIP3    H1 9741   3.054   6.227   1.543  2.1280  0.0024 -0.2257
 3259TIP3    H2 9742   3.052   6.375   1.508  1.0773 -0.0745 -0.5117
 3260TIP3   OH2 9743   0.141   4.586   2.944 -0.0159 -0.2459 -0.1255
 3260TIP3    H1 9744   0.227   4.561   2.909  0.2893  0.3851  0.1455
 3260TIP3    H2 9745   0.131   4.534   3.023 -0.7061 -1.6767 -1.1110
 3261TIP3   OH2 9746   2.079   4.244   3.914 -0.0683 -0.3014  0.3123
 3261TIP3    H1 9747   2.051   4.154   3.895 -0.6065 -0.3597  1.3009
 3261TIP3    H2 9748   2.138   4.235   3.989  0.7365  0.0718 -0.2585
 3262TIP3   OH2 9749   4.840   4.231   4.484 -0.2554  0.0986  0.4153
 3262TIP3    H1 9750   4.793   4.148   4.498  1.3399 -0.8710  0.3304
 3262TIP3    H2 9751   4.856   4.234   4.390  0.2467  0.1654  0.4979
 3263TIP3   OH2 9752   2.567   5.756   3.805 -0.1250 -0.0421  0.0772
 3263TIP3    H1 9753   2.473   5.773   3.799 -0.0033  0.6028 -0.1726
 3263TIP3    H2 9754   2.575   5.676   3.856 -0.7422  1.2289  2.3388
 3264TIP3   OH2 9755   2.822   5.901   1.907  0.4430  0.3905 -0.1264
 3264TIP3    H1 9756   2.757   5.879   1.841 -1.3568  1.5811  1.1350
 3264TIP3    H2 9757   2.788   5.862   1.988  0.2665  2.5573  0.9275
 3265TIP3   OH2 9758   1.312   6.815   4.949 -0.7171 -0.3991  0.1865
 3265TIP3    H1 9759   1.325   6.726   4.981 -0.1702 -0.2867  0.2965
 3265TIP3    H2 9760   1.329   6.810   4.855 -0.7246 -0.4197  0.1862
 3266TIP3   OH2 9761   4.321   2.812   1.343 -0.6416  0.1664 -0.0051
 3266TIP3    H1 9762   4.236   2.830   1.304 -0.6731 -0.1902 -0.1068
 3266TIP3    H2 9763   4.307   2.734   1.398 -0.0027 -1.0059 -1.4115
 3267TIP3   OH2 9764   4.826   2.250   4.335  0.0112  0.0849 -0.2521
 3267TIP3    H1 9765   4.789   2.169   4.370 -0.0438  0.3806  0.3833
 3267TIP3    H2 9766   4.795   2.318   4.394  2.3992  0.2404  0.9565
 3268TIP3   OH2 9767   6.902   2.164   4.524  0.5914 -0.5680 -0.5421
 3268TIP3    H1 9768   6.972   2.099   4.525  0.2760 -0.9140  0.9161
 3268TIP3    H2 9769   6.928   2.230   4.588 -1.2509 -1.6703  1.4751
 3269TIP3   OH2 9770   6.955   0.215   2.674  0.1328 -0.4912  0.2780
 3269TIP3    H1 9771   6.963   0.130   2.633 -3.3383 -0.7239 -0.2478
 3269TIP3    H2 9772   6.959   0.197   2.768 -0.9876 -1.3267  0.1789
 3270TIP3   OH2 9773   1.669   0.267   2.669  0.0448  0.4536 -0.2333
 3270TIP3    H1 9774   1.614   0.259   2.747  0.4078  0.3455  0.0131
 3270TIP3    H2 9775   1.686   0.176   2.643 -1.3715  0.4676 -1.3686
 3271TIP3   OH2 9776   4.051   3.122   1.178  0.4239 -0.0322 -0.1126
 3271TIP3    H1 9777   3.964   3.117   1.218  0.6679 -0.0157  0.4297
 3271TIP3    H2 9778   4.079   3.212   1.192  0.9745 -0.3172  0.6759
 3272TIP3   OH2 9779   3.021   4.164   3.463 -0.0128 -0.4857  0.1838
 3272TIP3    H1 9780   2.943   4.219   3.460  0.0077 -0.4730 -0.1264
 3272TIP3    H2 9781   3.015   4.119   3.547  0.3826  0.5744  0.7974
 3273TIP3   OH2 9782   3.230   0.479   5.511 -0.4303  0.0777  0.1659
 3273TIP3    H1 9783   3.172   0.441   5.445 -1.1593 -2.7483  2.2436
 3273TIP3    H2 9784   3.274   0.404   5.550  0.4118  1.6567  2.4757
 3274TIP3   OH2 9785   3.579   4.535   5.435 -0.2375  0.1577 -0.0080
 3274TIP3    H1 9786   3.624   4.614   5.404 -1.2548  1.0177  0.6259
 3274TIP3    H2 9787   3.544   4.495   5.356  0.2424  0.3715 -0.3336
 3275TIP3   OH2 9788   5.469   0.807   4.540  0.0577  0.2009 -0.3149
 3275TIP3    H1 9789   5.397   0.749   4.515  0.6114 -0.3601 -0.6447
 3275TIP3    H2 9790   5.434   0.895   4.529 -1.1869 -0.0388  1.3105
 3276TIP3   OH2 9791   6.337   4.521   2.804 -0.0589 -0.4655  0.0818
 3276TIP3    H1 9792   6.313   4.440   2.848 -0.6240 -1.5997 -2.1812
 3276TIP3    H2 9793   6.432   4.529   2.818 -0.2783 -0.5397  1.7889
 3277TIP3   OH2 9794   1.103   3.889   0.585  0.6388 -0.6673 -0.8871
 3277TIP3    H1 9795   1.014   3.889   0.551  1.1864 -0.0683 -2.3771
 3277TIP3    H2 9796   1.130   3.981   0.586  1.2670 -0.8428 -0.5258
 3278TIP3   OH2 9797   3.670   2.154   3.994 -0.1855  0.5570 -0.0490
 3278TIP3    H1 9798   3.579   2.185   3.995  0.5028  2.7252  0.5119
 3278TIP3    H2 9799   3.718   2.220   3.944  1.0463 -0.7817 -0.7355
 3279TIP3   OH2 9800   3.452   0.590   0.398 -0.0722 -0.0101  0.3125
 3279TIP3    H1 9801   3.539   0.608   0.435 -0.5719  1.5004  0.8090
 3279TIP3    H2 9802   3.424   0.510   0.443  0.5387  0.1931  1.0903
 3280TIP3   OH2 9803   0.989   4.597   1.752 -0.3285  0.2363  0.5064
 3280TIP3    H1 9804   0.915   4.614   1.694  0.1779  0.3070 -0.1299
 3280TIP3    H2 9805   0.949   4.574   1.836 -1.0653  0.4402  0.2166
 3281TIP3   OH2 9806   0.976   0.639   5.687  0.3226  0.0751 -0.0203
 3281TIP3    H1 9807   0.971   0.639   5.591 -1.1501 -0.3079  0.0215
 3281TIP3    H2 9808   0.901   0.586   5.714 -0.4394  1.7722  1.3690
 3282TIP3   OH2 9809   5.429   2.549   4.190 -0.3457 -0.4655  0.2119
 3282TIP3    H1 9810   5.352   2.602   4.170  0.4788  1.0452  0.8307
 3282TIP3    H2 9811   5.496   2.581   4.129  0.7538  0.6841  1.9304
 3283TIP3   OH2 9812   6.025   2.038   5.735  0.7138 -0.8250  0.4191
 3283TIP3    H1 9813   6.024   2.114   5.792 -2.8134 -1.6232  1.7169
 3283TIP3    H2 9814   6.054   1.966   5.791  2.3053 -0.7953 -0.3151
 3284TIP3   OH2 9815   1.830   1.285   4.819 -0.5751  0.1709  0.2016
 3284TIP3    H1 9816   1.904   1.227   4.800 -0.8124 -0.0871  0.0529
 3284TIP3    H2 9817   1.841   1.308   4.912 -0.7792 -0.5530  0.4131
 3285TIP3   OH2 9818   6.058   3.554   3.406 -0.1197  0.0321 -0.1692
 3285TIP3    H1 9819   6.089   3.465   3.390  3.0819  0.8185  0.7758
 3285TIP3    H2 9820   6.074   3.600   3.324  1.3338  0.4329  0.3103
 3286TIP3   OH2 9821   2.117   4.154   1.989 -0.4547 -0.8225 -0.4001
 3286TIP3    H1 9822   2.207   4.125   1.976 -0.8157 -2.1079 -0.2502
 3286TIP3    H2 9823   2.118   4.248   1.972  0.9227 -0.8083 -0.3183
 3287TIP3   OH2 9824   6.788   3.819   5.297  0.4685 -0.4855  0.2743
 3287TIP3    H1 9825   6.823   3.793   5.382  0.6305  0.7537  0.6080
 3287TIP3    H2 9826   6.772   3.736   5.251  0.8526 -1.1563  1.3109
 3288TIP3   OH2 9827   6.478   0.055   3.755  0.0114 -0.0789 -0.3928
 3288TIP3    H1 9828   6.421   0.026   3.826  2.5956  0.4252  2.0832
 3288TIP3    H2 9829   6.418   0.083   3.686 -2.6685 -0.6247  1.5380
 3289TIP3   OH2 9830   4.449   1.896   5.131  0.1988 -0.2958 -0.3017
 3289TIP3    H1 9831   4.435   1.816   5.080  1.4666 -1.4321  1.0648
 3289TIP3    H2 9832   4.514   1.945   5.080 -0.2126 -0.3574 -0.8956
 3290TIP3   OH2 9833   3.787   3.056   3.462 -0.3199  0.0655  0.2274
 3290TIP3    H1 9834   3.701   3.028   3.430 -0.4915  0.1212  0.6368
 3290TIP3    H2 9835   3.790   3.026   3.553  0.5136 -0.8673 -0.0854
 3291TIP3   OH2 9836   1.695   2.297   3.059 -0.4844 -0.6440 -0.1248
 3291TIP3    H1 9837   1.767   2.333   3.110 -0.4627  0.3816 -0.8506
 3291TIP3    H2 9838   1.668   2.219   3.108  0.8202 -0.8013  0.3795
 3292TIP3   OH2 9839   2.788   4.259   4.578  0.0331 -0.2834 -0.0373
 3292TIP3    H1 9840   2.807   4.246   4.671  0.9457  0.8242 -0.0449
 3292TIP3    H2 9841   2.724   4.331   4.576 -0.1711 -0.4680 -0.2559
 3293TIP3   OH2 9842   1.403   1.355   2.490 -0.3157 -0.1901 -0.4727
 3293TIP3    H1 9843   1.378   1.439   2.528 -1.3685 -0.5561 -0.3140
 3293TIP3    H2 9844   1.374   1.360   2.399  1.5839  0.4236 -1.0812
 3294TIP3   OH2 9845   3.339   0.723   4.867  0.5521  0.1714  0.5825
 3294TIP3    H1 9846   3.428   0.697   4.846  0.5101 -0.7348  1.4835
 3294TIP3    H2 9847   3.301   0.648   4.912 -1.0406  0.0965 -0.7753
 3295TIP3   OH2 9848   2.311   5.253   4.638 -0.1990  0.1046 -0.8933
 3295TIP3    H1 9849   2.255   5.202   4.579  0.3271  0.3719 -1.6551
 3295TIP3    H2 9850   2.400   5.237   4.605 -0.0325  1.6511 -1.2725
 3296TIP3   OH2 9851   4.711   3.187   1.509 -0.0301  0.0884 -0.4277
 3296TIP3    H1 9852   4.718   3.119   1.441 -1.8914 -0.7328  0.1388
 3296TIP3    H2 9853   4.653   3.253   1.471  1.3356  1.1313 -0.7623
 3297TIP3   OH2 9854   2.138   4.336   2.260  0.4862  0.3483 -0.0616
 3297TIP3    H1 9855   2.074   4.389   2.308  1.5503  1.1588  0.5165
 3297TIP3    H2 9856   2.131   4.366   2.169  1.3833  1.8586  0.3265
 3298TIP3   OH2 9857   4.037   6.091   0.116  0.1967  0.1069  0.4661
 3298TIP3    H1 9858   3.974   6.157   0.087  1.2795  0.9796  0.0841
 3298TIP3    H2 9859   4.122   6.126   0.093  0.9038 -0.6414  1.8219
 3299TIP3   OH2 9860   5.239   2.785   3.319 -0.3560  0.0892 -0.3874
 3299TIP3    H1 9861   5.235   2.698   3.278 -0.1236  0.8416 -2.1023
 3299TIP3    H2 9862   5.328   2.791   3.353 -0.3718 -0.3329 -0.2590
 3300TIP3   OH2 9863   1.115   5.999   2.817 -0.0111  0.0464 -0.1166
 3300TIP3    H1 9864   1.185   6.062   2.833 -0.5110  0.3002  1.2465
 3300TIP3    H2 9865   1.133   5.926   2.876 -0.5623 -0.1642 -0.1967
 3301TIP3   OH2 9866   5.282   4.665   2.410 -0.0053 -0.2335 -0.2152
 3301TIP3    H1 9867   5.254   4.635   2.497  0.4546 -1.8750 -0.5834
 3301TIP3    H2 9868   5.261   4.591   2.352 -0.6839  0.9876 -1.5891
 3302TIP3   OH2 9869   3.755   3.176   0.140  0.1422  0.4667 -0.5565
 3302TIP3    H1 9870   3.754   3.109   0.208 -0.2194  0.3814 -0.6450
 3302TIP3    H2 9871   3.847   3.184   0.116  0.1980  0.0649 -0.4851
 3303TIP3   OH2 9872   3.827   4.119   3.443  0.3549 -0.6615 -0.1814
 3303TIP3    H1 9873   3.837   4.024   3.437 -1.2380 -0.8695 -0.0177
 3303TIP3    H2 9874   3.811   4.146   3.352 -0.6242 -0.7634 -0.0550
 3304TIP3   OH2 9875   6.851   2.925   5.762 -0.3387  0.5000  0.5176
 3304TIP3    H1 9876   6.812   2.839   5.747  0.1711  0.6982 -2.7276
 3304TIP3    H2 9877   6.785   2.987   5.731 -0.2445  1.2749  1.7659
 3305TIP3   OH2 9878   5.250   2.456   0.396 -0.2637 -0.3741  1.0443
 3305TIP3    H1 9879   5.223   2.384   0.452  0.0049 -0.6303  0.8492
 3305TIP3    H2 9880   5.194   2.529   0.422 -2.6716 -1.4437 -0.8478
 3306TIP3   OH2 9881   3.475   0.858   5.219 -0.0128 -0.3331 -0.1000
 3306TIP3    H1 9882   3.471   0.953   5.225 -0.6582 -0.4277  1.6151
 3306TIP3    H2 9883   3.487   0.829   5.310 -1.5398 -1.9422 -0.3709
 3307TIP3   OH2 9884   3.906   4.169   4.837 -0.1686  0.4741 -0.1111
 3307TIP3    H1 9885   3.956   4.249   4.827  2.6385 -1.2266 -0.9537
 3307TIP3    H2 9886   3.872   4.172   4.926 -1.9264  3.4539 -0.7695
 3308TIP3   OH2 9887   2.748   4.395   0.289  0.1039 -0.4859  0.0889
 3308TIP3    H1 9888   2.712   4.483   0.280 -0.9549 -1.0661 -1.8025
 3308TIP3    H2 9889   2.818   4.391   0.224  0.9290 -0.6973  0.9657
 3309TIP3   OH2 9890   4.373   3.521   4.696  0.9469  0.3236  0.1986
 3309TIP3    H1 9891   4.457   3.510   4.742  0.9999 -1.0540 -0.1698
 3309TIP3    H2 9892   4.398   3.530   4.604  0.7032 -0.1566  0.0810
 3310TIP3   OH2 9893   2.466   2.214   1.481  0.2489  0.1739  0.4062
 3310TIP3    H1 9894   2.459   2.309   1.490  2.3548  0.4694 -0.3200
 3310TIP3    H2 9895   2.417   2.193   1.401 -1.2028  0.4505  1.1961
 3311TIP3   OH2 9896   0.843   5.555   2.524  0.6130 -0.5103 -0.4770
 3311TIP3    H1 9897   0.762   5.549   2.575  0.3319 -1.2455 -0.9958
 3311TIP3    H2 9898   0.834   5.637   2.476  1.5859  1.0237  1.8006
 3312TIP3   OH2 9899   1.181   6.631   4.072 -0.3993  0.4563 -0.4049
 3312TIP3    H1 9900   1.220   6.560   4.122 -0.2348  1.3250  0.7523
 3312TIP3    H2 9901   1.135   6.588   4.000 -0.2240 -0.7968  0.2131
 3313TIP3   OH2 9902   1.681   6.186   4.886  0.1643  0.2034  0.0324
 3313TIP3    H1 9903   1.652   6.095   4.882  0.6508 -0.0120  0.9858
 3313TIP3    H2 9904   1.743   6.188   4.960  0.7504  1.1377 -0.4594
 3314TIP3   OH2 9905   1.620   4.762   1.667  0.1868  0.3977 -0.0378
 3314TIP3    H1 9906   1.596   4.851   1.691  3.1512  1.6810 -1.3667
 3314TIP3    H2 9907   1.654   4.724   1.749 -0.9651  0.4811  0.5006
 3315TIP3   OH2 9908   2.356   4.199   2.505  0.2661 -0.0047  0.1183
 3315TIP3    H1 9909   2.295   4.127   2.490  1.7995 -1.4986  0.7275
 3315TIP3    H2 9910   2.300   4.276   2.517 -1.3943 -0.9598 -1.1243
 3316TIP3   OH2 9911   4.328   0.053   3.749  0.1465  0.3082  1.1079
 3316TIP3    H1 9912   4.265   0.011   3.689 -0.4338  1.9101  0.5514
 3316TIP3    H2 9913   4.408   0.001   3.739 -0.2183 -0.0173 -0.3865
 3317TIP3   OH2 9914   4.380   2.373   3.472 -0.0445 -0.3846 -0.0982
 3317TIP3    H1 9915   4.439   2.332   3.535 -1.0009 -2.0408 -0.2386
 3317TIP3    H2 9916   4.438   2.424   3.415  1.2271 -1.6952 -0.0366
 3318TIP3   OH2 9917   5.443   3.590   0.100  0.1611 -0.5435 -0.5274
 3318TIP3    H1 9918   5.387   3.513   0.087 -1.5039  0.4837  0.2073
 3318TIP3    H2 9919   5.412   3.629   0.182  3.7552 -1.3754  1.4540
 3319TIP3   OH2 9920   4.633   4.841   2.511  0.3491  0.1256  0.3368
 3319TIP3    H1 9921   4.594   4.915   2.557 -1.1751 -1.3570  1.5784
 3319TIP3    H2 9922   4.727   4.857   2.514  0.0119  3.2569 -1.7262
 3320TIP3   OH2 9923   2.727   4.367   2.177 -0.2686  0.3596  0.2099
 3320TIP3    H1 9924   2.761   4.299   2.234  1.7457  0.1195 -1.1718
 3320TIP3    H2 9925   2.802   4.424   2.160 -0.6064  0.1333 -2.5418
 3321TIP3   OH2 9926   6.320   0.371   1.144 -0.4775  0.3452  0.3332
 3321TIP3    H1 9927   6.373   0.446   1.173 -0.3362  0.5863 -0.5125
 3321TIP3    H2 9928   6.384   0.308   1.112 -0.6614  0.4018 -0.1589
 3322TIP3   OH2 9929   2.394   5.985   2.915  0.6015  0.0260 -0.1668
 3322TIP3    H1 9930   2.467   5.989   2.977 -0.0037  1.0335  0.5190
 3322TIP3    H2 9931   2.410   6.058   2.855  0.8081 -0.5186 -0.7875
 3323TIP3   OH2 9932   0.733   0.187   1.692  0.5243 -0.2424  0.6806
 3323TIP3    H1 9933   0.724   0.092   1.684 -0.3212 -0.0412 -1.3489
 3323TIP3    H2 9934   0.660   0.214   1.748 -0.3865 -0.6043 -0.3145
 3324TIP3   OH2 9935   6.459   5.438   4.163 -0.2853  0.7963  0.2231
 3324TIP3    H1 9936   6.517   5.501   4.205  2.5452 -1.2301 -0.3063
 3324TIP3    H2 9937   6.491   5.433   4.073  1.3959 -3.0461  0.8056
 3325TIP3   OH2 9938   3.240   2.521   1.926 -0.0843  0.1713  0.0865
 3325TIP3    H1 9939   3.215   2.505   1.835 -0.2566  1.1890 -0.0586
 3325TIP3    H2 9940   3.205   2.447   1.975 -0.4838 -0.0915 -0.5959
 3326TIP3   OH2 9941   6.247   3.075   1.910  0.0914 -0.0817 -0.0847
 3326TIP3    H1 9942   6.289   3.089   1.825 -1.1857 -1.2663 -0.9515
 3326TIP3    H2 9943   6.279   2.989   1.939 -0.0019  0.0168  0.3243
 3327TIP3   OH2 9944   5.533   3.316   4.742 -0.7725  0.2906  0.1447
 3327TIP3    H1 9945   5.554   3.385   4.805  0.5671  0.6025 -0.6061
 3327TIP3    H2 9946   5.496   3.363   4.667  1.6466  0.4420 -1.0457
 3328TIP3   OH2 9947   6.501   2.543   4.338  0.1775 -0.1732  0.2223
 3328TIP3    H1 9948   6.542   2.580   4.260  1.8462  1.8026  1.9237
 3328TIP3    H2 9949   6.463   2.619   4.383 -2.8083 -1.5454  0.2584
 3329TIP3   OH2 9950   1.710   5.489   1.618 -0.3781 -0.0472  0.0434
 3329TIP3    H1 9951   1.779   5.555   1.615 -1.7773  1.7037  2.5598
 3329TIP3    H2 9952   1.711   5.458   1.708 -0.6150 -2.6029 -0.7615
 3330TIP3   OH2 9953   7.004   3.420   2.292  0.4357  0.2459  0.7628
 3330TIP3    H1 9954   7.065   3.434   2.219  1.4218  1.6747  1.8052
 3330TIP3    H2 9955   7.060   3.397   2.366 -0.5653 -1.3047  1.0699
 3331TIP3   OH2 9956   2.651   0.380   5.695  0.0384  0.4227 -0.4165
 3331TIP3    H1 9957   2.687   0.465   5.720  1.2741  0.1936 -1.2842
 3331TIP3    H2 9958   2.700   0.356   5.616 -1.5124 -0.2980 -1.2136
 3332TIP3   OH2 9959   6.813   3.789   1.600  0.6032  0.4322 -0.5228
 3332TIP3    H1 9960   6.812   3.808   1.506  0.5341  1.2058 -0.3722
 3332TIP3    H2 9961   6.892   3.737   1.613 -0.5274 -1.6685 -1.3614
 3333TIP3   OH2 9962   1.608   1.885   5.395 -0.3560 -0.4427  0.5799
 3333TIP3    H1 9963   1.562   1.930   5.466 -2.1803 -0.1773 -0.7043
 3333TIP3    H2 9964   1.669   1.827   5.440 -2.0048 -0.8792  2.4085
 3334TIP3   OH2 9965   4.923   6.037   1.238 -0.1401  0.2034  0.0845
 3334TIP3    H1 9966   4.866   6.075   1.171  0.2794  2.7277  1.0373
 3334TIP3    H2 9967   4.945   6.111   1.295  2.4083 -1.1031  0.9521
 3335TIP3   OH2 9968   4.126   2.664   5.095  0.1780  0.1632  0.0363
 3335TIP3    H1 9969   4.140   2.719   5.018 -1.5470  0.0960 -0.3580
 3335TIP3    H2 9970   4.103   2.578   5.059  0.5128 -0.1896  0.6448
 3336TIP3   OH2 9971   6.090   4.679   2.422  0.3490  0.2647  0.7488
 3336TIP3    H1 9972   6.066   4.632   2.502 -1.0946  1.1852  0.8732
 3336TIP3    H2 9973   6.096   4.611   2.355 -3.0382 -0.0382  0.6184
 3337TIP3   OH2 9974   2.619   4.238   2.546 -0.1566  0.2010  0.2320
 3337TIP3    H1 9975   2.529   4.251   2.515 -0.3036  0.0817  0.6051
 3337TIP3    H2 9976   2.611   4.175   2.617  0.1520  0.6179  0.6434
 3338TIP3   OH2 9977   3.377   1.022   0.443 -0.3475  0.4172 -0.3575
 3338TIP3    H1 9978   3.311   0.981   0.499  0.1605  0.2571  0.1307
 3338TIP3    H2 9979   3.421   0.949   0.400 -1.1120  0.5612 -1.4121
 3339TIP3   OH2 9980   3.412   6.349   5.277 -0.5969 -0.5300  0.3704
 3339TIP3    H1 9981   3.371   6.426   5.318 -3.3549 -1.6055 -0.1422
 3339TIP3    H2 9982   3.466   6.385   5.207 -0.6833  1.0065  1.0564
 3340TIP3   OH2 9983   3.806   3.615   0.807  0.0070 -0.8121 -0.0044
 3340TIP3    H1 9984   3.765   3.528   0.803  1.8864 -1.7178 -1.2277
 3340TIP3    H2 9985   3.872   3.607   0.876  0.6376 -0.6055 -0.5633
 3341TIP3   OH2 9986   1.397   2.714   2.683  0.5236  0.1734  0.1219
 3341TIP3    H1 9987   1.309   2.678   2.697  0.4556  0.0329 -0.6224
 3341TIP3    H2 9988   1.385   2.780   2.615  0.4364  2.5029  2.2340
 3342TIP3   OH2 9989   3.411   1.918   1.626  0.1827  0.2539  0.0412
 3342TIP3    H1 9990   3.501   1.950   1.634  0.0381  0.5908  0.3055
 3342TIP3    H2 9991   3.420   1.834   1.581  0.6539  0.1518  0.3246
 3343TIP3   OH2 9992   6.425   4.018   3.810 -0.1769  0.0592 -0.4126
 3343TIP3    H1 9993   6.398   3.971   3.889  1.4744  2.2567  1.6018
 3343TIP3    H2 9994   6.508   3.978   3.785 -0.1274  0.1064 -0.3256
 3344TIP3   OH2 9995   4.824   5.144   2.397  0.1371  0.0496 -0.0206
 3344TIP3    H1 9996   4.905   5.100   2.421  0.3220  0.3102 -0.1632
 3344TIP3    H2 9997   4.852   5.226   2.357 -0.1656 -0.5744 -1.5562
 3345TIP3   OH2 9998   6.893   1.896   1.993  0.4085  0.0499 -0.0780
 3345TIP3    H1 9999   6.803   1.891   2.026 -0.0617  2.2072 -0.8911
 3345TIP3    H210000   6.887   1.870   1.902  1.0398 -1.9872  0.4084
 3346TIP3   OH210001   3.575   2.441   5.037 -0.0971  0.2873  0.3637
 3346TIP3    H110002   3.595   2.396   4.955  1.1030 -0.9036  1.2653
 3346TIP3    H210003   3.643   2.507   5.046 -1.7265  2.2274 -0.8418
 3347TIP3   OH210004   6.811   3.860   3.092 -0.3878 -0.0353  0.0638
 3347TIP3    H110005   6.818   3.941   3.042  0.2533 -0.9411 -1.3881
 3347TIP3    H210006   6.900   3.825   3.095 -0.6799 -0.7893  0.4985
 3348TIP3   OH210007   6.670   0.380   4.320 -0.0178 -0.0112 -0.1925
 3348TIP3    H110008   6.619   0.459   4.338 -0.3493 -0.4554  0.8508
 3348TIP3    H210009   6.756   0.398   4.358 -0.6920 -0.9149  1.8936
 3349TIP3   OH210010   0.317   1.542   3.137  0.1391  0.0198 -0.1415
 3349TIP3    H110011   0.306   1.483   3.213  0.1996 -0.9136 -0.8376
 3349TIP3    H210012   0.240   1.598   3.139 -0.6686 -1.0640 -0.3048
 3350TIP3   OH210013   2.012   4.594   1.080  0.2608  0.3135 -0.0401
 3350TIP3    H110014   1.971   4.574   1.164 -2.1527 -2.0002 -1.6115
 3350TIP3    H210015   1.976   4.679   1.055 -1.3501 -0.3268 -0.0002
 3351TIP3   OH210016   2.967   5.358   2.380 -0.6538  0.0473 -0.6618
 3351TIP3    H110017   2.921   5.317   2.453 -1.2198  0.9651 -0.4884
 3351TIP3    H210018   2.934   5.447   2.378 -0.7526 -0.0058 -2.1464
 3352TIP3   OH210019   6.977   1.939   1.728 -0.0126 -0.2490  0.4109
 3352TIP3    H110020   6.997   2.032   1.742 -1.3103  0.1361 -0.0524
 3352TIP3    H210021   6.914   1.940   1.656  0.7684 -1.5841 -0.3184
 3353TIP3   OH210022   2.086   0.470   4.655 -0.3497 -0.4915 -0.0395
 3353TIP3    H110023   2.114   0.451   4.745  0.5493 -0.4678 -0.3045
 3353TIP3    H210024   2.043   0.556   4.661 -2.5439 -1.5617  0.7893
 3354TIP3   OH210025   6.960   5.767   2.789  0.3318  0.0989 -0.3091
 3354TIP3    H110026   6.903   5.824   2.841  0.8621  0.5018 -0.1666
 3354TIP3    H210027   7.033   5.823   2.763  1.3252 -0.7462  0.5889
 3355TIP3   OH210028   1.626   5.929   2.312  0.5345 -0.0149 -0.7644
 3355TIP3    H110029   1.556   5.975   2.265 -0.5140 -1.2593 -0.4785
 3355TIP3    H210030   1.594   5.921   2.401  0.8419 -1.0117 -0.7361
 3356TIP3   OH210031   3.600   5.205   2.618  0.2041 -0.2499 -0.4628
 3356TIP3    H110032   3.599   5.252   2.701  0.4084 -0.6828 -0.2124
 3356TIP3    H210033   3.508   5.185   2.601 -0.0586  1.3836 -1.2445
 3357TIP3   OH210034   1.245   6.060   4.699  0.1603  0.5790  0.3195
 3357TIP3    H110035   1.210   6.123   4.637 -0.8013 -0.3122 -0.0698
 3357TIP3    H210036   1.246   5.977   4.652  1.7496  0.3422  0.7015
 3358TIP3   OH210037   2.328   4.246   3.175 -0.2906  0.0925 -0.2271
 3358TIP3    H110038   2.357   4.200   3.096 -0.8271 -0.7258  0.0456
 3358TIP3    H210039   2.245   4.205   3.198 -0.2438  0.4641  0.6468
 3359TIP3   OH210040   2.721   5.352   5.651  0.0558 -0.1761 -0.1630
 3359TIP3    H110041   2.702   5.339   5.744  0.1901 -1.0313 -0.2483
 3359TIP3    H210042   2.698   5.443   5.634 -0.6444 -0.2138  0.5446
 3360TIP3   OH210043   0.983   5.155   0.569 -0.1499  0.3158  0.3421
 3360TIP3    H110044   0.901   5.113   0.596  0.2049 -0.5446  0.1191
 3360TIP3    H210045   0.977   5.243   0.604 -1.8554  0.7731 -0.9419
 3361TIP3   OH210046   3.375   3.291   1.597  0.2943 -0.1209  0.3330
 3361TIP3    H110047   3.323   3.246   1.530  0.3491  0.2653  0.0260
 3361TIP3    H210048   3.407   3.221   1.654 -0.3849 -0.3887  0.4033
 3362TIP3   OH210049   0.426   2.850   4.121  0.5223  0.6200  0.0460
 3362TIP3    H110050   0.421   2.901   4.203  1.7235 -1.7604  1.7206
 3362TIP3    H210051   0.421   2.916   4.052  2.3227  3.0908  2.0454
 3363TIP3   OH210052   6.101   5.894   0.525 -0.0743  0.4904  0.0365
 3363TIP3    H110053   6.185   5.855   0.551  0.3825  0.7349 -1.0281
 3363TIP3    H210054   6.125   5.971   0.474 -0.9627  1.2037  0.6683
 3364TIP3   OH210055   4.141   3.362   0.275 -0.1137  0.3986 -0.0741
 3364TIP3    H110056   4.197   3.430   0.313  0.2315  0.6989 -1.1019
 3364TIP3    H210057   4.052   3.393   0.293  0.0349  0.3772  0.7546
 3365TIP3   OH210058   1.367   0.094   4.650 -0.5159  0.2902  0.3412
 3365TIP3    H110059   1.304   0.074   4.581 -0.3434  1.6557 -0.2478
 3365TIP3    H210060   1.452   0.086   4.607 -0.2979 -0.8095  0.9385
 3366TIP3   OH210061   0.112   1.001   3.952 -0.7170  0.1030  0.5018
 3366TIP3    H110062   0.180   1.005   4.019 -0.8671 -3.3081  0.9994
 3366TIP3    H210063   0.031   0.984   4.000 -1.4554  1.1025 -0.3346
 3367TIP3   OH210064   0.897   3.219   5.387 -0.4803 -0.1015 -0.6160
 3367TIP3    H110065   0.961   3.176   5.330  0.6497  0.9078 -0.1431
 3367TIP3    H210066   0.896   3.166   5.466  1.2987  0.9583  0.1728
 3368TIP3   OH210067   2.212   6.198   4.261 -0.7866 -0.3126  0.2024
 3368TIP3    H110068   2.200   6.117   4.212 -0.6195 -0.2283  0.0184
 3368TIP3    H210069   2.164   6.185   4.343 -1.9769 -0.0437 -0.4372
 3369TIP3   OH210070   6.998   5.684   5.344 -0.3200 -0.6099  0.1613
 3369TIP3    H110071   6.954   5.615   5.294 -0.6058 -0.1200 -0.2776
 3369TIP3    H210072   6.982   5.764   5.293  0.3363 -0.2838  0.4583
 3370TIP3   OH210073   1.329   2.211   5.111  0.0600 -0.1505  0.2076
 3370TIP3    H110074   1.238   2.208   5.079  0.4644 -2.8856 -0.9409
 3370TIP3    H210075   1.321   2.234   5.203 -1.6584  1.1722 -0.2071
 3371TIP3   OH210076   6.020   0.985   2.893 -0.5404  0.0101 -0.3394
 3371TIP3    H110077   5.952   1.024   2.837  0.9328  0.4230 -1.9182
 3371TIP3    H210078   6.027   0.895   2.861 -0.2571  0.0073 -0.2654
 3372TIP3   OH210079   0.860   4.925   0.273 -0.3961  0.0657 -0.1324
 3372TIP3    H110080   0.866   5.014   0.309 -1.4150 -0.4253  1.3508
 3372TIP3    H210081   0.915   4.873   0.331 -1.8665 -0.7027  0.6189
 3373TIP3   OH210082   1.185   5.640   3.803 -0.4639  0.0647 -0.2704
 3373TIP3    H110083   1.243   5.712   3.779  0.7360 -0.8292 -0.0798
 3373TIP3    H210084   1.163   5.656   3.895 -3.1993  2.1937 -1.1251
 3374TIP3   OH210085  -0.018   2.357   1.168  0.1395  0.0152  0.1359
 3374TIP3    H110086  -0.008   2.308   1.086  1.0266  0.7858 -0.2399
 3374TIP3    H210087   0.048   2.320   1.227 -1.6811 -1.7768  1.1745
 3375TIP3   OH210088   5.396   3.988   3.899 -0.5499 -0.1020 -0.2171
 3375TIP3    H110089   5.366   3.993   3.990 -1.9401 -2.2438 -0.4570
 3375TIP3    H210090   5.467   3.924   3.901  0.7467  1.2782 -0.4029
 3376TIP3   OH210091   5.426   1.855   3.369 -0.0673 -0.3782  0.0463
 3376TIP3    H110092   5.346   1.892   3.407  0.1583 -0.5469  0.6914
 3376TIP3    H210093   5.475   1.823   3.444  1.2082  0.8869 -0.2110
 3377TIP3   OH210094   5.800   3.732   5.464 -0.2068 -0.4900 -0.1215
 3377TIP3    H110095   5.796   3.820   5.501 -0.5646 -0.8620  0.7653
 3377TIP3    H210096   5.747   3.736   5.385  1.5779  0.6474 -1.3477
 3378TIP3   OH210097   5.657   6.120   2.992 -0.9710 -0.6590  0.1379
 3378TIP3    H110098   5.726   6.186   3.000 -1.5189 -0.1699  0.9297
 3378TIP3    H210099   5.689   6.045   3.041 -1.0159 -0.4106  0.5539
 3379TIP3   OH210100   4.860   4.328   0.808 -0.7867 -0.2994  0.1226
 3379TIP3    H110101   4.907   4.411   0.802 -3.3076  1.2528  0.3294
 3379TIP3    H210102   4.916   4.272   0.862  0.9662  1.2682 -0.0006
 3380TIP3   OH210103   5.862   3.051   4.770  0.2174 -0.6335 -0.4022
 3380TIP3    H110104   5.842   2.958   4.758 -2.4908  0.1809 -3.5644
 3380TIP3    H210105   5.788   3.085   4.820  1.4803 -0.1673  1.2705
 3381TIP3   OH210106   1.178   4.844   0.632 -0.1941 -0.6137  0.5043
 3381TIP3    H110107   1.254   4.867   0.578 -0.3640  1.4468  1.0480
 3381TIP3    H210108   1.186   4.900   0.710 -2.1815 -0.4223  0.6259
 3382TIP3   OH210109   0.950   5.245   2.590  0.6221  0.0343 -0.4514
 3382TIP3    H110110   0.908   5.330   2.582  0.4111 -0.0360 -0.1313
 3382TIP3    H210111   0.881   5.188   2.625  0.5262 -0.4499 -1.4026
 3383TIP3   OH210112   2.380   2.038   2.452  0.5213  0.3631  0.2450
 3383TIP3    H110113   2.349   2.095   2.522 -2.0902 -0.9604  0.2782
 3383TIP3    H210114   2.463   2.076   2.425  0.8041  1.8786  2.9085
 3384TIP3   OH210115   3.390   3.804   3.682  0.6332  0.8194  0.5113
 3384TIP3    H110116   3.458   3.868   3.662  1.7600 -0.9844 -2.0595
 3384TIP3    H210117   3.316   3.829   3.627  0.1957  1.2349  1.2781
 3385TIP3   OH210118   0.461   2.060   0.686  1.0300 -0.0806 -0.2263
 3385TIP3    H110119   0.519   1.996   0.644  0.1931 -1.0793  0.0836
 3385TIP3    H210120   0.518   2.110   0.744  1.4027 -1.8996  1.0641
 3386TIP3   OH210121   6.868   4.402   2.942  0.2742  0.1721  0.3564
 3386TIP3    H110122   6.858   4.497   2.940 -0.0394  0.1891  1.8400
 3386TIP3    H210123   6.951   4.386   2.896  0.4266  1.1685  0.2639
 3387TIP3   OH210124   1.423   0.855   2.190  0.6918 -0.1173  0.5078
 3387TIP3    H110125   1.430   0.761   2.172 -2.1358 -0.4141  0.5444
 3387TIP3    H210126   1.448   0.897   2.108 -0.2088 -0.9977 -0.2469
 3388TIP3   OH210127   0.813   3.913   3.126 -0.1375 -0.9397  0.3346
 3388TIP3    H110128   0.853   3.842   3.176 -0.1927 -2.3877 -1.5962
 3388TIP3    H210129   0.730   3.930   3.171  0.8510 -0.5402  2.0973
 3389TIP3   OH210130   0.478   2.280   1.345 -0.0705 -0.0985 -0.3865
 3389TIP3    H110131   0.471   2.225   1.267  1.4043  1.0388 -1.3835
 3389TIP3    H210132   0.427   2.359   1.322 -1.3833 -0.6070  0.6558
 3390TIP3   OH210133   2.750   6.236   4.583 -0.2256  0.1922 -0.1203
 3390TIP3    H110134   2.846   6.240   4.583 -0.1668 -0.4480  1.5910
 3390TIP3    H210135   2.723   6.319   4.623 -0.1950 -1.1735  2.9847
 3391TIP3   OH210136   0.959   3.763   5.645  0.3082 -0.0449  1.1557
 3391TIP3    H110137   0.916   3.739   5.726  0.7933 -0.5830  1.2622
 3391TIP3    H210138   1.045   3.719   5.649 -0.1857 -1.2375 -0.2463
 3392TIP3   OH210139   2.883   3.450   4.883 -0.3698 -0.5491 -0.4394
 3392TIP3    H110140   2.893   3.397   4.962 -1.9715 -0.9819 -0.4925
 3392TIP3    H210141   2.792   3.438   4.857 -0.3762  1.0873 -1.2987
 3393TIP3   OH210142   4.965   3.986   4.791  0.2792  0.2339 -0.5466
 3393TIP3    H110143   4.927   3.928   4.725  1.5331 -0.9815 -0.2646
 3393TIP3    H210144   4.929   3.954   4.874 -0.2705  0.9076 -0.5216
 3394TIP3   OH210145   5.708   4.262   4.819  0.1696  0.0650  0.4740
 3394TIP3    H110146   5.739   4.274   4.730  1.4321 -0.1957  0.8583
 3394TIP3    H210147   5.705   4.167   4.831 -0.2113  0.0943  0.6400
 3395TIP3   OH210148   6.188   6.094   4.945  0.5114  0.8380  0.5787
 3395TIP3    H110149   6.225   6.029   5.004  2.5786  2.1426  0.8394
 3395TIP3    H210150   6.187   6.052   4.859 -0.6108 -0.3719  1.1591
 3396TIP3   OH210151   3.895   5.193   1.065  0.3361  0.6263 -0.2374
 3396TIP3    H110152   3.926   5.103   1.052 -1.5897 -0.0168 -0.7535
 3396TIP3    H210153   3.897   5.232   0.978 -0.1261  0.6314 -0.2462
 3397TIP3   OH210154   3.010   1.580   3.117 -0.1863 -0.1190 -0.9290
 3397TIP3    H110155   3.004   1.499   3.169  0.1334 -0.1418 -0.9282
 3397TIP3    H210156   3.070   1.635   3.167 -0.1222 -0.0206 -1.1169
 3398TIP3   OH210157   7.035   5.996   1.592  0.8610  0.5611 -0.0804
 3398TIP3    H110158   6.944   6.022   1.582  0.0445 -2.0544 -0.3090
 3398TIP3    H210159   7.051   5.996   1.686 -0.3408 -1.6630  0.1906
 3399TIP3   OH210160   5.479   4.048   4.767  0.1162  0.2520 -0.0821
 3399TIP3    H110161   5.386   4.028   4.760  0.0922  0.8445 -1.8308
 3399TIP3    H210162   5.522   3.986   4.708  0.5024  2.0284 -1.7602
 3400TIP3   OH210163   5.395   4.581   1.038 -0.1373 -0.5591 -0.2912
 3400TIP3    H110164   5.476   4.550   0.999  0.4090 -1.9366  1.7702
 3400TIP3    H210165   5.335   4.506   1.034 -0.8590  0.0220 -0.6122
 3401TIP3   OH210166   4.503   4.176   3.353  0.0025  0.9972  0.5708
 3401TIP3    H110167   4.525   4.098   3.404 -2.1329 -0.1247 -0.0767
 3401TIP3    H210168   4.581   4.193   3.301 -0.0588 -1.8811 -0.6459
 3402TIP3   OH210169   0.916   5.447   2.289 -0.1946  0.3420 -0.3986
 3402TIP3    H110170   0.912   5.352   2.278 -1.0030  0.4821 -1.4790
 3402TIP3    H210171   0.880   5.463   2.376  0.7124 -0.3929  0.1311
 3403TIP3   OH210172   4.682   0.194   0.002  0.3745 -0.0703  0.0324
 3403TIP3    H110173   4.753   0.253  -0.020  0.4835  0.2356  1.1707
 3403TIP3    H210174   4.698   0.169   0.093  1.2956 -3.1976 -0.8400
 3404TIP3   OH210175   2.812   5.012   1.475  0.5770  0.3067 -0.2883
 3404TIP3    H110176   2.876   5.083   1.470 -0.9728  1.8050  0.1056
 3404TIP3    H210177   2.831   4.969   1.558  1.1201  0.6838 -0.2081
 3405TIP3   OH210178   0.829   6.089   3.249 -0.2072 -0.1838 -0.0945
 3405TIP3    H110179   0.830   6.178   3.215 -0.9188 -0.2740 -0.3686
 3405TIP3    H210180   0.919   6.059   3.241  0.0822  0.5812  0.1911
 3406TIP3   OH210181   2.496   1.293   5.245 -0.1980  0.1418 -0.5395
 3406TIP3    H110182   2.564   1.336   5.297  0.2993 -0.2493 -0.8662
 3406TIP3    H210183   2.535   1.280   5.159 -0.8866  0.4351 -0.9151
 3407TIP3   OH210184   4.957   1.340   0.787 -0.4727 -0.5673 -0.0152
 3407TIP3    H110185   4.941   1.247   0.798 -0.7070 -0.4071  1.1352
 3407TIP3    H210186   4.880   1.373   0.742 -1.0994 -0.6830  0.9398
 3408TIP3   OH210187   2.443   3.370   3.226 -0.3958  0.1313 -0.2976
 3408TIP3    H110188   2.534   3.380   3.199 -0.0195  0.0794  0.9273
 3408TIP3    H210189   2.443   3.383   3.320 -1.2011 -2.6319  0.1771
 3409TIP3   OH210190   0.495   6.004   0.367 -0.2901 -0.1120  0.0486
 3409TIP3    H110191   0.587   6.020   0.390 -0.3446  1.2231 -0.5627
 3409TIP3    H210192   0.498   5.957   0.284 -0.1601  0.4049 -0.2418
 3410TIP3   OH210193   6.306   3.232   0.129  0.3388  0.0144 -0.0351
 3410TIP3    H110194   6.269   3.222   0.216  1.8361 -0.9635  0.5425
 3410TIP3    H210195   6.239   3.277   0.078 -1.1986 -0.8220  1.1882
 3411TIP3   OH210196   0.953   5.977   4.065  0.2497 -0.1505 -0.3933
 3411TIP3    H110197   0.914   5.943   3.984 -1.0683  1.1011 -0.3158
 3411TIP3    H210198   0.947   6.072   4.057  0.9739  0.0119  0.7696
 3412TIP3   OH210199   6.301   5.867   0.804 -0.2803  0.2471 -0.2644
 3412TIP3    H110200   6.246   5.933   0.760 -2.4941 -0.4640  1.2490
 3412TIP3    H210201   6.245   5.789   0.809  2.2257 -1.8591 -1.9830
 3413TIP3   OH210202   6.605   0.300   3.823  0.0644  0.1759 -0.2944
 3413TIP3    H110203   6.562   0.220   3.791 -0.3806 -0.2054  1.2188
 3413TIP3    H210204   6.594   0.298   3.918  0.7259  1.6609 -0.1563
 3414TIP3   OH210205   5.217   4.493   2.642  0.5033  0.2259  0.5207
 3414TIP3    H110206   5.239   4.440   2.718  1.9135 -0.2640 -0.1771
 3414TIP3    H210207   5.138   4.453   2.606  1.9141 -1.9535 -0.3989
 3415TIP3   OH210208   1.397   3.194   2.649  0.7080 -0.1163 -0.0629
 3415TIP3    H110209   1.387   3.168   2.557  0.9105 -0.6350  0.0614
 3415TIP3    H210210   1.335   3.267   2.659 -0.0198 -0.6735 -0.3631
 3416TIP3   OH210211   6.790   6.289   5.171  0.3757 -0.2562  0.3013
 3416TIP3    H110212   6.796   6.208   5.121 -2.5949 -1.6210  1.8568
 3416TIP3    H210213   6.779   6.260   5.262  1.3117  1.9848  1.1943
 3417TIP3   OH210214   6.858   2.388   2.982 -0.5399  0.2041  0.0028
 3417TIP3    H110215   6.929   2.445   3.012  0.7777 -0.9003 -0.9000
 3417TIP3    H210216   6.818   2.436   2.910  1.0306 -0.2692 -1.2336
 3418TIP3   OH210217   3.263   2.778   0.734 -0.0604  0.1030  0.2659
 3418TIP3    H110218   3.230   2.829   0.661 -2.5199  1.4564  2.1665
 3418TIP3    H210219   3.341   2.826   0.763  0.6317 -0.1619 -1.0991
 3419TIP3   OH210220   0.513   2.193   4.646 -0.4225  0.1942  0.2286
 3419TIP3    H110221   0.457   2.186   4.568 -0.8977  0.4286  0.5406
 3419TIP3    H210222   0.562   2.111   4.648 -1.3372 -0.3645  0.3868
 3420TIP3   OH210223   1.586   5.812   5.818 -0.3082  0.5320 -0.1448
 3420TIP3    H110224   1.499   5.800   5.856 -0.3655  0.4417 -0.3041
 3420TIP3    H210225   1.571   5.858   5.736 -0.3009 -0.3717 -0.6635
 3421TIP3   OH210226   5.108   3.498   4.951 -0.2999 -0.2553  0.0572
 3421TIP3    H110227   5.147   3.449   4.878  0.6910  0.4376  0.1078
 3421TIP3    H210228   5.016   3.509   4.926  0.1732  0.5843 -1.4343
 3422TIP3   OH210229   2.401   2.523   3.403  0.5535 -0.0420  0.2028
 3422TIP3    H110230   2.406   2.618   3.404  0.2689 -0.0011 -0.8097
 3422TIP3    H210231   2.457   2.496   3.330  1.4473 -0.7259  1.1152
 3423TIP3   OH210232   7.189   5.072   0.736  0.3474  0.1052 -0.4470
 3423TIP3    H110233   7.101   5.086   0.770  0.2122 -1.3036 -0.1689
 3423TIP3    H210234   7.242   5.139   0.779 -0.3802  0.2561  0.2381
 3424TIP3   OH210235   2.775   6.455   5.355 -0.6882 -0.4274  0.3377
 3424TIP3    H110236   2.799   6.491   5.440 -1.3426 -0.8930  0.7241
 3424TIP3    H210237   2.680   6.450   5.357 -0.6292 -2.0543  0.2530
 3425TIP3   OH210238   3.267   1.542   5.222 -0.2003  0.5750  0.2496
 3425TIP3    H110239   3.322   1.601   5.170 -1.6745  0.6901 -1.2563
 3425TIP3    H210240   3.226   1.599   5.288 -0.3269  0.9149 -0.1227
 3426TIP3   OH210241   6.073   2.534   3.530  0.3874 -0.6742  0.2207
 3426TIP3    H110242   5.993   2.516   3.580 -0.7729 -2.6766 -2.1370
 3426TIP3    H210243   6.136   2.468   3.561  0.3046 -0.6953  0.3448
 3427TIP3   OH210244   2.987   6.471   4.094 -0.2773  0.0002  0.3505
 3427TIP3    H110245   2.955   6.436   4.177 -1.2110 -0.1745 -0.0704
 3427TIP3    H210246   3.082   6.464   4.099 -0.1423  2.0806  2.3396
 3428TIP3   OH210247   1.980   3.570   2.560 -0.2510 -0.4451  0.1806
 3428TIP3    H110248   1.903   3.597   2.510  0.1332 -0.2997 -0.3323
 3428TIP3    H210249   1.946   3.509   2.626 -0.8238 -0.2687  0.0486
 3429TIP3   OH210250   1.457   2.270   4.874 -0.1587 -0.0762  0.3455
 3429TIP3    H110251   1.426   2.351   4.834  2.0864  0.0176 -1.3694
 3429TIP3    H210252   1.428   2.276   4.966  1.3331  3.4403  0.7291
 3430TIP3   OH210253   0.086   6.112   3.422  0.2158 -0.6458 -0.4312
 3430TIP3    H110254  -0.009   6.096   3.421  0.2422 -0.8273 -0.1490
 3430TIP3    H210255   0.124   6.027   3.443  0.4379 -0.5495 -0.4445
 3431TIP3   OH210256   5.606   5.465   2.209  0.1063  0.1065 -0.1136
 3431TIP3    H110257   5.530   5.516   2.183 -1.5346 -0.5016  3.0487
 3431TIP3    H210258   5.650   5.520   2.275 -0.5089 -1.5733  1.7890
 3432TIP3   OH210259   6.139   6.693   1.979  0.0527  0.3747  0.4900
 3432TIP3    H110260   6.231   6.698   2.006 -0.2629  2.3523  1.3263
 3432TIP3    H210261   6.138   6.629   1.908  1.9266 -0.3388  1.0591
 3433TIP3   OH210262   2.147   5.710   3.210 -0.2972 -0.4680  0.0763
 3433TIP3    H110263   2.106   5.694   3.125 -1.1127  0.0137  0.3626
 3433TIP3    H210264   2.222   5.766   3.191 -0.7702  0.0610 -0.2820
 3434TIP3   OH210265   1.831   5.535   3.335 -0.3005  0.2010  0.5394
 3434TIP3    H110266   1.905   5.588   3.364 -0.1832  2.9278 -3.9295
 3434TIP3    H210267   1.756   5.571   3.382  0.3324  1.8197  0.3587
 3435TIP3   OH210268   4.905   1.746   4.750  0.1464  0.4710  0.2864
 3435TIP3    H110269   4.837   1.692   4.789 -1.1115  1.1107 -0.9212
 3435TIP3    H210270   4.983   1.729   4.802 -0.0974 -2.7178 -0.2344
 3436TIP3   OH210271   2.857   6.326   2.627 -0.4210  0.2562 -0.1786
 3436TIP3    H110272   2.840   6.278   2.708 -1.7524 -0.5964 -0.9187
 3436TIP3    H210273   2.912   6.267   2.575 -1.6588 -0.3038 -0.8945
 3437TIP3   OH210274   1.974   6.189   4.400 -0.3470 -0.1732 -0.9248
 3437TIP3    H110275   1.923   6.231   4.332 -0.7388 -0.0826 -0.5759
 3437TIP3    H210276   1.922   6.114   4.427 -0.5972  0.2694 -0.1343
 3438TIP3   OH210277   0.076   0.253   1.079 -0.0043  0.3800  0.0519
 3438TIP3    H110278   0.108   0.241   0.990  0.5529  0.8656  0.1826
 3438TIP3    H210279   0.142   0.212   1.134 -0.4377 -0.0830  0.2367
 3439TIP3   OH210280   0.202   1.429   4.096  0.1736  0.3718 -0.4980
 3439TIP3    H110281   0.285   1.400   4.134  0.2779  0.2159 -0.8429
 3439TIP3    H210282   0.161   1.481   4.166  0.4480  0.2476 -0.2398
 3440TIP3   OH210283   3.962   5.347   3.850 -0.4428  0.3529  0.1657
 3440TIP3    H110284   3.960   5.431   3.896 -1.9715 -0.2960  1.3698
 3440TIP3    H210285   3.870   5.323   3.838 -0.0397 -1.1658 -0.1155
 3441TIP3   OH210286   4.586   0.474   2.090  0.3135  0.3582 -0.4232
 3441TIP3    H110287   4.490   0.475   2.096  0.2347 -1.5107 -0.7525
 3441TIP3    H210288   4.614   0.542   2.152 -1.1940 -0.2926  1.0722
 3442TIP3   OH210289   1.291   0.192   2.295 -0.1095 -0.3814 -0.8743
 3442TIP3    H110290   1.364   0.148   2.339 -0.5712 -0.3262 -0.0282
 3442TIP3    H210291   1.299   0.284   2.322  0.2244 -0.1374 -1.7746
 3443TIP3   OH210292   2.725   6.602   1.482 -0.3336  0.2992 -0.0268
 3443TIP3    H110293   2.763   6.567   1.562 -2.1004 -2.3530 -0.1936
 3443TIP3    H210294   2.638   6.631   1.508 -0.8560 -0.4230 -0.9110
 3444TIP3   OH210295   7.003   0.797   4.776  0.1757  0.1552 -0.0389
 3444TIP3    H110296   6.994   0.882   4.732 -0.5982  0.9250  1.5276
 3444TIP3    H210297   6.959   0.735   4.718  1.2966  0.6881 -1.5149
 3445TIP3   OH210298   6.264   2.305   0.493  0.6058  0.2939  0.3892
 3445TIP3    H110299   6.358   2.290   0.483  0.6361  1.3204 -1.0765
 3445TIP3    H210300   6.236   2.342   0.410 -2.0101 -4.0958 -1.0128
 3446TIP3   OH210301   6.871   2.729   1.023 -0.5052  0.1545  0.6275
 3446TIP3    H110302   6.964   2.718   1.038  0.4807  1.8816 -3.0056
 3446TIP3    H210303   6.852   2.818   1.052 -0.8305  0.0645  0.6934
 3447TIP3   OH210304   0.893   5.300   5.326  0.7465 -0.0687  0.2972
 3447TIP3    H110305   0.910   5.394   5.313  2.0956 -0.4357 -0.8948
 3447TIP3    H210306   0.975   5.265   5.360 -0.0842 -0.6639  1.7702
 3448TIP3   OH210307   0.712   4.136   0.153 -0.1516  0.4360  0.1158
 3448TIP3    H110308   0.796   4.137   0.199 -0.3823  0.2081  0.5530
 3448TIP3    H210309   0.675   4.223   0.168 -0.6041  0.0945  1.0906
 3449TIP3   OH210310   0.669   0.645   5.365  0.1292  0.2184 -0.4552
 3449TIP3    H110311   0.660   0.549   5.364  0.2724  0.1869  0.3767
 3449TIP3    H210312   0.618   0.675   5.290 -2.2757 -0.3233  0.8767
 3450TIP3   OH210313   5.324   6.324   5.896  0.5208 -0.0154  0.0812
 3450TIP3    H110314   5.385   6.253   5.875 -0.1738 -0.1088 -1.7429
 3450TIP3    H210315   5.373   6.404   5.876  0.9048  0.0045  1.0490
 3451TIP3   OH210316   6.619   5.173   3.308 -0.8338  0.5651  0.3401
 3451TIP3    H110317   6.578   5.108   3.250  0.3775 -1.7147  1.8833
 3451TIP3    H210318   6.709   5.179   3.277 -0.2398 -0.4986  1.7531
 3452TIP3   OH210319   0.262   1.537   3.401  0.3718 -0.0369 -0.2369
 3452TIP3    H110320   0.239   1.583   3.481 -1.9581 -0.5672 -0.5385
 3452TIP3    H210321   0.315   1.463   3.431 -0.8793 -0.5179  0.9197
 3453TIP3   OH210322   2.679   0.776   1.560 -0.4993  0.3684  0.1418
 3453TIP3    H110323   2.586   0.764   1.581 -0.4366  1.2564  0.9978
 3453TIP3    H210324   2.720   0.797   1.644  0.5650 -0.4613 -0.1482
 3454TIP3   OH210325   3.984   1.148   3.594  0.1576 -0.3079  0.2288
 3454TIP3    H110326   4.038   1.143   3.515 -0.8002  0.6275 -0.5072
 3454TIP3    H210327   3.959   1.240   3.600 -1.1435 -0.6699  0.6917
 3455TIP3   OH210328   1.427   2.516   4.797  0.2735  0.0103  0.3736
 3455TIP3    H110329   1.454   2.580   4.862  0.0268  0.4960  0.0025
 3455TIP3    H210330   1.504   2.505   4.741  0.1239  0.4323  0.0823
 3456TIP3   OH210331   5.147   5.386   1.851  0.1670  0.2768  0.1187
 3456TIP3    H110332   5.106   5.368   1.936 -2.2284 -0.1897 -1.0590
 3456TIP3    H210333   5.133   5.306   1.800  0.4286  1.0039 -1.1322
 3457TIP3   OH210334   2.308   5.469   2.415  0.1895 -0.2927  0.3575
 3457TIP3    H110335   2.305   5.555   2.375 -1.7675 -0.6342 -0.3582
 3457TIP3    H210336   2.400   5.453   2.433  0.8605  0.9269 -1.7510
 3458TIP3   OH210337   3.813   0.149   5.185 -0.3269  0.3046 -0.1503
 3458TIP3    H110338   3.751   0.105   5.127 -0.8663  1.0194 -0.1334
 3458TIP3    H210339   3.840   0.082   5.247 -1.0372 -0.0376 -0.2018
 3459TIP3   OH210340   4.231   0.994   5.075 -0.2853  0.4519  0.2126
 3459TIP3    H110341   4.243   1.069   5.016  2.4095 -0.3313 -0.3869
 3459TIP3    H210342   4.171   0.937   5.029 -1.0812  1.4919 -0.0772
 3460TIP3   OH210343   6.643   0.256   2.991 -0.1977 -0.1095  0.3428
 3460TIP3    H110344   6.573   0.213   3.041  0.6184 -0.3849  1.3010
 3460TIP3    H210345   6.655   0.341   3.034  2.2599 -1.3343  2.4263
 3461TIP3   OH210346   3.887   1.557   0.827 -0.2934 -0.3832 -0.4615
 3461TIP3    H110347   3.835   1.571   0.906  0.4524  3.1091 -0.4311
 3461TIP3    H210348   3.962   1.505   0.855 -0.4124  0.1965  0.9811
 3462TIP3   OH210349   4.967   6.203   5.195 -0.0913  0.2257  0.4542
 3462TIP3    H110350   4.965   6.195   5.100 -0.6836  0.3169  0.4555
 3462TIP3    H210351   4.920   6.284   5.213  0.4608  0.4742  0.7970
 3463TIP3   OH210352   2.121   5.864   1.631  0.1422  0.0640  0.5427
 3463TIP3    H110353   2.096   5.775   1.606  1.5915 -0.1956 -0.0285
 3463TIP3    H210354   2.192   5.887   1.572  0.6951  1.0986  1.5763
 3464TIP3   OH210355   1.728   4.858   0.057  0.0204  0.0966 -0.0293
 3464TIP3    H110356   1.788   4.830   0.126  0.6569 -0.2215 -0.7047
 3464TIP3    H210357   1.780   4.855  -0.023 -1.1292 -1.1182 -0.7766
 3465TIP3   OH210358   2.607   1.946   5.440 -0.0050 -0.6580 -0.4074
 3465TIP3    H110359   2.567   1.967   5.356 -0.9891 -0.0270  0.1965
 3465TIP3    H210360   2.642   2.029   5.471  0.6311 -0.9504 -0.3241
 3466TIP3   OH210361   3.211   5.530   2.541  0.6784  0.5645  0.1850
 3466TIP3    H110362   3.230   5.440   2.565  0.3201  0.0088 -1.4561
 3466TIP3    H210363   3.117   5.540   2.558  0.4384  0.1916 -0.8429
 3467TIP3   OH210364   4.430   3.519   0.133  0.2652  0.5901  0.1741
 3467TIP3    H110365   4.491   3.543   0.063  0.7181 -1.7407 -0.2918
 3467TIP3    H210366   4.343   3.533   0.095  0.5018  0.7596 -0.3149
 3468TIP3   OH210367   1.781   3.798   4.573 -0.1302  0.1102  0.0432
 3468TIP3    H110368   1.844   3.747   4.522  0.0027  0.8808 -0.5925
 3468TIP3    H210369   1.833   3.869   4.611 -0.9907  2.4216 -2.7528
 3469TIP3   OH210370   3.769   4.129   2.202  0.1164 -0.3177 -0.6172
 3469TIP3    H110371   3.738   4.121   2.112 -0.2616 -0.2867 -0.4914
 3469TIP3    H210372   3.691   4.114   2.255 -0.2671  2.3366 -0.3211
 3470TIP3   OH210373   3.211   4.155   4.167  0.0137 -0.1097  0.0220
 3470TIP3    H110374   3.122   4.136   4.135 -0.0337  1.4881 -0.8985
 3470TIP3    H210375   3.217   4.106   4.249 -0.8267 -2.2116 -1.0960
 3471TIP3   OH210376   1.173   0.255   1.019  0.2599  0.3180 -0.2594
 3471TIP3    H110377   1.257   0.210   1.009 -0.3382 -0.5893 -1.4260
 3471TIP3    H210378   1.155   0.294   0.934 -0.9138 -0.2518 -0.3028
 3472TIP3   OH210379   5.804   6.725   5.651 -0.4679  0.2930 -0.1131
 3472TIP3    H110380   5.744   6.656   5.621  0.1377 -0.9128  1.2834
 3472TIP3    H210381   5.796   6.723   5.746  0.4961  1.3160  0.0025
 3473TIP3   OH210382   1.241   5.125   0.685  0.4070 -0.3260 -0.5960
 3473TIP3    H110383   1.168   5.141   0.624  0.2044 -1.2906 -0.6230
 3473TIP3    H210384   1.207   5.152   0.770  0.0639 -0.6496 -0.6297
 3474TIP3   OH210385   1.631   0.187   2.122 -0.0382 -0.1858  0.1410
 3474TIP3    H110386   1.624   0.274   2.160 -2.0924 -1.2880  2.5550
 3474TIP3    H210387   1.610   0.199   2.029  1.0407  2.0163  0.1134
 3475TIP3   OH210388   5.907   5.526   1.989 -0.3540 -0.0482  0.4772
 3475TIP3    H110389   5.972   5.497   2.053  0.3906  0.8587  0.1561
 3475TIP3    H210390   5.959   5.549   1.911 -0.9062  1.9517  0.6459
 3476TIP3   OH210391   0.820   5.104   1.305 -0.2557 -0.2972  0.1115
 3476TIP3    H110392   0.901   5.153   1.292  0.5613 -1.3649  1.0208
 3476TIP3    H210393   0.771   5.117   1.223  1.1200 -0.1604 -0.7276
 3477TIP3   OH210394   3.331   1.921   2.869 -0.3974 -0.3481 -0.4500
 3477TIP3    H110395   3.391   1.956   2.935  0.0187 -0.3432 -0.8259
 3477TIP3    H210396   3.343   1.827   2.873 -2.2918 -0.5764  1.3041
 3478TIP3   OH210397   3.135   4.487   4.517 -0.0090 -0.2653  0.3624
 3478TIP3    H110398   3.097   4.435   4.446  0.7267 -0.3874  0.0488
 3478TIP3    H210399   3.219   4.444   4.536  0.7916  1.0089 -0.1533
 3479TIP3   OH210400   0.726   3.627   2.505  0.3468  0.3123 -0.8062
 3479TIP3    H110401   0.692   3.716   2.515  0.1228  0.2698 -1.1899
 3479TIP3    H210402   0.700   3.600   2.417  0.4461 -0.1199 -0.7082
 3480TIP3   OH210403   1.024   5.073   3.480 -0.5549  0.2396 -0.1183
 3480TIP3    H110404   0.972   5.029   3.547 -0.6622 -1.8086 -1.4628
 3480TIP3    H210405   0.974   5.061   3.399  1.3430 -0.6501 -1.2235
 3481TIP3   OH210406   6.419   3.375   4.729  0.3035  0.0879 -0.0389
 3481TIP3    H110407   6.335   3.392   4.685  1.1978  3.4011 -0.7290
 3481TIP3    H210408   6.431   3.280   4.721 -3.4455 -0.5824  0.3241
 3482TIP3   OH210409   2.156   3.006   4.300  0.5507 -0.5373  0.1581
 3482TIP3    H110410   2.163   3.089   4.253  1.0998 -0.4117  0.4527
 3482TIP3    H210411   2.153   3.030   4.392 -0.0524 -0.8095  0.2120
 3483TIP3   OH210412   1.161   5.445   5.206  0.5028  0.1096 -0.7555
 3483TIP3    H110413   1.109   5.508   5.157 -1.9945  0.0361  1.5117
 3483TIP3    H210414   1.252   5.466   5.185 -0.2564  3.5138 -1.1996
 3484TIP3   OH210415   4.449   2.544   0.374  0.3451  0.5127 -0.6038
 3484TIP3    H110416   4.539   2.572   0.356  0.7576  0.0684  0.6742
 3484TIP3    H210417   4.458   2.456   0.410 -0.4894  0.9155  0.6484
 3485TIP3   OH210418   1.378   1.875   1.163 -0.0377 -0.1274 -0.2547
 3485TIP3    H110419   1.429   1.840   1.236  0.3601  0.1656 -0.3901
 3485TIP3    H210420   1.410   1.965   1.152 -0.5694  0.0560 -0.3515
 3486TIP3   OH210421   0.740   1.726   1.633  0.3149  0.6734  0.6043
 3486TIP3    H110422   0.710   1.649   1.585 -0.0196 -0.2173  2.2021
 3486TIP3    H210423   0.735   1.797   1.569  1.3009 -0.7247 -1.1188
 3487TIP3   OH210424   1.549   5.525   3.090  0.7865  0.0751 -0.0913
 3487TIP3    H110425   1.570   5.474   3.168  0.0697  0.3410  0.2887
 3487TIP3    H210426   1.528   5.459   3.023  0.3937 -0.1463  0.2451
 3488TIP3   OH210427   3.760   5.958   1.425 -0.0957 -0.2674 -0.7316
 3488TIP3    H110428   3.769   6.034   1.367  0.7750 -0.9863 -1.5821
 3488TIP3    H210429   3.789   5.884   1.372 -1.1514 -1.2480  0.0010
 3489TIP3   OH210430   3.801   6.122   4.790  0.1449  0.4109 -0.1394
 3489TIP3    H110431   3.895   6.106   4.800  0.0856  1.5119  3.0377
 3489TIP3    H210432   3.764   6.035   4.775  1.4422 -0.3576  0.8983
 3490TIP3   OH210433   5.485   4.685   3.891  0.0956  0.4371  0.6894
 3490TIP3    H110434   5.432   4.614   3.928  1.4138 -0.3123  1.1927
 3490TIP3    H210435   5.513   4.653   3.806 -0.2836  0.8639  0.3939
 3491TIP3   OH210436   1.292   2.997   1.399 -0.6912  0.2390 -0.0410
 3491TIP3    H110437   1.277   3.053   1.323  1.4511 -0.5130 -1.0818
 3491TIP3    H210438   1.295   2.908   1.362  0.9076 -0.0839  0.8267
 3492TIP3   OH210439   6.727   1.803   2.389 -0.3500  0.1825 -0.5252
 3492TIP3    H110440   6.679   1.819   2.470 -1.0791  0.1400 -0.9388
 3492TIP3    H210441   6.774   1.722   2.405  1.2902  1.3234  0.6439
 3493TIP3   OH210442   1.217   6.347   1.093 -0.8637 -0.7888  0.7732
 3493TIP3    H110443   1.208   6.434   1.056 -0.3401 -1.3171 -0.6630
 3493TIP3    H210444   1.227   6.362   1.187  1.6869  0.8766  0.3217
 3494TIP3   OH210445   6.200   6.049   2.549 -0.6484  0.2865 -0.1225
 3494TIP3    H110446   6.237   6.051   2.460 -2.0470 -0.6224 -0.7622
 3494TIP3    H210447   6.123   6.105   2.544 -1.7270 -1.1274  0.0132
 3495TIP3   OH210448   2.513   4.286   3.385  0.0112 -0.2670  0.2921
 3495TIP3    H110449   2.591   4.318   3.339  0.3781 -0.0674  1.0331
 3495TIP3    H210450   2.455   4.256   3.315  0.2573  0.6862 -0.3466
 3496TIP3   OH210451   3.293   0.791   0.542 -0.4937 -0.8899  0.0967
 3496TIP3    H110452   3.341   0.725   0.491 -0.9224 -0.4969 -0.8477
 3496TIP3    H210453   3.305   0.764   0.633  1.1730 -1.0330 -0.1293
 3497TIP3   OH210454   1.186   2.137   5.583 -0.2337 -0.0830  0.3004
 3497TIP3    H110455   1.192   2.190   5.662  0.3086  0.3976 -0.0558
 3497TIP3    H210456   1.110   2.080   5.598 -0.5557  0.4870  0.8685
 3498TIP3   OH210457   6.999   2.699   3.478  0.3896 -0.2548  0.8331
 3498TIP3    H110458   6.983   2.784   3.518  2.1137  0.3740  0.2638
 3498TIP3    H210459   6.913   2.669   3.450 -0.3003  1.0933  1.4233
 3499TIP3   OH210460   2.207   5.349   2.066  0.5467  0.3257  0.1743
 3499TIP3    H110461   2.183   5.326   2.156  2.3560  0.5257  0.7606
 3499TIP3    H210462   2.217   5.265   2.022  2.0085  0.0966  0.8643
 3500TIP3   OH210463   4.287   3.182   1.788  0.0128  0.0852 -0.0264
 3500TIP3    H110464   4.299   3.264   1.835 -0.0389  0.4506 -0.6434
 3500TIP3    H210465   4.293   3.205   1.695  0.0177 -0.6074 -0.2106
 3501TIP3   OH210466   2.021   5.958   0.698 -0.3507 -0.1897 -0.2017
 3501TIP3    H110467   2.092   6.009   0.737  0.0475 -0.6280 -0.3406
 3501TIP3    H210468   1.964   6.023   0.658  0.3392  0.1401 -0.6859
 3502TIP3   OH210469   0.524   2.255   0.302  0.5819  0.1497  0.5040
 3502TIP3    H110470   0.451   2.208   0.263  2.7497 -3.1900  0.0728
 3502TIP3    H210471   0.500   2.264   0.394 -1.5295  1.7466 -0.1329
 3503TIP3   OH210472   3.202   4.754   2.446 -0.8695 -0.1097  0.0597
 3503TIP3    H110473   3.166   4.814   2.380 -0.4706  0.4482  0.3422
 3503TIP3    H210474   3.201   4.804   2.527  0.6771 -0.0097  0.0473
 3504TIP3   OH210475   3.514   5.010   3.908  0.0559  0.3966 -0.1303
 3504TIP3    H110476   3.464   5.091   3.919 -1.2395 -0.6109  1.9509
 3504TIP3    H210477   3.588   5.019   3.968  0.6452  0.5746 -0.8757
 3505TIP3   OH210478   1.241   5.302   3.460 -0.7563  0.0183  0.1023
 3505TIP3    H110479   1.151   5.335   3.462 -1.4069 -1.7090  1.7118
 3505TIP3    H210480   1.244   5.246   3.382 -1.4894 -0.9636  0.7657
 3506TIP3   OH210481   3.777   2.011   2.147  0.2828 -0.3023 -0.0576
 3506TIP3    H110482   3.859   2.026   2.194  0.2605 -0.0034 -0.1154
 3506TIP3    H210483   3.797   2.031   2.056 -0.2755  1.3558  0.1603
 3507TIP3   OH210484   0.943   5.910   3.506  0.1099 -0.0406 -0.4706
 3507TIP3    H110485   0.966   6.000   3.481 -1.3020  0.5359  0.1629
 3507TIP3    H210486   0.923   5.866   3.423 -1.2718  0.8720 -0.6576
 3508TIP3   OH210487   4.150   4.092   2.925  0.5934 -0.2069  0.1523
 3508TIP3    H110488   4.137   4.154   2.997  0.1293 -0.5216  0.3418
 3508TIP3    H210489   4.079   4.029   2.934 -0.3608  0.5635 -1.4703
 3509TIP3   OH210490   4.348   6.397   5.667 -0.0453  0.4587 -0.0704
 3509TIP3    H110491   4.443   6.394   5.656  0.0389  0.1280  0.6519
 3509TIP3    H210492   4.313   6.393   5.578  0.6122  0.3885 -0.3325
 3510TIP3   OH210493   6.030   0.854   1.803  0.0240 -0.1789 -0.0366
 3510TIP3    H110494   5.961   0.872   1.867 -0.8447  0.0517 -1.0073
 3510TIP3    H210495   5.983   0.834   1.722  1.0726  2.5482 -1.4562
 3511TIP3   OH210496   6.806   6.064   4.302 -0.2262  0.2767 -0.1703
 3511TIP3    H110497   6.832   5.978   4.335 -1.6602 -1.2080 -2.6178
 3511TIP3    H210498   6.717   6.077   4.335 -0.0907  0.7251  0.0235
 3512TIP3   OH210499   4.081   6.581   1.377  0.2282 -0.5735 -0.1209
 3512TIP3    H110500   4.166   6.623   1.395  0.3062 -0.8729  0.2110
 3512TIP3    H210501   4.017   6.640   1.417 -0.0033  1.2690 -2.9063
 3513TIP3   OH210502   4.222   1.236   1.930 -0.4361 -0.2357 -0.1113
 3513TIP3    H110503   4.212   1.143   1.950  1.4175 -0.4955 -0.2341
 3513TIP3    H210504   4.265   1.273   2.007 -1.1043  0.5222 -0.0868
 3514TIP3   OH210505   5.246   0.260   0.717  0.1631 -0.7685  0.1745
 3514TIP3    H110506   5.300   0.299   0.785  0.5241  0.4919 -0.7827
 3514TIP3    H210507   5.158   0.256   0.755  0.4884 -0.7250  0.9449
 3515TIP3   OH210508   3.572   4.120   2.701 -0.0681  0.3126 -0.3849
 3515TIP3    H110509   3.503   4.056   2.717  0.0720 -0.2008 -1.6989
 3515TIP3    H210510   3.647   4.068   2.672  0.8498  0.8747  0.8652
 3516TIP3   OH210511   5.915   0.321   0.741 -0.1243 -0.0886 -0.3460
 3516TIP3    H110512   5.841   0.275   0.781 -0.3868  0.9771  0.4238
 3516TIP3    H210513   5.985   0.315   0.805 -0.0257  0.1998 -0.4249
 3517TIP3   OH210514   6.698   4.503   2.201  0.4461 -0.2190  0.1173
 3517TIP3    H110515   6.698   4.561   2.277  1.0732 -0.2650  0.1617
 3517TIP3    H210516   6.785   4.462   2.203 -0.3439 -1.9715  0.7090
 3518TIP3   OH210517   1.614   3.168   4.765  0.3682 -0.9145  0.4705
 3518TIP3    H110518   1.532   3.199   4.726 -0.8171 -1.5732  2.2622
 3518TIP3    H210519   1.613   3.074   4.752  1.8372 -0.7587 -1.1621
 3519TIP3   OH210520   6.741   1.842   3.745 -0.5493  0.1060  0.4092
 3519TIP3    H110521   6.763   1.820   3.836 -0.9314 -1.3643  0.1567
 3519TIP3    H210522   6.722   1.758   3.703  0.3338  0.6855 -1.2354
 3520TIP3   OH210523   6.113   6.313   0.345 -0.0781  0.6905  0.0321
 3520TIP3    H110524   6.172   6.279   0.277  2.1009  1.9804  1.1831
 3520TIP3    H210525   6.139   6.267   0.425 -1.6210  0.2737  0.3339
 3521TIP3   OH210526   2.944   0.194   4.923  0.4682 -0.2333  0.3216
 3521TIP3    H110527   2.913   0.119   4.872  0.9114 -0.4204  0.3299
 3521TIP3    H210528   3.037   0.200   4.903  0.3048  0.7405 -0.2350
 3522TIP3   OH210529   0.245   3.889   4.552  0.3885  0.3320  0.0739
 3522TIP3    H110530   0.239   3.940   4.633  1.1593 -0.0393  0.3774
 3522TIP3    H210531   0.193   3.811   4.569  0.0716  0.5258 -0.0039
 3523TIP3   OH210532   6.463   4.558   4.433 -0.2547  0.4224  0.3254
 3523TIP3    H110533   6.399   4.536   4.500 -0.0087  1.3590  0.8906
 3523TIP3    H210534   6.432   4.640   4.395  1.9782  2.5185  2.5801
 3524TIP3   OH210535   0.163   4.434  -0.015  0.4069  0.0140 -0.5234
 3524TIP3    H110536   0.194   4.468   0.069  2.3184  0.4893 -1.3664
 3524TIP3    H210537   0.215   4.355  -0.031 -2.0758 -1.8958  0.1132
 3525TIP3   OH210538   2.724   2.617   1.170  0.0923  0.3227 -0.1651
 3525TIP3    H110539   2.808   2.645   1.134  0.0667  0.3984 -0.1658
 3525TIP3    H210540   2.739   2.610   1.265  0.3025 -0.3739 -0.2449
 3526TIP3   OH210541   3.519   5.530   4.719 -0.1320 -0.0349 -0.2377
 3526TIP3    H110542   3.598   5.489   4.755 -1.1390 -0.6045  1.4628
 3526TIP3    H210543   3.469   5.556   4.797 -1.3782  0.8016 -1.2843
 3527TIP3   OH210544   1.014   2.285   0.085 -0.3942 -0.0146 -0.4686
 3527TIP3    H110545   0.949   2.350   0.059  1.3253  1.5936 -0.9969
 3527TIP3    H210546   0.966   2.222   0.138 -2.4729  0.7749 -1.3184
 3528TIP3   OH210547   7.192   5.325   2.399  0.6975 -0.3130 -0.0845
 3528TIP3    H110548   7.178   5.400   2.457 -0.1122  0.4221 -1.1950
 3528TIP3    H210549   7.189   5.362   2.311 -0.0427 -1.6933 -0.6715
 3529TIP3   OH210550   3.971   2.271   1.407 -0.0830  0.1675  0.3032
 3529TIP3    H110551   3.899   2.320   1.445 -0.6609  0.5181 -1.1550
 3529TIP3    H210552   4.005   2.329   1.338  0.1528 -0.8710 -0.4859
 3530TIP3   OH210553   0.121   3.618   4.578  0.4180 -0.3395 -0.1616
 3530TIP3    H110554   0.095   3.665   4.658 -0.6385  2.2547 -1.9069
 3530TIP3    H210555   0.069   3.538   4.579 -0.9563  0.5221  0.8651
 3531TIP3   OH210556   5.231   3.558   1.225  0.8389  0.1960 -0.3455
 3531TIP3    H110557   5.289   3.493   1.184 -1.1786 -1.6009 -0.5677
 3531TIP3    H210558   5.284   3.596   1.295  2.0975 -1.8657 -0.0710
 3532TIP3   OH210559   2.203   5.853   0.496 -0.5290 -0.3664 -0.2697
 3532TIP3    H110560   2.141   5.885   0.561  0.7746  0.5360  0.5690
 3532TIP3    H210561   2.278   5.823   0.547  1.3954  2.2429 -1.3716
 3533TIP3   OH210562   6.000   3.253   2.836 -0.2495  0.1701 -0.2334
 3533TIP3    H110563   6.006   3.323   2.771 -0.3215 -0.5784 -1.0677
 3533TIP3    H210564   6.006   3.298   2.921  3.1327  0.8882 -0.7292
 3534TIP3   OH210565   5.295   1.947   2.352  0.7928  0.3479  0.1893
 3534TIP3    H110566   5.311   1.944   2.258  0.7701 -0.9348  0.2024
 3534TIP3    H210567   5.281   1.855   2.377  0.0120  0.7412  1.3082
 3535TIP3   OH210568   4.476   6.259   4.058 -0.3796  0.1750  0.4343
 3535TIP3    H110569   4.421   6.256   3.980  0.8323  1.0112 -0.4926
 3535TIP3    H210570   4.415   6.275   4.130 -1.4060  0.5503 -0.4908
 3536TIP3   OH210571   5.569   1.824   0.285 -0.2833  0.4610  0.1822
 3536TIP3    H110572   5.631   1.751   0.288 -0.0177  0.7025  0.6803
 3536TIP3    H210573   5.487   1.784   0.258  0.2161  0.2307 -1.0344
 3537TIP3   OH210574   6.518   5.883   5.597 -0.4128  0.0628 -0.3484
 3537TIP3    H110575   6.461   5.949   5.637  2.5038  3.0932 -0.6959
 3537TIP3    H210576   6.549   5.830   5.670 -0.0050  1.4902  0.5570
 3538TIP3   OH210577   3.853   3.301   3.594 -0.3762  0.0530  0.4225
 3538TIP3    H110578   3.804   3.221   3.576 -0.8767  0.4154  0.1465
 3538TIP3    H210579   3.792   3.355   3.645 -0.2620  0.5039  0.0855
 3539TIP3   OH210580   0.500   3.974   1.601 -0.9477 -0.3034 -0.0395
 3539TIP3    H110581   0.559   4.045   1.626 -1.5536  0.0452  0.4408
 3539TIP3    H210582   0.545   3.895   1.629  0.3093 -0.2238 -1.7113
 3540TIP3   OH210583   6.127   0.453   0.259  0.4893  0.0461 -0.1696
 3540TIP3    H110584   6.045   0.501   0.263  0.7266  0.4396  0.0691
 3540TIP3    H210585   6.101   0.362   0.245  0.0389  0.2427 -0.6366
 3541TIP3   OH210586   6.004   6.230   4.713  0.2790 -0.8287 -0.2388
 3541TIP3    H110587   5.915   6.219   4.680 -0.0087  0.9117 -0.1473
 3541TIP3    H210588   6.059   6.184   4.650 -0.4522  0.5178 -1.9699
 3542TIP3   OH210589   3.596   4.436   1.120  0.5927 -0.8822 -0.2258
 3542TIP3    H110590   3.526   4.476   1.068 -0.1760 -0.0153  1.3976
 3542TIP3    H210591   3.588   4.342   1.103 -0.4163 -0.7159 -0.7404
 3543TIP3   OH210592   6.575   2.764   1.161  0.3501  0.3094 -0.5166
 3543TIP3    H110593   6.609   2.841   1.116  3.0659  1.0187  2.3553
 3543TIP3    H210594   6.603   2.775   1.252 -0.4346 -3.3738  0.3468
 3544TIP3   OH210595   0.819   0.806   0.825  0.1833  0.2538 -0.3351
 3544TIP3    H110596   0.904   0.844   0.848  0.1944 -0.1342  0.2913
 3544TIP3    H210597   0.840   0.718   0.794 -0.0194  0.0403  0.1337
 3545TIP3   OH210598   5.331   2.507   2.608 -0.4843 -0.2452  0.2299
 3545TIP3    H110599   5.389   2.578   2.636 -1.5480  0.8449 -0.2592
 3545TIP3    H210600   5.384   2.456   2.547  0.0467  0.6137 -0.0453
 3546TIP3   OH210601   7.192   2.243   0.910 -0.0447  0.3965  0.1218
 3546TIP3    H110602   7.105   2.282   0.896 -0.1571 -0.0289 -0.4049
 3546TIP3    H210603   7.235   2.252   0.825  0.0137 -0.4144  0.0653
 3547TIP3   OH210604   1.291   4.105   2.310  0.3577  0.4363  0.3496
 3547TIP3    H110605   1.385   4.121   2.320 -0.1387  3.2616  1.2024
 3547TIP3    H210606   1.256   4.187   2.276 -1.6629 -1.0154 -1.3295
 3548TIP3   OH210607   4.929   1.126   1.743 -0.5959  0.0839 -0.0976
 3548TIP3    H110608   4.833   1.133   1.741 -0.5494  1.0806  0.4712
 3548TIP3    H210609   4.948   1.045   1.697 -1.8032 -0.9341  1.1187
 3549TIP3   OH210610   3.690   1.586   3.132 -0.2352 -0.3210 -0.4956
 3549TIP3    H110611   3.670   1.500   3.095  0.8999 -0.9135  0.1927
 3549TIP3    H210612   3.685   1.572   3.227  0.4215  0.2563 -0.3720
 3550TIP3   OH210613   7.180   1.587   0.905  0.5637 -0.1486 -0.2201
 3550TIP3    H110614   7.095   1.560   0.872  1.1144  0.3722 -2.2085
 3550TIP3    H210615   7.202   1.665   0.854  1.3120  0.9957  1.7349
 3551TIP3   OH210616   5.619   1.524   3.298  0.3868  0.5816 -0.0600
 3551TIP3    H110617   5.705   1.551   3.330  0.6956  0.5599 -0.8462
 3551TIP3    H210618   5.557   1.567   3.356  0.9306  0.5067  0.5851
 3552TIP3   OH210619   2.900   0.919   1.425  0.3285 -0.3764  0.5699
 3552TIP3    H110620   2.973   0.887   1.477  0.8894 -2.1566 -1.1868
 3552TIP3    H210621   2.824   0.870   1.458  0.6566 -1.3981 -0.1476
 3553TIP3   OH210622   2.655   6.654   1.940  0.6416 -0.6108 -0.1320
 3553TIP3    H110623   2.714   6.663   2.015  0.8753 -1.5834 -0.1819
 3553TIP3    H210624   2.634   6.744   1.915  0.8095 -0.2639  0.9020
 3554TIP3   OH210625   5.976   0.475   4.872  0.0483 -0.1206  0.4226
 3554TIP3    H110626   6.059   0.445   4.836  0.4803  0.8396  0.5846
 3554TIP3    H210627   5.999   0.516   4.955 -0.8615 -1.7896  1.5543
 3555TIP3   OH210628   0.847   4.237   1.872 -0.4385  0.1737  0.0357
 3555TIP3    H110629   0.851   4.157   1.820 -1.4559 -2.4535  3.6013
 3555TIP3    H210630   0.938   4.265   1.881  0.1483 -1.6265  0.0809
 3556TIP3   OH210631   4.050   0.394   1.922  0.3623 -0.6599  0.2186
 3556TIP3    H110632   4.046   0.455   1.848 -0.9937 -1.8009 -0.7000
 3556TIP3    H210633   3.960   0.391   1.954  0.6178 -1.4473  0.8711
 3557TIP3   OH210634   2.947   4.522   2.206 -0.0771 -0.5245 -0.1411
 3557TIP3    H110635   3.035   4.543   2.173  0.2087  0.0756  0.9669
 3557TIP3    H210636   2.939   4.571   2.287 -1.9095  0.3828 -0.8144
 3558TIP3   OH210637   1.017   4.782   0.439  0.3042  0.1402 -0.3216
 3558TIP3    H110638   1.068   4.796   0.518 -0.4437 -1.0801  0.4009
 3558TIP3    H210639   1.061   4.710   0.394 -0.1607 -0.2116 -0.2229
 3559TIP3   OH210640   3.202   4.376   5.381  0.1422  0.4112 -0.6262
 3559TIP3    H110641   3.148   4.317   5.329  0.9111 -1.9409  1.1031
 3559TIP3    H210642   3.139   4.425   5.435 -0.4197 -1.2095  0.2668
 3560TIP3   OH210643   5.633   2.972   5.647 -0.6653 -0.1727 -0.1198
 3560TIP3    H110644   5.695   2.901   5.666 -1.0402 -0.5959 -0.4633
 3560TIP3    H210645   5.628   3.021   5.729  0.7730  0.3691 -0.3239
 3561TIP3   OH210646   3.236   2.101   2.600  0.4944  0.6862 -0.5978
 3561TIP3    H110647   3.312   2.140   2.558  1.0415  0.2238 -0.0628
 3561TIP3    H210648   3.272   2.051   2.674 -0.3853  0.9917  0.0562
 3562TIP3   OH210649   4.991   2.943   4.370 -0.2253  0.6943 -0.2381
 3562TIP3    H110650   4.945   3.019   4.333 -0.7462  1.8070  2.4763
 3562TIP3    H210651   5.020   2.893   4.294  0.0713  3.5661 -2.1538
 3563TIP3   OH210652   4.380   5.132   4.944  0.1811  0.0435  0.6139
 3563TIP3    H110653   4.371   5.043   4.910  2.2327  0.2318 -0.5721
 3563TIP3    H210654   4.433   5.177   4.880  0.8548  1.5810  2.1712
 3564TIP3   OH210655   4.959   6.013   0.306 -0.0458 -0.5568  0.3315
 3564TIP3    H110656   5.029   6.047   0.250  1.6897 -0.2798  2.5332
 3564TIP3    H210657   4.950   5.921   0.280 -0.8878  0.0845 -1.8735
 3565TIP3   OH210658   2.653   0.779   0.342 -0.2015  0.2369 -0.0607
 3565TIP3    H110659   2.661   0.833   0.420  0.0614 -0.2986  0.2871
 3565TIP3    H210660   2.600   0.704   0.369 -2.1238  1.1773 -1.0006
 3566TIP3   OH210661   5.751   2.427   1.353  0.0115 -0.0409  0.6890
 3566TIP3    H110662   5.840   2.405   1.323 -0.1707  1.1930 -0.9141
 3566TIP3    H210663   5.694   2.391   1.285 -0.6504  0.1720  1.1269
 3567TIP3   OH210664   2.614   4.908   0.106  0.2881 -0.2981 -0.7069
 3567TIP3    H110665   2.554   4.893   0.033 -0.2217  0.2803 -0.4169
 3567TIP3    H210666   2.570   4.973   0.160  2.1010  1.7947 -1.5821
 3568TIP3   OH210667   1.666   1.409   3.545  0.0829 -0.6487  0.4825
 3568TIP3    H110668   1.695   1.488   3.499 -1.6942 -0.4173 -0.3139
 3568TIP3    H210669   1.697   1.337   3.490 -1.5080 -0.3886 -0.8269
 3569TIP3   OH210670   3.209   2.532   5.736 -0.3264  0.1841 -0.0323
 3569TIP3    H110671   3.249   2.456   5.693  1.0651  0.0781  1.3672
 3569TIP3    H210672   3.266   2.605   5.712 -1.0165  0.5932 -0.4485
 3570TIP3   OH210673   1.525   6.057   3.439 -1.0415  0.2542 -0.1993
 3570TIP3    H110674   1.592   6.076   3.373  0.5073 -0.6425  1.0374
 3570TIP3    H210675   1.557   6.100   3.518 -0.5982 -2.2084  1.0586
 3571TIP3   OH210676   2.609   5.243   5.420  0.0927  0.0082 -0.1298
 3571TIP3    H110677   2.653   5.284   5.494 -0.7609  0.2329  0.2587
 3571TIP3    H210678   2.530   5.203   5.457 -1.2450  1.5641 -1.1378
 3572TIP3   OH210679   4.459   0.406   1.307  0.1192 -0.9190 -0.3794
 3572TIP3    H110680   4.438   0.361   1.226  0.5970 -0.5225 -0.7257
 3572TIP3    H210681   4.384   0.389   1.364 -0.6768 -0.3612 -1.2475
 3573TIP3   OH210682   6.408   2.184   0.799 -0.4894  0.3507 -0.0511
 3573TIP3    H110683   6.350   2.124   0.752  0.3405 -1.2965  0.9172
 3573TIP3    H210684   6.415   2.261   0.742  0.3807 -1.4705 -2.5792
 3574TIP3   OH210685   3.564   3.024  -0.012  0.0665  0.0198  0.2556
 3574TIP3    H110686   3.631   3.085   0.016  0.4207  0.4135 -1.3243
 3574TIP3    H210687   3.600   2.937   0.007 -0.0661  0.2680  1.6993
 3575TIP3   OH210688   0.711   5.516   4.867  0.6815 -0.0948 -0.1051
 3575TIP3    H110689   0.678   5.591   4.819  2.5709  0.0124 -1.3742
 3575TIP3    H210690   0.796   5.545   4.901  0.6116 -1.0698  0.9573
 3576TIP3   OH210691   1.129   0.829   0.811  0.0420  0.3148 -0.1002
 3576TIP3    H110692   1.207   0.858   0.859 -1.1544  0.8110  1.6475
 3576TIP3    H210693   1.157   0.748   0.768  0.9526 -0.8095  2.3713
 3577TIP3   OH210694   1.387   4.720   2.902  0.3328 -0.3231  0.2567
 3577TIP3    H110695   1.316   4.663   2.931 -0.5937  0.7254  0.1295
 3577TIP3    H210696   1.391   4.708   2.807  1.2742 -1.4139  0.4130
 3578TIP3   OH210697   3.246   5.925   3.342  0.3833 -0.3926  0.6325
 3578TIP3    H110698   3.174   5.899   3.400 -0.8200  2.6349  0.6779
 3578TIP3    H210699   3.244   5.861   3.271 -0.4069 -2.0999  2.1258
 3579TIP3   OH210700   1.908   3.952   3.532 -0.0175 -0.1442 -0.1258
 3579TIP3    H110701   1.838   4.016   3.545 -0.1417 -0.4964  1.0793
 3579TIP3    H210702   1.989   4.003   3.542 -0.0909  0.1256 -0.8193
 3580TIP3   OH210703   2.481   6.244   5.709 -0.3322 -0.1327  1.0031
 3580TIP3    H110704   2.398   6.199   5.725  0.7933 -3.4690 -1.4312
 3580TIP3    H210705   2.546   6.192   5.756  0.6808  1.0745  1.0022
 3581TIP3   OH210706   3.369   6.625   1.123  0.2662  0.0767  0.5616
 3581TIP3    H110707   3.394   6.600   1.211  0.8163 -0.2112  0.3279
 3581TIP3    H210708   3.422   6.570   1.066  0.1540  0.4870  0.0485
 3582TIP3   OH210709   2.024   2.252   4.953 -0.5248 -0.4964  0.2205
 3582TIP3    H110710   1.967   2.326   4.932 -0.2283 -0.4494 -0.4704
 3582TIP3    H210711   2.108   2.275   4.912 -0.5673 -1.4224 -0.4235
 3583TIP3   OH210712   1.509   4.730   5.755 -0.3573  0.4327 -0.4817
 3583TIP3    H110713   1.453   4.764   5.685  0.0142  0.2036 -0.8952
 3583TIP3    H210714   1.590   4.780   5.747  1.8568 -3.1065 -3.7384
 3584TIP3   OH210715   7.202   5.414   5.682  0.0636  0.0441 -0.0936
 3584TIP3    H110716   7.137   5.465   5.633 -0.7838  0.7377  1.6525
 3584TIP3    H210717   7.277   5.408   5.623 -0.6017  1.5272 -1.1668
 3585TIP3   OH210718   3.025   0.561   0.025 -0.0137  0.3015  0.1711
 3585TIP3    H110719   3.015   0.565  -0.071 -0.5079  0.5611  0.2254
 3585TIP3    H210720   2.948   0.513   0.054 -0.1761  0.7449  0.4837
 3586TIP3   OH210721   5.768   2.785   4.977  0.1267  0.3494 -0.3083
 3586TIP3    H110722   5.718   2.817   4.902  0.6550 -1.3562 -1.4556
 3586TIP3    H210723   5.708   2.729   5.025  0.4834 -0.5470 -0.8800
 3587TIP3   OH210724   3.599   3.970   5.721 -0.6792  0.4546  0.7362
 3587TIP3    H110725   3.525   3.911   5.711 -0.4463  0.4323 -1.1160
 3587TIP3    H210726   3.672   3.913   5.746 -1.0600  0.3509  1.6335
 3588TIP3   OH210727   3.382   6.118   1.379 -0.1159 -0.0620  0.2042
 3588TIP3    H110728   3.415   6.092   1.465 -0.9176  0.2150  0.6069
 3588TIP3    H210729   3.439   6.073   1.316  1.1714  0.5942  0.8662
 3589TIP3   OH210730   6.225   5.279   3.972  0.1802 -0.1770 -0.2751
 3589TIP3    H110731   6.307   5.261   3.926  0.9575  1.0010  0.5909
 3589TIP3    H210732   6.169   5.320   3.906  2.0973  3.6934  0.2004
 3590TIP3   OH210733   5.815   5.030   2.398 -0.0264  0.0914  0.0504
 3590TIP3    H110734   5.790   4.967   2.466 -1.3822  0.2490 -0.2670
 3590TIP3    H210735   5.732   5.066   2.367  0.6858  1.5827 -0.2229
 3591TIP3   OH210736   2.665   1.605   0.265  0.3174  0.3785  0.6832
 3591TIP3    H110737   2.610   1.683   0.268  1.6081  1.4090 -0.8610
 3591TIP3    H210738   2.641   1.562   0.183 -0.0756 -0.6745  1.3146
 3592TIP3   OH210739   3.292   3.006   0.266  0.6702 -0.1995 -0.2861
 3592TIP3    H110740   3.292   3.050   0.181  0.5909  0.4564  0.0495
 3592TIP3    H210741   3.384   3.005   0.293  0.4559  1.7146  0.6876
 3593TIP3   OH210742   5.781   5.364   1.589 -0.9491  0.0357  0.3750
 3593TIP3    H110743   5.735   5.442   1.622 -0.2707  0.5364  0.1494
 3593TIP3    H210744   5.869   5.395   1.568 -1.3030 -0.2916 -1.7858
 3594TIP3   OH210745   5.208   1.610   3.293 -0.1084  0.1236  0.0297
 3594TIP3    H110746   5.179   1.571   3.376 -1.0124 -2.1559 -1.2487
 3594TIP3    H210747   5.301   1.627   3.306 -0.1946 -0.3708  1.4497
 3595TIP3   OH210748   3.475   1.260   2.945 -0.5370 -0.4330 -0.2190
 3595TIP3    H110749   3.426   1.314   2.884  0.6595  0.1886 -0.6666
 3595TIP3    H210750   3.500   1.183   2.895  0.0351 -0.1439 -0.3931
 3596TIP3   OH210751   4.894   1.675   4.501 -0.6423 -0.0310 -0.4852
 3596TIP3    H110752   4.977   1.718   4.477 -1.1352  0.3355 -1.6122
 3596TIP3    H210753   4.891   1.680   4.596  0.4257  0.3462 -0.4535
 3597TIP3   OH210754   5.249   5.146   5.853  0.0551  0.2463  0.0505
 3597TIP3    H110755   5.229   5.060   5.815 -0.2498 -0.1065  0.9697
 3597TIP3    H210756   5.165   5.191   5.856  0.6537  1.8949 -3.4124
 3598TIP3   OH210757   2.583   6.776   4.840  0.2930  0.0367  0.1798
 3598TIP3    H110758   2.525   6.727   4.898 -0.5815 -0.2212 -0.8903
 3598TIP3    H210759   2.620   6.710   4.782  0.7558  0.3680  0.0912
 3599TIP3   OH210760   3.570   1.062   3.314  0.5623 -0.0510  0.4763
 3599TIP3    H110761   3.608   1.035   3.397 -1.5437 -1.0179  1.2032
 3599TIP3    H210762   3.487   1.015   3.309 -1.2754  2.9870 -0.2941
 3600TIP3   OH210763   6.666   4.925   4.490 -0.4606  0.0919  0.1735
 3600TIP3    H110764   6.698   4.901   4.577  1.4852  0.7428 -0.3106
 3600TIP3    H210765   6.588   4.978   4.507 -1.2308 -1.3487  1.4188
 3601TIP3   OH210766   1.713   3.562   5.852  0.0249 -0.0685 -0.3678
 3601TIP3    H110767   1.705   3.501   5.778  4.2635  0.6269 -1.6744
 3601TIP3    H210768   1.739   3.506   5.926  2.2335 -0.1795 -1.1474
 3602TIP3   OH210769   6.951   1.939   3.497 -0.2122 -0.0045 -0.1603
 3602TIP3    H110770   6.915   2.027   3.504 -2.2484 -0.8895  1.3728
 3602TIP3    H210771   6.967   1.912   3.587  1.4002 -0.8462 -0.6575
 3603TIP3   OH210772   6.364   5.452   5.242  0.5265  0.1530  0.1285
 3603TIP3    H110773   6.306   5.515   5.199 -0.3064  0.1651  1.2416
 3603TIP3    H210774   6.444   5.502   5.261  0.6501  0.3212 -0.7813
 3604TIP3   OH210775   0.412   1.801   2.032  0.1931  0.1731  0.2504
 3604TIP3    H110776   0.319   1.823   2.023 -0.0658 -1.1406 -0.5971
 3604TIP3    H210777   0.439   1.773   1.945  0.9089 -1.1961  0.8735
 3605TIP3   OH210778   5.088   1.730   1.423  1.1311 -0.7280  0.1076
 3605TIP3    H110779   5.175   1.702   1.451  2.2603  0.4798 -2.0130
 3605TIP3    H210780   5.078   1.696   1.334  0.9047  1.9882 -1.0004
 3606TIP3   OH210781   6.553   5.630   4.766 -0.0266 -0.0259  0.3997
 3606TIP3    H110782   6.575   5.602   4.854  0.2782  1.2893  0.7654
 3606TIP3    H210783   6.598   5.714   4.755 -0.8402  0.3051 -0.6517
 3607TIP3   OH210784   5.863   3.109   2.218 -0.3525  0.5149 -0.2181
 3607TIP3    H110785   5.926   3.077   2.153 -0.2811 -1.5345  0.7769
 3607TIP3    H210786   5.804   3.166   2.169  0.0245 -0.5362 -1.9716
 3608TIP3   OH210787   5.561   5.771   2.056 -0.2653 -0.1364  0.1298
 3608TIP3    H110788   5.580   5.680   2.034 -1.2142  0.0224 -1.4909
 3608TIP3    H210789   5.489   5.795   1.998 -0.7159  1.3462  1.2444
 3609TIP3   OH210790   4.187   5.062   0.832  0.0277 -0.2834  0.0098
 3609TIP3    H110791   4.270   5.018   0.854 -1.0928 -2.1723  0.6722
 3609TIP3    H210792   4.164   5.027   0.746 -0.5938 -0.5512  0.2854
 3610TIP3   OH210793   6.555   6.678   0.627 -0.1859  0.1875 -0.3838
 3610TIP3    H110794   6.592   6.592   0.608 -2.4864 -0.7784 -0.8651
 3610TIP3    H210795   6.469   6.659   0.665 -0.9366  2.2713 -0.8945
 3611TIP3   OH210796   0.529   6.205   3.747 -0.4381 -0.1149  0.4706
 3611TIP3    H110797   0.447   6.244   3.717  0.4931  1.5178 -0.0865
 3611TIP3    H210798   0.572   6.174   3.667 -0.4461 -0.8629  0.7456
 3612TIP3   OH210799   6.054   0.311   4.437  0.0539  0.0394 -0.3956
 3612TIP3    H110800   5.981   0.252   4.420  1.0281 -0.8775 -1.5737
 3612TIP3    H210801   6.012   0.395   4.460 -1.3497 -0.9674  0.9339
 3613TIP3   OH210802   0.704   1.283   4.231  0.1485 -0.2474  0.4617
 3613TIP3    H110803   0.758   1.360   4.215 -0.9379  0.8189  1.6416
 3613TIP3    H210804   0.738   1.247   4.313  1.2458 -1.6170 -0.5411
 3614TIP3   OH210805   1.310   2.180   0.184  0.2634  0.0615  0.3355
 3614TIP3    H110806   1.295   2.258   0.131  0.5680  0.4608  0.8213
 3614TIP3    H210807   1.247   2.188   0.256  0.3935 -0.0634  0.4643
 3615TIP3   OH210808   3.089   5.108   2.639 -0.2933 -0.3484  0.2069
 3615TIP3    H110809   3.034   5.166   2.586 -0.2712  0.1518  0.7243
 3615TIP3    H210810   3.028   5.048   2.681 -0.4202  0.0148  0.5453
 3616TIP3   OH210811   6.947   4.942   1.918 -0.1787 -0.2235 -0.0711
 3616TIP3    H110812   7.030   4.977   1.951 -0.6834  1.7546 -0.7492
 3616TIP3    H210813   6.967   4.850   1.896  1.6618  0.0311  0.3351
 3617TIP3   OH210814   3.602   6.085   3.895  0.1648 -0.2423  0.1229
 3617TIP3    H110815   3.547   6.012   3.868  1.1332 -1.0684  0.3552
 3617TIP3    H210816   3.582   6.155   3.832  0.0610 -1.0770 -0.7939
 3618TIP3   OH210817   2.095  -0.013   1.009  0.1729  0.0167 -0.6805
 3618TIP3    H110818   2.076   0.050   0.939  0.8119  1.4151  0.3468
 3618TIP3    H210819   2.150   0.036   1.070  1.4160 -1.8177 -0.2503
 3619TIP3   OH210820   0.089   0.481   5.073  0.0239  0.3819  0.3049
 3619TIP3    H110821   0.118   0.450   5.159  0.2848 -2.0029 -0.5880
 3619TIP3    H210822   0.159   0.454   5.013 -0.1738  1.9718 -0.7203
 3620TIP3   OH210823   1.995   2.676   2.129  0.2446 -0.2200  0.5940
 3620TIP3    H110824   1.953   2.762   2.136 -1.4380 -1.0385  1.2310
 3620TIP3    H210825   1.978   2.649   2.038  0.3238 -0.1002  0.5432
 3621TIP3   OH210826   5.043   4.766   3.959  0.1918  0.3663  0.2579
 3621TIP3    H110827   4.980   4.731   3.896  1.3151  0.3133 -0.8784
 3621TIP3    H210828   5.111   4.699   3.964  0.4772  0.7061  0.9680
 3622TIP3   OH210829   3.016   1.450   0.234  0.1575  0.2910 -0.0650
 3622TIP3    H110830   2.990   1.535   0.270 -2.2593 -0.7423  0.8618
 3622TIP3    H210831   3.107   1.462   0.209  0.8079  2.3272  2.6975
 3623TIP3   OH210832   3.770   2.708   5.736  0.2372 -0.5022 -0.3284
 3623TIP3    H110833   3.813   2.740   5.657 -0.1340  1.1946  0.1320
 3623TIP3    H210834   3.679   2.695   5.710  0.5329 -1.9880 -0.7153
 3624TIP3   OH210835   1.374   4.903   3.463 -0.4848 -0.1970 -0.3885
 3624TIP3    H110836   1.346   4.942   3.546 -1.7032 -0.3301 -0.7150
 3624TIP3    H210837   1.360   4.972   3.398  0.7932  0.0293 -0.4565
 3625TIP3   OH210838   6.970   5.612   1.933 -0.1406 -0.5415 -0.0204
 3625TIP3    H110839   6.969   5.707   1.920 -2.7239 -0.4935  0.0786
 3625TIP3    H210840   6.978   5.576   1.845 -3.0103 -0.1705 -0.5192
 3626TIP3   OH210841   3.923   2.516   0.446  0.5925  0.4426 -0.0489
 3626TIP3    H110842   3.900   2.429   0.479  0.1103  0.4154 -0.4477
 3626TIP3    H210843   3.972   2.499   0.366  0.0996  0.5453 -0.3744
 3627TIP3   OH210844   5.181   6.372   4.906 -0.0142  0.6850 -0.0771
 3627TIP3    H110845   5.094   6.412   4.910 -0.0250  0.5930  0.8634
 3627TIP3    H210846   5.168   6.290   4.858 -0.5164  0.5099  0.3550
 3628TIP3   OH210847   1.641   4.017   1.017  0.7753  0.5411  0.0651
 3628TIP3    H110848   1.573   4.036   0.953  0.8214  0.4637 -0.0078
 3628TIP3    H210849   1.691   3.945   0.978  0.2332 -0.1494  0.6041
 3629TIP3   OH210850   6.213   5.954   4.698  0.0885  0.1310 -0.1751
 3629TIP3    H110851   6.151   5.888   4.666 -2.1622  2.2246 -0.5170
 3629TIP3    H210852   6.245   5.997   4.618  0.2538  0.5121  0.0948
 3630TIP3   OH210853   1.899   0.469   0.093 -0.4183  0.6993 -0.3250
 3630TIP3    H110854   1.941   0.519   0.023  0.1020  1.8008  0.7360
 3630TIP3    H210855   1.831   0.528   0.128  0.0594  0.6223  0.7968
 3631TIP3   OH210856   5.677   4.955   0.103  0.2301 -0.1742 -0.4232
 3631TIP3    H110857   5.668   4.891   0.033 -1.9550  0.3176 -0.6702
 3631TIP3    H210858   5.666   4.905   0.184 -0.6952 -0.2491 -0.5858
 3632TIP3   OH210859   2.261   6.284   5.150  0.2522 -0.3618 -0.0009
 3632TIP3    H110860   2.241   6.367   5.194 -1.5046 -0.0178 -1.2976
 3632TIP3    H210861   2.243   6.216   5.215  1.3785  0.2331  0.9696
 3633TIP3   OH210862   1.835   5.029   3.734  0.1724  0.0850  0.2635
 3633TIP3    H110863   1.851   5.054   3.826  0.3163  1.0929 -0.0221
 3633TIP3    H210864   1.902   4.963   3.716  0.1723 -0.0938  0.8766
 3634TIP3   OH210865   5.873   2.460   0.459  0.1792  0.2785  0.3408
 3634TIP3    H110866   5.820   2.415   0.393  0.4123  0.4959 -0.0013
 3634TIP3    H210867   5.894   2.392   0.523 -0.8744  0.2934  0.7234
 3635TIP3   OH210868   1.605   3.053   2.758  0.3988 -0.1410  0.5044
 3635TIP3    H110869   1.527   3.092   2.719  0.3201  0.0349  0.8331
 3635TIP3    H210870   1.629   2.982   2.699  0.8100  0.6889 -0.3609
 3636TIP3   OH210871   2.819   0.251   5.500 -0.0686 -0.2323  0.2059
 3636TIP3    H110872   2.895   0.251   5.557  1.0537  0.2422 -1.2435
 3636TIP3    H210873   2.834   0.179   5.439 -0.5695  0.1366 -0.3659
 3637TIP3   OH210874   3.057   5.663   1.972 -0.1691 -0.6282  0.2120
 3637TIP3    H110875   2.965   5.634   1.969 -0.2120 -0.4821  0.1385
 3637TIP3    H210876   3.052   5.757   1.984 -0.0270 -0.6331  0.3065
 3638TIP3   OH210877   5.172   0.055   0.258 -0.7621 -0.3236  0.2687
 3638TIP3    H110878   5.262   0.084   0.242 -0.6233 -0.2767  1.0676
 3638TIP3    H210879   5.118   0.108   0.199 -0.3205  0.0744  0.2210
 3639TIP3   OH210880   2.657   3.925   0.137  0.2877  0.2787 -0.5314
 3639TIP3    H110881   2.717   4.000   0.132 -0.3754  0.8182 -0.5213
 3639TIP3    H210882   2.576   3.957   0.098 -0.2348 -0.2128  0.1430
 3640TIP3   OH210883   1.411   2.601   1.062 -0.2762 -0.8616  0.0548
 3640TIP3    H110884   1.327   2.584   1.021  0.6689 -2.1994 -1.4200
 3640TIP3    H210885   1.427   2.524   1.117  0.1592 -0.7733  0.0531
 3641TIP3   OH210886   5.835   3.352   3.939 -0.3220  0.0280  0.3145
 3641TIP3    H110887   5.765   3.291   3.958 -0.3526 -0.8653 -2.1937
 3641TIP3    H210888   5.910   3.296   3.917  0.5936  0.9384  1.0334
 3642TIP3   OH210889   4.104   3.753   3.013  0.2977 -0.0995  0.4032
 3642TIP3    H110890   4.082   3.673   3.062 -0.9769 -0.2061 -0.3079
 3642TIP3    H210891   4.050   3.821   3.054 -0.2553 -0.0520 -0.3806
 3643TIP3   OH210892   3.001   6.626   0.439 -0.7384  0.1912 -0.1935
 3643TIP3    H110893   3.002   6.712   0.482 -0.5480  0.0612  0.0679
 3643TIP3    H210894   3.094   6.604   0.427 -0.6969 -0.8777  1.6005
 3644TIP3   OH210895   5.408   6.084   2.138  0.5857  0.1021  0.3168
 3644TIP3    H110896   5.460   6.078   2.058 -0.2862 -0.2077 -0.2476
 3644TIP3    H210897   5.407   6.177   2.158  0.2424  0.2754 -0.4383
 3645TIP3   OH210898   4.903   5.734   2.385  0.1002  0.2789  0.4168
 3645TIP3    H110899   4.928   5.699   2.300 -2.7211  0.7164 -0.6973
 3645TIP3    H210900   4.978   5.787   2.413  1.7172 -1.1820 -1.0006
 3646TIP3   OH210901   1.448   6.525   4.593  0.1143  0.0214  0.3489
 3646TIP3    H110902   1.530   6.534   4.545 -0.1107 -1.4166 -0.3624
 3646TIP3    H210903   1.455   6.441   4.638 -2.0450 -1.6236 -2.0606
 3647TIP3   OH210904   4.777   0.133   1.697  0.2597  0.7667 -0.0403
 3647TIP3    H110905   4.706   0.086   1.740 -1.4674  2.4758 -0.8397
 3647TIP3    H210906   4.806   0.197   1.762 -0.4600  1.5025 -0.4155
 3648TIP3   OH210907   5.667   6.763   5.300 -0.2206 -0.3000  0.4787
 3648TIP3    H110908   5.645   6.670   5.293  1.1286 -0.5694 -0.8082
 3648TIP3    H210909   5.728   6.768   5.372  1.3862 -0.8064 -0.7853
 3649TIP3   OH210910   1.149   2.532   1.830 -0.8227  1.1959  0.3124
 3649TIP3    H110911   1.132   2.621   1.802  0.0887  1.5492  0.8377
 3649TIP3    H210912   1.234   2.510   1.792  0.2727  1.5585  2.3696
 3650TIP3   OH210913   1.094   1.335   5.471  0.0251 -0.0970  0.3195
 3650TIP3    H110914   1.016   1.369   5.516 -0.5149  0.1475 -0.7754
 3650TIP3    H210915   1.076   1.242   5.460 -0.5438  0.1229 -0.7505
 3651TIP3   OH210916   4.699   3.988   4.477  0.4521  0.0965  0.0876
 3651TIP3    H110917   4.678   3.955   4.390  1.1700 -0.0880 -0.0225
 3651TIP3    H210918   4.619   4.033   4.506 -0.1007 -0.6207 -0.2880
 3652TIP3   OH210919   6.426   5.850   2.179 -0.0284  0.8998  0.1957
 3652TIP3    H110920   6.489   5.803   2.124 -0.6108  1.6353 -1.1697
 3652TIP3    H210921   6.370   5.782   2.215 -0.2745  0.4561 -0.9885
 3653TIP3   OH210922   4.224   4.559   2.880 -0.0770 -0.1469 -0.3968
 3653TIP3    H110923   4.153   4.617   2.852 -1.6536 -1.5920  0.3897
 3653TIP3    H210924   4.266   4.605   2.953  2.3979  2.4696 -3.2138
 3654TIP3   OH210925   2.065   5.904   4.704 -0.4339  0.0751  0.3163
 3654TIP3    H110926   2.057   5.988   4.748  0.0345 -0.1388  0.8370
 3654TIP3    H210927   2.131   5.857   4.756 -0.3492 -0.4299 -0.2407
 3655TIP3   OH210928   0.848   1.577   1.970 -0.6361  0.1031 -0.1312
 3655TIP3    H110929   0.803   1.578   2.054  0.5614  0.5182  0.5254
 3655TIP3    H210930   0.784   1.542   1.909 -1.6863  0.2544  0.8596
 3656TIP3   OH210931   1.861   4.865   5.174  0.2209 -0.1361  0.5356
 3656TIP3    H110932   1.913   4.878   5.095  0.3927 -0.3902  0.6062
 3656TIP3    H210933   1.807   4.944   5.180 -0.9443 -0.8064 -0.6981
 3657TIP3   OH210934   3.294   6.272   3.822 -0.5984  0.6317 -0.0683
 3657TIP3    H110935   3.280   6.353   3.773  0.7947  1.4277  0.7866
 3657TIP3    H210936   3.377   6.238   3.788  0.1005  0.9036  1.3109
 3658TIP3   OH210937   2.825   3.814   2.192  0.6861  0.2907 -0.6707
 3658TIP3    H110938   2.894   3.748   2.199  0.1200 -0.4471 -1.6908
 3658TIP3    H210939   2.870   3.893   2.162  1.2212  0.0694 -0.4590
 3659TIP3   OH210940   3.125   5.403   1.911  0.6221  0.0774  0.3650
 3659TIP3    H110941   3.063   5.359   1.968  0.3237  1.4427  1.1360
 3659TIP3    H210942   3.087   5.490   1.896  1.1070  0.0378 -1.2349
 3660TIP3   OH210943   4.651   2.426   3.056 -0.3168 -0.1665  0.0150
 3660TIP3    H110944   4.706   2.496   3.092  0.5957 -1.9427  2.3047
 3660TIP3    H210945   4.710   2.372   3.005 -0.5371 -0.4752  0.0829
 3661TIP3   OH210946   4.390   0.275   5.358 -0.4327  0.2680 -0.4610
 3661TIP3    H110947   4.440   0.344   5.314  1.2506 -0.9113 -0.5284
 3661TIP3    H210948   4.319   0.254   5.297  0.7901 -0.0749 -1.8178
 3662TIP3   OH210949   1.260   4.449   4.057  0.2097 -0.0131  0.2709
 3662TIP3    H110950   1.321   4.397   4.110  1.6349 -0.9600 -2.1515
 3662TIP3    H210951   1.315   4.514   4.014 -0.8877  0.6741 -0.1451
 3663TIP3   OH210952   0.941   6.204   1.317 -0.6204 -0.2144  0.3514
 3663TIP3    H110953   0.902   6.279   1.273 -1.4860 -2.4333 -3.0128
 3663TIP3    H210954   0.870   6.165   1.367  0.0019  1.4197  2.7369
 3664TIP3   OH210955   3.802   3.351   3.940 -0.6675 -0.4567 -0.2204
 3664TIP3    H110956   3.742   3.382   3.872  1.0885  1.0948 -1.1655
 3664TIP3    H210957   3.874   3.414   3.938  0.3999 -1.5352  1.7242
 3665TIP3   OH210958   0.080   2.678   5.733 -0.1421  0.3955 -0.1571
 3665TIP3    H110959   0.043   2.729   5.661  0.4131 -0.3131 -0.9572
 3665TIP3    H210960   0.030   2.706   5.810  0.2303  2.2534 -0.5309
 3666TIP3   OH210961   3.725   5.200   3.939 -0.0143 -0.3240  0.0169
 3666TIP3    H110962   3.769   5.236   4.015  1.6069 -0.5897 -0.7600
 3666TIP3    H210963   3.681   5.275   3.898 -0.4068 -0.0797  0.8613
 3667TIP3   OH210964   0.663   4.319   4.446 -0.6614  0.1215  0.3266
 3667TIP3    H110965   0.738   4.270   4.479 -1.4627 -0.2679  1.6698
 3667TIP3    H210966   0.657   4.296   4.354 -1.2916 -2.6978  1.0010
 3668TIP3   OH210967   4.749   0.768   4.060 -0.4212 -0.7076 -0.2643
 3668TIP3    H110968   4.727   0.833   3.993 -0.5468 -1.6908 -1.2074
 3668TIP3    H210969   4.783   0.819   4.134  1.6536  0.3226 -1.8202
 3669TIP3   OH210970   5.086   0.794   2.025 -0.1517 -0.2075 -0.2689
 3669TIP3    H110971   5.081   0.753   1.939 -2.0927 -0.2708 -0.1683
 3669TIP3    H210972   5.015   0.858   2.024  0.3444  0.3797  0.9919
 3670TIP3   OH210973   0.018   0.643   3.466 -0.1024 -0.0157  0.1930
 3670TIP3    H110974   0.110   0.666   3.474 -0.3617  1.0681  0.2066
 3670TIP3    H210975   0.014   0.585   3.390  0.8190 -1.5028  1.2325
 3671TIP3   OH210976   6.231   4.920   2.508  0.3394  0.7698 -0.8629
 3671TIP3    H110977   6.147   4.937   2.552  0.3739  2.0061 -1.2459
 3671TIP3    H210978   6.218   4.835   2.466 -0.3470  0.4456 -0.0401
 3672TIP3   OH210979   1.715   5.999   3.999 -0.3021 -0.0857 -0.0622
 3672TIP3    H110980   1.670   6.081   4.020  0.9216  1.1439 -1.9351
 3672TIP3    H210981   1.644   5.936   3.986 -1.2927  0.7576  0.9962
 3673TIP3   OH210982   5.305   5.011   1.342 -0.2983 -0.0605 -0.5282
 3673TIP3    H110983   5.292   5.027   1.248  1.5825  0.0479 -0.8087
 3673TIP3    H210984   5.385   4.960   1.347  0.3120  0.9647  1.0860
 3674TIP3   OH210985   6.108   1.184   2.723 -0.5511 -0.3477  0.0287
 3674TIP3    H110986   6.132   1.092   2.728  0.4239 -0.1505 -0.8272
 3674TIP3    H210987   6.095   1.210   2.814  0.0871 -1.0956  0.3426
 3675TIP3   OH210988   4.411   4.343   0.527  0.0729 -0.2113 -0.5879
 3675TIP3    H110989   4.456   4.427   0.533  1.3549 -0.9228  0.0200
 3675TIP3    H210990   4.433   4.311   0.439  0.5566 -0.4454 -0.3831
 3676TIP3   OH210991   7.046   0.977   0.704 -0.5750 -0.4492  0.3320
 3676TIP3    H110992   6.979   0.994   0.769 -1.0725  0.4672 -0.3841
 3676TIP3    H210993   7.060   1.062   0.661  0.3956 -0.8209 -0.1338
 3677TIP3   OH210994   1.626   4.102   2.535  0.0765 -0.3273  0.0269
 3677TIP3    H110995   1.572   4.061   2.602  1.0214 -2.2608 -0.3264
 3677TIP3    H210996   1.645   4.032   2.473  1.0416  0.8760 -1.1027
 3678TIP3   OH210997   1.868   2.275   0.233 -0.2953  0.1991  0.9647
 3678TIP3    H110998   1.792   2.217   0.221 -1.0615  0.8791  2.2826
 3678TIP3    H210999   1.914   2.272   0.149 -0.2520 -2.3771  0.9971
 3679TIP3   OH211000   5.461   3.176   3.210  0.4834 -0.2555 -0.0301
 3679TIP3    H111001   5.510   3.198   3.131 -0.4110 -0.8757 -0.7775
 3679TIP3    H211002   5.467   3.254   3.265  1.8597 -0.1379 -0.3224
 3680TIP3   OH211003   1.432   2.130   3.484  0.6491 -0.2370 -0.2718
 3680TIP3    H111004   1.525   2.132   3.509  0.7470 -0.5746 -0.5984
 3680TIP3    H211005   1.388   2.086   3.557  0.7439 -0.0793 -0.1177
 3681TIP3   OH211006   5.466   2.463   0.237 -0.1108  0.8097 -0.2852
 3681TIP3    H111007   5.407   2.464   0.162 -1.8030 -0.9870  0.9286
 3681TIP3    H211008   5.409   2.447   0.312  1.8064  0.0563  1.0833
 3682TIP3   OH211009   1.693   6.454   5.037  0.1126 -0.5438  0.2598
 3682TIP3    H111010   1.684   6.370   5.083 -0.6801 -0.3728  0.4306
 3682TIP3    H211011   1.666   6.520   5.101  2.1454 -0.0042  0.6221
 3683TIP3   OH211012   6.080   5.390   0.225 -0.1698  0.1421  0.3399
 3683TIP3    H111013   6.120   5.469   0.263  1.7139 -1.2294  1.3433
 3683TIP3    H211014   6.003   5.374   0.279 -1.4659  2.0969 -0.8113
 3684TIP3   OH211015   6.943   3.065   4.337  0.0770 -0.1456 -0.7294
 3684TIP3    H111016   6.986   3.143   4.302 -0.4068  2.0693  2.9951
 3684TIP3    H211017   7.014   3.004   4.357  0.6868  0.2035 -1.7792
 3685TIP3   OH211018   3.919   0.119   2.060 -0.3720  0.1267  0.1573
 3685TIP3    H111019   3.862   0.075   1.996 -0.5047  0.7714 -0.1805
 3685TIP3    H211020   3.906   0.212   2.043 -0.4521  0.3147  1.1743
 3686TIP3   OH211021   5.111   1.460   3.511  0.5786 -0.1656  0.1123
 3686TIP3    H111022   5.156   1.518   3.572 -0.7912  0.9072  0.1489
 3686TIP3    H211023   5.042   1.419   3.562 -2.6756  3.1269 -1.2208
 3687TIP3   OH211024   4.395   5.099   5.597 -0.2118 -0.3625  0.5136
 3687TIP3    H111025   4.427   5.010   5.583  0.4017  0.0888 -1.2042
 3687TIP3    H211026   4.459   5.139   5.656 -0.3480 -0.9807  1.0826
 3688TIP3   OH211027   3.079   2.928   2.545  0.3910  0.2725  0.2583
 3688TIP3    H111028   3.012   2.967   2.601  0.8871  2.0201 -0.2785
 3688TIP3    H211029   3.089   2.839   2.577 -1.4268  0.3056  1.0237
 3689TIP3   OH211030   1.024   3.265   5.721  0.0566  0.3028  0.4020
 3689TIP3    H111031   0.990   3.179   5.748 -0.4331 -0.3160 -2.0065
 3689TIP3    H211032   0.946   3.319   5.709  0.0248 -0.1802 -2.0368
 3690TIP3   OH211033   1.208   0.906   1.084  0.4401 -0.4636 -0.3560
 3690TIP3    H111034   1.113   0.896   1.081  0.5419 -1.6496  0.0294
 3690TIP3    H211035   1.225   0.987   1.036 -1.0324  1.7369  2.5034
 3691TIP3   OH211036   1.436   5.411   0.970  0.3138 -0.2982 -0.5133
 3691TIP3    H111037   1.492   5.481   0.937 -2.1958  2.0216 -0.1326
 3691TIP3    H211038   1.381   5.453   1.035 -0.4449 -2.9627  0.6922
 3692TIP3   OH211039   0.144   3.872   2.455 -0.7784  0.2752  0.3310
 3692TIP3    H111040   0.078   3.805   2.474 -1.5341  1.4055  1.9033
 3692TIP3    H211041   0.107   3.922   2.383 -0.7538 -0.2683 -0.0642
 3693TIP3   OH211042   6.382   6.724   3.209  0.4374  0.1702 -0.1534
 3693TIP3    H111043   6.391   6.632   3.185 -0.0787  0.0981 -0.0809
 3693TIP3    H211044   6.416   6.772   3.134  1.1369 -0.0800 -0.0069
 3694TIP3   OH211045   3.498   4.532   0.270 -0.1218  0.5428  0.0057
 3694TIP3    H111046   3.445   4.530   0.190  1.0596 -0.4464 -0.7768
 3694TIP3    H211047   3.561   4.461   0.259  0.3202  0.6393  1.6540
 3695TIP3   OH211048   6.151   3.451   4.631 -0.3786 -0.7981 -0.1170
 3695TIP3    H111049   6.128   3.540   4.660  0.7041 -0.3413 -0.6209
 3695TIP3    H211050   6.078   3.397   4.662 -1.2737  0.3242 -0.1715
 3696TIP3   OH211051   6.466   4.988   5.589 -0.2400  1.0121  0.3325
 3696TIP3    H111052   6.395   4.932   5.618  0.6695 -0.4380 -0.1631
 3696TIP3    H211053   6.429   5.039   5.517 -0.5221 -0.4880 -0.6328
 3697TIP3   OH211054   6.324   4.887   1.005 -0.1288  0.6438  0.5275
 3697TIP3    H111055   6.337   4.871   0.912 -0.6398  0.7139  0.4429
 3697TIP3    H211056   6.275   4.970   1.009 -0.8075  0.2380  0.8202
 3698TIP3   OH211057   6.675   2.857   0.694  0.1630 -0.1675  0.2382
 3698TIP3    H111058   6.583   2.869   0.672  0.3209 -0.0590 -0.3660
 3698TIP3    H211059   6.710   2.946   0.701  0.2119 -0.2067  0.5241
 3699TIP3   OH211060   7.048   3.407   0.874  0.0769  0.4439  0.1937
 3699TIP3    H111061   7.027   3.349   0.948 -0.1302  0.2291 -0.0319
 3699TIP3    H211062   7.002   3.489   0.894  1.4141  1.0029  1.1665
 3700TIP3   OH211063   5.253   1.557   2.000  0.3850 -0.0265  0.3052
 3700TIP3    H111064   5.261   1.608   1.919  1.0928 -0.0248  0.3716
 3700TIP3    H211065   5.195   1.609   2.055 -2.4598 -1.3686 -1.2339
 3701TIP3   OH211066   5.714   5.388   0.872  0.0421 -0.0389  0.0369
 3701TIP3    H111067   5.708   5.303   0.915  0.9708 -0.5898 -0.8887
 3701TIP3    H211068   5.711   5.451   0.945 -0.5847 -0.8465  0.7314
 3702TIP3   OH211069   0.667   1.373   1.494  0.2686 -0.2441 -0.4675
 3702TIP3    H111070   0.653   1.279   1.502 -0.9726 -0.0638 -0.3361
 3702TIP3    H211071   0.759   1.386   1.517  0.2704 -1.3351  0.1918
 3703TIP3   OH211072   7.049   1.977   3.826 -0.2336 -0.1710 -0.0719
 3703TIP3    H111073   7.049   1.944   3.916 -0.7662  2.4168  0.9826
 3703TIP3    H211074   6.974   2.037   3.823  0.4152  0.6100 -1.8950
 3704TIP3   OH211075   1.716   2.135   3.890 -0.3188  0.6428  0.4214
 3704TIP3    H111076   1.727   2.146   3.796  0.1168  0.0929  0.4066
 3704TIP3    H211077   1.664   2.211   3.917 -2.2874 -0.2481 -0.6059
 3705TIP3   OH211078   4.401   5.992   1.391 -0.4166  0.0987  0.4085
 3705TIP3    H111079   4.472   5.996   1.455 -1.3052 -1.4344  1.5627
 3705TIP3    H211080   4.322   5.990   1.445 -1.2597  0.2548 -0.8051
 3706TIP3   OH211081   6.526   5.830   2.870 -0.1848 -0.5960 -0.2317
 3706TIP3    H111082   6.610   5.858   2.833  0.3035  0.5163  1.6234
 3706TIP3    H211083   6.498   5.758   2.813  0.7690  0.6661 -2.3956
 3707TIP3   OH211084   4.534   1.496   0.751  0.4418  0.1665  0.3593
 3707TIP3    H111085   4.521   1.588   0.776 -0.9508 -0.1704  0.9410
 3707TIP3    H211086   4.450   1.454   0.767  1.1579 -1.3099  0.4551
 3708TIP3   OH211087   5.181   5.349   2.830  0.6656  0.1328 -0.1597
 3708TIP3    H111088   5.217   5.344   2.919  0.5292 -0.1015 -0.1158
 3708TIP3    H211089   5.249   5.392   2.779  0.5917  0.6150  0.1405
 3709TIP3   OH211090   2.814   0.307   2.191 -0.2875 -0.6889 -0.8588
 3709TIP3    H111091   2.719   0.309   2.185 -0.7688 -2.6940  2.8069
 3709TIP3    H211092   2.839   0.222   2.155 -0.0730 -0.7883 -0.4853
 3710TIP3   OH211093   6.531   1.595   0.088  0.6078 -0.4537 -0.1934
 3710TIP3    H111094   6.445   1.570   0.122  1.7493 -1.0974  2.3942
 3710TIP3    H211095   6.520   1.593  -0.007 -2.1154 -0.8937  0.0510
 3711TIP3   OH211096   4.676   1.680   4.848  0.1947 -0.4135 -0.0355
 3711TIP3    H111097   4.598   1.720   4.811  1.0755  0.7457 -0.7036
 3711TIP3    H211098   4.665   1.690   4.943 -0.7306 -0.8113 -0.0889
 3712TIP3   OH211099   0.603   4.960   5.053  0.3919  0.3776  0.9476
 3712TIP3    H111100   0.672   5.004   5.104  0.7859 -0.1050  0.8414
 3712TIP3    H211101   0.542   5.030   5.030 -0.0960  0.5105  2.5592
 3713TIP3   OH211102   1.468   3.579   3.151  0.1185  0.0627 -0.3797
 3713TIP3    H111103   1.391   3.631   3.174 -0.7806 -0.3638 -2.2290
 3713TIP3    H211104   1.433   3.491   3.133  1.3103 -0.6237  0.5137
 3714TIP3   OH211105   1.908   6.247   5.085 -0.1646 -0.1199 -0.5920
 3714TIP3    H111106   1.874   6.238   5.174  1.0364  0.0434 -0.1026
 3714TIP3    H211107   1.942   6.336   5.081 -1.0726  0.1977 -1.5320
 3715TIP3   OH211108   1.451   3.853   2.034  0.3451 -0.1611  0.0302
 3715TIP3    H111109   1.497   3.911   1.973 -2.3430  2.3902  0.1796
 3715TIP3    H211110   1.465   3.765   2.000  2.0270  0.8397 -2.0739
 3716TIP3   OH211111   3.416   1.279  -0.012  0.1430  0.1808 -0.2704
 3716TIP3    H111112   3.396   1.258   0.079 -2.1741  0.0629 -0.7369
 3716TIP3    H211113   3.374   1.209  -0.062 -0.5025  1.3968 -1.4903
 3717TIP3   OH211114   2.687   6.423   5.753 -0.5200  0.2799  0.1136
 3717TIP3    H111115   2.614   6.391   5.701  0.9044  0.1342 -1.9055
 3717TIP3    H211116   2.671   6.389   5.841 -1.1365 -2.6558 -1.0218
 3718TIP3   OH211117   2.029   1.839   0.159 -0.2935  0.3009  0.1842
 3718TIP3    H111118   1.941   1.872   0.140 -0.4382  0.1416  0.5580
 3718TIP3    H211119   2.039   1.764   0.101 -0.6580 -0.0709  0.5932
 3719TIP3   OH211120   3.971   0.031   4.172 -0.6945 -0.4834  0.0663
 3719TIP3    H111121   3.988  -0.038   4.108 -2.5459  1.0399 -2.2764
 3719TIP3    H211122   4.057   0.051   4.209  0.3379 -2.0739 -1.2838
 3720TIP3   OH211123   7.218   2.794   3.311  0.0128  0.1254 -0.0168
 3720TIP3    H111124   7.178   2.805   3.225  1.0493 -0.0171 -0.5327
 3720TIP3    H211125   7.144   2.786   3.371 -0.7219  0.9879 -0.7861
 3721TIP3   OH211126   1.849   1.606   4.196 -0.0280 -0.3941  0.1356
 3721TIP3    H111127   1.940   1.613   4.223  0.2454 -0.4594 -0.7227
 3721TIP3    H211128   1.839   1.515   4.167 -0.3097 -0.3309  0.0291
 3722TIP3   OH211129   6.242   1.144   3.800  0.2010  0.2258  0.1640
 3722TIP3    H111130   6.301   1.071   3.782 -0.1016 -0.0842  0.4093
 3722TIP3    H211131   6.197   1.159   3.717  0.4956  0.3478  0.0251
 3723TIP3   OH211132   5.325   3.065   5.288 -0.5751  0.1768  0.2918
 3723TIP3    H111133   5.256   3.092   5.227  0.6881  0.0583 -1.2574
 3723TIP3    H211134   5.401   3.116   5.262  0.2338 -0.4922  1.2614
 3724TIP3   OH211135   6.482   6.592   0.976 -0.4359 -0.2579 -0.1118
 3724TIP3    H111136   6.406   6.585   0.920 -1.8593  1.1300  1.5220
 3724TIP3    H211137   6.458   6.545   1.056 -0.2304  1.3765  0.9833
 3725TIP3   OH211138   5.780   4.000   5.489 -0.5846  0.1633  0.2226
 3725TIP3    H111139   5.738   4.019   5.406 -0.8625  1.1331  0.5778
 3725TIP3    H211140   5.833   4.077   5.508 -1.8792  0.7350  1.7800
 3726TIP3   OH211141   4.237   2.117   3.028  0.2550  0.2031 -0.4417
 3726TIP3    H111142   4.298   2.133   2.957 -0.0276 -0.0001 -0.7306
 3726TIP3    H211143   4.277   2.159   3.104  2.9338 -3.5580  0.4695
 3727TIP3   OH211144   5.624   5.708   2.677  0.4524 -0.5961  0.4387
 3727TIP3    H111145   5.656   5.796   2.658  2.0851 -1.0110  1.1057
 3727TIP3    H211146   5.701   5.659   2.705 -0.7629 -1.6642  2.1622
 3728TIP3   OH211147   1.502   1.956   1.607  0.6455 -0.4906  0.4483
 3728TIP3    H111148   1.525   1.907   1.685  2.4217  0.5071  0.5974
 3728TIP3    H211149   1.530   2.046   1.626 -0.2278  0.0693 -0.7776
 3729TIP3   OH211150   2.808   0.514   2.846  0.1373 -0.0158  0.0973
 3729TIP3    H111151   2.811   0.440   2.907 -0.9485 -0.5285 -0.4347
 3729TIP3    H211152   2.868   0.578   2.883  3.1428 -2.1357 -0.7494
 3730TIP3   OH211153   7.016   4.923   3.317 -0.2061  0.2755 -0.1146
 3730TIP3    H111154   6.928   4.887   3.325  0.2075 -0.7354 -0.0038
 3730TIP3    H211155   7.063   4.889   3.393  0.1482  1.2278  0.1140
 3731TIP3   OH211156   0.394   6.633   4.905  0.4216  0.0996  0.4056
 3731TIP3    H111157   0.408   6.693   4.831  0.7181 -0.8125 -0.2906
 3731TIP3    H211158   0.476   6.584   4.912 -0.7079 -2.1185 -0.7893
 3732TIP3   OH211159   2.570   4.867   0.988 -0.3937 -0.5441  0.7477
 3732TIP3    H111160   2.634   4.798   0.972  0.8163  0.7130 -0.0626
 3732TIP3    H211161   2.569   4.876   1.084  0.5213 -0.7235  0.7918
 3733TIP3   OH211162   2.600   2.205   4.756  0.0866  0.3427  0.0584
 3733TIP3    H111163   2.596   2.137   4.690 -2.9237 -1.3529  1.7540
 3733TIP3    H211164   2.573   2.285   4.710  0.3571 -0.2857 -1.2302
 3734TIP3   OH211165   2.767   2.476   2.549  0.4649 -1.0563 -0.2484
 3734TIP3    H111166   2.716   2.555   2.568  1.4098 -0.7809  1.2386
 3734TIP3    H211167   2.785   2.437   2.634  2.7008 -1.1633 -0.7067
 3735TIP3   OH211168   1.452   2.479   5.546 -0.4997  0.0033  0.1140
 3735TIP3    H111169   1.404   2.559   5.566 -0.7333 -0.2347  0.5109
 3735TIP3    H211170   1.539   2.492   5.585 -1.4608 -1.1368  2.8670
 3736TIP3   OH211171   1.238   3.075   4.047 -0.2574  0.1096 -0.5346
 3736TIP3    H111172   1.271   2.994   4.088 -0.6165 -0.2378 -0.9305
 3736TIP3    H211173   1.311   3.107   3.995 -0.3341 -0.3283 -0.9172
 3737TIP3   OH211174   5.962   0.178   2.194  0.2748  0.0744  0.2538
 3737TIP3    H111175   5.983   0.257   2.145  0.1070 -0.1193 -0.1396
 3737TIP3    H211176   5.990   0.197   2.284  1.5213  0.0728 -0.1100
 3738TIP3   OH211177   3.604   4.990   3.104  0.1768 -0.3361 -0.1261
 3738TIP3    H111178   3.526   4.945   3.137  0.8207 -0.8399  0.7527
 3738TIP3    H211179   3.608   4.964   3.012 -0.8110 -0.1172 -0.2517
 3739TIP3   OH211180   6.956   0.631   5.325 -0.3253  0.6253 -0.0470
 3739TIP3    H111181   6.930   0.716   5.360 -1.2213 -0.0269  0.9549
 3739TIP3    H211182   6.882   0.604   5.270 -1.4214 -0.7508  1.9478
 3740TIP3   OH211183   2.380   6.260   1.405 -0.6515  0.2651 -0.5332
 3740TIP3    H111184   2.387   6.276   1.311  0.3205 -0.0893 -0.5271
 3740TIP3    H211185   2.411   6.171   1.417 -0.5503  0.3866  0.1556
 3741TIP3   OH211186   6.145   3.735   3.783  0.3773 -0.3345  0.5778
 3741TIP3    H111187   6.092   3.659   3.758 -0.4631  0.4270 -0.0259
 3741TIP3    H211188   6.170   3.718   3.873 -0.0682 -1.1819  0.5552
 3742TIP3   OH211189   4.804   4.583   4.150  0.2923 -0.3637  0.5524
 3742TIP3    H111190   4.899   4.574   4.152  0.2148 -1.9485 -0.4345
 3742TIP3    H211191   4.782   4.576   4.057 -1.0056 -3.7724  0.9715
 3743TIP3   OH211192   6.127   3.502   4.947  0.5585  0.0534  0.4956
 3743TIP3    H111193   6.202   3.473   4.999 -0.5136  0.1706  2.1802
 3743TIP3    H211194   6.068   3.427   4.946  0.2770  0.2755 -0.0263
 3744TIP3   OH211195   6.729   2.171   5.465 -0.3438  0.1853  0.4564
 3744TIP3    H111196   6.819   2.195   5.442 -0.5527  0.7303  0.1812
 3744TIP3    H211197   6.725   2.180   5.560 -0.0248 -0.1260  0.4985
 3745TIP3   OH211198   1.415   6.079   1.689 -0.1702  0.1901 -0.0856
 3745TIP3    H111199   1.386   6.102   1.601 -0.7453  0.2354  0.1139
 3745TIP3    H211200   1.482   6.012   1.675  0.6650  1.1003 -0.6137
 3746TIP3   OH211201   5.323   0.655   2.864  0.4964  0.6141  0.0470
 3746TIP3    H111202   5.257   0.723   2.880 -0.7269 -1.1902  3.9385
 3746TIP3    H211203   5.381   0.660   2.940  2.3952 -0.5893 -1.2521
 3747TIP3   OH211204   0.760   1.583   2.223 -0.2554  0.1972  0.2207
 3747TIP3    H111205   0.685   1.530   2.252  0.2693 -0.4933  0.3309
 3747TIP3    H211206   0.831   1.559   2.282  0.0210  0.9582  0.2095
 3748TIP3   OH211207   6.327   5.953   3.919 -0.2977 -0.4601 -0.0314
 3748TIP3    H111208   6.244   5.956   3.872 -1.2483 -3.5892  1.1703
 3748TIP3    H211209   6.393   5.943   3.850 -0.7981  2.2319 -1.0061
 3749TIP3   OH211210   5.557   4.814   5.549  0.2668  0.2754 -0.5118
 3749TIP3    H111211   5.508   4.848   5.474  1.4180  1.6742 -0.6793
 3749TIP3    H211212   5.490   4.778   5.607 -1.0212  2.3083 -0.6156
 3750TIP3   OH211213   4.887   3.973   2.395  0.2420 -0.1998 -0.1872
 3750TIP3    H111214   4.909   3.985   2.487 -1.7228 -0.9210  0.4424
 3750TIP3    H211215   4.895   4.060   2.356 -0.4824  0.4533  1.0590
 3751TIP3   OH211216   0.395   4.959   5.502 -0.0123 -0.0258 -0.2520
 3751TIP3    H111217   0.398   4.863   5.505 -0.3866 -0.0504 -0.4730
 3751TIP3    H211218   0.309   4.978   5.464  0.3126  0.3854 -0.8004
 3752TIP3   OH211219   4.497   3.135   0.595  0.2153  0.8533 -0.1949
 3752TIP3    H111220   4.498   3.044   0.625  0.4571  0.3283 -1.7128
 3752TIP3    H211221   4.405   3.151   0.574  0.1106  1.0961  0.4164
 3753TIP3   OH211222   2.428   3.928   0.439  0.6094 -0.1344  0.3515
 3753TIP3    H111223   2.491   3.991   0.475 -0.1025  0.7233  0.1288
 3753TIP3    H211224   2.448   3.846   0.484  1.7823  0.1609  0.3935
 3754TIP3   OH211225   6.994   1.259   0.711  0.4771 -0.2796 -0.1435
 3754TIP3    H111226   6.985   1.315   0.788  0.2789  0.7042 -0.8718
 3754TIP3    H211227   7.087   1.265   0.688 -0.1284  2.8737 -2.4644
 3755TIP3   OH211228   2.895   1.667   1.791 -0.6261  0.5773  0.4111
 3755TIP3    H111229   2.899   1.574   1.768 -1.0631  0.7555 -0.3957
 3755TIP3    H211230   2.805   1.682   1.818 -0.0871  0.3143  2.6150
 3756TIP3   OH211231   2.023   5.969   2.995  0.3902 -0.3226  0.4365
 3756TIP3    H111232   1.988   5.894   2.947  0.3933  0.1868 -0.3818
 3756TIP3    H211233   1.953   5.994   3.055 -0.5214  0.4148 -0.8800
 3757TIP3   OH211234   1.118   2.759   4.287 -0.6190  0.1338 -0.1486
 3757TIP3    H111235   1.198   2.727   4.246  0.7364  0.8613  1.7365
 3757TIP3    H211236   1.096   2.692   4.352 -0.2342  0.9229  0.8395
 3758TIP3   OH211237   1.955   6.021   0.002 -0.4571 -0.4490  0.6334
 3758TIP3    H111238   1.986   6.084   0.067  0.2382  1.6033 -1.5630
 3758TIP3    H211239   2.033   5.994  -0.046 -1.1789 -0.4518 -0.5787
 3759TIP3   OH211240   2.331   1.359   0.534 -0.1388  0.2007  0.3449
 3759TIP3    H111241   2.241   1.333   0.558 -0.5193 -0.1190 -1.3398
 3759TIP3    H211242   2.325   1.383   0.442  1.3914  0.8138  0.3900
 3760TIP3   OH211243   2.523   3.076   2.277  0.1089 -0.2203 -0.4402
 3760TIP3    H111244   2.572   3.158   2.282  0.0520 -0.2643  2.1989
 3760TIP3    H211245   2.434   3.099   2.303 -0.0635 -1.0096 -0.2993
 3761TIP3   OH211246   4.152   4.818   5.830  0.2092 -0.2280 -0.2727
 3761TIP3    H111247   4.074   4.775   5.794 -0.5289 -0.8055  1.8646
 3761TIP3    H211248   4.147   4.907   5.797 -0.7942 -0.5359 -1.0123
 3762TIP3   OH211249   2.517   6.535   0.397  0.1092 -0.0654 -0.3862
 3762TIP3    H111250   2.578   6.539   0.324 -0.5229  1.4565 -0.8765
 3762TIP3    H211251   2.440   6.583   0.366 -1.4154 -1.9781  0.1645
 3763TIP3   OH211252   5.583   2.698   3.598 -0.2762 -0.1818 -0.7544
 3763TIP3    H111253   5.512   2.686   3.662 -0.0041 -2.8734 -0.8090
 3763TIP3    H211254   5.559   2.641   3.525  1.2121  0.0110 -1.4272
 3764TIP3   OH211255   3.069   0.822   1.641  0.1662 -0.0173 -0.5766
 3764TIP3    H111256   3.108   0.897   1.686 -0.3494  0.6795 -1.2589
 3764TIP3    H211257   2.989   0.803   1.689 -0.5161  0.8898 -1.3390
 3765TIP3   OH211258   0.808   3.062   4.867 -0.0858 -0.6837 -0.1924
 3765TIP3    H111259   0.842   3.150   4.858 -1.8873  0.0300 -0.5786
 3765TIP3    H211260   0.852   3.026   4.943  0.3088  0.7428  0.2832
 3766TIP3   OH211261   5.970   6.409   1.430  0.0796  0.5020  0.0666
 3766TIP3    H111262   5.880   6.439   1.442  0.8200  1.9283  3.0482
 3766TIP3    H211263   5.982   6.342   1.497  1.2171  0.2238 -0.3944
 3767TIP3   OH211264   2.386   0.188   0.771 -0.3239  0.2196 -0.2931
 3767TIP3    H111265   2.449   0.154   0.708 -0.7509 -0.2375 -0.4769
 3767TIP3    H211266   2.425   0.167   0.856 -0.0438  0.2875 -0.4022
 3768TIP3   OH211267   6.009   2.970   4.182  0.1722  0.3204  0.1432
 3768TIP3    H111268   5.996   2.877   4.199 -0.2566 -0.1719 -2.4112
 3768TIP3    H211269   6.000   3.012   4.268 -0.3457 -1.8970  1.2459
 3769TIP3   OH211270   4.095   4.115   1.190  0.0330 -0.0185  0.2249
 3769TIP3    H111271   4.084   4.027   1.227 -0.2270  0.6755  1.8644
 3769TIP3    H211272   4.188   4.135   1.200 -0.0216  0.1375  0.4195
 3770TIP3   OH211273   1.671   1.504   2.031  0.2086  0.0366 -0.3987
 3770TIP3    H111274   1.739   1.472   1.972 -0.3651 -0.9320 -0.5553
 3770TIP3    H211275   1.606   1.543   1.973 -0.4176 -1.0341 -0.4319
 3771TIP3   OH211276   5.078   5.547   4.325 -0.3523  0.5057 -0.0311
 3771TIP3    H111277   5.032   5.524   4.405  0.1266 -0.9924 -0.1658
 3771TIP3    H211278   5.103   5.639   4.338  0.3851  0.0796  1.8594
 3772TIP3   OH211279   5.329   4.216   4.465 -0.5947  0.2071 -0.1123
 3772TIP3    H111280   5.372   4.190   4.546 -1.7061 -0.6209  0.2369
 3772TIP3    H211281   5.400   4.250   4.410  0.9659 -3.1473 -0.4407
 3773TIP3   OH211282   3.119   4.120   2.743  0.1734 -0.0106  0.6199
 3773TIP3    H111283   3.110   4.026   2.729  0.7392 -0.0130  0.2292
 3773TIP3    H211284   3.162   4.128   2.829 -0.2585 -0.0908  0.8469
 3774TIP3   OH211285   7.076   1.372   1.037  0.4403  0.2449 -0.0919
 3774TIP3    H111286   7.119   1.452   1.005  1.4556 -0.1358  0.2804
 3774TIP3    H211287   7.096   1.370   1.131 -2.3735  1.2688  0.6290
 3775TIP3   OH211288   1.438   5.309   0.122 -0.0405  0.0996 -0.4458
 3775TIP3    H111289   1.511   5.247   0.129  0.0663  0.3015  0.3149
 3775TIP3    H211290   1.471   5.389   0.163 -0.6049  0.2671 -0.3091
 3776TIP3   OH211291   3.539   1.170   5.218 -0.4907 -0.1918  0.8505
 3776TIP3    H111292   3.507   1.223   5.291 -2.2118  0.8010 -0.5733
 3776TIP3    H211293   3.516   1.220   5.140  0.6774 -1.5731 -0.4341
 3777TIP3   OH211294   5.397   2.857   1.777 -0.5069  0.3440 -0.2626
 3777TIP3    H111295   5.334   2.927   1.788 -0.5994  0.6685 -2.4289
 3777TIP3    H211296   5.403   2.844   1.682  1.0281 -1.1843 -0.0181
 3778TIP3   OH211297   6.446   1.230   1.245 -0.6030 -0.4233 -0.3132
 3778TIP3    H111298   6.409   1.211   1.331 -1.1729  0.0539 -0.4473
 3778TIP3    H211299   6.494   1.312   1.256  1.9559 -1.9043  0.2933
 3779TIP3   OH211300   1.765   4.754   3.804 -0.8817  0.4842 -0.5076
 3779TIP3    H111301   1.705   4.770   3.876 -2.3042 -2.2931 -0.9071
 3779TIP3    H211302   1.842   4.714   3.844 -1.8058 -1.3590 -0.4776
 3780TIP3   OH211303   1.003   0.771   5.039  0.1850  0.5449 -0.0329
 3780TIP3    H111304   0.908   0.776   5.048  0.1094 -0.5739 -0.0966
 3780TIP3    H211305   1.032   0.863   5.042 -0.9685  0.9667 -1.0259
 3781TIP3   OH211306   1.412   0.939   0.862  0.1123 -0.1006  0.7816
 3781TIP3    H111307   1.444   0.862   0.909  1.6040  0.3480  0.5242
 3781TIP3    H211308   1.427   1.011   0.922 -0.3482  0.1355  0.6163
 3782TIP3   OH211309   3.925   2.244   4.956  0.0248 -0.1239 -0.6430
 3782TIP3    H111310   3.847   2.195   4.981  0.7151 -1.8489 -1.6173
 3782TIP3    H211311   3.903   2.283   4.872 -0.8163  2.0381  0.5225
 3783TIP3   OH211312   2.126   6.439   0.802 -0.1697  0.6972  0.1568
 3783TIP3    H111313   2.036   6.455   0.830 -0.0056  1.2584  0.3679
 3783TIP3    H211314   2.163   6.526   0.785 -0.5338  0.3661 -2.7474
 3784TIP3   OH211315   4.770   5.262   5.120  0.1689  0.3467 -0.4430
 3784TIP3    H111316   4.763   5.298   5.208 -0.3058  0.2750 -0.4486
 3784TIP3    H211317   4.764   5.338   5.062  1.3755  0.4943 -0.3941
 3785TIP3   OH211318   4.057   1.959   1.773  0.2306  0.0483 -0.4676
 3785TIP3    H111319   4.096   2.013   1.704 -0.7442 -0.1306 -1.1837
 3785TIP3    H211320   4.086   1.870   1.753  1.5710  0.2394  0.5242
 3786TIP3   OH211321   6.313   4.443   1.601  0.3097  0.1071 -0.3997
 3786TIP3    H111322   6.318   4.361   1.650  0.0975  0.0168 -0.5311
 3786TIP3    H211323   6.392   4.491   1.627  0.5904 -0.2689 -0.5546
 3787TIP3   OH211324   3.488   4.877   4.439  0.0578 -0.2304 -0.2995
 3787TIP3    H111325   3.518   4.893   4.349 -1.4419 -0.9173 -0.9677
 3787TIP3    H211326   3.435   4.954   4.461  1.4834  0.5477  0.5198
 3788TIP3   OH211327   5.194   5.419   0.131 -0.0330  0.0322  0.3878
 3788TIP3    H111328   5.147   5.501   0.117 -0.4071 -0.1275  0.6890
 3788TIP3    H211329   5.203   5.382   0.043 -0.3356  0.1372  0.3094
 3789TIP3   OH211330   6.370   2.349   1.887  0.2608  0.7005 -0.0141
 3789TIP3    H111331   6.397   2.355   1.795 -0.6569  1.0273 -0.2633
 3789TIP3    H211332   6.275   2.358   1.886  0.1792  0.1654  0.9221
 3790TIP3   OH211333   6.642   6.051   4.011 -0.0845 -0.3323  0.5669
 3790TIP3    H111334   6.595   6.101   4.078  0.0617 -0.7126  0.9586
 3790TIP3    H211335   6.728   6.094   4.005 -0.6641  0.7130 -0.5536
 3791TIP3   OH211336   0.211   2.730   4.475  0.3680 -0.3235 -0.4856
 3791TIP3    H111337   0.199   2.818   4.510 -1.2179  0.0836 -1.9077
 3791TIP3    H211338   0.123   2.703   4.448  1.1350 -1.5472 -1.8826
 3792TIP3   OH211339   0.155   1.694   3.580  0.0517 -0.2339  0.1417
 3792TIP3    H111340   0.190   1.678   3.668  0.9133  1.9455  0.2601
 3792TIP3    H211341   0.063   1.718   3.595 -0.2738 -1.5037  0.2641
 3793TIP3   OH211342   6.224   3.791   0.408  0.1422 -0.0117  0.0089
 3793TIP3    H111343   6.215   3.862   0.472  0.1612  0.2117 -0.2325
 3793TIP3    H211344   6.233   3.836   0.324  0.1402 -0.3025 -0.1482
 3794TIP3   OH211345   2.667   2.183   3.487  0.2436 -0.1089 -0.1581
 3794TIP3    H111346   2.583   2.229   3.489 -0.6625 -1.5048 -2.1129
 3794TIP3    H211347   2.655   2.107   3.544 -0.1311 -0.7423 -1.0620
 3795TIP3   OH211348   6.948   2.134   0.259  0.6824  0.2516  0.1014
 3795TIP3    H111349   6.868   2.141   0.312  0.3559  1.6023 -0.5258
 3795TIP3    H211350   6.916   2.133   0.168  1.3516  0.3077 -0.1385
 3796TIP3   OH211351   0.602   5.868   0.058  0.7123 -0.1168  0.1094
 3796TIP3    H111352   0.575   5.908  -0.025  1.3573  0.8879  0.3731
 3796TIP3    H211353   0.691   5.839   0.042  0.9937  0.4790  0.5868
 3797TIP3   OH211354   6.443   2.615   5.215 -0.0533 -0.0014  0.1141
 3797TIP3    H111355   6.386   2.580   5.147  2.3958 -1.1597 -1.4696
 3797TIP3    H211356   6.417   2.569   5.294 -1.7097 -0.0147 -0.4110
 3798TIP3   OH211357   2.440   2.517   1.269  0.1120  0.0659  0.1355
 3798TIP3    H111358   2.413   2.498   1.359  0.6478 -1.9281 -0.0735
 3798TIP3    H211359   2.535   2.519   1.273  0.1304  0.1146 -0.3556
 3799TIP3   OH211360   4.992   0.833   3.741  0.0733 -0.2326  0.3261
 3799TIP3    H111361   4.969   0.769   3.809  1.9031 -0.5182  0.7449
 3799TIP3    H211362   5.082   0.858   3.762  0.5139  0.0545 -1.7068
 3800TIP3   OH211363   6.115   3.540   3.974  0.0018 -0.1468 -0.2636
 3800TIP3    H111364   6.076   3.472   3.919 -0.3863  0.1465 -0.3555
 3800TIP3    H211365   6.165   3.491   4.040  0.3941 -0.5038 -0.8098
 3801TIP3   OH211366   2.195   4.393   0.331  0.5183  0.2277  0.3475
 3801TIP3    H111367   2.208   4.308   0.373  1.6175  1.0889  1.8071
 3801TIP3    H211368   2.276   4.441   0.347 -0.4308  1.8889  0.3651
 3802TIP3   OH211369   4.183   6.752   1.660  0.2859 -0.2744 -0.7527
 3802TIP3    H111370   4.196   6.844   1.635  0.2783 -0.0869 -0.0707
 3802TIP3    H211371   4.102   6.727   1.615 -1.1002  0.8019  1.0336
 3803TIP3   OH211372   4.835   3.391   0.238  0.4477 -0.1898  0.4825
 3803TIP3    H111373   4.930   3.383   0.235  0.3340 -2.0145  0.6195
 3803TIP3    H211374   4.816   3.471   0.188  2.0577  0.4594  0.8496
 3804TIP3   OH211375   5.386   0.768   5.308 -0.4156  0.3590 -0.1045
 3804TIP3    H111376   5.422   0.712   5.240  0.1745  1.2905 -0.5694
 3804TIP3    H211377   5.453   0.835   5.323 -0.6570  0.3445  1.1821
 3805TIP3   OH211378   4.697   5.764   1.682 -0.6968 -0.0429 -0.5869
 3805TIP3    H111379   4.612   5.788   1.645 -0.4699  1.3994 -0.2090
 3805TIP3    H211380   4.761   5.790   1.615 -0.2324  3.1366  0.9421
 3806TIP3   OH211381   2.063   5.730   2.236  0.1209  0.3649  0.2123
 3806TIP3    H111382   1.997   5.725   2.167  0.5363  0.2960 -0.1790
 3806TIP3    H211383   2.036   5.805   2.289  0.6424  1.3874 -0.9131
 3807TIP3   OH211384   1.892   5.082   2.217  0.3696  0.2707 -0.4115
 3807TIP3    H111385   1.837   5.073   2.294  0.7851 -0.7291 -0.2174
 3807TIP3    H211386   1.906   4.992   2.186  1.0386  0.5804 -1.0543
 3808TIP3   OH211387   4.200   2.550   5.340  0.5230  0.2119  0.2260
 3808TIP3    H111388   4.230   2.462   5.320 -0.1765  0.0274 -0.0419
 3808TIP3    H211389   4.194   2.594   5.255  2.5750  1.1076  0.4761
 3809TIP3   OH211390   6.335   6.542   0.759 -0.2730 -0.4885  0.2416
 3809TIP3    H111391   6.346   6.447   0.750 -0.3900 -0.3539 -2.1799
 3809TIP3    H211392   6.246   6.553   0.791  0.8509 -1.1975  4.0415
 3810TIP3   OH211393   4.501   4.103   4.115  0.1918 -0.4702  0.1658
 3810TIP3    H111394   4.528   4.038   4.051  0.0507  0.1427 -0.5331
 3810TIP3    H211395   4.583   4.132   4.156  0.0650 -3.1318  2.5818
 3811TIP3   OH211396   6.583   3.901   0.119  0.0967  0.0891  0.2626
 3811TIP3    H111397   6.493   3.932   0.131  0.0284  0.1577 -0.3897
 3811TIP3    H211398   6.638   3.974   0.149 -0.0620  0.8773 -1.2382
 3812TIP3   OH211399   6.164   5.357   1.140 -0.4989 -0.1989 -0.2789
 3812TIP3    H111400   6.205   5.382   1.223  1.2870 -2.5634 -0.3602
 3812TIP3    H211401   6.182   5.430   1.081  0.3820  0.4100  0.7041
 3813TIP3   OH211402   3.892   3.552   5.784 -0.5078 -0.2845 -0.3413
 3813TIP3    H111403   3.974   3.564   5.833 -1.4621 -3.4941  2.3662
 3813TIP3    H211404   3.917   3.497   5.710 -0.2000 -1.2947  0.4982
 3814TIP3   OH211405   5.415   5.409   4.599 -0.3573 -0.6821  0.3707
 3814TIP3    H111406   5.346   5.355   4.561 -1.2849  0.8044 -0.1421
 3814TIP3    H211407   5.371   5.461   4.666  0.0651  0.8226 -0.4642
 3815TIP3   OH211408   4.543   0.217   2.510 -0.2738  0.3356 -0.0262
 3815TIP3    H111409   4.538   0.309   2.483  1.3723  0.7955  1.0728
 3815TIP3    H211410   4.468   0.175   2.467 -0.3220  1.9148 -1.5837
 3816TIP3   OH211411   1.767   6.577   0.012 -0.3712 -0.3726  0.2543
 3816TIP3    H111412   1.676   6.557  -0.009 -0.2590 -1.2271  0.5159
 3816TIP3    H211413   1.769   6.584   0.107 -0.1245 -0.5941  0.2681
 3817TIP3   OH211414   6.912   4.468   1.282 -0.4101  0.2642 -0.3176
 3817TIP3    H111415   6.890   4.413   1.207 -0.5218 -0.1032 -0.0194
 3817TIP3    H211416   6.900   4.558   1.250 -0.7042  0.1057 -0.6638
 3818TIP3   OH211417   6.377   4.022   1.353  0.0871 -0.2186  0.0331
 3818TIP3    H111418   6.432   4.101   1.358 -0.1021 -0.0951  0.1919
 3818TIP3    H211419   6.397   3.974   1.433 -2.4805  1.4538  1.8445
 3819TIP3   OH211420   4.603   2.480   4.362 -0.5110  0.4218 -0.6302
 3819TIP3    H111421   4.692   2.474   4.397 -0.8093 -0.9937 -0.0536
 3819TIP3    H211422   4.613   2.464   4.268 -0.1494  0.3843 -0.5887
 3820TIP3   OH211423   1.257   1.808   2.937 -0.2510 -0.1647 -0.0000
 3820TIP3    H111424   1.276   1.896   2.969 -0.6972  0.0133 -0.2195
 3820TIP3    H211425   1.328   1.754   2.972  1.6165  0.7478 -2.0967
 3821TIP3   OH211426   2.916   6.375   0.508 -0.5130  0.9707 -0.5920
 3821TIP3    H111427   2.925   6.389   0.602  0.0417 -0.3690 -0.4284
 3821TIP3    H211428   2.926   6.462   0.470  1.3260  1.2547  0.4501
 3822TIP3   OH211429   2.763   3.053   3.927  0.1503 -0.3304 -0.2307
 3822TIP3    H111430   2.833   3.053   3.992 -2.5846 -0.1714  3.0003
 3822TIP3    H211431   2.774   3.135   3.879  0.9331  0.7608  1.6920
 3823TIP3   OH211432   4.649   3.561   3.421 -0.0320 -0.0902  0.1093
 3823TIP3    H111433   4.733   3.608   3.427  0.5256 -1.1200  0.6318
 3823TIP3    H211434   4.668   3.486   3.364 -0.0290 -1.4602  1.8252
 3824TIP3   OH211435   5.190   2.008   0.305  0.2960 -0.1309 -0.6358
 3824TIP3    H111436   5.176   1.923   0.266 -1.2955  0.2959 -1.0406
 3824TIP3    H211437   5.116   2.020   0.365  0.4869  0.9643 -0.5955
 3825TIP3   OH211438   7.170   6.156   3.946 -0.3903 -0.1387 -0.3460
 3825TIP3    H111439   7.127   6.204   3.875 -0.5126 -3.4545 -2.7702
 3825TIP3    H211440   7.107   6.087   3.969  0.0175  0.3234  2.4824
 3826TIP3   OH211441   1.690   1.236   2.113 -0.4698 -0.1187  0.3971
 3826TIP3    H111442   1.709   1.326   2.085  1.1989 -0.3517  0.6418
 3826TIP3    H211443   1.638   1.199   2.042 -0.4017  0.7653 -0.1293
 3827TIP3   OH211444   3.308   1.799   0.225 -0.4077  0.2698 -0.3728
 3827TIP3    H111445   3.388   1.836   0.188 -0.7030  1.7956  0.4401
 3827TIP3    H211446   3.238   1.858   0.196 -1.2658 -0.9622 -0.9668
 3828TIP3   OH211447   3.362   6.471   2.125  0.7840  0.1186 -0.6918
 3828TIP3    H111448   3.296   6.427   2.178  1.5506  2.6775  2.7889
 3828TIP3    H211449   3.323   6.555   2.102  2.3740  1.3068  0.6543
 3829TIP3   OH211450   4.241   2.404   5.042 -0.5114  0.0484  0.1665
 3829TIP3    H111451   4.221   2.315   5.069  3.6255 -0.8893  0.7556
 3829TIP3    H211452   4.218   2.407   4.949 -1.4431 -1.3521  0.3280
 3830TIP3   OH211453   5.428   5.175   1.099  0.0527  0.1315 -0.4036
 3830TIP3    H111454   5.406   5.226   1.176 -0.4202  1.0992 -1.1544
 3830TIP3    H211455   5.363   5.104   1.097  2.4997 -2.4983  2.3459
 3831TIP3   OH211456   2.911   1.693   0.328  0.0849 -0.0981  0.0232
 3831TIP3    H111457   2.908   1.771   0.271 -1.5363  0.7337  1.1556
 3831TIP3    H211458   2.823   1.657   0.324  0.2696 -0.7118  1.0869
 3832TIP3   OH211459   0.677   3.390   5.412  0.4875  0.1542 -0.2381
 3832TIP3    H111460   0.726   3.472   5.413 -0.0993  0.5081 -0.1929
 3832TIP3    H211461   0.743   3.323   5.432  0.9129  0.6388  0.0172
 3833TIP3   OH211462   4.283   4.605   2.213  0.1607  0.3807 -0.0351
 3833TIP3    H111463   4.193   4.615   2.245  0.3083  1.3260  0.1056
 3833TIP3    H211464   4.333   4.670   2.262  0.9999 -0.3784  0.1492
 3834TIP3   OH211465   3.625   4.143   0.386  0.5205  0.1584 -0.6389
 3834TIP3    H111466   3.654   4.135   0.295 -1.1701 -1.6774 -1.0705
 3834TIP3    H211467   3.633   4.054   0.421 -1.6857  0.1936  0.0721
 3835TIP3   OH211468   3.688   5.058   1.454  0.2812 -0.0557 -0.0289
 3835TIP3    H111469   3.732   4.994   1.399 -0.6162 -0.4711 -0.2866
 3835TIP3    H211470   3.714   5.143   1.417  1.1115 -0.2786  0.0314
 3836TIP3   OH211471   1.254   1.743   0.957 -0.4339 -0.0535  0.3712
 3836TIP3    H111472   1.314   1.781   1.022 -1.1363  0.5613  0.6799
 3836TIP3    H211473   1.311   1.711   0.887  0.2629  0.4439  0.6985
 3837TIP3   OH211474   4.861   6.183   4.945 -0.5315  0.1295 -0.1307
 3837TIP3    H111475   4.827   6.096   4.966  2.5398 -1.2548 -0.3126
 3837TIP3    H211476   4.865   6.185   4.849  0.5493 -0.0502 -0.0986
 3838TIP3   OH211477   5.510   1.476   4.243 -0.0652  0.8534  0.7192
 3838TIP3    H111478   5.546   1.526   4.169  1.1185 -0.5072  0.3165
 3838TIP3    H211479   5.517   1.535   4.318  1.2276  1.3355  0.2514
 3839TIP3   OH211480   1.478   3.241   5.458  0.3220 -0.4380 -0.5162
 3839TIP3    H111481   1.491   3.297   5.382  0.3251  0.8686  0.4152
 3839TIP3    H211482   1.394   3.270   5.495  2.2230  1.9184  2.3520
 3840TIP3   OH211483   1.259   3.231   1.259  0.5987 -0.2128  0.5771
 3840TIP3    H111484   1.337   3.251   1.311  0.7948  1.1580 -0.2201
 3840TIP3    H211485   1.186   3.251   1.317  0.7727  2.8453 -0.0753
 3841TIP3   OH211486   4.701   4.849   5.790 -0.2058  0.1607  0.3376
 3841TIP3    H111487   4.656   4.795   5.725 -0.3070 -1.1125  1.4113
 3841TIP3    H211488   4.762   4.789   5.833  0.9851  1.3468  0.3715
 3842TIP3   OH211489   2.929   4.186   0.874  0.4263  0.3894  0.1607
 3842TIP3    H111490   2.850   4.153   0.831  1.5234  0.2951 -1.8929
 3842TIP3    H211491   2.902   4.200   0.965 -2.0599  0.7197 -0.5348
 3843TIP3   OH211492   1.630   6.097   2.740  0.2176 -0.1834  0.1652
 3843TIP3    H111493   1.620   6.087   2.835  0.3503  0.0271  0.2043
 3843TIP3    H211494   1.689   6.027   2.714 -1.8053 -1.8448 -0.1689
 3844TIP3   OH211495   3.994   1.637   4.623  0.8019 -0.0996  0.2774
 3844TIP3    H111496   3.996   1.543   4.604  2.2251 -0.0587  0.1355
 3844TIP3    H211497   4.079   1.669   4.595  0.0096  1.4211 -0.5299
 3845TIP3   OH211498   2.100   4.161   3.302  0.1749 -0.4318  0.7383
 3845TIP3    H111499   2.033   4.094   3.295  0.5353 -1.1460  3.1822
 3845TIP3    H211500   2.058   4.233   3.349  0.8732 -0.5776  1.6121
 3846TIP3   OH211501   7.076   6.584   5.273 -0.0983 -0.2771 -0.5727
 3846TIP3    H111502   6.990   6.592   5.314  0.0038  0.8176 -0.5611
 3846TIP3    H211503   7.057   6.583   5.179 -0.0125  2.1636 -0.6773
 3847TIP3   OH211504   0.900   1.610   5.373 -0.1107 -0.4063  0.5422
 3847TIP3    H111505   0.922   1.697   5.406 -0.3964 -0.2590  0.3474
 3847TIP3    H211506   0.855   1.567   5.445 -2.8854  0.7399 -0.3475
 3848TIP3   OH211507   0.232   2.048   5.592 -0.0543 -0.0768 -0.3020
 3848TIP3    H111508   0.160   2.085   5.542 -0.0312  0.6961  0.2150
 3848TIP3    H211509   0.196   1.968   5.630 -1.3168  1.2893  1.5663
 3849TIP3   OH211510   4.288   3.526   0.728 -0.4880 -0.3375 -0.2404
 3849TIP3    H111511   4.367   3.477   0.704 -1.5029 -0.8278 -2.8014
 3849TIP3    H211512   4.286   3.520   0.824  1.9387 -1.2796 -0.1568
 3850TIP3   OH211513   2.169   1.988   0.444  0.1461  0.1532  0.1701
 3850TIP3    H111514   2.197   2.030   0.363  0.7707  0.8231  0.7303
 3850TIP3    H211515   2.147   1.898   0.417  1.3849  0.0401 -0.5605
 3851TIP3   OH211516   4.033   5.060   0.023  0.1715  0.8735  0.5037
 3851TIP3    H111517   4.004   5.027   0.108 -1.1899  2.9937  0.9500
 3851TIP3    H211518   3.963   5.037  -0.037  0.7567  0.0981  0.0989
 3852TIP3   OH211519   3.727   5.865   4.732 -0.3834 -0.2297 -0.1070
 3852TIP3    H111520   3.703   5.804   4.801 -0.8459 -0.0705 -0.1241
 3852TIP3    H211521   3.720   5.814   4.651  0.0294 -0.3795 -0.0478
 3853TIP3   OH211522   1.003   2.946   5.536 -0.1254  0.0002  0.6044
 3853TIP3    H111523   1.085   2.927   5.491 -0.3106  1.0212 -0.1843
 3853TIP3    H211524   0.995   2.876   5.601  1.1715 -0.3286  0.4356
 3854TIP3   OH211525   6.250   5.203   3.328  0.4181  0.2832  0.5079
 3854TIP3    H111526   6.233   5.126   3.274 -0.4491 -0.4405  1.7686
 3854TIP3    H211527   6.180   5.203   3.393  1.6851  0.8555  1.9311
 3855TIP3   OH211528   5.979   4.771   4.832  0.4417  0.4911 -0.3613
 3855TIP3    H111529   6.052   4.829   4.812  1.6636 -0.6116  0.6739
 3855TIP3    H211530   6.010   4.719   4.907 -1.0293 -0.6933 -0.5283
 3856TIP3   OH211531   6.039   5.001   4.534  0.7373 -0.5997  0.0445
 3856TIP3    H111532   5.954   4.959   4.547  1.2703 -1.5870  0.4311
 3856TIP3    H211533   6.018   5.094   4.519 -0.3454 -0.6587  1.0532
 3857TIP3   OH211534   6.961   4.774   1.420  0.4849 -0.1583  0.2070
 3857TIP3    H111535   6.867   4.756   1.419  0.3799  0.3671 -0.6260
 3857TIP3    H211536   6.970   4.855   1.369  1.4217 -0.3743  0.0183
 3858TIP3   OH211537   0.878   0.597   2.917  0.3367  0.1850 -0.0223
 3858TIP3    H111538   0.951   0.535   2.921 -0.0365 -0.2794 -0.3451
 3858TIP3    H211539   0.812   0.561   2.976 -0.7186 -0.8479 -1.7567
 3859TIP3   OH211540   2.248   1.384   4.277 -0.6442  0.4357  0.1297
 3859TIP3    H111541   2.178   1.428   4.325 -1.7356  1.3713 -2.1444
 3859TIP3    H211542   2.326   1.437   4.295 -0.9306  0.5320  1.1407
 3860TIP3   OH211543   6.093   5.890   5.317 -0.3778 -0.2246 -0.4469
 3860TIP3    H111544   6.172   5.903   5.263  0.7020 -3.4149  0.1698
 3860TIP3    H211545   6.041   5.969   5.301  0.6754 -0.1099 -4.7152
 3861TIP3   OH211546   2.570   5.724   3.131  0.3704 -0.5063  0.1348
 3861TIP3    H111547   2.509   5.796   3.121  3.2113  2.5467  2.3852
 3861TIP3    H211548   2.550   5.688   3.217  0.8467 -0.3913  0.2956
 3862TIP3   OH211549   4.649   5.577   0.889  0.7031 -0.5288 -0.6474
 3862TIP3    H111550   4.656   5.557   0.983 -3.1223  0.2489 -0.0240
 3862TIP3    H211551   4.641   5.672   0.885 -0.6896 -0.6544 -1.5437
 3863TIP3   OH211552   6.824   2.190   3.473 -1.0716  0.3323  0.2011
 3863TIP3    H111553   6.772   2.237   3.540 -2.1842  0.9956 -1.0730
 3863TIP3    H211554   6.758   2.157   3.412 -0.0791 -0.3623 -0.5040
 3864TIP3   OH211555   0.761   3.480   4.783 -0.3990 -0.0633 -0.1712
 3864TIP3    H111556   0.825   3.416   4.815 -0.4953 -0.4461 -0.7505
 3864TIP3    H211557   0.713   3.435   4.714  0.4819  1.0772 -1.5855
 3865TIP3   OH211558   6.668   0.817   0.432  0.3075 -0.1174  0.3979
 3865TIP3    H111559   6.577   0.794   0.415 -0.3111  1.7929  0.9536
 3865TIP3    H211560   6.672   0.830   0.527  1.6363 -1.9879  0.6601
 3866TIP3   OH211561   6.204   4.185   3.899  0.2386  0.8123 -0.6581
 3866TIP3    H111562   6.277   4.146   3.849 -1.5449 -1.7323 -1.4537
 3866TIP3    H211563   6.182   4.119   3.964 -1.7070  1.2743 -0.8005
 3867TIP3   OH211564   2.495   3.890   2.176 -0.0020  0.2387 -0.2983
 3867TIP3    H111565   2.518   3.980   2.199  0.0465  0.2801 -0.5055
 3867TIP3    H211566   2.577   3.851   2.147  0.4723 -0.5530  1.8905
 3868TIP3   OH211567   1.475   2.724   5.278  0.1509  0.1894  0.0703
 3868TIP3    H111568   1.433   2.805   5.248 -0.3911  0.0493  0.4439
 3868TIP3    H211569   1.517   2.688   5.200  0.9711  1.1747  0.0360
 3869TIP3   OH211570   0.236   3.639   2.099 -0.1737 -0.2856 -0.0189
 3869TIP3    H111571   0.194   3.699   2.161 -0.1338 -0.6738  0.3868
 3869TIP3    H211572   0.273   3.696   2.032 -2.7793  0.0286 -1.3221
 3870TIP3   OH211573   3.586   6.183   0.470  0.6038 -0.0646  0.0125
 3870TIP3    H111574   3.635   6.172   0.552 -0.5044 -0.6635  0.6247
 3870TIP3    H211575   3.653   6.190   0.402  1.6329  2.3162  1.1405
 3871TIP3   OH211576   5.635   3.089   5.407  0.5009  0.0974 -0.6412
 3871TIP3    H111577   5.660   3.028   5.476  0.7054  1.2196  0.3235
 3871TIP3    H211578   5.646   3.176   5.447 -1.5229  0.7412 -1.3402
 3872TIP3   OH211579   4.139   6.100   3.447  0.5404 -0.3899  0.1568
 3872TIP3    H111580   4.083   6.087   3.523 -1.9119 -1.5962 -1.7365
 3872TIP3    H211581   4.157   6.194   3.446  0.2611 -0.2868  1.9463
 3873TIP3   OH211582   2.403   1.195   0.074 -0.2996  0.1716 -0.1360
 3873TIP3    H111583   2.386   1.104   0.050  1.4183 -0.4628  0.8939
 3873TIP3    H211584   2.482   1.219   0.025 -1.0256  1.3055 -0.8042
 3874TIP3   OH211585   2.942   6.283   4.922 -0.1388 -0.0705 -0.4103
 3874TIP3    H111586   3.018   6.283   4.980 -1.1635 -2.8180  1.0967
 3874TIP3    H211587   2.960   6.213   4.859 -1.4338 -0.8436  0.0461
 3875TIP3   OH211588   1.060   3.772   4.244  0.0381  0.1518  0.8596
 3875TIP3    H111589   1.139   3.773   4.298 -0.3207 -1.1365  1.4410
 3875TIP3    H211590   1.047   3.680   4.220  0.2362  0.6810 -1.5518
 3876TIP3   OH211591   2.240   2.096   2.170  0.5844 -0.5403  0.3066
 3876TIP3    H111592   2.313   2.147   2.135 -0.6333  1.4932  0.6057
 3876TIP3    H211593   2.268   2.073   2.259 -0.1232  2.6267  1.4887
 3877TIP3   OH211594   3.751   3.931   2.573 -0.1600 -0.1243  0.0976
 3877TIP3    H111595   3.724   3.953   2.483  0.6099  1.3066  0.1926
 3877TIP3    H211596   3.714   3.844   2.588  0.1888 -0.6567 -1.8157
 3878TIP3   OH211597   6.102   2.035   3.009 -0.1296  0.6909  0.1393
 3878TIP3    H111598   6.196   2.048   3.022 -0.4451  1.7190  1.6032
 3878TIP3    H211599   6.072   1.993   3.089 -0.9837  0.7143 -0.1584
 3879TIP3   OH211600   4.899   3.094   4.774 -0.1061 -0.1903 -0.0532
 3879TIP3    H111601   4.892   3.179   4.731 -2.0814 -0.7236 -0.9169
 3879TIP3    H211602   4.841   3.036   4.723  1.4029 -2.1417  0.3156
 3880TIP3   OH211603   4.659   1.988   3.670 -0.2407  0.3174 -0.2432
 3880TIP3    H111604   4.659   2.060   3.607  0.2326 -2.7911 -4.2717
 3880TIP3    H211605   4.750   1.959   3.673 -0.0153  0.9689  2.9391
 3881TIP3   OH211606   5.457   5.851   1.008 -0.3772 -0.2642  0.3225
 3881TIP3    H111607   5.490   5.877   0.922 -2.1733  1.9400  0.1998
 3881TIP3    H211608   5.364   5.836   0.995 -0.5970 -0.3270  1.7839
 3882TIP3   OH211609   5.396   4.869  -0.014  0.3978  0.2648 -0.2231
 3882TIP3    H111610   5.468   4.806  -0.012  0.5642  0.4687  0.2965
 3882TIP3    H211611   5.406   4.919   0.066  1.4586  2.2864 -1.5267
 3883TIP3   OH211612   5.136   1.993   5.379  0.4309 -0.0024 -0.6038
 3883TIP3    H111613   5.053   2.028   5.412  1.3173 -0.6669  2.7372
 3883TIP3    H211614   5.130   1.899   5.392  1.5666 -0.1071 -0.6905
 3884TIP3   OH211615   1.190   2.942   2.694  0.1261  0.4211  0.4309
 3884TIP3    H111616   1.166   2.920   2.604  2.3811 -1.7242  0.2525
 3884TIP3    H211617   1.136   3.018   2.715 -1.3825  0.2270 -2.2761
 3885TIP3   OH211618   3.483   1.721   0.892  0.1686 -0.6105  0.1325
 3885TIP3    H111619   3.454   1.790   0.952  1.0489 -0.4687  0.3994
 3885TIP3    H211620   3.416   1.719   0.824  0.9639  1.6467 -0.7777
 3886TIP3   OH211621   4.870   1.473   1.253 -0.4590 -0.5380 -0.1222
 3886TIP3    H111622   4.893   1.385   1.222  0.6733 -0.4927  0.5528
 3886TIP3    H211623   4.953   1.520   1.256 -0.9717  0.3750  0.1198
 3887TIP3   OH211624   7.110   5.137   3.203  0.0248  0.4310 -0.4051
 3887TIP3    H111625   7.201   5.120   3.229  0.5044  2.3701 -0.6383
 3887TIP3    H211626   7.058   5.075   3.255  1.4689 -0.8952 -0.4555
 3888TIP3   OH211627   5.428   4.911   4.480 -0.1236 -0.0933  0.0425
 3888TIP3    H111628   5.414   4.844   4.547 -0.5033  0.8812  0.9737
 3888TIP3    H211629   5.347   4.962   4.480 -0.8760 -1.1259 -2.4515
 3889TIP3   OH211630   6.861   2.869   2.991  0.5800  0.3170 -0.0605
 3889TIP3    H111631   6.805   2.902   2.921  0.6524 -1.1249 -0.8110
 3889TIP3    H211632   6.830   2.780   3.008  1.5575  0.0974  0.6726
 3890TIP3   OH211633   0.679   6.173   3.486  0.6800  0.7574  0.4621
 3890TIP3    H111634   0.728   6.130   3.416 -1.5584 -2.5530  0.7127
 3890TIP3    H211635   0.609   6.221   3.441 -0.6231 -1.1852  0.3174
 3891TIP3   OH211636   0.206   1.487   1.021  0.2356  0.2927  0.4232
 3891TIP3    H111637   0.146   1.501   0.948 -0.5584 -0.4862  0.9076
 3891TIP3    H211638   0.285   1.535   0.996  0.3243 -0.6870 -1.3576
 3892TIP3   OH211639   0.072   1.841   5.343  0.2821  0.0285 -0.2683
 3892TIP3    H111640   0.081   1.813   5.252  0.5201 -1.3171  0.1414
 3892TIP3    H211641  -0.020   1.823   5.365  0.6605 -1.3734  0.2718
 3893TIP3   OH211642   2.754   6.604   0.817  0.1377  0.1266  0.3042
 3893TIP3    H111643   2.810   6.661   0.871  0.9725 -1.4817  1.2312
 3893TIP3    H211644   2.685   6.661   0.785  0.0613  1.3292  2.4508
 3894TIP3   OH211645   4.913   6.598   0.004 -0.0883 -0.1316 -0.1734
 3894TIP3    H111646   5.000   6.631   0.027 -0.3491 -0.2551  1.0162
 3894TIP3    H211647   4.862   6.676  -0.017  0.2257 -0.0385 -0.5980
 3895TIP3   OH211648   4.621   4.976   3.472  0.3321  0.5878 -0.1821
 3895TIP3    H111649   4.602   5.012   3.386  0.8267 -0.2058 -0.6389
 3895TIP3    H211650   4.690   5.032   3.507 -0.1873  1.1866 -0.1033
 3896TIP3   OH211651   6.391   2.735   1.713 -0.4481  0.2027  0.0899
 3896TIP3    H111652   6.338   2.739   1.793 -0.2736  0.6634  0.1849
 3896TIP3    H211653   6.468   2.787   1.733 -0.9455  1.3212 -0.7822
 3897TIP3   OH211654   0.240   0.975   2.687 -0.8127  0.2996 -0.1869
 3897TIP3    H111655   0.165   1.028   2.713 -0.9155  0.5957 -1.0389
 3897TIP3    H211656   0.311   1.038   2.676 -0.2832 -0.0354  1.1026
 3898TIP3   OH211657   3.360   4.642   0.719 -0.4275  0.4352 -0.5685
 3898TIP3    H111658   3.408   4.676   0.644  0.0170  0.1502 -0.4123
 3898TIP3    H211659   3.285   4.701   0.727  0.7137  1.8612  0.1481
 3899TIP3   OH211660   3.930   5.283   5.252 -0.2848 -0.1578 -0.0489
 3899TIP3    H111661   4.013   5.254   5.213 -0.5424 -0.9598 -0.0277
 3899TIP3    H211662   3.866   5.271   5.182 -0.3052  0.9831 -0.2470
 3900TIP3   OH211663   5.710   3.683   1.213  0.2775  0.9575 -0.1104
 3900TIP3    H111664   5.754   3.628   1.277  1.6184  3.8988  1.7113
 3900TIP3    H211665   5.660   3.745   1.266 -0.5202  2.0123 -2.0069
 3901TIP3   OH211666   0.629   6.363   0.981  0.7508  0.5598 -0.3280
 3901TIP3    H111667   0.615   6.369   1.075  0.4583  0.3230 -0.3553
 3901TIP3    H211668   0.658   6.451   0.955  0.4471  0.7314 -0.0845
 3902TIP3   OH211669   1.875   3.132   1.749 -0.0442  0.2135 -0.2073
 3902TIP3    H111670   1.903   3.042   1.736  0.9750  0.7378 -1.9978
 3902TIP3    H211671   1.837   3.158   1.665  0.5772  1.7400 -0.0562
 3903TIP3   OH211672   3.305   0.542   4.356  0.2113 -0.2949 -0.2757
 3903TIP3    H111673   3.264   0.616   4.400  0.2391 -0.6727  0.3892
 3903TIP3    H211674   3.257   0.465   4.387  1.8232 -0.8141  1.0450
 3904TIP3   OH211675   3.360   2.844   1.397  0.4738  0.4405 -0.2381
 3904TIP3    H111676   3.306   2.862   1.474  0.3580  1.0326 -0.4542
 3904TIP3    H211677   3.420   2.918   1.392  0.0947  0.7044 -1.0471
 3905TIP3   OH211678   0.718   1.923   1.817 -0.6330 -0.4081  0.3414
 3905TIP3    H111679   0.634   1.909   1.861 -1.6279 -0.0433 -1.3493
 3905TIP3    H211680   0.722   1.854   1.750  0.5065 -0.5344  0.5244
 3906TIP3   OH211681   3.453   2.111   2.013  0.2352  0.4891  0.6114
 3906TIP3    H111682   3.443   2.170   1.938 -1.6705  0.0861  0.4841
 3906TIP3    H211683   3.458   2.023   1.974  1.0830  0.4083  0.8862
 3907TIP3   OH211684   7.167   3.535   2.119 -0.0950  0.5663  0.2626
 3907TIP3    H111685   7.135   3.557   2.032 -0.6229  0.6925  0.4848
 3907TIP3    H211686   7.262   3.551   2.115  0.1011 -0.6867 -0.6770
 3908TIP3   OH211687   6.908   4.337   4.471  0.2286 -0.0119  0.8735
 3908TIP3    H111688   6.848   4.263   4.456  0.0712  0.5602 -1.6738
 3908TIP3    H211689   6.990   4.296   4.498  0.4573 -1.2683 -1.4567
 3909TIP3   OH211690   5.400   6.409   1.021  0.7890 -0.2154 -0.2298
 3909TIP3    H111691   5.439   6.343   1.078  0.8797  1.8741  2.3294
 3909TIP3    H211692   5.464   6.423   0.952  1.4753 -1.6214  0.0887
 3910TIP3   OH211693   3.086   3.094   0.762  0.5699 -0.4040  0.3816
 3910TIP3    H111694   3.032   3.049   0.697 -1.6087 -0.6905  2.2171
 3910TIP3    H211695   3.064   3.187   0.752 -0.8276 -0.5679  1.4823
 3911TIP3   OH211696   1.585   3.211   0.313 -0.4230 -0.0198 -0.2707
 3911TIP3    H111697   1.506   3.206   0.259  0.4022  0.9129 -1.6480
 3911TIP3    H211698   1.654   3.174   0.257  0.2644 -0.0953  0.6030
 3912TIP3   OH211699   2.646   4.071   3.526  0.2390 -0.1049 -0.3565
 3912TIP3    H111700   2.668   4.107   3.613  1.7406  0.0090 -0.7501
 3912TIP3    H211701   2.596   4.140   3.484 -0.1489  0.0052  0.2647
 3913TIP3   OH211702   0.756   3.860   1.847 -0.2057  0.6374  0.1745
 3913TIP3    H111703   0.694   3.796   1.813 -0.3132  1.0867 -0.4874
 3913TIP3    H211704   0.785   3.909   1.770  0.4588  0.8765  0.5679
 3914TIP3   OH211705   0.992   3.410   2.899 -0.0622  0.2067  0.6620
 3914TIP3    H111706   0.897   3.422   2.906 -0.2044  0.5028 -1.1466
 3914TIP3    H211707   1.029   3.480   2.953 -0.8525 -0.4144  2.0515
 3915TIP3   OH211708   1.981   1.976   3.952 -0.1493  0.4475  0.4499
 3915TIP3    H111709   1.925   2.054   3.953  1.2556  1.4982  0.4935
 3915TIP3    H211710   1.949   1.923   4.025 -0.3075  1.5982  1.2456
 3916TIP3   OH211711   4.814   5.484   5.843  0.0117 -0.3661  0.6074
 3916TIP3    H111712   4.822   5.571   5.804 -1.1918 -0.4303  0.1665
 3916TIP3    H211713   4.897   5.470   5.887  0.4537  0.7607  0.1802
 3917TIP3   OH211714   4.020   4.274   3.941  0.2455 -0.1258 -0.1987
 3917TIP3    H111715   4.036   4.304   4.031  2.8913  1.2454 -1.0232
 3917TIP3    H211716   4.078   4.199   3.930 -0.7204 -0.8486 -0.5379
 3918TIP3   OH211717   4.205   4.974   1.260  0.1743 -0.0847  0.4109
 3918TIP3    H111718   4.198   5.034   1.334  2.2615  0.0970  0.5231
 3918TIP3    H211719   4.226   5.030   1.185  2.5192 -0.6264  0.5891
 3919TIP3   OH211720   4.401   5.743   1.570 -0.1791  0.0508  0.6590
 3919TIP3    H111721   4.326   5.801   1.558  0.2804  0.9640  1.9646
 3919TIP3    H211722   4.435   5.729   1.481 -1.1158  0.6631  0.1898
 3920TIP3   OH211723   4.122   5.094   4.820 -0.1796 -0.2499 -0.6557
 3920TIP3    H111724   4.104   5.176   4.774 -2.2049 -0.1325  0.2786
 3920TIP3    H211725   4.193   5.116   4.881  0.8784  0.1854 -1.9873
 3921TIP3   OH211726   3.258   1.728   2.035  0.2087 -0.0839  0.5087
 3921TIP3    H111727   3.231   1.650   2.082  0.7487 -0.2185  0.5991
 3921TIP3    H211728   3.177   1.775   2.017 -0.0303 -0.1904  1.2937
 3922TIP3   OH211729   3.954   6.240   1.106 -0.1801 -0.9736  0.4966
 3922TIP3    H111730   4.013   6.230   1.031  0.4291  0.0082  0.8279
 3922TIP3    H211731   3.958   6.333   1.127 -1.2488 -1.0327  1.0282
 3923TIP3   OH211732   0.421   2.245   2.481 -0.5632  0.2309  0.1388
 3923TIP3    H111733   0.375   2.320   2.444 -0.1524  0.6443  0.4519
 3923TIP3    H211734   0.432   2.185   2.407 -2.7777 -0.4860  0.3385
 3924TIP3   OH211735   0.512   2.032   4.897 -0.1160 -0.6852  0.5217
 3924TIP3    H111736   0.567   2.109   4.909 -1.2522  0.4721 -1.2170
 3924TIP3    H211737   0.461   2.027   4.978 -2.4918  2.5458 -0.5527
 3925TIP3   OH211738   6.224   0.901   2.608  0.0505 -0.3502  0.4727
 3925TIP3    H111739   6.178   0.829   2.652  2.0835 -1.8095  0.3770
 3925TIP3    H211740   6.174   0.916   2.528 -0.8958 -1.0655  0.9064
 3926TIP3   OH211741   5.572   2.107   0.269  0.2474 -0.3936 -0.1535
 3926TIP3    H111742   5.570   2.013   0.255 -0.5826 -0.4743  0.4250
 3926TIP3    H211743   5.531   2.119   0.355  1.3734  0.4017  0.2974
 3927TIP3   OH211744   2.582   2.841   1.664 -0.0282  0.6381 -0.3469
 3927TIP3    H111745   2.509   2.856   1.604  0.1787  2.1955 -0.2560
 3927TIP3    H211746   2.541   2.818   1.747 -0.3216 -1.3311 -0.9860
 3928TIP3   OH211747   4.962   1.213   4.795  0.3333 -0.1312 -0.2473
 3928TIP3    H111748   4.891   1.249   4.742 -0.1482  0.3336  0.6860
 3928TIP3    H211749   4.921   1.144   4.847  0.2558  1.0220  1.2615
 3929TIP3   OH211750   0.205   6.725   5.079  0.3999  1.1027  0.0797
 3929TIP3    H111751   0.271   6.677   5.030  0.3926 -0.2617  1.3407
 3929TIP3    H211752   0.158   6.776   5.013  0.5259 -0.4893 -1.3096
 3930TIP3   OH211753   5.845   1.843   5.660 -0.2519 -0.1997 -0.4793
 3930TIP3    H111754   5.774   1.832   5.724  0.3121 -1.0325  0.0195
 3930TIP3    H211755   5.889   1.924   5.687 -1.6119  0.8992 -1.4060
 3931TIP3   OH211756   3.911   3.496   1.431  0.5619 -0.0549 -0.3795
 3931TIP3    H111757   3.838   3.494   1.493 -0.1561  1.1828 -1.1515
 3931TIP3    H211758   3.906   3.582   1.391  3.8391  0.9837  1.1253
 3932TIP3   OH211759   4.829   1.385   4.194  0.6497 -0.3865 -0.6589
 3932TIP3    H111760   4.894   1.374   4.264  0.1157  1.8634  0.2909
 3932TIP3    H211761   4.767   1.314   4.207  1.4953 -1.0137  0.0729
 3933TIP3   OH211762   1.459   0.456   1.864 -0.2681  0.3518  0.0729
 3933TIP3    H111763   1.388   0.396   1.844 -0.3756  0.6350 -0.4341
 3933TIP3    H211764   1.448   0.478   1.956 -1.3260  1.0157 -0.1883
 3934TIP3   OH211765   5.275   3.690   4.363 -0.0246 -0.0468  0.2670
 3934TIP3    H111766   5.325   3.616   4.399 -0.4324 -0.9094 -0.8808
 3934TIP3    H211767   5.271   3.673   4.269  0.5852  1.8990 -0.1524
 3935TIP3   OH211768   2.558   1.660   3.977 -0.0044  0.0783 -0.9319
 3935TIP3    H111769   2.630   1.646   4.039 -1.2474  2.6100  1.2990
 3935TIP3    H211770   2.501   1.584   3.989  0.5669 -0.2261 -0.0862
 3936TIP3   OH211771   1.747   2.420   2.515 -0.3375  0.6582  0.0495
 3936TIP3    H111772   1.696   2.497   2.488 -0.0311  0.0441 -2.5364
 3936TIP3    H211773   1.812   2.409   2.446  0.1730 -1.4477  0.7958
 3937TIP3   OH211774   1.193   6.733   0.683 -0.4099 -0.2214  0.3433
 3937TIP3    H111775   1.255   6.720   0.611 -2.1549 -0.0823 -1.2583
 3937TIP3    H211776   1.242   6.710   0.762  1.9235  0.6783 -0.7638
 3938TIP3   OH211777   0.032   5.321   4.704  0.2661  0.0607  0.5800
 3938TIP3    H111778  -0.022   5.334   4.781 -0.2310 -0.6588  0.3657
 3938TIP3    H211779   0.034   5.406   4.660  1.2791  0.7096  1.8295
 3939TIP3   OH211780   2.251   2.296   2.507  0.2600  0.1913  0.2571
 3939TIP3    H111781   2.188   2.229   2.478 -0.0658  0.1076  1.1436
 3939TIP3    H211782   2.273   2.343   2.427  0.1585 -0.6961 -0.3137
 3940TIP3   OH211783   6.741   5.272   5.116  0.0983 -0.4920  0.3613
 3940TIP3    H111784   6.674   5.222   5.161  0.9468 -2.8459 -0.8471
 3940TIP3    H211785   6.823   5.250   5.161  0.7076 -1.5354 -1.1431
 3941TIP3   OH211786   3.716   2.205   5.565  0.7128 -0.0871  0.1364
 3941TIP3    H111787   3.698   2.283   5.512 -0.6176 -0.2539  0.2860
 3941TIP3    H211788   3.810   2.206   5.578  0.9375  0.5776 -1.2782
 3942TIP3   OH211789   1.319   4.457   3.232 -0.1996 -0.1342 -0.2968
 3942TIP3    H111790   1.270   4.416   3.303  1.0430 -0.3020  0.4955
 3942TIP3    H211791   1.312   4.551   3.248 -0.3529 -0.1524 -0.2572
 3943TIP3   OH211792   4.938   3.662   0.756 -0.5253  0.7121 -0.0184
 3943TIP3    H111793   5.007   3.663   0.822 -0.6158  3.2268  0.1379
 3943TIP3    H211794   4.984   3.656   0.672 -0.4377 -3.6260  0.0963
 3944TIP3   OH211795   2.558   4.859   2.992  0.5995 -0.6531  0.7113
 3944TIP3    H111796   2.485   4.852   3.053  0.5536 -0.6918  0.6515
 3944TIP3    H211797   2.602   4.773   2.997  0.9465 -0.4577  1.1346
 3945TIP3   OH211798   2.807   4.475   2.606 -0.0991 -0.3361  0.1154
 3945TIP3    H111799   2.895   4.479   2.569 -0.6287 -0.8639 -1.2615
 3945TIP3    H211800   2.786   4.381   2.607 -0.2982 -0.3009  1.3423
 3946TIP3   OH211801   1.218   1.745   3.253  0.1137 -0.0619 -0.2350
 3946TIP3    H111802   1.179   1.703   3.329  0.9329  0.4071  0.4530
 3946TIP3    H211803   1.221   1.676   3.186 -1.1879 -0.2982 -0.0602
 3947TIP3   OH211804   5.486   6.241   5.435 -0.2400  0.2149 -0.0687
 3947TIP3    H111805   5.417   6.244   5.369 -1.3439  0.1096  1.0431
 3947TIP3    H211806   5.471   6.159   5.481  1.6087 -0.5942 -0.7930
 3948TIP3   OH211807   2.821   6.183   4.219  0.0745 -0.3309  0.1225
 3948TIP3    H111808   2.752   6.150   4.160 -0.5232 -0.2508  0.7663
 3948TIP3    H211809   2.876   6.238   4.162  0.6374 -1.7780 -0.7925
 3949TIP3   OH211810   0.965   5.350   1.828  0.2935  0.8194  0.2647
 3949TIP3    H111811   0.920   5.285   1.882 -0.3698 -1.1596 -2.4476
 3949TIP3    H211812   0.946   5.433   1.871 -1.5069 -0.4702  2.1857
 3950TIP3   OH211813   0.271   5.592   0.148  0.4854 -0.3415  0.1831
 3950TIP3    H111814   0.338   5.540   0.105 -0.0322 -1.0487  0.2062
 3950TIP3    H211815   0.283   5.681   0.114  0.0900 -0.8682 -1.4468
 3951TIP3   OH211816   5.456  -0.032   4.282  0.3314 -0.2850  0.2090
 3951TIP3    H111817   5.450   0.033   4.351 -1.1115 -1.1083  0.9055
 3951TIP3    H211818   5.465   0.019   4.202  2.6058  0.6735  1.0093
 3952TIP3   OH211819   4.042   1.298   0.294  0.1370 -0.0086 -0.2236
 3952TIP3    H111820   4.034   1.226   0.231 -0.9800 -0.7491  0.7198
 3952TIP3    H211821   4.127   1.285   0.335  0.2636 -0.3583 -0.5932
 3953TIP3   OH211822   4.289   3.448   3.832  0.1577  0.1482  0.2964
 3953TIP3    H111823   4.329   3.470   3.916 -1.1605  1.1397  0.6943
 3953TIP3    H211824   4.322   3.514   3.772 -1.1555  1.2191  0.7188
 3954TIP3   OH211825   3.218   0.733   3.298 -0.7140  0.4295  0.0481
 3954TIP3    H111826   3.159   0.674   3.345  0.0232 -0.7299 -0.4569
 3954TIP3    H211827   3.267   0.677   3.238  0.0880  1.5358 -0.3797
 3955TIP3   OH211828   4.226   2.988   5.178  0.4602 -0.0890 -0.4664
 3955TIP3    H111829   4.304   3.031   5.144  1.9719 -2.4934 -0.2089
 3955TIP3    H211830   4.185   2.949   5.101 -1.8687  2.9679 -0.9958
 3956TIP3   OH211831   3.631   3.414   0.141  0.2880  0.1313 -0.3718
 3956TIP3    H111832   3.678   3.340   0.103 -1.6437 -1.0218 -0.6240
 3956TIP3    H211833   3.584   3.378   0.216  0.5416  1.4546  0.4601
 3957TIP3   OH211834   1.144   4.065   0.887 -0.3454 -0.0300 -0.0178
 3957TIP3    H111835   1.157   4.037   0.978 -1.8449  0.3080  0.3310
 3957TIP3    H211836   1.103   3.990   0.845  0.1185 -0.0933 -0.3673
 3958TIP3   OH211837   3.189   0.371   4.656 -0.6091 -0.2817  0.2994
 3958TIP3    H111838   3.176   0.306   4.587  0.9339  0.3128 -0.5855
 3958TIP3    H211839   3.279   0.358   4.685 -1.1463 -0.3360  2.0374
 3959TIP3   OH211840   0.347   4.551   1.245 -0.0792 -0.4502  0.1152
 3959TIP3    H111841   0.367   4.644   1.248 -0.4646 -0.3900  1.3429
 3959TIP3    H211842   0.288   4.536   1.319  0.0195 -1.6782 -0.0245
 3960TIP3   OH211843   0.148   5.088   4.985  0.1816 -0.1828  0.0719
 3960TIP3    H111844   0.203   5.033   5.040  0.4119  0.6625  0.7014
 3960TIP3    H211845   0.059   5.074   5.019  0.0746 -1.0450 -0.5252
 3961TIP3   OH211846   5.843   0.994   3.512 -0.1787  0.0382  0.5477
 3961TIP3    H111847   5.817   1.078   3.475  0.1967  0.2915  0.8498
 3961TIP3    H211848   5.863   0.939   3.436 -3.4542 -0.8293  0.1757
 3962TIP3   OH211849   5.309   5.907   3.167  0.2874 -0.4368  0.3482
 3962TIP3    H111850   5.329   5.954   3.086  1.5520  2.2369  2.0811
 3962TIP3    H211851   5.237   5.956   3.206  1.1299 -0.3613  1.8684
 3963TIP3   OH211852   4.136   3.744   4.267 -0.4096  0.6473  0.4862
 3963TIP3    H111853   4.221   3.767   4.303  0.0594  0.4502 -0.4544
 3963TIP3    H211854   4.095   3.688   4.333  0.7011 -0.2755  0.4133
 3964TIP3   OH211855   3.437   4.466   5.653  0.2775 -0.2401  0.1293
 3964TIP3    H111856   3.484   4.476   5.570  0.7105  1.4480  0.5470
 3964TIP3    H211857   3.466   4.382   5.687 -1.3601 -1.9229 -2.2986
 3965TIP3   OH211858   5.074   3.025   2.049  0.4105 -0.1817  0.3566
 3965TIP3    H111859   5.122   2.950   2.012  0.3628  0.5724 -1.3302
 3965TIP3    H211860   5.044   3.074   1.972  0.9076  1.8770  1.4171
 3966TIP3   OH211861   3.994   1.125   4.363 -0.1687  0.6839 -0.0569
 3966TIP3    H111862   4.077   1.106   4.319 -0.9744 -1.6924 -0.7158
 3966TIP3    H211863   3.953   1.192   4.309  0.6203  0.7284 -0.6227
 3967TIP3   OH211864   0.704   2.265   3.496  0.0168  0.0601 -0.3766
 3967TIP3    H111865   0.731   2.356   3.486 -2.1377  0.6337 -1.6960
 3967TIP3    H211866   0.763   2.229   3.561  2.5592  1.6934 -1.6205
 3968TIP3   OH211867   5.743   1.787   1.945 -0.4457 -0.0024 -0.4757
 3968TIP3    H111868   5.710   1.835   2.021 -1.6525 -0.8055 -0.4547
 3968TIP3    H211869   5.703   1.831   1.870  1.9433  1.7517 -0.8199
 3969TIP3   OH211870   1.087   1.955   4.469 -0.5225 -0.0490  0.0985
 3969TIP3    H111871   1.170   1.987   4.433 -1.4687  1.0497 -1.2479
 3969TIP3    H211872   1.046   2.032   4.507 -0.3636 -0.8507  2.0055
 3970TIP3   OH211873   4.380   2.573   0.105 -0.1563  0.8911  0.8026
 3970TIP3    H111874   4.403   2.581   0.198  1.4258  0.9494  0.4313
 3970TIP3    H211875   4.446   2.626   0.060  0.3297 -0.7581 -0.5037
 3971TIP3   OH211876   5.717   0.669   5.256 -0.3941 -0.0638  0.2708
 3971TIP3    H111877   5.710   0.655   5.351 -1.7184 -0.9117  0.0746
 3971TIP3    H211878   5.688   0.586   5.218  1.2965 -0.1748 -0.8919
 3972TIP3   OH211879   3.918   1.107   3.867 -0.3145 -0.5211  0.3422
 3972TIP3    H111880   3.963   1.112   3.782 -0.7948 -0.4067  0.0902
 3972TIP3    H211881   3.845   1.046   3.851 -0.5024 -0.3721  0.6274
 3973TIP3   OH211882   2.910   6.250   3.219  0.1552  0.5634  0.1238
 3973TIP3    H111883   2.890   6.310   3.146 -0.5789 -1.1269 -1.1309
 3973TIP3    H211884   2.980   6.194   3.186 -0.5517 -0.5698  0.5013
 3974TIP3   OH211885   2.050   1.933   5.489  0.8152  0.4967  0.4521
 3974TIP3    H111886   2.012   2.013   5.525 -0.6387 -0.9711  2.3790
 3974TIP3    H211887   2.144   1.951   5.488  0.5723  2.0586  1.2913
 3975TIP3   OH211888   5.587   3.925   3.671 -0.0480 -0.2945 -0.3611
 3975TIP3    H111889   5.543   3.900   3.590 -1.6559  0.4065  0.2514
 3975TIP3    H211890   5.624   3.844   3.704 -2.4035 -1.3194 -0.0210
 3976TIP3   OH211891   6.125   1.481   2.704 -0.3372 -0.0213  0.0229
 3976TIP3    H111892   6.205   1.429   2.709  1.3423  2.1915 -1.7079
 3976TIP3    H211893   6.076   1.443   2.632 -1.6080 -2.2178  1.9126
 3977TIP3   OH211894   4.713   4.878   3.744 -0.0494  0.0844  0.2668
 3977TIP3    H111895   4.742   4.862   3.655 -1.6473  1.5103 -0.5854
 3977TIP3    H211896   4.743   4.967   3.764 -0.6499  0.1968  0.7140
 3978TIP3   OH211897   2.725   1.322   4.381  0.7403 -0.6997 -0.3658
 3978TIP3    H111898   2.770   1.239   4.397  1.7158 -0.1425 -0.1580
 3978TIP3    H211899   2.753   1.379   4.452 -1.3284 -0.6965  0.5425
 3979TIP3   OH211900   6.948   1.409   0.378 -0.1540 -0.1483 -0.1267
 3979TIP3    H111901   6.924   1.331   0.427 -0.7312  0.6458  0.9054
 3979TIP3    H211902   6.883   1.416   0.309 -1.6323  0.7520  1.2882
 3980TIP3   OH211903   1.113   1.316   3.074  0.1641 -0.3541 -0.5474
 3980TIP3    H111904   1.043   1.380   3.059  1.3885  1.5794  1.3366
 3980TIP3    H211905   1.075   1.252   3.134 -0.4010 -0.0502 -0.5750
 3981TIP3   OH211906   6.283   2.151   5.368 -0.4060 -0.1873  0.3695
 3981TIP3    H111907   6.335   2.231   5.358 -0.9460 -0.0473 -1.6403
 3981TIP3    H211908   6.274   2.140   5.463  3.2932 -0.2553  0.8662
 3982TIP3   OH211909   1.761   5.205   4.878 -0.1852 -0.2945  0.6416
 3982TIP3    H111910   1.694   5.198   4.810  0.0200 -0.8004  0.4796
 3982TIP3    H211911   1.830   5.145   4.849  0.7386  0.8753  0.3496
 3983TIP3   OH211912   3.837   2.101   1.861 -0.2777 -0.5421  0.0193
 3983TIP3    H111913   3.771   2.153   1.815 -0.2290  1.8286  2.3460
 3983TIP3    H211914   3.905   2.085   1.795 -1.0557  1.0119 -1.2398
 3984TIP3   OH211915   6.941   6.457   4.784 -0.2325 -0.3050 -0.1364
 3984TIP3    H111916   6.977   6.441   4.871  0.7953  0.4337 -0.3963
 3984TIP3    H211917   6.912   6.372   4.753 -1.5445 -0.4171  1.3221
 3985TIP3   OH211918   1.063   2.020   5.216 -0.1649  0.1924  0.2916
 3985TIP3    H111919   1.075   2.023   5.311 -0.2505  0.8054  0.2826
 3985TIP3    H211920   1.127   1.956   5.186 -1.0233 -1.0082  0.9002
 3986TIP3   OH211921   3.715   1.756   1.929  0.4176 -0.2750 -0.3474
 3986TIP3    H111922   3.713   1.671   1.973  0.7263 -0.9352 -1.5454
 3986TIP3    H211923   3.630   1.795   1.946  1.1888  0.3778  2.4287
 3987TIP3   OH211924   3.150   2.751   0.203 -1.0805 -0.0891  0.1229
 3987TIP3    H111925   3.215   2.816   0.227  0.0634 -1.3638  0.6156
 3987TIP3    H211926   3.126   2.773   0.113  1.7669 -0.9004 -0.9464
 3988TIP3   OH211927   1.363   0.461   1.515 -0.1732  0.1550  0.0941
 3988TIP3    H111928   1.411   0.539   1.540  0.2748  0.0547 -0.4425
 3988TIP3    H211929   1.406   0.390   1.562  0.1659  0.0737 -0.3373
 3989TIP3   OH211930   1.503   0.575   2.635 -0.5092  0.0090 -0.5191
 3989TIP3    H111931   1.492   0.653   2.582  1.5434  0.5528 -0.2261
 3989TIP3    H211932   1.574   0.527   2.593  0.2423 -0.2113  0.9404
 3990TIP3   OH211933   3.242   1.455   2.226  0.1760 -0.3815 -0.3210
 3990TIP3    H111934   3.334   1.480   2.228  0.4812 -1.4747  0.7234
 3990TIP3    H211935   3.240   1.368   2.267 -1.1310 -1.0023 -1.6144
 3991TIP3   OH211936   2.450   4.660   5.135 -0.0916  0.2758 -0.2053
 3991TIP3    H111937   2.413   4.672   5.223 -0.5803  1.5897 -0.5579
 3991TIP3    H211938   2.529   4.607   5.149 -1.3295 -1.4126  0.7323
 3992TIP3   OH211939   5.026   4.751   3.639  0.0603  0.0208 -0.5213
 3992TIP3    H111940   4.960   4.708   3.584 -0.0058  0.8228 -1.0904
 3992TIP3    H211941   5.032   4.840   3.603 -0.3532  0.7259  1.0775
 3993TIP3   OH211942   3.728   0.143   0.054 -0.0578 -0.3174 -0.1101
 3993TIP3    H111943   3.649   0.185   0.089  0.7332  1.7072 -0.6387
 3993TIP3    H211944   3.798   0.169   0.114  0.3727 -1.4295 -0.1036
 3994TIP3   OH211945   3.238   1.917   0.835  0.1945  0.0932 -1.2942
 3994TIP3    H111946   3.298   1.886   0.768 -0.7061 -1.8486 -1.2575
 3994TIP3    H211947   3.226   2.010   0.815  0.4015 -0.3049 -3.4420
 3995TIP3   OH211948   2.442   4.748   4.203 -0.2927 -0.1827 -0.9720
 3995TIP3    H111949   2.382   4.789   4.265  0.0159 -1.8743  0.5566
 3995TIP3    H211950   2.529   4.766   4.239 -0.0932 -0.8567 -1.1022
 3996TIP3   OH211951   5.030   2.706   4.959 -0.3038 -0.1138  0.1877
 3996TIP3    H111952   5.102   2.685   5.018  0.4616  0.0669 -0.6658
 3996TIP3    H211953   5.052   2.792   4.923 -1.7325  0.6867  1.0888
 3997TIP3   OH211954   3.075   0.038   4.477 -0.2844  0.5307  0.0053
 3997TIP3    H111955   3.090  -0.005   4.393  0.7250  0.8030  0.0288
 3997TIP3    H211956   3.157   0.084   4.495 -1.0004  1.7083  0.4143
 3998TIP3   OH211957   4.223   0.550   1.632  0.0481 -0.3085  0.6659
 3998TIP3    H111958   4.193   0.628   1.585  0.0820 -0.5205  0.2921
 3998TIP3    H211959   4.281   0.584   1.700  0.9336 -0.0830 -0.1806
 3999TIP3   OH211960  -0.013   5.189   0.052 -0.3305 -0.2102 -0.2042
 3999TIP3    H111961  -0.014   5.107   0.101 -2.8040 -0.0344  0.1619
 3999TIP3    H211962   0.066   5.184  -0.001  0.1183 -2.3727  0.5753
 4000TIP3   OH211963   7.009   5.576   4.375 -0.2423  0.6251 -0.9542
 4000TIP3    H111964   6.968   5.548   4.294 -0.4859 -1.1843 -0.2546
 4000TIP3    H211965   7.035   5.494   4.419  0.2699  1.5592  0.5862
 4001TIP3   OH211966   7.064   0.522   1.844  0.1161  0.1443 -0.2156
 4001TIP3    H111967   7.101   0.608   1.863 -0.3420  0.7267 -1.8087
 4001TIP3    H211968   7.065   0.477   1.929  0.1292  1.7876  0.7133
 4002TIP3   OH211969   0.915   0.598   2.355 -0.4213  0.0984 -0.5642
 4002TIP3    H111970   0.903   0.562   2.268 -0.6841  0.3409 -0.6301
 4002TIP3    H211971   0.914   0.522   2.413  0.0492 -0.0908 -0.7996
 4003TIP3   OH211972   1.716   0.809   3.395 -0.3999  0.0539  0.3550
 4003TIP3    H111973   1.715   0.714   3.388  0.8502  0.0801 -0.5569
 4003TIP3    H211974   1.689   0.827   3.485  0.3756 -1.2143  0.8669
 4004TIP3   OH211975   3.571   6.421   3.411 -0.7879 -0.4271  0.3351
 4004TIP3    H111976   3.484   6.391   3.383 -1.2443  0.0636  1.1699
 4004TIP3    H211977   3.594   6.490   3.349 -2.0906  1.1382  1.4825
 4005TIP3   OH211978   1.179   3.759   5.430  0.2649 -0.2440  0.9247
 4005TIP3    H111979   1.244   3.826   5.452  0.5996 -0.4139  0.4667
 4005TIP3    H211980   1.179   3.699   5.504  1.9343 -1.2465  0.1530
 4006TIP3   OH211981   6.859   5.747   5.751 -0.1417  0.0874  0.1617
 4006TIP3    H111982   6.776   5.793   5.765  0.7083  1.5522  0.6643
 4006TIP3    H211983   6.880   5.710   5.837 -0.4171 -0.5343 -0.0384
 4007TIP3   OH211984   2.267   4.119   5.380 -0.1010  0.0092 -0.9225
 4007TIP3    H111985   2.201   4.119   5.449  1.4140  1.4857  0.6266
 4007TIP3    H211986   2.284   4.212   5.362  2.4870 -0.2622 -0.2764
 4008TIP3   OH211987   6.195   6.570   4.377 -0.2008 -0.2076  0.2292
 4008TIP3    H111988   6.218   6.633   4.308 -1.3058  0.4636  0.4402
 4008TIP3    H211989   6.212   6.484   4.338 -0.2120  0.1741 -0.6553
 4009TIP3   OH211990   4.462   6.504   0.186  0.3909 -0.3824  0.1005
 4009TIP3    H111991   4.435   6.440   0.252  0.3783 -0.5734 -0.0867
 4009TIP3    H211992   4.546   6.470   0.153  0.2546 -0.4434 -0.1855
 4010TIP3   OH211993   4.826   4.728   2.238 -0.5183  0.0982  0.0113
 4010TIP3    H111994   4.810   4.787   2.312  0.5527 -0.6458  0.8756
 4010TIP3    H211995   4.788   4.773   2.163 -0.3413  1.5770  0.7646
 4011TIP3   OH211996   1.519   6.432   2.361 -0.5214  0.0088 -0.4574
 4011TIP3    H111997   1.612   6.434   2.341 -0.4940  0.8346 -0.2892
 4011TIP3    H211998   1.506   6.348   2.405  0.7342  1.1009  2.2362
 4012TIP3   OH211999   4.390   4.801   1.968  0.6282 -0.5335  0.1028
 4012TIP3    H112000   4.434   4.785   2.052  0.1072 -0.0757  0.4712
 4012TIP3    H212001   4.337   4.723   1.953  1.0012 -0.7745  0.0145
 4013TIP3   OH212002   6.087   5.079   0.705  0.9455  0.1250  0.1695
 4013TIP3    H112003   5.998   5.084   0.742  1.0094  1.2231  0.2097
 4013TIP3    H212004   6.144   5.082   0.782  1.0247 -1.6381  0.2187
 4014TIP3   OH212005   1.157   0.960   3.839  0.5589  0.5307 -0.4877
 4014TIP3    H112006   1.080   1.010   3.811  0.1936  0.9009  1.0857
 4014TIP3    H212007   1.131   0.869   3.829 -0.3223  0.6406  0.5121
 4015TIP3   OH212008   0.696   2.532   3.468  0.6888  0.1434 -0.1821
 4015TIP3    H112009   0.715   2.520   3.375  1.3459  1.1676 -0.2032
 4015TIP3    H212010   0.622   2.592   3.470  0.4809 -0.1188 -0.0506
 4016TIP3   OH212011   2.687   2.657   1.433 -0.0686  0.6239  0.3330
 4016TIP3    H112012   2.677   2.742   1.475 -1.9528  0.6272 -0.0522
 4016TIP3    H212013   2.697   2.595   1.506 -1.8749  0.8125  0.7934
 4017TIP3   OH212014   5.624   5.292   2.877 -0.0994 -0.1747 -0.4702
 4017TIP3    H112015   5.681   5.346   2.822  0.0563 -0.5946 -0.7271
 4017TIP3    H212016   5.682   5.258   2.945 -0.2674  0.2503 -0.1127
 4018TIP3   OH212017   0.896   2.145   4.191  0.3048  0.1055  0.9924
 4018TIP3    H112018   0.887   2.152   4.286 -1.5102 -0.0896  0.8582
 4018TIP3    H212019   0.894   2.051   4.173 -0.8219  0.1873  0.6476
 4019TIP3   OH212020   5.365   5.594   2.213 -0.3821 -0.2908 -0.3302
 4019TIP3    H112021   5.303   5.606   2.141 -0.5824 -0.0739 -0.1251
 4019TIP3    H212022   5.377   5.683   2.248 -0.1895 -0.3772 -0.1785
 4020TIP3   OH212023   3.171   1.906   4.608 -0.5300 -0.1468  0.7024
 4020TIP3    H112024   3.117   1.870   4.537  0.7446  0.0318 -0.4095
 4020TIP3    H212025   3.138   1.865   4.687 -1.6984 -0.7183 -0.0550
 4021TIP3   OH212026   4.433   2.819   4.955 -0.1750  0.0918  0.3389
 4021TIP3    H112027   4.473   2.888   4.902  1.5174 -1.2323 -0.1936
 4021TIP3    H212028   4.463   2.837   5.045 -0.0277  0.2421  0.2600
 4022TIP3   OH212029   1.781   3.373   5.306  0.1117  0.3026  0.2203
 4022TIP3    H112030   1.775   3.279   5.322  0.8071 -0.1744 -1.9473
 4022TIP3    H212031   1.783   3.381   5.211  1.2125  2.4334  0.3522
 4023TIP3   OH212032   4.665   1.073   4.516  0.9893  0.1515 -0.2912
 4023TIP3    H112033   4.615   1.155   4.518  0.1912 -0.3294  1.7305
 4023TIP3    H212034   4.654   1.040   4.427 -1.5849  0.5179 -0.1701
 4024TIP3   OH212035   0.111   4.246   2.945 -0.2244  0.2060  0.0352
 4024TIP3    H112036   0.165   4.192   2.888  0.8860  0.9501  0.3470
 4024TIP3    H212037   0.156   4.242   3.030 -1.2247  0.0273  0.5656
 4025TIP3   OH212038   6.819   3.225   2.391  0.3132 -0.0794 -1.1963
 4025TIP3    H112039   6.834   3.306   2.342  1.5758 -0.8030 -2.0495
 4025TIP3    H212040   6.901   3.177   2.384  0.6768 -0.1003  1.9388
 4026TIP3   OH212041   4.155   5.756   4.998 -0.5919  0.0672  0.5140
 4026TIP3    H112042   4.110   5.674   5.018 -0.1720 -0.4460 -0.5488
 4026TIP3    H212043   4.087   5.814   4.964 -0.4037 -0.9107 -1.6715
 4027TIP3   OH212044   3.738   4.448   5.798 -0.5088  0.7914 -0.5460
 4027TIP3    H112045   3.706   4.534   5.824  1.5814  0.8761  2.0963
 4027TIP3    H212046   3.803   4.466   5.730 -0.5213  1.2504 -0.4384
 4028TIP3   OH212047   2.495   6.736   1.527 -0.0333 -0.4651  0.2715
 4028TIP3    H112048   2.458   6.794   1.593 -1.6461 -2.7655  1.5390
 4028TIP3    H212049   2.441   6.750   1.450 -0.7891 -0.7048  0.7518
 4029TIP3   OH212050   2.909   3.275   1.759 -0.1174 -0.5086  0.1168
 4029TIP3    H112051   2.916   3.370   1.756 -0.6759 -0.4324  0.9476
 4029TIP3    H212052   2.934   3.246   1.671 -1.0119  0.4754 -0.4865
 4030TIP3   OH212053   3.817   2.735   4.286  0.8617  0.1336  0.1183
 4030TIP3    H112054   3.830   2.686   4.204  0.5544 -0.7707  0.6031
 4030TIP3    H212055   3.857   2.680   4.353 -0.1355  0.1939  0.7726
 4031TIP3   OH212056   4.553   2.354   4.657  0.5108 -0.8602  0.1916
 4031TIP3    H112057   4.640   2.319   4.638  0.0376 -1.4535 -1.0124
 4031TIP3    H212058   4.541   2.425   4.594  0.2124 -0.6162  0.5141
 4032TIP3   OH212059   6.504   1.101   2.381 -0.1025  0.3510  0.3247
 4032TIP3    H112060   6.458   1.072   2.459 -1.3866  1.2599 -0.0730
 4032TIP3    H212061   6.539   1.187   2.404  0.7317  0.0182  0.3504
 4033TIP3   OH212062   2.795   1.150   0.388 -0.2588 -0.3486  0.0270
 4033TIP3    H112063   2.736   1.192   0.450 -0.1753 -2.8883  1.9521
 4033TIP3    H212064   2.882   1.162   0.426  0.0202 -0.2029 -0.6467
 4034TIP3   OH212065   0.934   2.674   0.769 -0.2063 -0.0347  0.0456
 4034TIP3    H112066   0.860   2.735   0.769  1.3059  1.9204  0.0647
 4034TIP3    H212067   1.003   2.721   0.817  0.5117 -2.5174  1.6289
 4035TIP3   OH212068   1.680   5.991   0.830  0.5958 -0.4011  0.0349
 4035TIP3    H112069   1.704   6.083   0.820 -0.9435  0.1155  0.7318
 4035TIP3    H212070   1.745   5.956   0.891  0.8666  0.3798  0.2061
 4036TIP3   OH212071   5.260   4.094   0.729  0.1534 -0.2851  0.3952
 4036TIP3    H112072   5.279   4.081   0.636  1.1945 -1.1639  0.7132
 4036TIP3    H212073   5.169   4.064   0.740  0.9653 -3.0758  0.1964
 4037TIP3   OH212074   1.185   2.395   3.662 -0.2902  0.8572  0.2721
 4037TIP3    H112075   1.167   2.321   3.603 -0.0258  0.2267  0.9659
 4037TIP3    H212076   1.100   2.436   3.676 -0.4089  0.8033 -0.2725
 4038TIP3   OH212077   5.331   5.671   0.472  0.5769 -0.0404  0.2122
 4038TIP3    H112078   5.362   5.584   0.499  1.0020 -0.1973 -0.7365
 4038TIP3    H212079   5.411   5.722   0.461  0.7061 -0.7297 -3.2132
 4039TIP3   OH212080   1.266   0.177   2.654 -0.1934 -0.0118  0.0640
 4039TIP3    H112081   1.216   0.097   2.634  0.4782 -0.2078 -0.9075
 4039TIP3    H212082   1.312   0.156   2.735 -1.0962 -0.0993  0.5663
 4040TIP3   OH212083   6.182   4.748   3.147  0.5519  0.2766 -0.0109
 4040TIP3    H112084   6.094   4.750   3.109  1.4819  0.2827 -2.3214
 4040TIP3    H212085   6.175   4.685   3.219 -1.5987  1.1750  0.6522
 4041TIP3   OH212086   6.551   6.090   0.599  0.2184 -0.1654  0.4359
 4041TIP3    H112087   6.627   6.036   0.618  1.0778  0.7143 -0.3974
 4041TIP3    H212088   6.526   6.065   0.510 -0.4402 -0.4048  0.6813
 4042TIP3   OH212089   0.691   0.856   5.121  0.0032 -0.3766  0.1082
 4042TIP3    H112090   0.645   0.913   5.183  1.4678 -0.3895  1.2565
 4042TIP3    H212091   0.745   0.916   5.070 -1.4891 -0.3185 -1.4898
 4043TIP3   OH212092   0.277   4.785   1.545 -0.4251 -0.2097 -0.1295
 4043TIP3    H112093   0.211   4.823   1.486  0.5174 -0.4379 -1.3655
 4043TIP3    H212094   0.311   4.860   1.594 -0.0064  0.2661 -1.1145
 4044TIP3   OH212095   3.959   2.684   1.580 -0.2219 -0.1414 -0.7114
 4044TIP3    H112096   4.033   2.729   1.538 -0.9397  1.3652 -0.4372
 4044TIP3    H212097   3.947   2.731   1.663  0.0477 -1.9386  0.3858
 4045TIP3   OH212098   7.082   1.571   0.556 -0.3380 -0.4208  0.2889
 4045TIP3    H112099   7.006   1.528   0.517  1.6680 -4.0007 -0.1865
 4045TIP3    H212100   7.141   1.587   0.482 -0.7176  2.9282  0.5405
 4046TIP3   OH212101   5.647   3.696   4.509  0.4546 -0.5635  0.3616
 4046TIP3    H112102   5.704   3.718   4.582  0.2646  0.0462  0.3341
 4046TIP3    H212103   5.580   3.765   4.509 -0.1086 -1.0965  0.2129
 4047TIP3   OH212104   5.601   5.907   3.156  0.7707 -0.5462 -0.0815
 4047TIP3    H112105   5.548   5.838   3.114 -0.9880 -0.1657  1.3726
 4047TIP3    H212106   5.686   5.866   3.170  0.7262 -1.3997 -1.9650
 4048TIP3   OH212107   6.726   0.515   5.159  0.9636  0.3992  0.1000
 4048TIP3    H112108   6.787   0.545   5.091 -1.3516  0.2584 -2.2244
 4048TIP3    H212109   6.669   0.590   5.174 -0.3239 -0.4617 -0.2938
 4049TIP3   OH212110   3.484   6.122   3.117  0.8017 -0.3714 -0.0136
 4049TIP3    H112111   3.537   6.087   3.046  0.1423  2.6656 -2.2127
 4049TIP3    H212112   3.403   6.152   3.075 -0.0035  0.8042  2.1671
 4050TIP3   OH212113   1.812   2.957   5.532  0.3428  1.1035 -0.0576
 4050TIP3    H112114   1.719   2.939   5.547  0.2275  0.3412 -1.5248
 4050TIP3    H212115   1.831   3.032   5.589 -1.2445  1.4832  0.0348
 4051TIP3   OH212116   6.596   0.860   1.205 -0.2004 -0.4533  0.4270
 4051TIP3    H112117   6.647   0.933   1.238  0.4500  0.4302 -2.3107
 4051TIP3    H212118   6.643   0.829   1.128 -2.1029 -1.7012 -0.3355
 4052TIP3   OH212119   2.389   4.120   1.957 -0.3554 -0.3640  0.8376
 4052TIP3    H112120   2.454   4.052   1.977 -0.8419 -0.5406  1.9032
 4052TIP3    H212121   2.417   4.196   2.009  0.8006  0.6631 -1.1537
 4053TIP3   OH212122   5.089   3.132   3.052  0.0851  0.4200  0.6213
 4053TIP3    H112123   5.169   3.093   3.016 -1.6220 -1.0987 -1.8400
 4053TIP3    H212124   5.064   3.198   2.987 -1.8313 -0.7148  0.1201
 4054TIP3   OH212125   2.452   4.519   2.972 -0.2769 -0.0938  0.6185
 4054TIP3    H112126   2.433   4.425   2.970 -0.7115 -0.0020 -0.4490
 4054TIP3    H212127   2.541   4.526   3.004  0.1042 -0.9449 -0.2244
 4055TIP3   OH212128   5.567   0.716   2.045 -0.4682 -0.0642 -0.2382
 4055TIP3    H112129   5.486   0.763   2.065 -0.6583 -1.2338  2.1445
 4055TIP3    H212130   5.637   0.778   2.069 -0.6965 -0.0989  0.5397
 4056TIP3   OH212131   3.081   6.410   3.390 -0.2408 -0.2179  0.2053
 4056TIP3    H112132   3.087   6.484   3.329  1.6351  0.4486  1.1399
 4056TIP3    H212133   2.995   6.372   3.372 -0.7494  1.4347 -1.1487
 4057TIP3   OH212134   5.026   5.802   4.161  0.0248 -0.5951  0.1728
 4057TIP3    H112135   4.959   5.819   4.094  0.3835 -0.0938 -0.0661
 4057TIP3    H212136   4.977   5.768   4.236 -0.2782 -2.1948 -0.7040
 4058TIP3   OH212137   1.308   5.002   0.168  0.0107 -0.9075 -0.5929
 4058TIP3    H112138   1.222   4.965   0.148  0.0028 -1.1587 -0.1093
 4058TIP3    H212139   1.363   4.926   0.184 -0.1057 -0.7158  0.8243
 4059TIP3   OH212140   0.688   2.863   3.311 -0.6405  0.1921  0.9470
 4059TIP3    H112141   0.633   2.842   3.386 -0.2766  1.1207  1.4915
 4059TIP3    H212142   0.769   2.814   3.326 -0.6101  0.2892  1.1015
 4060TIP3   OH212143   0.933   2.745   3.353 -0.6034  0.0442  0.9108
 4060TIP3    H112144   0.945   2.697   3.271 -2.8025  2.7755 -1.1920
 4060TIP3    H212145   0.886   2.684   3.410 -0.0632 -1.5243 -0.2571
 4061TIP3   OH212146   5.163   2.621   1.003 -0.0369 -0.2549 -0.1678
 4061TIP3    H112147   5.179   2.656   1.090 -3.5645 -0.2505  0.6490
 4061TIP3    H212148   5.163   2.697   0.945 -0.2384  0.0853  0.2781
 4062TIP3   OH212149   1.080   1.009   5.182 -0.0533 -0.3861 -0.0621
 4062TIP3    H112150   1.163   1.050   5.207 -0.9031  0.9214  0.7032
 4062TIP3    H212151   1.018   1.037   5.249 -0.9653 -1.9697 -0.1971
 4063TIP3   OH212152   5.149   6.294   0.882 -0.3051 -0.0264  0.4780
 4063TIP3    H112153   5.167   6.229   0.951  0.3224 -0.1423  0.2117
 4063TIP3    H212154   5.235   6.325   0.856 -0.5796  0.5252  0.2223
 4064TIP3   OH212155   4.267   1.056   4.434  0.0831  0.6553 -0.4009
 4064TIP3    H112156   4.288   1.124   4.497  1.9918 -0.2421 -0.0056
 4064TIP3    H212157   4.254   0.977   4.486 -1.3917  0.5223 -0.9114
 4065TIP3   OH212158   1.558   0.757   1.095 -0.2091  0.1971  0.7783
 4065TIP3    H112159   1.564   0.689   1.162  1.0741  0.8138  1.3164
 4065TIP3    H212160   1.648   0.776   1.071 -0.6424  0.0270 -1.1197
 4066TIP3   OH212161   6.194   5.915   1.870 -0.0207 -0.1251 -0.5357
 4066TIP3    H112162   6.185   5.821   1.883 -1.2108 -0.2543 -1.9670
 4066TIP3    H212163   6.104   5.948   1.869  0.2649  0.7205 -1.9418
 4067TIP3   OH212164   1.788   3.636   1.880  0.5182  0.5664 -0.1702
 4067TIP3    H112165   1.820   3.564   1.826  1.0996  1.1909 -0.6681
 4067TIP3    H212166   1.826   3.715   1.841  0.2790  1.1057  0.6531
 4068TIP3   OH212167   2.678   2.490   5.240 -0.0500  0.0525  0.5386
 4068TIP3    H112168   2.636   2.474   5.324  0.9304 -2.8920  0.5612
 4068TIP3    H212169   2.612   2.468   5.175 -0.0109 -0.0966  0.5493
 4069TIP3   OH212170   0.508   0.517   5.182 -0.4705 -0.0778  0.2377
 4069TIP3    H112171   0.419   0.483   5.190 -0.9399  1.0794  0.0601
 4069TIP3    H212172   0.506   0.570   5.102  0.8059 -1.2983 -0.6565
 4070TIP3   OH212173   1.941   3.590   0.558 -0.0762  0.1095 -0.4684
 4070TIP3    H112174   1.914   3.506   0.523 -1.3827  0.1927  0.2523
 4070TIP3    H212175   1.976   3.570   0.645 -0.3433  0.2841 -0.3159
 4071TIP3   OH212176   2.504   3.096   3.453  0.8887  0.3135  0.4573
 4071TIP3    H112177   2.484   3.127   3.364 -0.4773  0.0515  0.6555
 4071TIP3    H212178   2.485   3.171   3.509 -0.3329 -0.1834  0.7260
 4072TIP3   OH212179   1.895   2.401   1.568 -0.0959 -0.8104  0.3821
 4072TIP3    H112180   1.918   2.475   1.512 -4.2328  0.4907  0.0777
 4072TIP3    H212181   1.901   2.436   1.657  0.9242 -1.1035  0.4376
 4073TIP3   OH212182   4.911   4.258   3.441 -0.5025 -0.2868 -0.1254
 4073TIP3    H112183   4.883   4.216   3.521 -0.2305  0.6257  0.4672
 4073TIP3    H212184   5.007   4.258   3.446 -0.4012 -1.7425 -1.2666
 4074TIP3   OH212185   0.445   3.557   0.525  0.1908  0.7751  0.1092
 4074TIP3    H112186   0.451   3.526   0.434  0.8051  0.1019  0.3715
 4074TIP3    H212187   0.378   3.625   0.522 -2.5839 -1.7331 -0.2016
 4075TIP3   OH212188   4.368   4.183   1.297  0.1719 -0.0727 -0.2327
 4075TIP3    H112189   4.430   4.250   1.269  1.1950 -1.0404 -0.3236
 4075TIP3    H212190   4.314   4.226   1.363 -0.6383  1.5067 -1.8234
 4076TIP3   OH212191   3.957   0.514   1.667 -0.3303  1.0437  0.0321
 4076TIP3    H112192   4.045   0.536   1.638 -0.5248  1.0941 -0.5335
 4076TIP3    H212193   3.902   0.527   1.590 -0.6700 -0.0527  0.0653
 4077TIP3   OH212194   5.564   4.652   2.242 -0.2320  0.2785 -0.0793
 4077TIP3    H112195   5.584   4.666   2.334  1.4572  0.5999 -0.4684
 4077TIP3    H212196   5.509   4.574   2.241 -0.5828  0.4827  1.2185
 4078TIP3   OH212197   1.612   5.219   4.374 -0.2179  0.3101 -0.5053
 4078TIP3    H112198   1.554   5.295   4.370 -0.4849  0.1179 -0.3273
 4078TIP3    H212199   1.557   5.146   4.346  0.1672  0.2540 -1.1349
 4079TIP3   OH212200   7.064   2.850   4.966  0.2716  0.3086  0.1867
 4079TIP3    H112201   7.068   2.758   4.940  0.8020  0.7313 -1.3354
 4079TIP3    H212202   6.978   2.859   5.007  0.3156 -0.9174  0.5964
 4080TIP3   OH212203   0.684   0.680   1.471 -0.1513 -0.0778 -0.5130
 4080TIP3    H112204   0.713   0.608   1.527 -0.0923  0.7836  0.5832
 4080TIP3    H212205   0.666   0.752   1.531 -1.8574  0.3180 -1.4158
 4081TIP3   OH212206   2.823   0.930   3.418 -0.3823  0.1818 -0.4555
 4081TIP3    H112207   2.890   0.955   3.482 -1.8453  1.3295  0.7087
 4081TIP3    H212208   2.837   0.990   3.345 -0.8259  1.2232  0.2782
 4082TIP3   OH212209   0.456   6.344   1.287 -0.2902  0.2735  0.4984
 4082TIP3    H112210   0.520   6.274   1.299 -1.2198 -0.7484 -0.2385
 4082TIP3    H212211   0.505   6.425   1.302  0.6456 -0.5459  2.0945
 4083TIP3   OH212212   1.467   0.803   2.499 -0.1602 -0.0596  0.1427
 4083TIP3    H112213   1.482   0.831   2.409  0.5069  0.5234  0.4224
 4083TIP3    H212214   1.460   0.885   2.548  1.9704 -0.3125  1.0049
 4084TIP3   OH212215   6.433   2.100   4.374 -0.3086 -0.1706  0.5276
 4084TIP3    H112216   6.439   2.029   4.310 -0.0559  0.1909  0.1317
 4084TIP3    H212217   6.374   2.164   4.333  0.3764  0.3653  0.3402
 4085TIP3   OH212218   1.055   0.306   0.087 -0.1339 -0.0096 -0.4030
 4085TIP3    H112219   1.032   0.252   0.163  1.6309  0.4727  0.5293
 4085TIP3    H212220   0.998   0.383   0.095 -0.0935 -0.0453  0.3556
 4086TIP3   OH212221   6.258   0.433   3.535  0.0691 -1.0551 -0.3160
 4086TIP3    H112222   6.235   0.357   3.588 -1.1643 -1.9592 -2.0361
 4086TIP3    H212223   6.198   0.502   3.563  0.5718 -0.9896  0.6137
 4087TIP3   OH212224   4.227   0.731   4.169 -0.1656 -0.0294  0.7008
 4087TIP3    H112225   4.262   0.803   4.116  1.1479 -0.3742  1.0668
 4087TIP3    H212226   4.132   0.746   4.169 -0.0226  1.0497 -0.1669
 4088TIP3   OH212227   3.981   3.621   2.743  0.1595 -0.1841  0.3011
 4088TIP3    H112228   3.977   3.534   2.782  0.5666 -0.9907 -1.3867
 4088TIP3    H212229   3.991   3.680   2.818  1.5998 -1.7039  1.3695
 4089TIP3   OH212230   1.174   0.498   1.712  0.0797  0.6690 -0.5543
 4089TIP3    H112231   1.101   0.438   1.725  0.7632  0.1470  1.1611
 4089TIP3    H212232   1.205   0.479   1.623 -0.7680 -0.3098 -0.6619
 4090TIP3   OH212233   2.131   2.929   2.966  0.2291 -0.1266 -0.1758
 4090TIP3    H112234   2.134   2.985   3.043  0.5029  0.1563 -0.3863
 4090TIP3    H212235   2.047   2.949   2.925 -0.4646 -1.1626  0.6896
 4091TIP3   OH212236   5.299   2.820   4.971 -0.0419 -0.0047  0.2476
 4091TIP3    H112237   5.376   2.876   4.974 -0.6794  0.9151 -0.0313
 4091TIP3    H212238   5.242   2.861   4.905 -1.7969  0.7484  2.0973
 4092TIP3   OH212239   6.586   4.793   5.278  0.0293 -0.4864  0.4083
 4092TIP3    H112240   6.582   4.736   5.355 -0.2208 -0.5124  0.3756
 4092TIP3    H212241   6.549   4.741   5.207 -2.6963  0.5888  0.9142
 4093TIP3   OH212242   2.913   2.176   1.063 -0.3682  0.0828  0.1243
 4093TIP3    H112243   2.993   2.204   1.019 -1.3383  1.3720 -0.9151
 4093TIP3    H212244   2.907   2.082   1.046  2.7126 -0.8909  3.2483
 4094TIP3   OH212245   5.262   4.270   3.451 -0.8822 -0.4585 -0.1824
 4094TIP3    H112246   5.345   4.224   3.454 -1.4374 -1.4947 -0.3128
 4094TIP3    H212247   5.224   4.247   3.366  1.1905  4.5528 -2.8737
 4095TIP3   OH212248   4.080   0.032   0.599 -0.2720  0.8807 -0.0586
 4095TIP3    H112249   4.036   0.056   0.681 -4.0901 -1.0537 -1.2628
 4095TIP3    H212250   4.124  -0.051   0.619  1.3205  1.8430  0.6542
 4096TIP3   OH212251   5.923   5.951   4.530  0.3460  0.2604 -0.1543
 4096TIP3    H112252   5.897   5.860   4.516  0.9554  0.1193 -0.4242
 4096TIP3    H212253   5.842   6.000   4.522 -0.2095 -0.3679  1.2550
 4097TIP3   OH212254   5.652   6.708   0.433  0.0378 -0.0396  0.0589
 4097TIP3    H112255   5.661   6.774   0.502 -1.1083  1.7617 -1.4178
 4097TIP3    H212256   5.710   6.737   0.363  0.7632 -1.5351 -0.0138
 4098TIP3   OH212257   0.417   0.889   1.071 -0.1886  0.0982 -0.1946
 4098TIP3    H112258   0.405   0.820   1.137  1.6807  0.3505  0.4896
 4098TIP3    H212259   0.344   0.878   1.011 -0.8564 -1.4264  0.8207
 4099TIP3   OH212260   2.726   2.110   1.863 -0.1866 -0.0664 -0.3049
 4099TIP3    H112261   2.775   2.168   1.922 -0.7022  1.3356 -1.2018
 4099TIP3    H212262   2.788   2.092   1.792 -0.3006  0.0593 -0.4359
 4100TIP3   OH212263   0.812   3.274   3.737  0.1066 -0.4145  0.4503
 4100TIP3    H112264   0.907   3.274   3.752  0.0881  2.3056  0.9432
 4100TIP3    H212265   0.802   3.253   3.645  1.2551  0.2209  0.1649
 4101TIP3   OH212266   3.164   0.073   1.385 -0.2730 -0.1799  0.3285
 4101TIP3    H112267   3.113   0.085   1.305 -0.3989 -1.0550  0.2699
 4101TIP3    H212268   3.130  -0.008   1.423 -0.9859  0.7915  1.8581
 4102TIP3   OH212269   4.194   5.413   2.755 -0.6321  0.3055 -0.3316
 4102TIP3    H112270   4.189   5.472   2.830  0.3414  1.7896 -1.3515
 4102TIP3    H212271   4.103   5.401   2.727 -0.8638  1.1996  0.0090
 4103TIP3   OH212272   4.460   1.779   5.627  0.0912  0.1284  0.1124
 4103TIP3    H112273   4.364   1.776   5.623  0.0555  1.3765 -2.5261
 4103TIP3    H212274   4.486   1.797   5.536  2.8132  0.2816  0.8562
 4104TIP3   OH212275   3.441   4.111   2.264  0.1010  0.1709 -0.2379
 4104TIP3    H112276   3.369   4.087   2.321  0.4944  0.2506  0.3010
 4104TIP3    H212277   3.401   4.123   2.178 -0.6559  0.9718  0.2147
 4105TIP3   OH212278   5.873   6.292   2.970 -0.0104  0.2585  0.4928
 4105TIP3    H112279   5.903   6.369   3.018  0.2641  0.1934  0.4327
 4105TIP3    H212280   5.853   6.324   2.882  0.7265  0.1523  0.2756
 4106TIP3   OH212281   5.679   1.600   5.004 -0.4264  0.2434 -0.6467
 4106TIP3    H112282   5.731   1.578   5.081  0.5559  0.2210 -1.2903
 4106TIP3    H212283   5.738   1.653   4.950 -1.3481  0.8962 -1.0412
 4107TIP3   OH212284   0.437   1.565   0.263  0.2864 -0.1637 -0.1064
 4107TIP3    H112285   0.401   1.504   0.327 -0.4898 -0.5457 -0.8956
 4107TIP3    H212286   0.500   1.617   0.313 -0.4904 -0.2790  1.0340
 4108TIP3   OH212287   3.854   2.756   1.054 -0.2372  0.3151 -0.0802
 4108TIP3    H112288   3.874   2.756   0.960  0.1770  0.7753  0.0047
 4108TIP3    H212289   3.824   2.667   1.072 -0.7662  0.3456 -0.7442
 4109TIP3   OH212290   5.589   3.807   4.010  0.0613  0.2228 -0.6237
 4109TIP3    H112291   5.668   3.801   4.064 -1.3002  0.6966  1.5682
 4109TIP3    H212292   5.578   3.721   3.971  0.2387 -0.6610  1.2108
 4110TIP3   OH212293   3.873   5.231   5.530 -0.0609 -0.1093  0.0574
 4110TIP3    H112294   3.924   5.250   5.451 -0.8368 -1.7537 -0.8987
 4110TIP3    H212295   3.860   5.316   5.572  2.4738  0.4906 -0.2513
 4111TIP3   OH212296   3.322   4.632   5.161  0.1911 -0.1474 -0.1689
 4111TIP3    H112297   3.283   4.633   5.248  0.3219 -0.2308 -0.1098
 4111TIP3    H212298   3.372   4.714   5.156  0.2652 -0.1901 -0.1289
 4112TIP3   OH212299   5.842   1.229   1.874  0.1473  0.6593 -0.1929
 4112TIP3    H112300   5.932   1.251   1.849  1.2099 -1.9899  0.8840
 4112TIP3    H212301   5.828   1.274   1.957  2.2540 -2.2658  1.9633
 4113TIP3   OH212302   5.751   5.526   3.217  0.3026 -0.1249  0.2144
 4113TIP3    H112303   5.797   5.595   3.170  0.3815 -1.0930 -1.2197
 4113TIP3    H212304   5.763   5.448   3.162  0.0337 -1.2329  1.6543
 4114TIP3   OH212305   2.955   2.686   4.761  0.0762  0.4890 -0.1460
 4114TIP3    H112306   2.987   2.760   4.811 -2.1244  0.3709  1.5994
 4114TIP3    H212307   2.952   2.614   4.825 -1.4604 -0.0506 -0.7908
 4115TIP3   OH212308   5.129   6.077   2.194  0.3616  0.2928  0.2779
 4115TIP3    H112309   5.211   6.069   2.144  0.5585  0.9032  0.4959
 4115TIP3    H212310   5.148   6.142   2.261  0.3648 -1.1281  1.7044
 4116TIP3   OH212311   2.944   1.688   4.808  0.9122 -0.1193  0.0598
 4116TIP3    H112312   3.023   1.633   4.803  1.0793 -0.1204  2.0059
 4116TIP3    H212313   2.888   1.644   4.872  0.0001  0.7317 -0.1281
 4117TIP3   OH212314   0.408   6.344   4.376 -0.4149  0.2953  0.6088
 4117TIP3    H112315   0.504   6.350   4.373 -0.2580 -0.4152  2.5001
 4117TIP3    H212316   0.381   6.423   4.424 -1.0391  1.7638 -1.9829
 4118TIP3   OH212317   2.004   2.757   4.210  0.3265 -0.3881 -0.2481
 4118TIP3    H112318   1.923   2.790   4.251  0.6962  0.1759  0.0568
 4118TIP3    H212319   2.071   2.820   4.238  1.4465 -2.3921  1.8902
 4119TIP3   OH212320   1.049   3.073   2.285 -0.5567 -0.1424  0.3053
 4119TIP3    H112321   1.120   3.031   2.235 -1.1881 -0.9433  0.0728
 4119TIP3    H212322   1.019   3.144   2.228  1.1689  1.3254  1.1067
 4120TIP3   OH212323   4.065   4.590   0.484 -0.7071  0.8478 -0.1114
 4120TIP3    H112324   4.044   4.528   0.554  0.7555  0.7578  0.2813
 4120TIP3    H212325   4.112   4.661   0.528 -0.0027  0.9210 -0.9485
 4121TIP3   OH212326   3.050   2.564   2.985 -0.0972 -1.0614 -0.2300
 4121TIP3    H112327   3.124   2.559   2.925  0.6533 -1.3044  0.6904
 4121TIP3    H212328   3.028   2.657   2.989 -0.5135 -1.1081 -1.2988
 4122TIP3   OH212329   5.542   4.624   0.174  0.5656  0.3528 -0.4497
 4122TIP3    H112330   5.614   4.606   0.114  0.9384  1.9226 -0.5346
 4122TIP3    H212331   5.463   4.596   0.128  0.9446  0.5750 -1.2387
 4123TIP3   OH212332   5.451   3.796   0.320  0.0992 -0.1612 -0.0391
 4123TIP3    H112333   5.529   3.772   0.370 -1.5976 -0.6564  2.5660
 4123TIP3    H212334   5.428   3.883   0.351 -0.9304 -0.4336  0.0082
 4124TIP3   OH212335   1.642   3.969   1.842  0.3088 -0.0493  0.0234
 4124TIP3    H112336   1.730   3.968   1.879  0.4995 -2.1806 -0.3976
 4124TIP3    H212337   1.639   3.894   1.783 -1.5738  0.3827 -0.5151
 4125TIP3   OH212338   2.582   6.075   1.350 -0.6981 -1.1088  0.0661
 4125TIP3    H112339   2.613   6.155   1.393 -1.4928 -0.7972  0.0799
 4125TIP3    H212340   2.619   6.004   1.402  0.6406 -0.7738 -0.3905
 4126TIP3   OH212341   3.091   0.903   4.506 -0.4854 -0.1543  0.6056
 4126TIP3    H112342   3.065   0.816   4.536 -0.4667 -0.4122 -0.1019
 4126TIP3    H212343   3.148   0.886   4.431 -1.4276  0.4832 -0.2834
 4127TIP3   OH212344   2.542   2.510   3.163  0.5130 -0.0197 -0.5947
 4127TIP3    H112345   2.632   2.475   3.166  0.5082  0.0108  0.0955
 4127TIP3    H212346   2.494   2.448   3.108  0.9025 -0.1726 -0.7656
 4128TIP3   OH212347   6.467   5.150   0.100  0.3059 -0.4537  0.3625
 4128TIP3    H112348   6.525   5.087   0.142 -0.1345 -1.0013  0.1531
 4128TIP3    H212349   6.381   5.108   0.098  0.6336 -1.2335 -2.6710
 4129TIP3   OH212350   4.443   1.593   3.861 -0.6422 -0.1073 -0.0214
 4129TIP3    H112351   4.450   1.653   3.786 -0.5153  0.1449  0.1917
 4129TIP3    H212352   4.510   1.624   3.922 -1.1359  0.0473  0.4513
 4130TIP3   OH212353   6.144   5.243   0.006  0.0701 -0.1492  0.4002
 4130TIP3    H112354   6.224   5.285  -0.026 -0.7187  1.2318  0.1553
 4130TIP3    H212355   6.113   5.301   0.076  0.6604 -2.0395  2.3142
 4131TIP3   OH212356   4.654   3.187   4.442 -0.0904 -0.3996 -0.1000
 4131TIP3    H112357   4.622   3.182   4.352  0.1623  0.8033 -0.2761
 4131TIP3    H212358   4.581   3.224   4.492 -0.1394 -0.8174  0.1449
 4132TIP3   OH212359   1.827   0.767   1.796 -0.0709  0.0894  0.1519
 4132TIP3    H112360   1.812   0.850   1.752 -1.4293  0.3553  1.0775
 4132TIP3    H212361   1.808   0.784   1.888 -1.4589 -1.5036  0.2086
 4133TIP3   OH212362   0.599   2.332   4.086 -0.4300  0.1869 -0.1262
 4133TIP3    H112363   0.563   2.410   4.042 -0.0697  0.6575  0.3976
 4133TIP3    H212364   0.673   2.306   4.031  0.3482  1.0908  0.4620
 4134TIP3   OH212365   4.598   4.845   0.568  0.2282  0.0564  0.1452
 4134TIP3    H112366   4.610   4.915   0.503  0.4951 -0.5203 -0.4347
 4134TIP3    H212367   4.581   4.891   0.650 -1.1476  0.7931 -0.5281
 4135TIP3   OH212368   2.980   2.666   1.742 -0.5557 -0.4231 -0.1619
 4135TIP3    H112369   3.039   2.613   1.688  1.7340  0.9741  0.8152
 4135TIP3    H212370   3.010   2.756   1.728 -1.3034  0.1651  1.7574
 4136TIP3   OH212371   4.277   6.636   0.566  0.4137  0.0276  0.3831
 4136TIP3    H112372   4.245   6.601   0.650  1.5674 -0.7615  0.5281
 4136TIP3    H212373   4.324   6.715   0.590  0.4154  0.0096  0.4406
 4137TIP3   OH212374   4.304   1.931   2.263  0.3626 -0.5748 -0.0970
 4137TIP3    H112375   4.387   1.977   2.278  0.0071  0.2482 -0.5640
 4137TIP3    H212376   4.278   1.958   2.175 -0.4265 -0.7753  0.0732
 4138TIP3   OH212377   6.187   5.437   4.200 -0.0029  0.4002 -0.1232
 4138TIP3    H112378   6.250   5.504   4.227 -0.0130  0.5890 -0.5627
 4138TIP3    H212379   6.238   5.378   4.145 -0.2145  0.5627 -0.4935
 4139TIP3   OH212380   3.075   1.577   1.419 -0.2849 -0.1299 -0.4357
 4139TIP3    H112381   3.040   1.529   1.344 -1.7616  0.3037 -0.0639
 4139TIP3    H212382   2.997   1.602   1.469  0.6077  0.5685  0.6375
 4140TIP3   OH212383   1.160   6.303   4.281 -0.3747  0.5177  0.4984
 4140TIP3    H112384   1.176   6.374   4.343  4.1562 -0.3769  0.6845
 4140TIP3    H212385   1.206   6.330   4.201 -0.8197 -1.0320 -0.3277
 4141TIP3   OH212386   0.110   5.817   3.953  0.2087  0.6019 -0.5363
 4141TIP3    H112387   0.149   5.732   3.932  1.5359  0.5158  1.9218
 4141TIP3    H212388   0.121   5.869   3.873  2.7192 -0.3999 -0.9384
 4142TIP3   OH212389   2.125   0.282   4.462 -0.3956  0.1715  0.2376
 4142TIP3    H112390   2.061   0.287   4.391 -1.8859  2.7103  1.6393
 4142TIP3    H212391   2.106   0.357   4.518  2.5931 -0.0738  1.8038
 4143TIP3   OH212392   4.217   2.893   2.944  0.3561  0.3180 -0.1252
 4143TIP3    H112393   4.279   2.823   2.923  1.2089  1.3578 -1.2523
 4143TIP3    H212394   4.191   2.928   2.859 -1.3936  0.2616  0.3612
 4144TIP3   OH212395   0.629   4.938   0.141  0.3904 -0.0274  0.3960
 4144TIP3    H112396   0.718   4.925   0.172  0.7553  0.5821 -0.3421
 4144TIP3    H212397   0.632   5.023   0.096  0.1373 -1.2235 -2.0579
 4145TIP3   OH212398   3.536   2.434   2.124 -0.1848 -0.0376  1.0403
 4145TIP3    H112399   3.468   2.386   2.169 -0.8300  1.0404  1.2609
 4145TIP3    H212400   3.525   2.525   2.153  0.3524  0.4243 -0.1137
 4146TIP3   OH212401   0.841   3.338   3.233 -0.2427 -0.2548 -0.3632
 4146TIP3    H112402   0.914   3.385   3.273 -0.0289 -0.0333 -1.0127
 4146TIP3    H212403   0.815   3.391   3.159 -1.5554  0.0409  0.2772
 4147TIP3   OH212404   0.319   3.185   3.705  0.4607 -0.4767 -0.1404
 4147TIP3    H112405   0.268   3.133   3.642  0.7560 -0.5493 -0.3256
 4147TIP3    H212406   0.316   3.274   3.671 -1.7950  0.0691  1.2787
 4148TIP3   OH212407   0.786   0.448   1.558  0.4386  0.2572  0.4043
 4148TIP3    H112408   0.773   0.422   1.466 -1.5215  0.1323  0.6743
 4148TIP3    H212409   0.806   0.367   1.603 -0.7106 -0.0353  0.4164
 4149TIP3   OH212410   2.636   4.931   3.456  0.3842 -0.0304  0.2141
 4149TIP3    H112411   2.624   4.850   3.405 -1.3187 -0.2014  0.8513
 4149TIP3    H212412   2.714   4.913   3.509  1.2444 -0.4534 -1.1252
 4150TIP3   OH212413   5.249   1.602   3.721  0.1539 -0.1285  0.2996
 4150TIP3    H112414   5.241   1.674   3.783  0.9714  0.6162 -0.4360
 4150TIP3    H212415   5.210   1.527   3.766 -0.3961  0.6815  1.2115
 4151TIP3   OH212416   5.977   1.828   1.287  0.1891  0.3044 -0.8502
 4151TIP3    H112417   5.976   1.922   1.306 -1.3811  0.3766 -1.2200
 4151TIP3    H212418   5.957   1.787   1.371  0.5818  0.3109 -0.7528
 4152TIP3   OH212419   6.574   5.069   4.155  0.2267 -0.1447  0.1294
 4152TIP3    H112420   6.529   5.133   4.209  0.1083 -0.9723  1.0463
 4152TIP3    H212421   6.598   5.116   4.076 -2.9461  0.1306 -0.7884
 4153TIP3   OH212422   6.898   4.061   2.781 -0.0600  0.2923 -0.2664
 4153TIP3    H112423   6.980   4.023   2.749  1.3716  2.2036  0.9268
 4153TIP3    H212424   6.865   4.112   2.707  0.3637  0.3228 -0.4372
 4154TIP3   OH212425   5.992   4.149   0.405 -0.0572 -0.0465  0.1574
 4154TIP3    H112426   5.988   4.243   0.386  0.9785  0.2812  1.4172
 4154TIP3    H212427   5.919   4.112   0.356  0.1695  1.2490 -1.2537
 4155TIP3   OH212428   3.066   1.973   5.794  0.0419 -0.6408 -0.7091
 4155TIP3    H112429   3.103   2.054   5.758 -0.6716 -0.6070 -1.4021
 4155TIP3    H212430   3.141   1.926   5.831  0.9685 -0.9875 -2.8638
 4156TIP3   OH212431   1.306   5.702   5.281  0.3139  0.1752  0.2137
 4156TIP3    H112432   1.388   5.686   5.327 -0.0039  0.7844  1.0229
 4156TIP3    H212433   1.243   5.722   5.350 -0.3269  0.5025 -0.4475
 4157TIP3   OH212434   5.639   4.402   5.710 -0.6976  0.0198 -0.1437
 4157TIP3    H112435   5.632   4.385   5.804  0.2824 -0.6064 -0.1651
 4157TIP3    H212436   5.619   4.318   5.669  1.8368 -0.5403 -0.3563
 4158TIP3   OH212437   4.703   6.470   3.499  0.2962 -0.5691  0.3987
 4158TIP3    H112438   4.737   6.559   3.488  1.1794 -0.9963 -0.5294
 4158TIP3    H212439   4.767   6.427   3.556  1.6960 -1.5343 -1.7779
 4159TIP3   OH212440   1.927   0.345   4.265  0.6052 -0.0117 -0.5888
 4159TIP3    H112441   1.892   0.418   4.317  2.4676  0.0632  0.6606
 4159TIP3    H212442   1.919   0.374   4.174 -3.0677 -0.2841 -0.4759
 4160TIP3   OH212443   2.457   4.651   3.386 -0.0582 -0.5895  0.1970
 4160TIP3    H112444   2.392   4.608   3.331 -0.8276 -0.8342  1.2624
 4160TIP3    H212445   2.425   4.639   3.476  0.4391  0.9871  0.6174
 4161TIP3   OH212446   4.261   4.056   5.411 -0.0554 -0.4505 -0.0710
 4161TIP3    H112447   4.224   3.968   5.404 -2.2219  0.3313  0.9438
 4161TIP3    H212448   4.192   4.114   5.378 -0.0540  1.1145  2.4566
 4162TIP3   OH212449   4.674   4.559   0.306  0.2258 -0.4718  0.3641
 4162TIP3    H112450   4.706   4.602   0.386  0.1304  0.5651 -0.1407
 4162TIP3    H212451   4.663   4.630   0.244 -0.5713 -1.1617 -0.2968
 4163TIP3   OH212452   4.937   2.804   0.470  0.0669  0.3895  0.4300
 4163TIP3    H112453   4.930   2.869   0.540  0.7867  1.1089 -0.1442
 4163TIP3    H212454   4.930   2.856   0.390 -1.2645 -0.4779 -0.0438
 4164TIP3   OH212455   6.578   3.185   0.852  0.0331 -0.5156 -0.5456
 4164TIP3    H112456   6.647   3.163   0.789  0.6486  0.6610 -0.3069
 4164TIP3    H212457   6.562   3.278   0.839 -0.7145 -0.5288  0.1844
 4165TIP3   OH212458   0.649   4.198   1.631  0.6124 -0.1381  0.0057
 4165TIP3    H112459   0.707   4.271   1.613  0.6536 -0.5104 -1.5400
 4165TIP3    H212460   0.562   4.237   1.641  0.7503  0.1902 -0.0922
 4166TIP3   OH212461   0.040   3.413   3.841 -0.1921  0.2614 -0.3141
 4166TIP3    H112462   0.036   3.353   3.767 -0.4247 -1.3970  0.9759
 4166TIP3    H212463   0.080   3.493   3.806  1.3417 -1.0950 -1.7999
 4167TIP3   OH212464   4.440   6.241   4.766 -0.6736  0.4915  1.4557
 4167TIP3    H112465   4.356   6.233   4.722 -0.2307 -1.2981  0.8632
 4167TIP3    H212466   4.505   6.222   4.699  0.3643  3.3930  1.4950
 4168TIP3   OH212467   6.959   5.910   0.441  0.0028 -0.6012 -0.2723
 4168TIP3    H112468   6.935   5.956   0.520  1.6861  0.4620 -0.3287
 4168TIP3    H212469   7.007   5.833   0.472  1.6964  0.4192 -0.2037
 4169TIP3   OH212470   5.407   2.052   1.570  0.2525  0.2912 -0.3052
 4169TIP3    H112471   5.349   2.060   1.494 -0.9173  1.8464  0.6793
 4169TIP3    H212472   5.348   2.029   1.643  1.2734 -0.6833  0.2452
 4170TIP3   OH212473   4.269   6.704   5.265 -0.4732 -0.1497 -0.2589
 4170TIP3    H112474   4.255   6.623   5.315 -1.4559  0.7088  0.9393
 4170TIP3    H212475   4.193   6.759   5.287  0.7255  1.5389 -0.0942
 4171TIP3   OH212476   3.424   3.530   3.581 -0.3340 -0.7204 -0.1780
 4171TIP3    H112477   3.331   3.544   3.601  0.2807  0.3740  2.3275
 4171TIP3    H212478   3.451   3.611   3.538 -0.5651 -1.1081 -1.0638
 4172TIP3   OH212479   2.560   3.846   0.785  0.0972  0.1638 -0.8010
 4172TIP3    H112480   2.611   3.801   0.853  0.4461  0.1026 -1.1015
 4172TIP3    H212481   2.536   3.777   0.724 -2.1591 -0.2054  0.4133
 4173TIP3   OH212482   4.046   2.421   2.342 -0.0369 -0.2287  0.7193
 4173TIP3    H112483   3.951   2.419   2.350 -0.0218  0.9795  1.4511
 4173TIP3    H212484   4.072   2.503   2.384  0.8966  2.1350 -3.8019
 4174TIP3   OH212485   1.508   2.516   3.480  0.2825  0.1004 -0.1594
 4174TIP3    H112486   1.592   2.476   3.503 -0.2061 -0.0172  1.5607
 4174TIP3    H212487   1.470   2.543   3.563 -1.1412  0.6745 -0.9467
 4175TIP3   OH212488   4.485   5.032   5.869  0.3777 -0.1880 -0.1898
 4175TIP3    H112489   4.577   5.014   5.848  1.1876  0.0739  2.6607
 4175TIP3    H212490   4.455   4.954   5.916 -0.5752  0.0987 -0.2964
 4176TIP3   OH212491   0.371   4.809   3.575 -0.7338 -0.2153  0.2277
 4176TIP3    H112492   0.455   4.814   3.621 -1.7551 -3.5476  2.8325
 4176TIP3    H212493   0.305   4.820   3.644 -2.4004 -1.3080 -1.1052
 4177TIP3   OH212494   3.341   6.359   3.034 -0.2311  0.3516  0.2423
 4177TIP3    H112495   3.431   6.354   3.002 -0.3400  3.0204 -0.7148
 4177TIP3    H212496   3.298   6.422   2.976 -2.5434 -0.2844  1.1327
 4178TIP3   OH212497   0.186   5.513   2.279 -0.5262  0.1770 -0.1776
 4178TIP3    H112498   0.135   5.547   2.353 -1.0836 -2.4479  0.7787
 4178TIP3    H212499   0.224   5.591   2.238 -1.4644  1.8653  1.9287
 4179TIP3   OH212500   6.100   2.650   1.912 -0.6648  0.1448 -0.6642
 4179TIP3    H112501   6.040   2.677   1.843 -1.6535 -2.1189 -0.7676
 4179TIP3    H212502   6.096   2.555   1.913  0.9088  0.0108  1.1472
 4180TIP3   OH212503   2.164   1.803   4.435 -0.0438  0.5866  0.0820
 4180TIP3    H112504   2.241   1.794   4.493 -1.1512 -1.3214  1.3739
 4180TIP3    H212505   2.126   1.888   4.460  1.3736  1.3665 -0.2825
 4181TIP3   OH212506   6.827   2.621   0.037  0.4223  0.1609 -0.1346
 4181TIP3    H112507   6.732   2.623   0.047  0.3022 -0.1597 -1.0576
 4181TIP3    H212508   6.856   2.551   0.095  0.2691  1.2475  1.2913
 4182TIP3   OH212509   1.217   0.124   1.714  0.0183 -0.1403 -0.3556
 4182TIP3    H112510   1.229   0.085   1.801 -0.5022  0.0887 -0.1800
 4182TIP3    H212511   1.305   0.151   1.688 -0.2381  3.3928  1.7982
 4183TIP3   OH212512   2.443   0.103   1.017 -0.2649  0.0838  0.0581
 4183TIP3    H112513   2.349   0.090   1.027 -0.4222 -0.7738 -2.0071
 4183TIP3    H212514   2.481   0.017   1.036  0.0970  0.3903  0.7412
 4184TIP3   OH212515   0.334   3.189   5.102 -0.0646  0.2923  0.2594
 4184TIP3    H112516   0.414   3.241   5.111  0.1787  0.0430 -0.3972
 4184TIP3    H212517   0.355   3.105   5.142 -0.0556  0.2881  0.2459
 4185TIP3   OH212518   4.142   1.669   2.787  0.0455 -0.1741 -0.1074
 4185TIP3    H112519   4.062   1.706   2.823 -0.6752 -0.3647 -1.4278
 4185TIP3    H212520   4.194   1.644   2.863 -1.3747 -0.5241  0.7826
 4186TIP3   OH212521   1.574   2.174   2.165  0.0188  0.3446  0.0327
 4186TIP3    H112522   1.584   2.085   2.200  0.1158  0.4977  0.3997
 4186TIP3    H212523   1.647   2.184   2.103  0.0483  0.1940  0.0433
 4187TIP3   OH212524   0.779   3.768   4.562  0.0797  0.4534 -0.2356
 4187TIP3    H112525   0.766   3.754   4.468  1.3900 -1.2836 -0.2124
 4187TIP3    H212526   0.844   3.838   4.567  0.8629 -0.2056 -0.7070
 4188TIP3   OH212527   3.493   5.473   1.016 -0.1641 -0.4220  0.3342
 4188TIP3    H112528   3.467   5.554   1.059  1.3763  0.4366 -0.2493
 4188TIP3    H212529   3.518   5.415   1.087  0.2481  0.1941  0.7051
 4189TIP3   OH212530   4.798   4.637   3.877 -0.0743  0.0681  0.0841
 4189TIP3    H112531   4.785   4.559   3.823  0.0981  0.1568 -0.0870
 4189TIP3    H212532   4.770   4.709   3.822  1.0388  0.2584 -0.2649
 4190TIP3   OH212533   3.782   3.658   2.301 -0.5528 -0.0763 -0.1060
 4190TIP3    H112534   3.813   3.575   2.263  0.5618  0.3253 -0.1001
 4190TIP3    H212535   3.762   3.636   2.392  0.1879 -0.2402  0.0221
 4191TIP3   OH212536   6.379   3.766   2.043 -0.1171  0.2891 -0.3092
 4191TIP3    H112537   6.355   3.808   2.125 -0.1950 -2.2395  1.0755
 4191TIP3    H212538   6.474   3.763   2.044 -0.1343 -0.9599  0.4329
 4192TIP3   OH212539   6.489   1.452   5.467  0.2263 -1.0527 -0.1230
 4192TIP3    H112540   6.417   1.406   5.509  0.4333 -1.0603  0.2239
 4192TIP3    H212541   6.458   1.542   5.456 -0.0409 -1.1849 -0.4705
 4193TIP3   OH212542   6.195   1.671   3.570  0.6360  0.0867  0.0586
 4193TIP3    H112543   6.265   1.689   3.632  1.9607 -0.0931 -1.3407
 4193TIP3    H212544   6.138   1.610   3.616  0.8424  0.9789  1.5797
 4194TIP3   OH212545   6.202   2.431   0.826 -0.5974 -0.1431  0.2149
 4194TIP3    H112546   6.277   2.428   0.768 -0.7244 -0.0854  0.0464
 4194TIP3    H212547   6.209   2.516   0.870 -0.2462 -0.3857  0.6277
 4195TIP3   OH212548   4.693   4.324   5.252  0.3171 -0.3630  0.4963
 4195TIP3    H112549   4.729   4.240   5.223 -0.6202 -1.2797  1.8716
 4195TIP3    H212550   4.761   4.360   5.309  0.6070 -0.3080  0.1206
 4196TIP3   OH212551   2.455   2.350   3.616 -0.7807 -0.2168  0.0239
 4196TIP3    H112552   2.375   2.304   3.639 -0.7746 -0.8732 -1.1714
 4196TIP3    H212553   2.432   2.397   3.535 -0.2237  0.3347  0.1799
 4197TIP3   OH212554   0.251   3.273   0.180 -0.2081 -0.0687  0.6209
 4197TIP3    H112555   0.227   3.181   0.169  0.1169 -0.1435  0.5352
 4197TIP3    H212556   0.228   3.314   0.096  2.5297 -0.6952 -0.5464
 4198TIP3   OH212557   0.762   5.886   3.067  0.2927  0.1934 -0.2360
 4198TIP3    H112558   0.681   5.936   3.082  1.1026  0.9060  2.1609
 4198TIP3    H212559   0.830   5.953   3.058  1.0148 -0.4163  0.5128
 4199TIP3   OH212560   6.052   3.336   0.657 -0.5621 -0.2089  0.1123
 4199TIP3    H112561   5.970   3.297   0.689 -2.6483  1.7661 -2.3127
 4199TIP3    H212562   6.046   3.428   0.680  0.9374 -0.0010 -0.2199
 4200TIP3   OH212563   4.586   0.491   2.480  0.6455  0.1385 -0.4347
 4200TIP3    H112564   4.579   0.527   2.568  1.9417  0.1385 -0.3046
 4200TIP3    H212565   4.498   0.499   2.443  0.2197  0.6521  0.6552
 4201TIP3   OH212566   6.110   3.878   0.971  0.3181 -0.2133  0.0900
 4201TIP3    H112567   6.015   3.864   0.970  0.3520 -0.8909  2.1273
 4201TIP3    H212568   6.124   3.938   1.045  1.4365  0.3416 -0.5524
 4202TIP3   OH212569   2.803   5.119   3.282 -0.0866  0.7260  0.6195
 4202TIP3    H112570   2.847   5.153   3.360 -1.2428 -2.1906  2.7322
 4202TIP3    H212571   2.861   5.050   3.249 -0.5544  0.5273  0.1875
 4203TIP3   OH212572   5.622   6.517   4.202 -0.4769 -0.1519  0.1391
 4203TIP3    H112573   5.655   6.598   4.162 -0.8168 -0.7558 -1.4210
 4203TIP3    H212574   5.681   6.449   4.171  0.9840 -0.3176  2.9804
 4204TIP3   OH212575   5.202   0.414   5.322 -0.0704  0.1888 -0.2758
 4204TIP3    H112576   5.173   0.421   5.232  1.5490 -0.1373 -0.8616
 4204TIP3    H212577   5.145   0.473   5.371 -1.5100 -0.2510 -1.3626
 4205TIP3   OH212578   3.462   5.587   2.663  0.2371  0.6494  0.1465
 4205TIP3    H112579   3.434   5.607   2.753  0.9114  0.0747  0.4901
 4205TIP3    H212580   3.381   5.583   2.613 -0.0489  2.9031  0.3193
 4206TIP3   OH212581   2.999   2.705   5.870  0.3811 -0.0244  0.4227
 4206TIP3    H112582   3.044   2.637   5.820 -2.0991  0.3808 -2.7413
 4206TIP3    H212583   3.001   2.782   5.813 -4.5890 -0.1682 -0.4476
 4207TIP3   OH212584   5.069   5.625   1.731 -0.1223 -0.2604 -0.1013
 4207TIP3    H112585   4.978   5.647   1.751 -0.3352  0.5568 -1.7538
 4207TIP3    H212586   5.078   5.534   1.758 -0.9329  0.1383  1.6058
 4208TIP3   OH212587   2.588   5.899   3.425  0.0116  0.5669  0.4069
 4208TIP3    H112588   2.513   5.840   3.432  0.5840  0.0440  3.1802
 4208TIP3    H212589   2.643   5.877   3.499  1.9027  2.3860 -0.3492
 4209TIP3   OH212590   4.983   4.863   1.850 -0.3980  0.4451  0.7913
 4209TIP3    H112591   4.992   4.856   1.945 -1.7469 -1.0684  0.8461
 4209TIP3    H212592   4.994   4.774   1.817  2.4055  1.2298 -0.7867
 4210TIP3   OH212593   6.635   2.063   0.651 -0.7613  0.3604  0.4705
 4210TIP3    H112594   6.583   2.046   0.730  1.9229 -2.1449  1.8762
 4210TIP3    H212595   6.717   2.100   0.684  0.1037  0.0378 -1.2481
 4211TIP3   OH212596   7.105   5.459   2.106  0.5215 -0.1997 -0.5344
 4211TIP3    H112597   7.191   5.500   2.107 -0.2613  1.5811  0.8953
 4211TIP3    H212598   7.054   5.511   2.045 -0.1947  0.3317  0.4827
 4212TIP3   OH212599   1.051   4.915   4.418  0.3634 -0.2461  0.1825
 4212TIP3    H112600   1.118   4.974   4.452  0.2872 -0.2015  0.2560
 4212TIP3    H212601   0.976   4.972   4.400  0.4390 -0.2539 -0.1617
 4213TIP3   OH212602   0.999   5.521   1.593  0.3024 -0.4508  0.4560
 4213TIP3    H112603   1.057   5.594   1.615  0.6165 -1.2390  2.5515
 4213TIP3    H212604   1.006   5.462   1.669 -0.2068 -2.4818 -1.0032
 4214TIP3   OH212605   6.521   1.427   3.011 -0.3035 -0.0127  0.2914
 4214TIP3    H112606   6.461   1.406   3.083 -0.5830  0.6112  0.2510
 4214TIP3    H212607   6.524   1.523   3.010  2.2868 -0.0064  1.5872
 4215TIP3   OH212608   1.862   0.493   3.997 -0.0868 -0.7099  0.0805
 4215TIP3    H112609   1.872   0.469   3.905 -1.2064 -0.3154 -0.1576
 4215TIP3    H212610   1.790   0.556   3.998 -0.3296 -0.9767  1.2789
 4216TIP3   OH212611   1.151   5.197   1.703 -0.4526  0.1801 -0.2348
 4216TIP3    H112612   1.088   5.247   1.755 -0.8307 -0.1431 -0.3704
 4216TIP3    H212613   1.202   5.263   1.656 -0.6550  0.4485 -0.0778
 4217TIP3   OH212614   4.899   3.528   5.559  0.2678 -0.0958 -0.2487
 4217TIP3    H112615   4.842   3.553   5.486  2.2760  0.7101 -1.6037
 4217TIP3    H212616   4.838   3.511   5.632 -1.6718  0.9169 -1.5493
 4218TIP3   OH212617   2.590   3.450   4.042 -0.0073  0.0416 -0.0581
 4218TIP3    H112618   2.635   3.521   3.996  2.2146 -1.3730 -0.2363
 4218TIP3    H212619   2.628   3.450   4.130 -0.3970 -0.5653  0.1215
 4219TIP3   OH212620   7.061   2.359   0.165  0.1862 -0.1756  0.1615
 4219TIP3    H112621   7.036   2.418   0.235  1.1344 -1.6730  1.8375
 4219TIP3    H212622   7.039   2.272   0.197  1.9242 -1.0282 -0.7769
 4220TIP3   OH212623   6.443   3.750   3.312  0.0024  0.3488 -0.4039
 4220TIP3    H112624   6.362   3.779   3.356  0.2709 -0.2406  0.4997
 4220TIP3    H212625   6.511   3.807   3.348  0.3028 -0.4617  0.3254
 4221TIP3   OH212626   2.232   3.862   5.292 -0.4277 -0.0168 -0.0492
 4221TIP3    H112627   2.263   3.939   5.341  0.9727 -0.8303  0.3891
 4221TIP3    H212628   2.147   3.843   5.330 -0.5047  0.9188  0.2881
 4222TIP3   OH212629   1.395   5.176   2.682  0.0576 -0.1656 -0.4577
 4222TIP3    H112630   1.332   5.161   2.612 -1.6057  0.0277  0.9184
 4222TIP3    H212631   1.449   5.097   2.683 -1.9102 -1.5992  0.0090
 4223TIP3   OH212632   0.908   1.088   5.424 -0.3034 -0.3234  0.2197
 4223TIP3    H112633   0.861   1.135   5.493 -1.0410 -0.8768  0.1104
 4223TIP3    H212634   0.881   0.997   5.435 -0.3813 -0.4253 -0.7591
 4224TIP3   OH212635   5.819   3.672   3.436  0.1842 -0.2357  0.1282
 4224TIP3    H112636   5.907   3.633   3.438 -0.7992 -2.5876  0.6773
 4224TIP3    H212637   5.781   3.640   3.355 -0.1582  0.9046 -0.1826
 4225TIP3   OH212638   1.857   1.335   4.083 -0.1777  0.2708  0.0350
 4225TIP3    H112639   1.790   1.331   4.014  0.7667 -1.2472 -0.8583
 4225TIP3    H212640   1.931   1.379   4.042  0.1970 -0.1516  0.2485
 4226TIP3   OH212641   4.039   0.879   3.944 -0.6449 -0.1488  0.5303
 4226TIP3    H112642   4.046   0.974   3.934  0.4077 -0.1725  0.9601
 4226TIP3    H212643   4.084   0.843   3.868 -0.2003 -0.2991  0.8600
 4227TIP3   OH212644   1.333   4.365   4.388 -0.5334  0.3931  0.0374
 4227TIP3    H112645   1.385   4.444   4.374 -0.1571  0.0103 -0.8667
 4227TIP3    H212646   1.379   4.318   4.458 -0.2739  0.5695 -0.0129
 4228TIP3   OH212647   2.160   0.100   2.664  0.0008  0.3387  0.0442
 4228TIP3    H112648   2.172   0.026   2.723 -0.3526  0.9381  0.8832
 4228TIP3    H212649   2.089   0.152   2.703 -0.1736  0.8010 -0.8489
 4229TIP3   OH212650   5.615   3.495   4.974  0.4235 -0.0314 -0.2660
 4229TIP3    H112651   5.704   3.500   4.938  0.0578  1.1581 -1.0820
 4229TIP3    H212652   5.609   3.570   5.033 -0.0284 -0.1022 -0.2207
 4230TIP3   OH212653   4.282   0.712   2.684 -0.0487  0.5500  0.4528
 4230TIP3    H112654   4.342   0.707   2.759  1.6265  0.3194 -0.8555
 4230TIP3    H212655   4.221   0.639   2.698  0.1485  0.5876  1.6454
 4231TIP3   OH212656   5.881   1.130   4.045  0.2201 -0.3546  0.1009
 4231TIP3    H112657   5.839   1.046   4.061  2.8634 -2.0186 -1.0428
 4231TIP3    H212658   5.856   1.153   3.955  0.2610 -0.4047  0.0768
 4232TIP3   OH212659   0.552   2.343   1.803  0.5228 -0.0354 -0.1020
 4232TIP3    H112660   0.596   2.336   1.887 -0.0698 -1.5962  0.1246
 4232TIP3    H212661   0.464   2.308   1.819  0.1144  0.4643 -1.1633
 4233TIP3   OH212662   1.997   4.838   2.109  0.3410  0.1356  0.2154
 4233TIP3    H112663   2.052   4.775   2.063  2.2150  0.7054  1.5315
 4233TIP3    H212664   1.936   4.784   2.160 -0.7549 -0.4983 -1.6490
 4234TIP3   OH212665   4.982   1.148   3.605 -0.3382  0.0749 -0.6471
 4234TIP3    H112666   5.016   1.080   3.547 -0.2334  0.0262 -0.5304
 4234TIP3    H212667   5.058   1.174   3.659 -1.0259 -1.8039  1.3717
 4235TIP3   OH212668   2.086   1.695   3.039  0.3642 -0.2665 -0.5831
 4235TIP3    H112669   2.073   1.616   3.092  3.0707 -0.6158 -0.2675
 4235TIP3    H212670   1.998   1.725   3.018 -0.8109 -3.6532 -1.1415
 4236TIP3   OH212671   6.373   6.525   3.527 -0.0265 -0.9912  0.3707
 4236TIP3    H112672   6.424   6.570   3.594  0.6768 -0.6712 -0.3688
 4236TIP3    H212673   6.344   6.444   3.570 -1.3597  0.1448  1.7376
 4237TIP3   OH212674   2.613   5.355   4.134 -0.0076  0.1310  0.1302
 4237TIP3    H112675   2.568   5.278   4.102 -1.2245  0.7451  0.2987
 4237TIP3    H212676   2.568   5.377   4.216 -0.6945  1.8787 -0.6664
 4238TIP3   OH212677   1.344   0.690   3.235 -0.2006 -0.7991 -0.1947
 4238TIP3    H112678   1.405   0.691   3.161  0.7677  1.7786  0.5018
 4238TIP3    H212679   1.400   0.672   3.311 -0.2368  1.3887  0.4256
 4239TIP3   OH212680   1.349   5.174   4.989 -0.5140  0.2503  0.3096
 4239TIP3    H112681   1.254   5.185   4.985 -0.3744  1.2290 -0.7390
 4239TIP3    H212682   1.369   5.110   4.920 -0.3921  0.1426  0.4429
 4240TIP3   OH212683   5.200   1.285   1.880  0.4975  0.3816  0.6331
 4240TIP3    H112684   5.144   1.269   1.955 -0.2431 -1.5933 -0.2671
 4240TIP3    H212685   5.175   1.372   1.848 -2.0602 -0.4163  0.2918
 4241TIP3   OH212686   6.797   1.524   2.910 -0.4189  0.0358  0.3943
 4241TIP3    H112687   6.848   1.455   2.866 -2.2608 -0.1000 -1.7094
 4241TIP3    H212688   6.748   1.477   2.977  1.1588 -0.0253  1.5800
 4242TIP3   OH212689   4.056   0.305   4.284  0.0111 -0.2685 -0.3477
 4242TIP3    H112690   4.086   0.357   4.209  0.0216  0.7739  0.3604
 4242TIP3    H212691   4.135   0.262   4.316  0.4912  1.1456  0.4777
 4243TIP3   OH212692   6.265   4.955   0.129 -0.1863 -0.6719 -0.4456
 4243TIP3    H112693   6.170   4.945   0.124 -0.2617  0.5542 -2.2734
 4243TIP3    H212694   6.299   4.867   0.113 -0.9894 -1.1906  0.5659
 4244TIP3   OH212695   6.718   3.558   3.579  0.0576 -0.1139 -0.2363
 4244TIP3    H112696   6.777   3.633   3.567 -0.5457  0.5431  0.7672
 4244TIP3    H212697   6.711   3.520   3.492  0.4829  0.9165 -0.7474
 4245TIP3   OH212698   2.692   3.699   0.981  0.0253 -0.0688 -0.4275
 4245TIP3    H112699   2.725   3.755   1.051 -1.0606  0.4162 -0.2817
 4245TIP3    H212700   2.673   3.615   1.024  1.1021 -0.3826 -0.5311
 4246TIP3   OH212701   3.916   5.326   2.961  0.1209  0.7217  0.2344
 4246TIP3    H112702   3.946   5.242   2.997 -0.6650  0.3137 -0.0405
 4246TIP3    H212703   3.940   5.322   2.868 -0.0814  0.7267  0.1827
 4247TIP3   OH212704   0.483   4.056   5.780  0.1426  0.2318 -0.0343
 4247TIP3    H112705   0.427   4.042   5.703 -1.4395  1.9473  0.7230
 4247TIP3    H212706   0.495   3.968   5.817 -0.7101 -0.3762 -1.1296
 4248TIP3   OH212707   5.008   6.548   4.035 -0.0706  0.3991 -0.0094
 4248TIP3    H112708   5.088   6.497   4.022 -0.2155  0.4934 -1.4317
 4248TIP3    H212709   5.039   6.633   4.068  0.6128  1.0354 -2.1261
 4249TIP3   OH212710   6.605   6.821   0.892 -0.2093  0.5219 -0.4305
 4249TIP3    H112711   6.630   6.777   0.810 -1.3302  2.1546 -1.7150
 4249TIP3    H212712   6.556   6.755   0.941  0.1394 -0.3652 -1.2452
 4250TIP3   OH212713   1.189   3.135   1.943 -0.0539 -0.2574 -0.4728
 4250TIP3    H112714   1.233   3.122   1.859 -2.0718 -2.1590 -1.3271
 4250TIP3    H212715   1.128   3.208   1.927  1.1988  0.9731  0.1041
 4251TIP3   OH212716   5.861   1.301   5.097  0.0932 -0.4717  0.3454
 4251TIP3    H112717   5.837   1.229   5.038 -2.4954  0.3017  0.3295
 4251TIP3    H212718   5.876   1.375   5.038  1.6414 -0.6810  0.4394
 4252TIP3   OH212719   3.144   6.552   1.493 -0.4768 -0.4922  0.0566
 4252TIP3    H112720   3.219   6.610   1.476 -0.0992 -0.8648  0.4156
 4252TIP3    H212721   3.092   6.599   1.558 -1.1698  0.2894 -1.0424
 4253TIP3   OH212722   5.542   4.875   1.311 -0.3081  0.1481 -0.0842
 4253TIP3    H112723   5.486   4.800   1.332 -0.3019  0.5017  1.3376
 4253TIP3    H212724   5.594   4.847   1.236 -2.2113 -0.2819 -1.3144
 4254TIP3   OH212725   6.232   4.287   1.152  0.2235  0.0755 -0.2227
 4254TIP3    H112726   6.237   4.335   1.069  1.7921 -0.4993 -0.4897
 4254TIP3    H212727   6.251   4.353   1.219 -0.5822  0.4417 -0.3457
 4255TIP3   OH212728   3.183   0.530   1.084  0.0794  0.0835  0.1424
 4255TIP3    H112729   3.141   0.559   1.164 -0.8177  4.2369 -1.5845
 4255TIP3    H212730   3.110   0.509   1.025  0.6687 -0.5399 -0.3814
 4256TIP3   OH212731   0.121   5.001   2.880  0.7168  0.4384  0.1525
 4256TIP3    H112732   0.199   4.960   2.917  0.4297 -0.5092 -0.2776
 4256TIP3    H212733   0.127   4.985   2.786  0.0700  0.4814  0.0983
 4257TIP3   OH212734   0.581   4.985   2.140 -0.0672 -0.1030 -0.0873
 4257TIP3    H112735   0.524   4.921   2.097  0.0135  0.1295 -0.5353
 4257TIP3    H212736   0.670   4.950   2.127  0.1480  1.0390 -1.9554
 4258TIP3   OH212737   7.114   6.238   1.803  0.1616 -0.1305  0.1090
 4258TIP3    H112738   7.066   6.169   1.847  1.0834  0.6298  2.4199
 4258TIP3    H212739   7.111   6.313   1.863  0.2993  1.4471 -1.7233
 4259TIP3   OH212740   0.621   6.113   1.302  0.1828 -0.3257  0.1736
 4259TIP3    H112741   0.660   6.104   1.389  0.0428 -1.6899  0.1138
 4259TIP3    H212742   0.600   6.024   1.276  1.3473 -0.0916 -1.7876
 4260TIP3   OH212743   4.334   4.681   0.828  0.2262  0.7030 -0.3153
 4260TIP3    H112744   4.261   4.653   0.884  0.2116  0.3093 -0.5243
 4260TIP3    H212745   4.401   4.712   0.890  1.8828 -3.4644  0.3437
 4261TIP3   OH212746   0.504   6.468   0.552  0.3842  0.1527  0.0664
 4261TIP3    H112747   0.597   6.448   0.562  0.3980 -0.4979 -1.1684
 4261TIP3    H212748   0.464   6.384   0.531 -0.4278  0.5004  0.2078
 4262TIP3   OH212749   4.374   6.300   0.704  0.0145 -0.3745 -0.7134
 4262TIP3    H112750   4.395   6.351   0.626 -0.0236 -0.6346 -0.8944
 4262TIP3    H212751   4.449   6.242   0.716  0.4139  0.2660 -0.0509
 4263TIP3   OH212752   4.182   0.373   0.576  0.8476 -0.0348  0.4749
 4263TIP3    H112753   4.146   0.428   0.646 -0.3347 -0.2367  0.0459
 4263TIP3    H212754   4.244   0.316   0.621 -0.5067 -0.7379  1.5299
 4264TIP3   OH212755   6.694   3.201   4.904 -0.0994  0.2167 -0.2289
 4264TIP3    H112756   6.671   3.184   4.813 -2.4693 -3.3647  0.8422
 4264TIP3    H212757   6.697   3.115   4.945  1.5111  1.6259  3.0096
 4265TIP3   OH212758   7.083   6.449   2.012 -0.1830  0.3465  0.0694
 4265TIP3    H112759   7.099   6.536   1.976 -0.2190  0.1290 -0.4896
 4265TIP3    H212760   7.029   6.464   2.089  1.7672  1.0243  1.3780
 4266TIP3   OH212761   5.068   5.271   3.414 -0.1786 -0.3222  0.0967
 4266TIP3    H112762   5.160   5.246   3.422 -0.4749 -1.7072 -0.4516
 4266TIP3    H212763   5.035   5.216   3.342 -1.6758 -0.6302  0.9831
 4267TIP3   OH212764   3.469   3.143   2.274  0.2087 -0.2065  0.0180
 4267TIP3    H112765   3.402   3.076   2.283 -0.2420  0.3273  0.7127
 4267TIP3    H212766   3.527   3.129   2.349  1.1733 -0.9755 -0.8412
 4268TIP3   OH212767   5.599   5.388   2.548 -0.4078  0.4248 -0.1888
 4268TIP3    H112768   5.679   5.402   2.598  1.4266 -0.7455 -2.5958
 4268TIP3    H212769   5.613   5.434   2.465 -2.6699  1.0069 -0.3384
 4269TIP3   OH212770   5.628   2.751   2.256  0.1818  0.1638 -0.0331
 4269TIP3    H112771   5.632   2.780   2.165  0.8281 -2.0266 -0.7734
 4269TIP3    H212772   5.547   2.790   2.290 -0.4232  0.4881 -1.7342
 4270TIP3   OH212773   2.419   1.059   5.799  0.0854 -0.4583  0.5346
 4270TIP3    H112774   2.429   1.073   5.893  1.3703  0.3951  0.2995
 4270TIP3    H212775   2.326   1.077   5.782 -0.3166 -1.2505  1.7133
 4271TIP3   OH212776   2.374   6.730   2.927  0.4660  0.5615  0.0088
 4271TIP3    H112777   2.413   6.812   2.960 -0.5475  0.3406  1.9223
 4271TIP3    H212778   2.449   6.674   2.909  1.1302  1.0947  0.9760
 4272TIP3   OH212779   5.815   3.072   3.330 -0.3440  0.3159 -0.3166
 4272TIP3    H112780   5.859   3.064   3.415  1.6451 -0.4329 -1.3303
 4272TIP3    H212781   5.728   3.036   3.344 -0.2069  0.6011  1.4928
 4273TIP3   OH212782   2.304   1.778   2.457  0.2632  0.0782  0.2286
 4273TIP3    H112783   2.270   1.775   2.547 -0.6102 -0.6194 -0.1119
 4273TIP3    H212784   2.342   1.865   2.449 -1.6064  0.9860  0.5972
 4274TIP3   OH212785   7.096   3.282   0.088 -0.1278  0.0846 -0.9594
 4274TIP3    H112786   7.105   3.190   0.062 -1.9445  0.2822 -2.4656
 4274TIP3    H212787   7.044   3.322   0.019 -0.5696  1.9455  0.3744
 4275TIP3   OH212788   1.900   6.595   3.204  0.1180 -0.2139  0.0126
 4275TIP3    H112789   1.951   6.675   3.214  0.0699 -0.1230 -0.4779
 4275TIP3    H212790   1.964   6.527   3.183  0.1185 -0.2390  0.0928
 4276TIP3   OH212791   4.716   2.033   4.024 -0.1220 -0.4062 -0.0815
 4276TIP3    H112792   4.725   2.036   4.119 -1.1974  0.0532  0.0199
 4276TIP3    H212793   4.778   2.099   3.993  0.8768 -1.1716  0.2343
 4277TIP3   OH212794   2.106   1.163   0.111  0.2755  0.2295  0.1402
 4277TIP3    H112795   2.072   1.074   0.118 -0.2125  0.3231 -0.9126
 4277TIP3    H212796   2.197   1.151   0.082  0.4790  0.0519  0.8364
 4278TIP3   OH212797   1.483   5.122   0.338 -0.0778  0.0900  0.0495
 4278TIP3    H112798   1.566   5.102   0.295 -0.5678 -0.0589 -0.8483
 4278TIP3    H212799   1.418   5.116   0.269 -0.9030 -0.2394  0.8361
 4279TIP3   OH212800   1.925   1.507   0.497  0.5848 -0.3534  0.0549
 4279TIP3    H112801   1.842   1.498   0.543  0.4169 -0.1655 -0.2090
 4279TIP3    H212802   1.928   1.431   0.439  0.7564 -0.5438  0.3114
 4280TIP3   OH212803   5.391   5.876   1.861  0.0302  0.2360  0.1762
 4280TIP3    H112804   5.465   5.914   1.813 -1.0076  0.9730 -0.8790
 4280TIP3    H212805   5.350   5.817   1.798 -0.1415 -0.3592  0.8394
 4281TIP3   OH212806   5.093   6.630   2.363 -0.2389  0.4622  0.0158
 4281TIP3    H112807   5.027   6.668   2.422 -0.6000  0.0567 -0.1217
 4281TIP3    H212808   5.051   6.552   2.328  0.4747 -0.0379  0.2512
 4282TIP3   OH212809   1.004   4.512   5.359 -0.0760 -0.1414  0.0992
 4282TIP3    H112810   1.011   4.418   5.345 -1.6326  0.0010 -2.2653
 4282TIP3    H212811   0.975   4.547   5.275  0.5286  2.4886  0.8703
 4283TIP3   OH212812   6.820   6.014   0.687 -0.0013 -0.4599  0.1994
 4283TIP3    H112813   6.839   6.051   0.773  1.7677 -0.2154 -0.2636
 4283TIP3    H212814   6.834   5.920   0.698 -1.2190 -0.6316  0.5150
 4284TIP3   OH212815   6.200   1.850   0.327  0.5363  0.5257 -0.1998
 4284TIP3    H112816   6.149   1.809   0.257  1.4041  2.3136 -1.9931
 4284TIP3    H212817   6.158   1.935   0.341  2.0879  1.4325 -0.7241
 4285TIP3   OH212818   7.179   2.435   3.152 -0.2887 -0.2559  0.1369
 4285TIP3    H112819   7.150   2.385   3.228 -0.2645  0.8411  0.8923
 4285TIP3    H212820   7.266   2.468   3.177 -0.0281 -0.3658 -0.6008
 4286TIP3   OH212821   5.361   1.946   2.062 -0.1109  0.7847  0.0658
 4286TIP3    H112822   5.267   1.961   2.070 -0.4077 -0.5592 -0.6676
 4286TIP3    H212823   5.385   1.984   1.977 -0.5661 -1.3380 -1.0689
 4287TIP3   OH212824   6.425   5.371   0.899  0.3510  0.0288 -0.2247
 4287TIP3    H112825   6.389   5.459   0.906  1.0809  0.3708 -0.6135
 4287TIP3    H212826   6.399   5.341   0.812  1.4971  0.5200 -0.7567
 4288TIP3   OH212827   7.011   3.851   0.117  0.3525 -0.3606  0.4936
 4288TIP3    H112828   6.944   3.919   0.115  1.6107  1.0511  2.2026
 4288TIP3    H212829   7.094   3.900   0.111  1.2636 -1.9103 -0.0737
 4289TIP3   OH212830   2.418   1.520   4.665  0.3127  0.8482 -0.6971
 4289TIP3    H112831   2.502   1.540   4.623  0.5127  0.7494 -0.3550
 4289TIP3    H212832   2.441   1.460   4.736 -0.5821 -3.0498 -3.3978
 4290TIP3   OH212833   4.917   0.411   0.220  0.8151 -0.6320  0.3642
 4290TIP3    H112834   4.925   0.506   0.219  3.3619 -0.6196  3.8619
 4290TIP3    H212835   4.923   0.385   0.128  0.2913  2.5131 -0.6614
 4291TIP3   OH212836   5.346   5.115   1.598  0.1486 -0.6534  0.0446
 4291TIP3    H112837   5.321   5.102   1.507 -0.3877  2.3847 -0.3202
 4291TIP3    H212838   5.439   5.137   1.595  0.1087 -0.4571  0.2305
 4292TIP3   OH212839   4.934   3.988   1.725  0.2463  0.0536  0.0441
 4292TIP3    H112840   4.923   3.963   1.817  0.2746  0.5799  0.1908
 4292TIP3    H212841   4.966   4.078   1.728 -0.3992  0.3069 -0.4929
 4293TIP3   OH212842   2.853   1.950   2.187 -0.3826  0.0215  0.3327
 4293TIP3    H112843   2.910   1.924   2.114 -2.1312 -2.6541 -0.2076
 4293TIP3    H212844   2.904   1.932   2.265  0.2061 -0.5172 -0.1636
 4294TIP3   OH212845   3.692   0.609   3.010  0.4557  0.6815  0.2838
 4294TIP3    H112846   3.643   0.527   3.004  0.3852  0.7467 -0.0352
 4294TIP3    H212847   3.714   0.617   3.103 -0.5054  0.8696  0.5013
 4295TIP3   OH212848   3.941   4.714   3.848  0.8223  0.1419  0.1931
 4295TIP3    H112849   3.903   4.802   3.850  0.2706  0.0306 -2.2317
 4295TIP3    H212850   4.032   4.728   3.820  1.3966  0.0774  1.9449
 4296TIP3   OH212851   2.428   2.929   2.067 -0.1388 -0.0314 -0.2400
 4296TIP3    H112852   2.470   2.976   2.139 -1.1853 -0.4633  0.6787
 4296TIP3    H212853   2.345   2.899   2.103 -0.9620  0.2658 -1.8305
 4297TIP3   OH212854   4.322   4.335   4.420 -0.2253 -0.2837 -0.0338
 4297TIP3    H112855   4.272   4.330   4.338 -0.7791  1.4080  0.1604
 4297TIP3    H212856   4.405   4.375   4.394  0.5236 -1.8540 -0.1292
 4298TIP3   OH212857   1.461   5.766   2.982  0.2316 -0.4102  0.0012
 4298TIP3    H112858   1.506   5.693   3.025 -0.9856  0.0991  2.2872
 4298TIP3    H212859   1.458   5.741   2.890  0.1786 -3.0913  0.6573
 4299TIP3   OH212860   1.586   2.604   4.093 -0.2396 -0.4896  0.5329
 4299TIP3    H112861   1.623   2.692   4.088 -0.4378 -0.4865 -2.3636
 4299TIP3    H212862   1.662   2.547   4.106  0.1161 -0.0212  0.5309
 4300TIP3   OH212863   6.616   0.915   2.848  0.0990  0.6660  0.4881
 4300TIP3    H112864   6.676   0.970   2.798  0.2614 -0.4354 -0.5965
 4300TIP3    H212865   6.659   0.902   2.933 -0.0700  2.3753  0.8679
 4301TIP3   OH212866   6.094   4.628   1.570  0.5049  0.2593 -0.1400
 4301TIP3    H112867   6.140   4.670   1.643  0.0477  0.8970 -0.2088
 4301TIP3    H212868   6.158   4.570   1.531  0.2445 -1.5581  1.9341
 4302TIP3   OH212869   0.331   5.046   1.284  0.0375  0.1875  0.2413
 4302TIP3    H112870   0.295   5.065   1.198 -0.2911 -0.7163  0.1796
 4302TIP3    H212871   0.263   4.996   1.329  0.3522  0.3351  0.8986
 4303TIP3   OH212872   0.923   3.658   1.622 -0.3641  0.2319  0.0998
 4303TIP3    H112873   1.012   3.627   1.609 -0.0673  0.4773  1.3709
 4303TIP3    H212874   0.931   3.728   1.688 -1.4699  0.3740  0.1103
 4304TIP3   OH212875   4.823   3.852   4.990  0.1965  0.6886  0.5975
 4304TIP3    H112876   4.790   3.921   5.048 -1.6318 -0.1035  0.5327
 4304TIP3    H212877   4.824   3.773   5.043 -3.0836 -0.4270 -0.7690
 4305TIP3   OH212878   4.837   2.740   3.975  0.3120  0.1306  0.5700
 4305TIP3    H112879   4.812   2.819   3.928 -0.0048 -0.1510  0.2615
 4305TIP3    H212880   4.754   2.699   3.999  0.4367  0.7875  2.2724
 4306TIP3   OH212881   0.938   4.452   5.640 -0.1170 -0.2998 -0.1877
 4306TIP3    H112882   0.981   4.456   5.555 -0.4846  0.5928 -0.3391
 4306TIP3    H212883   0.873   4.383   5.631 -1.1733  0.7781 -1.1199
 4307TIP3   OH212884   0.215   3.757   3.488  0.5555  0.7705  0.1684
 4307TIP3    H112885   0.308   3.732   3.491  0.2522 -0.7335 -1.3354
 4307TIP3    H212886   0.205   3.805   3.406  0.0420  1.1641  0.4514
 4308TIP3   OH212887   3.740   1.003   5.122  0.4148 -0.0833  0.4146
 4308TIP3    H112888   3.655   1.048   5.128  0.6918  0.3277  1.4394
 4308TIP3    H212889   3.720   0.912   5.143  0.0695 -0.2002 -0.3610
 4309TIP3   OH212890   6.125   4.314   3.454 -0.0466  0.1422 -0.3119
 4309TIP3    H112891   6.073   4.249   3.408  0.9474 -0.8611 -0.0454
 4309TIP3    H212892   6.174   4.265   3.519  0.9828  1.0994 -0.3302
 4310TIP3   OH212893   5.449   6.746   1.395  0.1466 -0.1204  0.2994
 4310TIP3    H112894   5.489   6.725   1.311 -0.7273 -1.4512  0.1855
 4310TIP3    H212895   5.358   6.765   1.375  0.2866  1.1646  0.7698
 4311TIP3   OH212896   6.398   2.848   4.077 -0.5176  0.0304  0.0575
 4311TIP3    H112897   6.376   2.870   4.168  0.2510  0.9143  0.0391
 4311TIP3    H212898   6.448   2.923   4.045 -0.2234 -0.5533 -0.8977
 4312TIP3   OH212899   6.398   1.000   4.415 -0.4696 -0.0213 -0.4005
 4312TIP3    H112900   6.430   0.934   4.476  0.6363 -0.0665 -0.9952
 4312TIP3    H212901   6.344   0.951   4.352 -0.5090 -0.1890 -0.2352
 4313TIP3   OH212902   6.606   3.691   2.350 -0.1586  0.0309 -0.4324
 4313TIP3    H112903   6.556   3.649   2.420  0.9601  1.2460  1.1737
 4313TIP3    H212904   6.621   3.780   2.381 -0.0897  0.8136 -2.4939
 4314TIP3   OH212905   5.704   4.462   2.669  0.4852 -0.6609 -0.0969
 4314TIP3    H112906   5.717   4.473   2.763  1.5107 -0.3296 -0.2598
 4314TIP3    H212907   5.660   4.543   2.642  1.1449 -0.2861 -0.0665
 4315TIP3   OH212908   4.734   0.153   0.630 -0.1202  0.5817  0.0918
 4315TIP3    H112909   4.662   0.199   0.673 -0.9775 -0.7483  0.1560
 4315TIP3    H212910   4.714   0.162   0.536 -0.6571 -0.1874  0.1211
 4316TIP3   OH212911   3.052   0.227   0.139 -0.4711 -0.1923  0.3918
 4316TIP3    H112912   2.994   0.246   0.213  0.4027  0.1713  1.0047
 4316TIP3    H212913   2.996   0.182   0.075 -1.6005  0.8156  0.6413
 4317TIP3   OH212914   4.862   5.757   3.560 -0.0398  0.8354 -0.2315
 4317TIP3    H112915   4.935   5.819   3.559 -0.1652  0.9831 -0.3506
 4317TIP3    H212916   4.879   5.699   3.486 -0.7719  1.7286 -1.1273
 4318TIP3   OH212917   5.131   2.211   0.515 -0.2216 -0.5052  0.0577
 4318TIP3    H112918   5.051   2.232   0.467 -0.4325  0.7483  0.9047
 4318TIP3    H212919   5.113   2.236   0.605  1.7005  1.5954 -0.0345
 4319TIP3   OH212920   3.819   5.475   3.189  0.2136  0.0384  0.2965
 4319TIP3    H112921   3.757   5.404   3.204 -1.1284  0.7960 -1.2420
 4319TIP3    H212922   3.872   5.444   3.115 -0.2636  0.5149 -0.2647
 4320TIP3   OH212923   5.360   6.451   0.699 -0.0369  0.3128 -0.5707
 4320TIP3    H112924   5.436   6.405   0.736  0.2548  1.6823  0.6392
 4320TIP3    H212925   5.393   6.490   0.618  0.4375  0.4718 -0.3116
 4321TIP3   OH212926   2.599   0.806   3.301  0.1843  0.2456 -0.4715
 4321TIP3    H112927   2.655   0.883   3.303 -0.3858  0.6588  0.4299
 4321TIP3    H212928   2.517   0.837   3.262 -0.4923  0.4365  1.0344
 4322TIP3   OH212929   0.595   4.868   4.220  0.3816  0.1141  0.3139
 4322TIP3    H112930   0.595   4.862   4.315  0.0846 -0.1525  0.2996
 4322TIP3    H212931   0.509   4.834   4.194 -0.3233  1.9220  0.0715
 4323TIP3   OH212932   3.881   6.141   3.891  0.2483 -0.8864  0.3696
 4323TIP3    H112933   3.786   6.132   3.890  0.3230 -1.9889  1.3918
 4323TIP3    H212934   3.899   6.199   3.965  0.3463  0.0760 -0.3766
 4324TIP3   OH212935   1.866   5.968   2.677  0.2915  0.9653  0.7057
 4324TIP3    H112936   1.852   5.873   2.677  1.2407  0.8100 -0.1104
 4324TIP3    H212937   1.954   5.979   2.712  0.8599  1.4118 -0.7932
 4325TIP3   OH212938   5.411   2.183   4.425 -0.5438  0.2023 -0.3439
 4325TIP3    H112939   5.469   2.214   4.494 -0.1860  1.0893 -1.0211
 4325TIP3    H212940   5.325   2.218   4.447 -0.4912  0.2359 -0.1941
 4326TIP3   OH212941   3.215   5.892   1.694  0.0360 -0.2773  0.0716
 4326TIP3    H112942   3.201   5.986   1.683 -0.3239 -0.3738 -0.3141
 4326TIP3    H212943   3.308   5.883   1.712  0.3576  0.0286 -1.3620
 4327TIP3   OH212944   3.964   6.580   3.681 -0.7498 -0.3624  0.3379
 4327TIP3    H112945   4.032   6.628   3.729  0.5969 -0.5778 -1.2804
 4327TIP3    H212946   3.930   6.643   3.618 -0.9755 -0.7042  0.1154
 4328TIP3   OH212947   2.125   5.565   0.461 -0.0127 -0.1812  0.2947
 4328TIP3    H112948   2.125   5.657   0.486  0.4528 -0.3437  0.9452
 4328TIP3    H212949   2.033   5.539   0.463 -0.4302  0.8548 -2.2836
 4329TIP3   OH212950   0.920   2.921   5.087  0.7689  0.5166  0.0819
 4329TIP3    H112951   0.954   2.840   5.050 -0.6621  0.3860 -1.0156
 4329TIP3    H212952   0.876   2.894   5.168  2.8148  0.6386  1.3114
 4330TIP3   OH212953   1.778   2.672   3.070 -0.5311 -0.1625 -0.2948
 4330TIP3    H112954   1.728   2.700   3.148  2.6733  3.9660  0.6385
 4330TIP3    H212955   1.825   2.594   3.099 -2.2819 -0.9942  0.5168
 4331TIP3   OH212956   1.265   1.684   1.837  0.0729 -0.5381  0.3518
 4331TIP3    H112957   1.182   1.731   1.831 -0.2502 -1.1805 -0.2031
 4331TIP3    H212958   1.241   1.595   1.860  0.3994 -1.3540 -2.2072
 4332TIP3   OH212959   4.521   3.724   0.566  0.1172  0.4063 -0.0706
 4332TIP3    H112960   4.581   3.783   0.612 -0.6201  0.6783  0.5771
 4332TIP3    H212961   4.530   3.640   0.613  0.5403  0.2323 -0.4545
 4333TIP3   OH212962   0.974   0.224   3.503  0.0752 -0.4062  0.4224
 4333TIP3    H112963   1.044   0.199   3.443 -1.3919 -1.9851 -0.7349
 4333TIP3    H212964   0.966   0.319   3.492  0.8826 -0.4446 -0.7158
 4334TIP3   OH212965   4.321   0.850   1.661  0.9337 -0.2093  1.2644
 4334TIP3    H112966   4.328   0.908   1.585  0.7484 -1.6941  0.0721
 4334TIP3    H212967   4.410   0.846   1.696  1.3602 -0.7479  0.1575
 4335TIP3   OH212968   5.249   0.890   1.522  0.2085 -0.0287  0.5299
 4335TIP3    H112969   5.249   0.974   1.569  0.7326  1.2563 -1.6380
 4335TIP3    H212970   5.279   0.827   1.587 -1.5429  1.1743  2.6446
 4336TIP3   OH212971   3.744   6.225   2.295 -0.4755  0.5471 -0.3137
 4336TIP3    H112972   3.730   6.154   2.358  1.0849  0.6249  0.1632
 4336TIP3    H212973   3.669   6.283   2.308 -1.0259 -0.2714  0.3086
 4337TIP3   OH212974   7.110   2.861   2.147 -0.1936 -0.2768 -0.1211
 4337TIP3    H112975   7.049   2.873   2.219  0.8540 -3.1631  1.4015
 4337TIP3    H212976   7.191   2.902   2.176 -0.3771  0.4837 -0.6451
 4338TIP3   OH212977   2.249   3.167   3.276  0.2649  0.1970  0.5183
 4338TIP3    H112978   2.336   3.128   3.274  1.4202  2.3953  2.7152
 4338TIP3    H212979   2.264   3.260   3.262 -2.0948  0.3441 -1.8847
 4339TIP3   OH212980   1.978   1.845   3.693 -0.5858  0.1590  0.8876
 4339TIP3    H112981   1.923   1.783   3.743 -0.7671  0.3398  0.9140
 4339TIP3    H212982   2.014   1.904   3.759  1.1516 -1.0813  1.1152
 4340TIP3   OH212983   0.478   5.919   0.986 -0.2537  0.0575  0.2286
 4340TIP3    H112984   0.520   6.004   0.971 -2.0029  1.1674  1.1888
 4340TIP3    H212985   0.483   5.906   1.081  0.5976 -1.2722  0.0239
 4341TIP3   OH212986   1.584   4.170   5.542 -0.1060 -0.4293 -0.4418
 4341TIP3    H112987   1.642   4.098   5.565  1.6780  1.5545  1.8079
 4341TIP3    H212988   1.639   4.231   5.493 -1.2877 -0.0359 -1.3392
 4342TIP3   OH212989   3.717   0.800   4.360 -0.4499  0.3603  0.1000
 4342TIP3    H112990   3.704   0.728   4.298 -0.7218 -0.4669  1.0810
 4342TIP3    H212991   3.725   0.756   4.445 -0.5393  1.4923  0.7058
 4343TIP3   OH212992   2.054   3.424   5.317  0.4068  0.0501  0.4247
 4343TIP3    H112993   2.053   3.506   5.365 -1.1822  0.7672 -0.7370
 4343TIP3    H212994   1.962   3.402   5.305  0.7022 -0.1295 -2.1236
 4344TIP3   OH212995   4.239   4.523   4.619  0.3385  0.0591 -0.1331
 4344TIP3    H112996   4.302   4.514   4.691 -1.0828 -1.0956  1.0390
 4344TIP3    H212997   4.274   4.467   4.550  2.1090  1.7476 -0.7012
 4345TIP3   OH212998   5.357   4.698   5.682  0.1487  0.0225 -0.2603
 4345TIP3    H112999   5.382   4.676   5.772  1.5834 -2.4394 -1.1605
 4345TIP3    H213000   5.361   4.614   5.635 -1.5880  1.0483 -2.4155
 4346TIP3   OH213001   3.581   0.612   4.813  0.1005 -0.0646  0.2212
 4346TIP3    H113002   3.632   0.597   4.893 -0.4409  0.8461  0.7549
 4346TIP3    H213003   3.530   0.533   4.802  2.3729 -1.4784 -0.9248
 4347TIP3   OH213004   3.756   1.195   0.379 -0.1009 -0.2621  0.4789
 4347TIP3    H113005   3.730   1.262   0.316  0.0554 -2.2941 -1.9290
 4347TIP3    H213006   3.851   1.200   0.381 -0.1262  2.4009  3.7719
 4348TIP3   OH213007   2.546   0.184   1.257  0.3188  0.3144  0.2913
 4348TIP3    H113008   2.540   0.170   1.162  4.7785 -0.9604 -0.0747
 4348TIP3    H213009   2.563   0.096   1.292  0.2124  0.9738  2.0691
 4349TIP3   OH213010   6.833   6.647   1.268 -0.1915  0.3130 -0.8359
 4349TIP3    H113011   6.890   6.720   1.245  0.6658 -0.3502 -0.8623
 4349TIP3    H213012   6.861   6.576   1.211  0.8754 -0.8765  1.0750
 4350TIP3   OH213013   4.379   5.653   5.859  0.0174  0.1004  0.0200
 4350TIP3    H113014   4.360   5.689   5.772  1.1902 -0.5363 -0.5245
 4350TIP3    H213015   4.472   5.632   5.856 -0.4303 -2.2448  0.5836
 4351TIP3   OH213016   2.356   4.679   5.379 -0.2848 -0.4991  0.2625
 4351TIP3    H113017   2.320   4.765   5.399  0.5627  0.4093 -1.8531
 4351TIP3    H213018   2.428   4.668   5.442 -0.6323  0.1437  0.7833
 4352TIP3   OH213019   5.288   5.136   3.514  0.3984 -0.2741 -0.3478
 4352TIP3    H113020   5.329   5.222   3.523 -1.5974  0.5758  1.3572
 4352TIP3    H213021   5.324   5.101   3.433  0.6803  2.4856 -1.5213
 4353TIP3   OH213022   4.018   4.713   2.739  0.1419  0.7159  0.8154
 4353TIP3    H113023   4.086   4.781   2.746  3.0543 -1.9951  1.3631
 4353TIP3    H213024   4.030   4.676   2.651  0.0381 -0.4236  1.2644
 4354TIP3   OH213025   4.365   0.522   2.332  0.6361 -0.6484  0.2729
 4354TIP3    H113026   4.350   0.610   2.298  2.7244 -0.9214 -1.6204
 4354TIP3    H213027   4.324   0.464   2.268 -0.3009 -1.0831  1.2479
 4355TIP3   OH213028   5.713   3.440   4.426 -0.1472 -0.0868 -0.4129
 4355TIP3    H113029   5.763   3.402   4.499 -0.5820 -1.3392 -0.7447
 4355TIP3    H213030   5.675   3.520   4.462 -0.8568 -0.9884  0.9423
 4356TIP3   OH213031   4.266   2.677   1.742 -0.1694  0.5366 -0.3590
 4356TIP3    H113032   4.329   2.704   1.808  1.2178  3.3582 -2.6226
 4356TIP3    H213033   4.225   2.598   1.779  2.2570  0.4972  2.6650
 4357TIP3   OH213034   4.039   6.570   1.906  0.1626 -0.3016 -0.7943
 4357TIP3    H113035   4.019   6.626   1.831 -0.9743  0.3009 -0.0800
 4357TIP3    H213036   4.042   6.481   1.870  1.4128  0.1381 -1.8435
 4358TIP3   OH213037   6.516   2.848   5.772 -0.7124  0.2903 -0.1918
 4358TIP3    H113038   6.435   2.808   5.740  0.5509 -1.0538 -1.8456
 4358TIP3    H213039   6.542   2.909   5.703 -0.8577  1.5935  0.8377
 4359TIP3   OH213040   4.414   1.964   0.650 -0.4731  0.3625  0.4211
 4359TIP3    H113041   4.493   1.973   0.597 -0.4213 -0.5549  0.3235
 4359TIP3    H213042   4.424   1.880   0.694 -1.2819  0.3489  0.5956
 4360TIP3   OH213043   2.932   4.196   1.860 -0.3589 -0.1825  0.1665
 4360TIP3    H113044   2.889   4.174   1.778 -0.6078 -0.7831  0.4466
 4360TIP3    H213045   2.953   4.289   1.853  2.3026 -0.8014 -1.8158
 4361TIP3   OH213046   5.170   6.740   3.105 -0.8760 -0.4630 -0.5666
 4361TIP3    H113047   5.220   6.683   3.165  1.3188  2.3085  0.4861
 4361TIP3    H213048   5.226   6.747   3.028 -1.8364 -0.8735 -1.3134
 4362TIP3   OH213049   3.809   4.369   1.267  0.2104 -0.3089  0.0012
 4362TIP3    H113050   3.728   4.397   1.224 -0.0516 -0.4242  0.4080
 4362TIP3    H213051   3.825   4.281   1.233  0.1579 -0.2905 -0.0704
 4363TIP3   OH213052   3.802   2.727   3.700  0.6031 -0.4071  0.2994
 4363TIP3    H113053   3.717   2.713   3.741 -1.2017  3.3121 -1.6952
 4363TIP3    H213054   3.830   2.814   3.730  4.1934 -1.7720  1.4768
 4364TIP3   OH213055   5.907   6.508   0.304 -0.4282 -0.1535 -0.0990
 4364TIP3    H113056   5.963   6.437   0.334  0.5770  1.1143  1.1490
 4364TIP3    H213057   5.861   6.537   0.383 -1.0844  0.3730 -0.6613
 4365TIP3   OH213058   0.603   6.160   2.346  0.4189 -0.4480  0.5004
 4365TIP3    H113059   0.687   6.156   2.299  0.6192 -0.6833  0.8751
 4365TIP3    H213060   0.568   6.246   2.324  0.2177 -0.7943 -0.5763
 4366TIP3   OH213061   5.668   0.262   2.699 -0.3773 -0.1657  0.2082
 4366TIP3    H113062   5.592   0.204   2.706 -0.4721 -0.0834 -0.1384
 4366TIP3    H213063   5.737   0.216   2.747 -0.1961 -1.0055 -0.8333
 4367TIP3   OH213064   0.370   5.864   4.480  0.2672  0.2070 -0.2435
 4367TIP3    H113065   0.435   5.909   4.534 -0.0318  1.0145 -0.5453
 4367TIP3    H213066   0.301   5.928   4.467 -0.6721 -0.6855  0.2006
 4368TIP3   OH213067   4.928   1.418   5.858 -0.4722  0.1050 -0.1466
 4368TIP3    H113068   5.006   1.465   5.829  0.2161 -1.3474 -0.7401
 4368TIP3    H213069   4.953   1.376   5.940 -1.3804  1.4973  0.8865
 4369TIP3   OH213070   0.447   2.536   0.393 -0.2077  0.3675 -0.1054
 4369TIP3    H113071   0.498   2.502   0.320  0.1220  1.5350 -0.4443
 4369TIP3    H213072   0.407   2.459   0.433 -1.2015 -0.2147 -2.1068
 4370TIP3   OH213073   4.292   1.751   1.129 -0.3230 -0.5752 -0.4343
 4370TIP3    H113074   4.213   1.699   1.146 -0.6890  0.2926  0.6507
 4370TIP3    H213075   4.267   1.840   1.153  0.7917 -0.1760 -0.7248
 4371TIP3   OH213076   5.140   6.777   2.089  0.2796 -0.4392  0.5019
 4371TIP3    H113077   5.100   6.756   2.004  0.1971  0.3489  0.3292
 4371TIP3    H213078   5.096   6.720   2.151  0.3394 -1.0300  0.0107
 4372TIP3   OH213079   5.190   5.867   0.940  0.0931 -0.1189 -0.1145
 4372TIP3    H113080   5.199   5.867   0.845 -0.5162 -0.3262 -0.1791
 4372TIP3    H213081   5.152   5.781   0.960  0.1634 -0.0543  0.3132
 4373TIP3   OH213082   1.973   1.213   2.891 -0.1158 -0.2314  0.3080
 4373TIP3    H113083   1.895   1.216   2.835  0.7415  1.9218 -0.8819
 4373TIP3    H213084   2.028   1.146   2.851 -1.6913 -2.5485  1.7645
 4374TIP3   OH213085   5.396   3.958   2.141  0.3066  0.0252  0.2726
 4374TIP3    H113086   5.431   4.014   2.210 -0.0170 -0.1814  0.6050
 4374TIP3    H213087   5.439   3.874   2.153  1.7107  0.5068 -0.9632
 4375TIP3   OH213088   6.584   3.471   0.778 -0.0880  0.1071 -0.4960
 4375TIP3    H113089   6.552   3.560   0.764  1.7268  0.9570  0.3868
 4375TIP3    H213090   6.671   3.470   0.738  1.6373  0.0415  2.8987
 4376TIP3   OH213091   4.911   5.962   2.093  0.5794 -0.0814  0.4258
 4376TIP3    H113092   4.989   5.998   2.134  1.5340  0.4555 -1.7304
 4376TIP3    H213093   4.933   5.870   2.078  0.3706 -0.1926  0.8047
 4377TIP3   OH213094   7.068   6.472   2.739 -0.4090 -0.3945 -0.6837
 4377TIP3    H113095   7.093   6.527   2.665 -1.6119  1.1240 -0.0079
 4377TIP3    H213096   7.148   6.464   2.791 -0.0484  0.1424 -1.1466
 4378TIP3   OH213097   6.964   6.213   1.200  0.5574  0.5075  0.6503
 4378TIP3    H113098   6.983   6.296   1.157  2.2898  0.9968  2.2536
 4378TIP3    H213099   6.919   6.237   1.280 -3.0875 -0.4299 -0.9212
 4379TIP3   OH213100   1.209   5.180   5.810  0.1362 -0.0126 -0.4414
 4379TIP3    H113101   1.301   5.205   5.803 -0.1588  1.1834 -0.3198
 4379TIP3    H213102   1.195   5.118   5.739  1.0239 -0.1884 -0.4768
 4380TIP3   OH213103   3.752   4.361   0.498  0.4502 -0.2900 -0.6388
 4380TIP3    H113104   3.696   4.298   0.454  0.2343 -1.1222  0.7666
 4380TIP3    H213105   3.794   4.312   0.569 -1.2170  1.4691  1.7650
 4381TIP3   OH213106   6.383   6.432   1.178 -0.4184  0.2710 -0.6187
 4381TIP3    H113107   6.380   6.343   1.214 -0.2466 -0.2017 -1.7088
 4381TIP3    H213108   6.347   6.488   1.247 -1.2117 -0.7365 -0.1927
 4382TIP3   OH213109   0.267   3.618   4.895  0.1892  0.3790  0.2744
 4382TIP3    H113110   0.350   3.632   4.941  1.2480  0.7115 -1.6351
 4382TIP3    H213111   0.251   3.524   4.903 -0.0007  0.5079  1.8037
 4383TIP3   OH213112   0.782   6.606   5.846  0.4600  0.1152 -0.1826
 4383TIP3    H113113   0.719   6.604   5.774 -1.2059  0.6628  1.1908
 4383TIP3    H213114   0.739   6.560   5.918  0.8090  2.1404  1.4081
 4384TIP3   OH213115   5.334   1.474   5.518  0.0422  0.4266  0.3157
 4384TIP3    H113116   5.382   1.469   5.436  0.2913 -2.1061  0.5569
 4384TIP3    H213117   5.266   1.407   5.511  0.3143 -0.1247  2.3261
 4385TIP3   OH213118   2.263   3.369   3.732  0.0286 -0.2957 -0.1635
 4385TIP3    H113119   2.270   3.274   3.731 -2.8963 -0.6086 -1.3462
 4385TIP3    H213120   2.190   3.387   3.791 -0.7293  1.0534 -1.4372
 4386TIP3   OH213121   4.802   6.175   2.861 -0.9674 -1.1863 -0.4900
 4386TIP3    H113122   4.886   6.168   2.906 -0.4788  1.5019 -0.7814
 4386TIP3    H213123   4.742   6.125   2.915  0.1535 -0.3305  1.7106
 4387TIP3   OH213124   2.640   4.908   5.395  0.2115 -0.1033 -0.1703
 4387TIP3    H113125   2.554   4.898   5.354  1.0212  0.7153 -2.2269
 4387TIP3    H213126   2.635   4.992   5.440 -0.3635 -0.5163  0.5550
 4388TIP3   OH213127   3.966   5.738   2.857 -0.1012 -0.4827  0.2559
 4388TIP3    H113128   3.888   5.750   2.910  0.3273 -2.4631  1.4192
 4388TIP3    H213129   3.942   5.671   2.793  0.4582 -0.6458  0.2108
 4389TIP3   OH213130   4.430   2.803   5.260 -0.5468  0.0852  0.1582
 4389TIP3    H113131   4.419   2.714   5.225  0.3508  0.4371 -1.0426
 4389TIP3    H213132   4.359   2.853   5.220  0.3889  0.4523 -1.0856
 4390TIP3   OH213133   5.462   1.662   2.231 -0.2635 -0.1715 -0.1297
 4390TIP3    H113134   5.532   1.727   2.227 -1.4147  1.0743 -0.8607
 4390TIP3    H213135   5.419   1.667   2.146  0.9828 -3.5622 -1.1529
 4391TIP3   OH213136   5.471   5.682   3.047  0.7948  0.3017 -0.0020
 4391TIP3    H113137   5.398   5.736   3.077  0.5039  0.2938 -0.6804
 4391TIP3    H213138   5.434   5.629   2.976  1.1707 -0.5340  0.4233
 4392TIP3   OH213139   1.073   1.784   4.703  0.1221  0.5663 -0.2928
 4392TIP3    H113140   1.110   1.697   4.686  0.2484  0.5772 -0.0737
 4392TIP3    H213141   1.095   1.836   4.626 -1.5073 -0.0964 -1.2714
 4393TIP3   OH213142   1.382   1.030   4.555 -0.1445  0.6788  0.3577
 4393TIP3    H113143   1.328   1.024   4.476 -0.9371  2.1385  0.7463
 4393TIP3    H213144   1.336   0.977   4.620 -0.3246  0.7329  0.2736
 4394TIP3   OH213145   0.525   1.606   1.155  0.0570 -0.3718  0.0491
 4394TIP3    H113146   0.548   1.530   1.209  0.8391 -0.4630 -0.3998
 4394TIP3    H213147   0.510   1.570   1.068 -0.7586 -0.1637  0.0971
 4395TIP3   OH213148   5.021   2.615   3.301 -0.1856 -0.1836  0.6535
 4395TIP3    H113149   5.082   2.642   3.232 -2.6897  0.8610 -1.3036
 4395TIP3    H213150   5.051   2.528   3.326  1.5451 -0.1074 -0.8653
 4396TIP3   OH213151   5.498   5.194   3.959  0.1899 -0.0397  0.4939
 4396TIP3    H113152   5.485   5.099   3.959 -1.5903  0.1619 -0.2677
 4396TIP3    H213153   5.410   5.230   3.962  0.6448  1.5689 -2.1795
 4397TIP3   OH213154   4.835   0.071   1.990 -0.5790 -0.1986 -0.2877
 4397TIP3    H113155   4.798   0.156   1.967 -0.7900 -0.1175  0.3271
 4397TIP3    H213156   4.897   0.090   2.060 -1.6179 -0.7061  0.7989
 4398TIP3   OH213157   5.561   5.876   4.809  0.4052  0.8375  0.3167
 4398TIP3    H113158   5.556   5.820   4.886  1.5478 -0.4972 -0.5285
 4398TIP3    H213159   5.614   5.950   4.837  2.5517 -0.6134  0.3223
 4399TIP3   OH213160   1.364   6.783   1.872 -0.3175  0.1490  0.1663
 4399TIP3    H113161   1.329   6.855   1.819  1.4613  0.2177 -1.0142
 4399TIP3    H213162   1.397   6.720   1.807 -3.2245 -2.5793  1.0907
 4400TIP3   OH213163   1.015   4.308   4.064 -0.2819  0.4311  0.1908
 4400TIP3    H113164   1.098   4.356   4.061 -1.6239  2.8304 -1.0917
 4400TIP3    H213165   1.038   4.225   4.105  2.9616  0.5467 -1.0726
 4401TIP3   OH213166   6.894   0.285   5.812 -0.6211  0.3348 -0.3727
 4401TIP3    H113167   6.973   0.242   5.843  0.4063  0.0401 -3.0913
 4401TIP3    H213168   6.910   0.378   5.824 -0.4195  0.2218  0.2675
 4402TIP3   OH213169   6.544   1.231   4.390  0.2574  0.6490 -0.0538
 4402TIP3    H113170   6.633   1.203   4.412  0.6301  2.3545  0.8418
 4402TIP3    H213171   6.488   1.160   4.421  1.1555  0.6773  1.8013
 4403TIP3   OH213172   5.724   0.021   4.657 -0.2343  0.4393  0.1266
 4403TIP3    H113173   5.716   0.102   4.607 -2.5407  0.5070  0.4926
 4403TIP3    H213174   5.742   0.049   4.746 -3.4714  0.8216  0.7961
 4404TIP3   OH213175   2.399   3.477   2.464  0.3392 -0.4345  0.5653
 4404TIP3    H113176   2.394   3.406   2.528 -1.1954 -0.1883  0.7672
 4404TIP3    H213177   2.308   3.489   2.435  1.1373 -1.7082 -2.9799
 4405TIP3   OH213178   5.645   0.325   0.271  0.0050  0.1230 -0.4555
 4405TIP3    H113179   5.612   0.409   0.239 -1.4671 -0.4636 -0.5647
 4405TIP3    H213180   5.597   0.310   0.352 -0.4102 -1.0141 -0.8926
 4406TIP3   OH213181   1.455   2.425   2.706  0.3976 -0.1856  0.2531
 4406TIP3    H113182   1.363   2.448   2.698  0.0043 -1.3198  1.2349
 4406TIP3    H213183   1.476   2.441   2.798  0.6881 -1.5589  0.4553
 4407TIP3   OH213184   2.982   1.955   4.892 -0.0686  0.1402  0.7406
 4407TIP3    H113185   3.063   1.943   4.942  0.1622  0.8980  0.5621
 4407TIP3    H213186   2.945   1.867   4.885 -0.4799  0.0981  2.8580
 4408TIP3   OH213187   5.133   1.877   3.370  0.1966 -0.1390 -0.1974
 4408TIP3    H113188   5.124   1.782   3.374 -0.9648 -0.0256  0.4252
 4408TIP3    H213189   5.064   1.905   3.310 -0.3249  0.3981  0.6324
 4409TIP3   OH213190   2.246   0.930   0.257  0.6091  0.2913 -0.3860
 4409TIP3    H113191   2.165   0.935   0.308  0.4082 -1.4294 -0.4903
 4409TIP3    H213192   2.300   1.002   0.290 -0.4354  0.6434  0.6053
 4410TIP3   OH213193   6.156   3.909   5.493  0.4181  0.0100 -0.0082
 4410TIP3    H113194   6.137   3.825   5.450 -1.5124  1.3611 -2.0816
 4410TIP3    H213195   6.249   3.924   5.477  0.3117 -0.7565 -1.5583
 4411TIP3   OH213196   1.518   5.357   3.473 -0.1761 -0.1548  0.9629
 4411TIP3    H113197   1.553   5.304   3.545  0.3611  0.8113  1.4375
 4411TIP3    H213198   1.429   5.325   3.462  0.5041 -1.9951  0.3916
 4412TIP3   OH213199   0.572   2.633   1.279  0.1459  0.1148  0.5221
 4412TIP3    H113200   0.617   2.573   1.338 -0.6806  0.0777  1.1278
 4412TIP3    H213201   0.579   2.718   1.322  0.7610  0.3488 -0.0247
 4413TIP3   OH213202   0.029   0.906   0.469  0.1482 -0.3308  0.0380
 4413TIP3    H113203  -0.022   0.959   0.408  2.0997  0.3431 -1.1241
 4413TIP3    H213204  -0.005   0.928   0.555  0.3131  2.2379 -0.4764
 4414TIP3   OH213205  -0.033   4.428   1.847 -0.1705 -0.7250  0.7385
 4414TIP3    H113206   0.010   4.373   1.781  0.5001 -0.8505  1.2697
 4414TIP3    H213207   0.038   4.462   1.900 -0.7297 -1.1105  1.7744
 4415TIP3   OH213208   3.192   4.104   4.430  0.2585 -0.1336  0.0624
 4415TIP3    H113209   3.117   4.154   4.398  0.2956  1.0102  1.6402
 4415TIP3    H213210   3.163   4.068   4.514  0.7979 -1.4131 -0.2711
 4416TIP3   OH213211   2.485   2.795   3.160 -0.0245  0.1906 -0.1012
 4416TIP3    H113212   2.426   2.805   3.235 -2.5443  0.3869 -1.9559
 4416TIP3    H213213   2.523   2.708   3.171 -0.8666 -0.0604  1.0576
 4417TIP3   OH213214   5.883   0.716   3.147 -0.0502 -0.2812  0.2081
 4417TIP3    H113215   5.962   0.676   3.109 -0.2979  0.3428 -1.0169
 4417TIP3    H213216   5.811   0.675   3.100 -0.3400  0.9799 -0.4801
 4418TIP3   OH213217   5.288   5.770   4.306 -0.3506 -0.3544  0.6584
 4418TIP3    H113218   5.251   5.792   4.220  0.7130 -2.0313 -0.3052
 4418TIP3    H213219   5.300   5.675   4.302 -1.5038 -0.6756  3.2014
 4419TIP3   OH213220   4.076   2.126   3.419  0.2931  0.0381  0.2046
 4419TIP3    H113221   4.125   2.049   3.390  1.1850  0.5645  0.2665
 4419TIP3    H213222   3.999   2.128   3.362  0.3689 -0.7730  0.0593
 4420TIP3   OH213223   5.868   0.750   0.535  0.0413  0.7506 -0.5835
 4420TIP3    H113224   5.861   0.656   0.519  0.0560  0.4662  0.8810
 4420TIP3    H213225   5.862   0.758   0.631 -1.4269  2.3575 -0.7555
 4421TIP3   OH213226   4.578   3.198   3.716  0.0308 -0.6910 -0.0121
 4421TIP3    H113227   4.487   3.169   3.714 -0.4554  0.6090  0.9749
 4421TIP3    H213228   4.599   3.220   3.626 -0.8704 -0.3610 -0.1511
 4422TIP3   OH213229   5.596   3.391   2.617  0.6723 -0.2283  0.7765
 4422TIP3    H113230   5.657   3.453   2.578 -1.3225  2.5371  1.7924
 4422TIP3    H213231   5.571   3.333   2.545  0.8333  1.6197 -0.8307
 4423TIP3   OH213232   0.221   3.276   2.483  0.4927 -0.4417 -0.6944
 4423TIP3    H113233   0.221   3.181   2.496 -0.3702 -0.3385  0.1149
 4423TIP3    H213234   0.276   3.289   2.405 -1.0600 -1.7860 -2.1003
 4424TIP3   OH213235   6.314   1.255   4.840  0.8234 -0.1015 -0.0060
 4424TIP3    H113236   6.323   1.187   4.773  0.8671  0.3978 -0.5201
 4424TIP3    H213237   6.362   1.222   4.915  4.7369  1.1902 -1.6699
 4425TIP3   OH213238   5.767   3.941   3.429  0.1451  0.4021  0.2352
 4425TIP3    H113239   5.789   3.849   3.446 -1.4548 -0.3875 -1.5819
 4425TIP3    H213240   5.744   3.977   3.515  0.6726 -0.9313  0.9556
 4426TIP3   OH213241   5.462   1.061   2.853 -0.1563 -0.0072 -0.0574
 4426TIP3    H113242   5.487   1.101   2.770  0.0122  0.4046  0.1876
 4426TIP3    H213243   5.529   1.091   2.915  1.2277 -2.3156 -0.2794
 4427TIP3   OH213244   6.755   2.495   1.213  0.2016 -0.5313 -0.4327
 4427TIP3    H113245   6.767   2.436   1.286  1.2240  0.6827  0.4132
 4427TIP3    H213246   6.818   2.566   1.227 -0.8173  0.6610 -1.5100
 4428TIP3   OH213247   2.910   6.465   3.834  0.3936  0.0479 -0.6859
 4428TIP3    H113248   2.973   6.531   3.806  1.5008 -0.6219  0.1224
 4428TIP3    H213249   2.928   6.454   3.928  0.1428 -1.2843 -0.7768
 4429TIP3   OH213250   2.823   0.628   3.755 -0.6347  0.2963 -0.5878
 4429TIP3    H113251   2.785   0.677   3.682  0.6831 -0.3779 -1.7763
 4429TIP3    H213252   2.853   0.546   3.716  0.7121  0.1996  0.5715
 4430TIP3   OH213253   3.875   6.507   4.769 -0.4062  0.4811 -0.0868
 4430TIP3    H113254   3.785   6.475   4.761 -0.4184  0.3374  0.6315
 4430TIP3    H213255   3.913   6.455   4.840 -0.2124  1.5760  0.6226
 4431TIP3   OH213256   4.423   3.574   1.864 -0.1707 -0.3330 -0.7763
 4431TIP3    H113257   4.431   3.530   1.779  1.2880 -0.0065 -0.8486
 4431TIP3    H213258   4.442   3.505   1.928 -0.4290 -0.3883 -0.7595
 4432TIP3   OH213259   3.852   3.102   4.003 -0.3201 -0.5468  0.4354
 4432TIP3    H113260   3.763   3.076   3.976  0.1945 -0.1263 -1.8444
 4432TIP3    H213261   3.852   3.197   3.997 -0.2369 -0.3836  2.3509
 4433TIP3   OH213262   1.415   0.088   2.878 -0.2456 -0.1243 -0.2481
 4433TIP3    H113263   1.410   0.181   2.904  1.0218  0.2886 -1.3884
 4433TIP3    H213264   1.495   0.056   2.919 -0.5730 -0.6762 -0.0313
 4434TIP3   OH213265   5.938   5.276   2.527  0.5826 -0.6172  0.4354
 4434TIP3    H113266   5.928   5.255   2.434 -1.3003  1.4444  0.0741
 4434TIP3    H213267   6.005   5.344   2.530 -0.9933  1.0344  0.2114
 4435TIP3   OH213268   0.552   1.702   4.859  0.3626 -0.0929 -0.6097
 4435TIP3    H113269   0.628   1.750   4.828  1.2822 -2.1610 -1.7761
 4435TIP3    H213270   0.529   1.744   4.942  2.2828  1.0688 -0.6051
 4436TIP3   OH213271   6.626   0.716   4.202 -0.8562 -0.8674 -0.6213
 4436TIP3    H113272   6.593   0.805   4.201 -1.3904 -1.0639 -0.5479
 4436TIP3    H213273   6.599   0.679   4.118 -0.9513 -1.0730 -0.5012
 4437TIP3   OH213274   2.639   0.788   4.434  0.1685 -0.1038 -0.8679
 4437TIP3    H113275   2.718   0.795   4.486 -0.0199  1.0944 -0.7200
 4437TIP3    H213276   2.572   0.755   4.495  0.3340 -0.2564 -0.7688
 4438TIP3   OH213277   3.925   3.642   5.392 -0.3033 -0.1922  0.1969
 4438TIP3    H113278   3.834   3.617   5.373 -0.1209 -1.2571  0.6888
 4438TIP3    H213279   3.957   3.575   5.451  0.5462  0.6580  0.7305
 4439TIP3   OH213280   2.176   5.419   4.814  0.8068  0.1905  0.4138
 4439TIP3    H113281   2.133   5.351   4.866  0.3685  0.5921  0.5875
 4439TIP3    H213282   2.225   5.372   4.747 -1.1964 -0.2319 -0.8122
 4440TIP3   OH213283   1.704   4.908   4.495  0.0699  0.0369 -0.3076
 4440TIP3    H113284   1.613   4.907   4.467 -1.1644 -1.3126  3.1886
 4440TIP3    H213285   1.753   4.871   4.421 -2.2732  0.1649 -2.0163
 4441TIP3   OH213286   4.298   1.854   2.648 -0.5304 -0.1908  0.1393
 4441TIP3    H113287   4.345   1.818   2.572 -2.6870 -0.1271 -1.2976
 4441TIP3    H213288   4.251   1.779   2.685  1.4186 -0.5032  2.2568
 4442TIP3   OH213289   3.776   2.111   0.321 -0.0502 -0.4072  0.5730
 4442TIP3    H113290   3.741   2.154   0.399 -0.0513  0.4729  0.0937
 4442TIP3    H213291   3.823   2.180   0.275  3.1301 -1.6965  1.6218
 4443TIP3   OH213292   2.325   0.682   2.431  0.1428 -0.6335  0.5464
 4443TIP3    H113293   2.342   0.747   2.499 -0.6112 -2.0073  2.1058
 4443TIP3    H213294   2.369   0.603   2.461 -1.0270 -1.5519 -0.0676
 4444TIP3   OH213295   4.594   0.572   4.162  0.1031  0.1871  0.1023
 4444TIP3    H113296   4.631   0.657   4.138 -1.8801  1.0103 -0.2460
 4444TIP3    H213297   4.547   0.543   4.083 -1.2941 -0.0255  0.9732
 4445TIP3   OH213298   0.206   0.902   5.163  0.1035 -0.3216  0.5201
 4445TIP3    H113299   0.179   0.991   5.186  1.4211  0.2268  0.0556
 4445TIP3    H213300   0.128   0.848   5.179 -0.2901  0.6744  2.1639
 4446TIP3   OH213301   6.200   3.759   1.808 -0.5053 -0.1981 -0.0078
 4446TIP3    H113302   6.168   3.847   1.789  0.6862  0.3983  0.6663
 4446TIP3    H213303   6.253   3.769   1.887 -0.9912 -1.6611  0.5423
 4447TIP3   OH213304   4.427   4.611   0.569 -0.1990  0.6975 -0.1224
 4447TIP3    H113305   4.382   4.620   0.653  0.9222 -1.4815  0.7911
 4447TIP3    H213306   4.467   4.696   0.555 -2.8405  2.0713  0.0170
 4448TIP3   OH213307   5.298   6.615   3.299  0.4944  0.0974  0.4104
 4448TIP3    H113308   5.274   6.605   3.391 -0.6319 -1.3841  0.0013
 4448TIP3    H213309   5.392   6.635   3.301  0.6684 -0.7062  1.8672
 4449TIP3   OH213310   4.905   5.106   1.477  0.4970  0.2542 -0.3596
 4449TIP3    H113311   4.952   5.170   1.424  1.2381  0.0257  0.0144
 4449TIP3    H213312   4.946   5.022   1.456 -0.1827 -0.0473 -0.5236
 4450TIP3   OH213313   5.187   0.340   3.405 -0.0646 -0.0307 -0.0433
 4450TIP3    H113314   5.174   0.435   3.399  0.5435  0.0806  0.3028
 4450TIP3    H213315   5.202   0.324   3.498  0.9825 -0.3071 -0.2534
 4451TIP3   OH213316   4.702   0.457   2.813 -0.3453  0.1310  0.2160
 4451TIP3    H113317   4.763   0.387   2.789 -0.1828  0.0808  0.7633
 4451TIP3    H213318   4.732   0.534   2.765 -1.6091 -0.5908 -1.8753
 4452TIP3   OH213319   3.620   1.044   5.807 -0.1756  0.2755 -0.2474
 4452TIP3    H113320   3.607   1.124   5.756 -2.2069 -0.1600 -0.5071
 4452TIP3    H213321   3.675   0.989   5.751 -0.2768  0.7802 -0.8561
 4453TIP3   OH213322   5.968   4.414   0.328  0.4003  0.0392 -0.3298
 4453TIP3    H113323   6.029   4.479   0.362 -0.0696 -0.8179  2.4232
 4453TIP3    H213324   5.979   4.418   0.233  3.0477  1.5075 -0.0651
 4454TIP3   OH213325   6.605   1.544   4.499 -0.0712 -0.5157 -0.7622
 4454TIP3    H113326   6.575   1.490   4.426  2.6739 -0.6507 -1.8837
 4454TIP3    H213327   6.634   1.625   4.459  2.1363 -0.8440  0.0249
 4455TIP3   OH213328   3.402   0.777   1.647 -0.4454 -0.1539 -0.6012
 4455TIP3    H113329   3.419   0.842   1.579 -0.6367 -0.4430 -0.9248
 4455TIP3    H213330   3.308   0.782   1.662 -0.3017  0.4457  0.1879
 4456TIP3   OH213331   2.738   6.334   0.790 -0.3048 -0.1295 -0.6044
 4456TIP3    H113332   2.762   6.426   0.777 -0.7604  0.1403  0.3695
 4456TIP3    H213333   2.648   6.328   0.758  0.6051 -0.9160 -3.3241
 4457TIP3   OH213334   6.228   1.573   5.756  0.2083 -0.4571  0.1691
 4457TIP3    H113335   6.267   1.492   5.723 -1.1418 -0.5755 -1.2030
 4457TIP3    H213336   6.239   1.567   5.851  1.8870 -1.3060 -0.0366
 4458TIP3   OH213337   1.963   5.994   2.062 -0.6968  0.1114 -0.4583
 4458TIP3    H113338   2.018   6.033   2.130 -0.4767 -0.6210 -0.2082
 4458TIP3    H213339   1.880   6.041   2.068 -0.8833 -0.3416  0.7174
 4459TIP3   OH213340   6.297   2.948   4.313 -0.3488 -0.5999 -0.2355
 4459TIP3    H113341   6.300   3.044   4.312  1.3451 -0.6238 -0.7481
 4459TIP3    H213342   6.203   2.927   4.313 -0.7819  1.0391  1.6552
 4460TIP3   OH213343   5.096   5.037   2.401 -0.2296 -0.1258 -0.2754
 4460TIP3    H113344   5.124   5.120   2.439 -1.1143 -0.1496  0.4426
 4460TIP3    H213345   5.171   5.009   2.347  0.5519  0.5166  0.4487
 4461TIP3   OH213346   0.949   2.418   4.228  0.4098 -0.0860 -0.3489
 4461TIP3    H113347   0.901   2.485   4.180 -0.0340 -0.1373  0.0109
 4461TIP3    H213348   0.909   2.336   4.200 -0.0318 -0.0989  0.2972
 4462TIP3   OH213349   0.017   5.832   0.141 -0.0690  0.6178  0.1299
 4462TIP3    H113350   0.035   5.756   0.196 -1.2308 -0.2744 -0.6748
 4462TIP3    H213351   0.101   5.850   0.098 -0.2655 -1.7547 -1.4777
 4463TIP3   OH213352   6.509   5.639   2.037 -0.0370 -0.1111  0.3808
 4463TIP3    H113353   6.586   5.608   2.084 -0.1493 -0.0668  0.5962
 4463TIP3    H213354   6.514   5.597   1.951  0.3677  0.0980  0.2962
 4464TIP3   OH213355   5.189   5.390   5.694  0.0874  0.2224  0.5346
 4464TIP3    H113356   5.213   5.481   5.707  0.3255  0.5501 -1.7220
 4464TIP3    H213357   5.273   5.346   5.675 -0.1953 -0.1614  0.1511
 4465TIP3   OH213358   2.624   3.256   4.816 -0.7019  0.4894 -0.5251
 4465TIP3    H113359   2.556   3.291   4.874  0.3663  1.4396  0.1844
 4465TIP3    H213360   2.579   3.244   4.732 -2.1756 -0.5654  0.3539
 4466TIP3   OH213361   2.399   0.951   1.792 -0.0451  0.5475 -0.0883
 4466TIP3    H113362   2.427   0.868   1.755 -0.7748  1.3390 -2.6959
 4466TIP3    H213363   2.350   0.928   1.870  0.9444 -1.3504  0.0220
 4467TIP3   OH213364   4.409   4.798   3.367  0.1173 -0.5098 -0.0454
 4467TIP3    H113365   4.359   4.863   3.317  0.8912 -0.4857 -0.8124
 4467TIP3    H213366   4.421   4.837   3.453 -0.7264 -0.2913 -0.0248
 4468TIP3   OH213367   2.652   3.936   5.891  0.0409  0.1969 -0.3300
 4468TIP3    H113368   2.699   3.865   5.847 -0.5353 -1.2176  1.2367
 4468TIP3    H213369   2.718   4.003   5.907  1.1199 -0.9619  0.2011
 4469TIP3   OH213370   5.587   4.196   1.681  0.4203  0.5905  0.1298
 4469TIP3    H113371   5.507   4.163   1.723  0.1475  0.2040 -0.6632
 4469TIP3    H213372   5.656   4.180   1.746 -0.1235  0.8156  0.7751
 4470TIP3   OH213373   2.485   6.585   5.005 -0.2260 -0.1446 -0.6101
 4470TIP3    H113374   2.454   6.511   4.954 -0.1425  0.1029 -1.0236
 4470TIP3    H213375   2.579   6.570   5.015 -0.3884 -0.6694  0.2706
 4471TIP3   OH213376   3.132   1.351   2.685 -0.2378 -0.3047 -0.7821
 4471TIP3    H113377   3.153   1.442   2.705  0.3846 -0.5323 -0.3718
 4471TIP3    H213378   3.036   1.349   2.681 -0.2844  0.2380 -0.1733
 4472TIP3   OH213379   2.332   5.889   3.176 -0.0508 -0.1269 -0.1532
 4472TIP3    H113380   2.318   5.933   3.092 -0.7454 -0.0800 -0.0184
 4472TIP3    H213381   2.324   5.959   3.241 -0.1643 -0.2742 -0.0059
 4473TIP3   OH213382   0.006   6.517   1.346 -0.5329  0.0923 -0.6427
 4473TIP3    H113383   0.039   6.597   1.387  0.0074 -0.0405 -0.8081
 4473TIP3    H213384  -0.042   6.472   1.416 -0.4060  0.3167 -0.4093
 4474TIP3   OH213385   4.593   5.009   4.425 -0.0865  0.5305 -0.1999
 4474TIP3    H113386   4.618   4.937   4.368  0.1803  1.0523 -0.7421
 4474TIP3    H213387   4.554   4.966   4.502  2.4877 -0.3179  0.7327
 4475TIP3   OH213388   3.805   2.749   2.879 -0.1840 -0.0256 -0.0605
 4475TIP3    H113389   3.787   2.680   2.943 -0.0881 -0.3535 -0.3794
 4475TIP3    H213390   3.888   2.722   2.839  0.8964  1.3098  1.1963
 4476TIP3   OH213391   0.690   0.845   4.347 -0.1594 -0.5263 -0.0012
 4476TIP3    H113392   0.640   0.909   4.397 -0.4262 -0.0610 -0.8480
 4476TIP3    H213393   0.766   0.895   4.315 -0.7032 -0.4500 -1.2074
 4477TIP3   OH213394   5.603   0.293   3.018  0.0958  0.1821  0.1249
 4477TIP3    H113395   5.542   0.324   3.085 -1.6782 -0.6981 -1.0317
 4477TIP3    H213396   5.592   0.198   3.017  2.0847 -0.1113  0.4097
 4478TIP3   OH213397   2.652   4.272   1.944 -0.4031 -1.1616  0.3532
 4478TIP3    H113398   2.674   4.308   2.029 -2.3761 -1.6991  1.1430
 4478TIP3    H213399   2.715   4.201   1.930  2.0998  0.9961 -0.2283
 4479TIP3   OH213400   3.351   2.133   1.093 -0.2044  0.1111  0.1803
 4479TIP3    H113401   3.370   2.224   1.112 -1.9630  0.4931  0.2477
 4479TIP3    H213402   3.270   2.114   1.140 -0.5988 -1.0974 -0.9089
 4480TIP3   OH213403   7.031   4.458   5.660  0.1419  0.2355 -0.2838
 4480TIP3    H113404   7.050   4.525   5.725  0.0634 -0.2134  0.2052
 4480TIP3    H213405   6.944   4.424   5.684 -0.1732  0.5118 -1.0006
 4481TIP3   OH213406   5.825   1.039   0.320 -0.6636 -0.0868  0.3889
 4481TIP3    H113407   5.854   0.952   0.348  0.2576  0.6841  1.9972
 4481TIP3    H213408   5.818   1.032   0.225  1.3503 -1.3861  0.2554
 4482TIP3   OH213409   2.111   3.608   0.774  0.6000  0.7637 -0.1229
 4482TIP3    H113410   2.145   3.544   0.836 -0.2191 -0.3487 -0.7813
 4482TIP3    H213411   2.174   3.608   0.702  0.5477  0.6074 -0.1698
 4483TIP3   OH213412   4.326   0.237   4.031  0.1800  0.3195 -0.7547
 4483TIP3    H113413   4.311   0.260   3.940 -1.0893 -0.6213 -0.8204
 4483TIP3    H213414   4.290   0.310   4.081  1.2826  1.0428 -0.9975
 4484TIP3   OH213415   2.463   5.038   3.802  0.3176 -0.6388  0.0131
 4484TIP3    H113416   2.430   5.035   3.712 -0.4594 -3.3849  0.2771
 4484TIP3    H213417   2.537   5.098   3.799 -1.0239  1.0547 -1.9403
 4485TIP3   OH213418   6.866   6.688   2.876 -0.0920 -0.3139 -0.1163
 4485TIP3    H113419   6.954   6.692   2.837 -0.2973  0.1928 -0.5507
 4485TIP3    H213420   6.881   6.688   2.970  0.3686  0.1696 -0.1839
 4486TIP3   OH213421   6.406   0.053   3.053 -0.2029 -0.1953 -0.0563
 4486TIP3    H113422   6.328   0.082   3.007 -0.9169 -0.6224  0.8555
 4486TIP3    H213423   6.419  -0.037   3.022  1.3113  0.5936 -1.9656
 4487TIP3   OH213424   4.091   3.409   1.241  0.4905  0.1616  0.4113
 4487TIP3    H113425   4.007   3.395   1.284  0.2566  0.1475 -0.0469
 4487TIP3    H213426   4.104   3.504   1.246  0.7618  0.1002  1.0558
 4488TIP3   OH213427   7.057   5.795   1.402  0.4228 -0.0024 -0.2871
 4488TIP3    H113428   7.020   5.842   1.327  1.6890 -0.5450 -1.3003
 4488TIP3    H213429   7.086   5.865   1.461 -1.3817  0.4279  0.1448
 4489TIP3   OH213430   0.349   5.140   5.701  0.0497  0.0267  0.0915
 4489TIP3    H113431   0.374   5.079   5.632 -0.0035 -0.4341  0.4755
 4489TIP3    H213432   0.368   5.226   5.665 -2.0376 -0.0463 -1.3898
 4490TIP3   OH213433   2.467   6.050   2.018 -0.0339 -0.2797 -0.0496
 4490TIP3    H113434   2.494   6.111   1.949 -1.8708 -0.1240 -0.6772
 4490TIP3    H213435   2.417   5.982   1.973  0.5391 -1.3560  0.8709
 4491TIP3   OH213436   1.544   3.236   1.666  0.1205  0.4867 -0.6031
 4491TIP3    H113437   1.513   3.276   1.747  0.7345 -1.1172  0.4720
 4491TIP3    H213438   1.639   3.251   1.666  0.7133 -2.4007  0.8034
 4492TIP3   OH213439   2.306   3.004   1.700  0.5449 -0.0074 -0.5340
 4492TIP3    H113440   2.358   2.987   1.778  1.8064  0.4716 -1.2393
 4492TIP3    H213441   2.274   3.094   1.712  0.8687  0.1236 -0.6213
 4493TIP3   OH213442   6.457   6.775   1.220  0.3826  0.4444  0.2796
 4493TIP3    H113443   6.458   6.826   1.301 -0.4833 -1.2553  1.4256
 4493TIP3    H213444   6.547   6.779   1.189  0.4677  2.1504  0.6242
 4494TIP3   OH213445   2.571   1.769   5.763  0.0825  0.1988  0.6535
 4494TIP3    H113446   2.483   1.800   5.784  0.3384  0.0891  1.9901
 4494TIP3    H213447   2.592   1.706   5.833  0.8703 -0.4586 -0.1412
 4495TIP3   OH213448   3.446   2.709   3.491 -0.0091 -0.0167  0.4718
 4495TIP3    H113449   3.386   2.767   3.445 -0.3429 -0.8258 -0.1300
 4495TIP3    H213450   3.521   2.700   3.431 -0.2530 -0.7251  0.2603
 4496TIP3   OH213451   6.391   5.797   0.512 -0.1197  0.4299 -0.1277
 4496TIP3    H113452   6.379   5.817   0.604  2.3769 -1.2775  0.6696
 4496TIP3    H213453   6.486   5.798   0.499 -0.3731  0.0663 -2.5541
 4497TIP3   OH213454   4.393   1.347   0.378  0.0156 -0.4356 -0.2725
 4497TIP3    H113455   4.356   1.350   0.466 -0.6172 -1.3088 -0.4880
 4497TIP3    H213456   4.340   1.409   0.328 -0.6237 -1.0356 -0.3711
 4498TIP3   OH213457   0.111   5.805   1.129 -0.2079 -0.4623 -0.0008
 4498TIP3    H113458   0.079   5.749   1.058  1.5571 -0.7666 -0.6065
 4498TIP3    H213459   0.176   5.752   1.174  0.4854  0.5945  0.2854
 4499TIP3   OH213460   4.493   5.840   0.950 -0.4288 -0.3132 -0.0783
 4499TIP3    H113461   4.581   5.867   0.977 -0.5110 -0.3662  0.2580
 4499TIP3    H213462   4.447   5.825   1.033 -0.7593 -0.2689 -0.2537
 4500TIP3   OH213463   2.198   1.304   4.690  0.2704 -0.2969  0.3252
 4500TIP3    H113464   2.283   1.291   4.648  0.9745 -0.7874  1.8237
 4500TIP3    H213465   2.220   1.319   4.782 -1.1670  1.3963  0.4290
 4501TIP3   OH213466   1.907   5.260   4.405 -0.3388 -0.3394 -0.7750
 4501TIP3    H113467   1.817   5.229   4.395 -0.7225  0.0597  1.0416
 4501TIP3    H213468   1.900   5.355   4.407 -0.3045 -0.3191  2.1789
 4502TIP3   OH213469   1.443   5.622   2.057  0.2981 -0.2298 -0.1255
 4502TIP3    H113470   1.350   5.637   2.075  0.2771 -0.0437 -0.3928
 4502TIP3    H213471   1.474   5.572   2.133 -0.0353 -0.3540 -0.0688
 4503TIP3   OH213472   6.188   2.690   5.068  0.3534  0.0032  0.5144
 4503TIP3    H113473   6.236   2.634   5.007  0.7722  0.7011  0.1891
 4503TIP3    H213474   6.197   2.778   5.032  0.4783  0.4065  1.5074
 4504TIP3   OH213475   0.277   2.474   2.413  0.0828 -0.2199 -0.3087
 4504TIP3    H113476   0.221   2.486   2.337  1.5847 -1.6951 -1.7233
 4504TIP3    H213477   0.322   2.558   2.423 -1.9235  0.8274  0.5714
 4505TIP3   OH213478   1.594   2.412  -0.017 -0.3399  0.3643  0.6976
 4505TIP3    H113479   1.646   2.344   0.027  0.9473  1.3119  0.7134
 4505TIP3    H213480   1.522   2.430   0.043 -0.0693 -0.1968  1.2070
 4506TIP3   OH213481   5.760   3.304   0.798 -0.0604  0.2508 -0.2837
 4506TIP3    H113482   5.714   3.387   0.788 -0.3043 -0.0006 -1.3346
 4506TIP3    H213483   5.708   3.241   0.749  0.5267 -0.3718 -0.1271
 4507TIP3   OH213484   6.791   4.525   3.798 -0.5074 -0.1332 -0.6731
 4507TIP3    H113485   6.748   4.514   3.713 -1.8803 -1.6165  0.1616
 4507TIP3    H213486   6.882   4.501   3.782 -0.7901 -0.5758 -1.6958
 4508TIP3   OH213487   3.568   2.693   4.376 -0.2244 -0.3330  0.0117
 4508TIP3    H113488   3.513   2.693   4.298  0.5953 -0.8255 -0.5782
 4508TIP3    H213489   3.656   2.670   4.344  0.5061  1.1616  0.8132
 4509TIP3   OH213490   6.699   5.077   1.495 -0.0695 -0.0624 -0.0312
 4509TIP3    H113491   6.645   5.118   1.562 -0.5983 -0.1834 -0.3787
 4509TIP3    H213492   6.761   5.146   1.468  1.5799 -0.6194  2.0666
 4510TIP3   OH213493   4.379   3.840   4.411 -0.1421 -0.5859 -0.8949
 4510TIP3    H113494   4.445   3.817   4.346  1.7461 -0.6894  0.9385
 4510TIP3    H213495   4.400   3.929   4.438 -0.8490 -0.5565 -0.3945
 4511TIP3   OH213496   2.333   5.067   3.071 -0.3048 -0.5169  0.4072
 4511TIP3    H113497   2.327   4.972   3.078  0.4916 -0.7300 -1.3061
 4511TIP3    H213498   2.400   5.092   3.136  0.7095 -1.3424 -0.2812
 4512TIP3   OH213499   2.031   4.551   5.205 -0.5531  0.1134  0.5760
 4512TIP3    H113500   2.017   4.637   5.166  0.0332  0.5066  1.2239
 4512TIP3    H213501   2.016   4.490   5.133 -1.5649  0.7150  0.2535
 4513TIP3   OH213502   4.259   4.418   2.638 -0.4119  0.5204  0.1448
 4513TIP3    H113503   4.265   4.482   2.709  0.7962  1.3015 -0.6379
 4513TIP3    H213504   4.286   4.336   2.679 -0.2538  0.8506  0.7201
 4514TIP3   OH213505   1.065   4.432   4.479  0.1146  0.1252 -0.4701
 4514TIP3    H113506   1.143   4.411   4.427  0.2591  0.3281 -0.3370
 4514TIP3    H213507   1.064   4.365   4.548  0.5018  0.4744 -0.1222
 4515TIP3   OH213508   1.256   6.360   2.191 -0.0255  0.1909 -0.5188
 4515TIP3    H113509   1.233   6.446   2.156  0.7110  0.7099  0.2460
 4515TIP3    H213510   1.336   6.375   2.241  0.2027 -0.9754 -0.5129
 4516TIP3   OH213511   5.278   6.421   3.066 -0.9184  0.1634  0.6416
 4516TIP3    H113512   5.203   6.459   3.020  0.6878  3.0651  0.1711
 4516TIP3    H213513   5.301   6.486   3.133  0.4272 -1.2359  1.6084
 4517TIP3   OH213514   3.696   0.929   0.424 -0.4853 -0.0348  0.1562
 4517TIP3    H113515   3.715   1.022   0.412  0.5972 -0.2487  0.0995
 4517TIP3    H213516   3.735   0.907   0.508 -1.4885 -0.2576  0.5794
 4518TIP3   OH213517   0.047   0.606   4.354 -0.0965  0.2825 -0.1658
 4518TIP3    H113518   0.139   0.587   4.374  0.1290  1.0551 -0.4224
 4518TIP3    H213519   0.050   0.653   4.270 -0.9867 -2.6260 -1.9696
 4519TIP3   OH213520   3.328   0.078   3.109  0.1214 -0.5425  0.4029
 4519TIP3    H113521   3.331   0.075   3.014  2.2101 -0.9868  0.4303
 4519TIP3    H213522   3.298  -0.010   3.135 -2.4995  0.2050  0.1873
 4520TIP3   OH213523   0.334   2.233   4.446 -0.1270  0.3279  0.1036
 4520TIP3    H113524   0.247   2.269   4.465 -1.6572 -1.8436 -2.1522
 4520TIP3    H213525   0.331   2.209   4.354  3.3291  1.1424 -0.3689
 4521TIP3   OH213526   6.205   0.734   4.464  0.7277 -0.2893 -0.0632
 4521TIP3    H113527   6.290   0.702   4.434  0.5551  0.8574 -1.9596
 4521TIP3    H213528   6.183   0.803   4.402 -0.9077  0.4676  1.2957
 4522TIP3   OH213529   2.381   4.703   2.772 -0.4879  0.3447  0.1679
 4522TIP3    H113530   2.392   4.643   2.846 -1.7733 -1.3426 -0.9457
 4522TIP3    H213531   2.470   4.716   2.739 -0.1404 -0.6433  0.6675
 4523TIP3   OH213532   7.200   0.732   5.182 -0.2094  0.3793  0.3538
 4523TIP3    H113533   7.245   0.649   5.168  0.1359  0.2199  2.1426
 4523TIP3    H213534   7.109   0.707   5.198 -0.4529  0.5050 -0.7256
 4524TIP3   OH213535   4.732   2.726   4.728  0.1022  0.5590 -0.5777
 4524TIP3    H113536   4.805   2.729   4.666 -0.3437  1.8131 -1.0649
 4524TIP3    H213537   4.747   2.802   4.785 -0.2280  0.1880  0.0112
 4525TIP3   OH213538   0.211   6.552   2.185 -0.0259 -0.1300 -0.2032
 4525TIP3    H113539   0.145   6.595   2.239 -0.8763 -1.3190 -0.2653
 4525TIP3    H213540   0.241   6.621   2.125 -0.2123  0.7761  0.7132
 4526TIP3   OH213541   4.208   4.257   0.683  0.6218 -0.3254 -0.5862
 4526TIP3    H113542   4.199   4.164   0.664  0.1580 -0.4172  0.0506
 4526TIP3    H213543   4.245   4.295   0.603 -1.5411 -0.6456 -1.8032
 4527TIP3   OH213544   5.671   2.021   4.371 -0.0018 -0.2881 -0.0006
 4527TIP3    H113545   5.619   2.029   4.451  1.3517  1.4516  0.7644
 4527TIP3    H213546   5.721   1.941   4.384 -0.4139 -0.4724  0.5170
 4528TIP3   OH213547   4.915   5.689   5.700 -0.2132 -0.0944  0.1513
 4528TIP3    H113548   4.989   5.733   5.657 -1.0845 -0.3942 -1.7821
 4528TIP3    H213549   4.876   5.757   5.755  0.1859  0.7221 -0.5427
 4529TIP3   OH213550   1.378   0.948   4.982  0.1215 -0.1169 -0.2080
 4529TIP3    H113551   1.474   0.956   4.985  0.2109 -0.9226 -0.6368
 4529TIP3    H213552   1.348   0.994   5.061  0.9725 -1.3982  0.9082
 4530TIP3   OH213553   4.293   4.800   3.066  0.4640  0.6782 -0.9761
 4530TIP3    H113554   4.276   4.874   3.124 -0.0569  0.5021 -0.8981
 4530TIP3    H213555   4.373   4.761   3.100  0.2257  0.6458 -0.4355
 4531TIP3   OH213556   4.213   6.596   1.133  0.0753  0.5935 -0.0524
 4531TIP3    H113557   4.206   6.647   1.213 -0.7108 -1.4974  1.2703
 4531TIP3    H213558   4.299   6.554   1.138 -0.5032 -0.5895  0.3942
 4532TIP3   OH213559   3.772   3.288   1.585  0.6617 -0.1609 -0.2007
 4532TIP3    H113560   3.860   3.261   1.611  1.4612  1.7217 -0.7903
 4532TIP3    H213561   3.728   3.309   1.667  0.6644 -1.2852  0.1106
 4533TIP3   OH213562   3.192   0.279   3.267 -0.3973 -0.4324  0.3363
 4533TIP3    H113563   3.216   0.190   3.240 -1.9540 -0.5760 -0.7114
 4533TIP3    H213564   3.138   0.267   3.345 -0.5695 -0.4042  0.2215
 4534TIP3   OH213565   5.848   0.721   5.532  0.1855  0.2125 -0.0312
 4534TIP3    H113566   5.780   0.742   5.596 -0.7544  0.5312 -1.0986
 4534TIP3    H213567   5.859   0.627   5.539 -0.0787  0.2111  0.4242
 4535TIP3   OH213568   5.019   3.341   2.394 -1.1951  0.0301  0.1654
 4535TIP3    H113569   4.953   3.392   2.347  1.0656  1.0724 -2.1163
 4535TIP3    H213570   5.083   3.407   2.423 -1.1742 -0.9190  2.4973
 4536TIP3   OH213571   0.565   0.074   0.972 -0.2298  0.1453  0.0068
 4536TIP3    H113572   0.470   0.077   0.959 -0.1154  0.5131 -0.8242
 4536TIP3    H213573   0.588   0.164   0.996 -0.3474 -0.3760  2.3240
 4537TIP3   OH213574   3.490   6.638   2.664 -0.1099  0.1836  0.0455
 4537TIP3    H113575   3.534   6.559   2.632  0.0681 -0.2871  1.3698
 4537TIP3    H213576   3.556   6.707   2.656 -0.3530  0.2630 -1.3678
 4538TIP3   OH213577   5.918   1.982   0.594 -0.2281  0.3521  0.0394
 4538TIP3    H113578   5.961   1.939   0.668  2.3278  2.0723 -0.2846
 4538TIP3    H213579   5.861   1.915   0.556  0.1107 -1.2628  2.1892
 4539TIP3   OH213580   4.860   1.824   3.274 -0.2385  0.0700  0.5823
 4539TIP3    H113581   4.846   1.734   3.243  1.0435  0.0750 -0.0739
 4539TIP3    H213582   4.776   1.868   3.260 -0.4910 -0.6802 -0.3224
 4540TIP3   OH213583   0.655   0.371   4.197 -0.3708  0.3441  0.4033
 4540TIP3    H113584   0.687   0.285   4.170  0.0694  0.7255 -0.3255
 4540TIP3    H213585   0.693   0.432   4.133 -1.5183  0.9573  0.2811
 4541TIP3   OH213586   6.816   3.406   0.680 -0.0888  0.5365 -0.0001
 4541TIP3    H113587   6.848   3.365   0.760  0.8470 -1.1105 -1.1500
 4541TIP3    H213588   6.878   3.379   0.612 -0.9144  1.7803 -1.3228
 4542TIP3   OH213589   3.972   1.378   4.994  0.9091 -0.0844 -0.3314
 4542TIP3    H113590   4.004   1.460   5.032  0.3558  1.0615 -2.2266
 4542TIP3    H213591   3.894   1.403   4.945 -1.3373 -2.3439  1.8168
 4543TIP3   OH213592   1.301   4.294   2.747  0.0994  0.0481  0.3621
 4543TIP3    H113593   1.336   4.356   2.811 -0.0540  0.2066  0.2957
 4543TIP3    H213594   1.322   4.208   2.782  1.6230  0.1335 -0.2517
 4544TIP3   OH213595   2.482   0.789   0.847 -0.1791 -0.0509  0.2029
 4544TIP3    H113596   2.511   0.702   0.872  0.1048 -0.6426 -1.9629
 4544TIP3    H213597   2.440   0.776   0.761 -1.8564  1.6496  0.6967
 4545TIP3   OH213598   1.396   5.679   4.927 -0.0191  0.2460 -0.0047
 4545TIP3    H113599   1.358   5.637   4.849 -0.0411  1.7856 -0.8687
 4545TIP3    H213600   1.321   5.715   4.974  0.1424  1.1916 -0.4406
 4546TIP3   OH213601   2.354   4.082   1.687 -0.0566  0.3607 -0.3079
 4546TIP3    H113602   2.258   4.081   1.684 -0.1009  1.7656 -0.2425
 4546TIP3    H213603   2.375   4.091   1.780  0.1799 -0.8505 -0.2300
 4547TIP3   OH213604   3.137   0.629   4.610 -0.5838 -0.2252  0.3665
 4547TIP3    H113605   3.148   0.535   4.622 -1.3348 -0.2307  1.0746
 4547TIP3    H213606   3.116   0.662   4.697  0.3431  0.7030  0.2606
 4548TIP3   OH213607   4.487   0.875   4.709 -0.0123  0.5768  0.1897
 4548TIP3    H113608   4.482   0.829   4.625 -1.6618 -2.4809  1.7831
 4548TIP3    H213609   4.417   0.939   4.706  0.6228  1.2497 -1.1179
 4549TIP3   OH213610   0.169   3.008   0.158  0.1362 -0.1299  0.0203
 4549TIP3    H113611   0.107   2.973   0.094  0.5946 -0.1658 -0.4156
 4549TIP3    H213612   0.219   2.932   0.187  1.0846  0.1209 -0.8742
 4550TIP3   OH213613   4.632   3.112   1.777 -0.5685  0.5160  0.1384
 4550TIP3    H113614   4.630   3.154   1.691 -2.3066  0.4444  0.1080
 4550TIP3    H213615   4.614   3.183   1.839 -0.3566  0.3819  0.3539
 4551TIP3   OH213616   5.371   6.669   2.419 -0.4004 -0.2556  0.3372
 4551TIP3    H113617   5.399   6.690   2.331 -1.0640  0.1789  0.2238
 4551TIP3    H213618   5.276   6.656   2.412 -0.5294  0.2232  1.0614
 4552TIP3   OH213619   3.119   5.034   0.704  0.2940  0.0892 -0.1444
 4552TIP3    H113620   3.056   5.050   0.775  1.8647  0.7792  1.1621
 4552TIP3    H213621   3.196   5.086   0.729  1.3032 -0.5528 -1.8021
 4553TIP3   OH213622   6.471   0.162   1.025  0.0380 -0.0227 -0.1342
 4553TIP3    H113623   6.552   0.153   0.974 -0.6133  0.1556 -1.2359
 4553TIP3    H213624   6.401   0.146   0.961 -0.8370  1.1220  0.5057
 4554TIP3   OH213625   6.752   5.336   1.394  0.0347 -0.0808 -0.3082
 4554TIP3    H113626   6.658   5.340   1.412 -0.1876 -0.9516 -1.1450
 4554TIP3    H213627   6.758   5.303   1.304  1.1463 -0.7322 -0.0231
 4555TIP3   OH213628   4.668   3.082   2.774  0.2430 -0.4678 -0.6481
 4555TIP3    H113629   4.588   3.109   2.730 -0.6211  0.6119  1.4411
 4555TIP3    H213630   4.737   3.130   2.728 -0.8871  2.6380  0.5692
 4556TIP3   OH213631   1.563   0.320   4.067 -0.0586 -0.4547 -0.2619
 4556TIP3    H113632   1.522   0.266   4.000  0.5450 -1.6164  0.2788
 4556TIP3    H213633   1.489   0.353   4.119 -0.3685 -2.2143  0.4656
 4557TIP3   OH213634   2.607   5.058   2.012 -0.6303  0.1523  0.0088
 4557TIP3    H113635   2.568   4.999   1.948 -2.4773  2.7126 -1.3904
 4557TIP3    H213636   2.555   5.046   2.091 -0.6176 -0.5077 -0.0829
 4558TIP3   OH213637   5.986   3.898   5.740 -0.6573 -0.0012  0.0222
 4558TIP3    H113638   6.039   3.892   5.661 -1.2156 -0.8618 -0.3033
 4558TIP3    H213639   5.993   3.812   5.780 -2.2629 -0.3343 -0.3459
 4559TIP3   OH213640   5.782   2.170   1.100 -0.0936 -0.3622 -0.1573
 4559TIP3    H113641   5.859   2.168   1.157 -0.7707 -0.9650  0.7584
 4559TIP3    H213642   5.765   2.078   1.079 -1.7346 -0.4251  1.2845
 4560TIP3   OH213643   1.983   0.695   4.418  0.5948  0.0208 -1.0238
 4560TIP3    H113644   1.945   0.776   4.382 -0.3416 -0.0839 -0.3186
 4560TIP3    H213645   1.909   0.634   4.424  0.5869  0.1478  1.3475
 4561TIP3   OH213646   2.925   0.476   4.171  0.3641 -0.5261  0.0693
 4561TIP3    H113647   2.988   0.513   4.109  0.6732 -0.7583  0.2431
 4561TIP3    H213648   2.961   0.390   4.193  1.2382  0.2657  1.9864
 4562TIP3   OH213649   3.122   6.179   0.038 -0.2005 -0.8779  0.2176
 4562TIP3    H113650   3.045   6.135   0.002 -1.1037  0.4239  0.4702
 4562TIP3    H213651   3.096   6.271   0.044  2.0376 -0.0290 -1.5099
 4563TIP3   OH213652   1.014   6.683   5.640 -0.0734 -0.2494 -0.2877
 4563TIP3    H113653   0.984   6.626   5.711  0.2664  1.3030  1.1562
 4563TIP3    H213654   0.964   6.654   5.563 -1.9714 -0.6226  1.0299
 4564TIP3   OH213655   0.990   0.842   2.978 -0.3195  0.0199  0.3657
 4564TIP3    H113656   1.055   0.822   3.046 -0.1553 -0.9525 -0.0675
 4564TIP3    H213657   0.949   0.758   2.958 -2.0684  0.7004  0.9684
 4565TIP3   OH213658   1.377   3.842   2.300  0.3115  0.1084  0.6839
 4565TIP3    H113659   1.396   3.813   2.211 -1.2514 -0.9233  0.6288
 4565TIP3    H213660   1.348   3.932   2.291  0.5987  0.1540  0.2111
 4566TIP3   OH213661   6.771   4.366   1.655  0.2746 -0.5131  0.0616
 4566TIP3    H113662   6.852   4.400   1.617 -0.4520  1.4291  0.1297
 4566TIP3    H213663   6.702   4.421   1.617 -0.9378 -1.5884  0.6344
 4567TIP3   OH213664   2.377   2.806   2.895 -0.2854 -0.2297  0.0457
 4567TIP3    H113665   2.284   2.829   2.896 -0.2037  0.3167 -1.5046
 4567TIP3    H213666   2.406   2.821   2.985 -1.5292  0.3119  0.3903
 4568TIP3   OH213667   1.811   2.003   3.417  0.2634 -0.0282  0.2186
 4568TIP3    H113668   1.786   1.942   3.347  0.7926  0.4807 -0.4384
 4568TIP3    H213669   1.829   2.085   3.371 -1.0202  0.8091  1.1496
 4569TIP3   OH213670   4.317   4.133   0.244  0.8440 -0.5226  0.2361
 4569TIP3    H113671   4.235   4.151   0.290  0.6187 -0.2719 -0.2509
 4569TIP3    H213672   4.350   4.219   0.219  0.6703 -0.6803 -0.5579
 4570TIP3   OH213673   6.042   5.399   1.585 -0.5592 -0.3011  0.4006
 4570TIP3    H113674   6.052   5.307   1.608 -1.7645 -0.8846 -1.2819
 4570TIP3    H213675   6.119   5.419   1.532  1.2670  0.5544  3.1248
 4571TIP3   OH213676   5.334   2.628   5.725 -0.2144 -0.1412  0.1649
 4571TIP3    H113677   5.302   2.717   5.742  1.5883  0.4195  0.8229
 4571TIP3    H213678   5.428   2.633   5.740  0.1252 -1.8653 -1.0820
 4572TIP3   OH213679   5.933   2.558   4.596  0.8168 -0.1730 -0.2281
 4572TIP3    H113680   5.850   2.553   4.643  0.6160 -1.0174 -0.6548
 4572TIP3    H213681   5.994   2.598   4.658  0.8091 -2.0845  1.0980
 4573TIP3   OH213682   0.857   3.615   5.430 -0.9752 -0.0848  1.1963
 4573TIP3    H113683   0.900   3.654   5.505  1.6807 -1.2785  0.4239
 4573TIP3    H213684   0.883   3.669   5.355 -0.2599 -1.1771  0.6260
 4574TIP3   OH213685   7.169   6.584   2.483  0.0417  0.3744 -0.2453
 4574TIP3    H113686   7.240   6.647   2.471  0.7595 -0.0155  1.6284
 4574TIP3    H213687   7.090   6.632   2.458  0.5723  2.0396  1.0753
 4575TIP3   OH213688   4.925   1.131   2.363  0.6910  0.2811  0.3087
 4575TIP3    H113689   4.954   1.107   2.451 -2.6395 -0.8312  1.2364
 4575TIP3    H213690   4.893   1.050   2.325  1.1734  0.9324 -1.6070
 4576TIP3   OH213691   7.151   1.137   5.888 -0.1256 -0.0204  0.2135
 4576TIP3    H113692   7.238   1.176   5.894  0.0954 -0.5892  0.9137
 4576TIP3    H213693   7.093   1.210   5.872  0.5055  0.3416 -0.4633
 4577TIP3   OH213694   4.517   2.376   1.676 -0.2278  0.2644 -0.2232
 4577TIP3    H113695   4.546   2.300   1.624 -0.1902  0.2058 -0.1168
 4577TIP3    H213696   4.449   2.417   1.623 -2.1792 -1.3693  0.9024
 4578TIP3   OH213697   6.570   0.367   0.508 -0.5355  0.0893 -0.0359
 4578TIP3    H113698   6.611   0.402   0.587  0.6638 -1.0624 -0.1226
 4578TIP3    H213699   6.544   0.278   0.533 -1.9384  0.3896 -0.3516
 4579TIP3   OH213700   6.656   3.925   2.751 -0.7019 -0.1361  0.0026
 4579TIP3    H113701   6.666   3.831   2.739 -1.3248 -0.1647 -0.3251
 4579TIP3    H213702   6.746   3.957   2.762 -0.6107 -1.0887  2.6961
 4580TIP3   OH213703   1.760   1.647   1.565  0.7442 -0.0117  0.1563
 4580TIP3    H113704   1.742   1.561   1.525 -2.1015  0.4322  0.2848
 4580TIP3    H213705   1.852   1.663   1.546  0.7277 -1.9669 -2.0980
 4581TIP3   OH213706   6.315   1.653   4.214 -0.7487 -0.5841  0.9596
 4581TIP3    H113707   6.365   1.679   4.292 -2.2625  0.4057  1.6473
 4581TIP3    H213708   6.350   1.567   4.191  0.8932 -0.1611  1.7076
 4582TIP3   OH213709   6.668   3.314   2.062 -0.7410  0.0129  0.2450
 4582TIP3    H113710   6.692   3.341   1.973 -2.5928 -0.1958 -0.3522
 4582TIP3    H213711   6.690   3.389   2.116 -0.7963  0.6370 -0.5773
 4583TIP3   OH213712   6.229   6.716   5.304 -0.6244 -0.4136  0.6892
 4583TIP3    H113713   6.250   6.742   5.214 -0.3261  0.0617  0.8936
 4583TIP3    H213714   6.197   6.796   5.345  1.2828 -0.0682  1.6278
 4584TIP3   OH213715   4.258   0.565   5.401  0.7001 -0.1582  0.0775
 4584TIP3    H113716   4.228   0.483   5.362  2.9592 -1.3445  0.7135
 4584TIP3    H213717   4.295   0.614   5.327 -0.2404  0.1343 -0.2204
 4585TIP3   OH213718   4.492   3.054   2.558 -0.5406 -0.1514  0.1447
 4585TIP3    H113719   4.527   2.985   2.502 -0.2163 -0.4335  0.6895
 4585TIP3    H213720   4.524   3.135   2.518 -0.0580 -0.3649  0.0853
 4586TIP3   OH213721   0.219   5.608   1.537  0.1076 -0.5259 -0.0078
 4586TIP3    H113722   0.139   5.612   1.484  0.9400 -1.8320 -1.4328
 4586TIP3    H213723   0.208   5.529   1.590 -0.4443  0.4387  1.3788
 4587TIP3   OH213724   5.755   1.250   5.758 -0.1461  0.6768 -0.5771
 4587TIP3    H113725   5.844   1.267   5.788 -0.0114 -0.1456 -0.4892
 4587TIP3    H213726   5.715   1.337   5.752  0.3361  0.9819  0.3855
 4588TIP3   OH213727   4.201   3.061   0.630  0.1077  0.1834 -0.0247
 4588TIP3    H113728   4.268   2.998   0.658  0.3464  0.2156 -0.5137
 4588TIP3    H213729   4.157   3.086   0.711  0.2649 -0.3211  0.2252
 4589TIP3   OH213730   6.795   6.639   3.233  0.5975 -0.4165 -0.1309
 4589TIP3    H113731   6.773   6.556   3.189  1.0475 -1.5217  1.6415
 4589TIP3    H213732   6.744   6.637   3.314  0.5802  1.0908 -0.0859
 4590TIP3   OH213733   0.098   4.080   5.878 -0.4880 -0.3084  0.5590
 4590TIP3    H113734   0.186   4.117   5.873 -0.7074  0.1752  0.1715
 4590TIP3    H213735   0.111   3.985   5.873 -0.0376 -0.2104 -0.2290
 4591TIP3   OH213736   0.475   5.118   3.628  0.6109  0.5224  0.4053
 4591TIP3    H113737   0.402   5.109   3.689  1.9111  0.0293  1.9849
 4591TIP3    H213738   0.526   5.037   3.641  1.2645  0.7132 -0.8666
 4592TIP3   OH213739   1.565   2.716   3.264 -0.1868 -0.5566  0.3191
 4592TIP3    H113740   1.565   2.640   3.323  0.0928  0.5107  1.7689
 4592TIP3    H213741   1.522   2.785   3.314  0.0793  0.4021 -0.7346
 4593TIP3   OH213742   6.291   2.896   4.862 -0.7605  0.0927 -0.7804
 4593TIP3    H113743   6.382   2.881   4.837 -0.4251  0.3000  0.2325
 4593TIP3    H213744   6.292   2.984   4.901 -0.8617 -0.8509  1.5194
 4594TIP3   OH213745   1.601   6.335   1.723  0.0461  1.1198  0.1588
 4594TIP3    H113746   1.540   6.264   1.702  0.0226  1.3441 -0.5672
 4594TIP3    H213747   1.649   6.303   1.799 -0.7963  0.8325  0.5897
 4595TIP3   OH213748   2.913   6.814   1.476  0.3613  0.0139 -0.2596
 4595TIP3    H113749   2.908   6.817   1.572  0.2733 -0.5880 -0.2460
 4595TIP3    H213750   2.864   6.736   1.451 -0.8141  0.9083 -0.8882
 4596TIP3   OH213751   3.981   5.616   3.934  0.4162  0.5917  0.1116
 4596TIP3    H113752   3.973   5.651   3.845 -0.5828 -1.4601 -0.6567
 4596TIP3    H213753   3.901   5.645   3.978 -0.9248 -1.4637 -0.8424
 4597TIP3   OH213754   6.867   1.124   0.495 -0.3049 -0.1049 -0.3802
 4597TIP3    H113755   6.889   1.171   0.575 -0.0744 -1.6788  0.5241
 4597TIP3    H213756   6.773   1.133   0.486 -0.0990  1.7047 -1.0246
 4598TIP3   OH213757   6.027   2.483   2.659  0.0413 -0.0827 -0.1184
 4598TIP3    H113758   6.060   2.436   2.735  0.0735 -1.4288 -0.9312
 4598TIP3    H213759   6.057   2.431   2.584  0.0877  1.2512 -1.0639
 4599TIP3   OH213760   0.672   1.168   4.749  0.3203  0.4621  0.2332
 4599TIP3    H113761   0.626   1.211   4.821  0.2046 -0.2992  0.6300
 4599TIP3    H213762   0.731   1.106   4.793 -1.0217 -1.3141 -0.3409
 4600TIP3   OH213763   3.273   6.513   4.054 -0.2746 -0.4008  0.2224
 4600TIP3    H113764   3.313   6.443   4.003  0.0416  0.0532 -0.1661
 4600TIP3    H213765   3.343   6.578   4.064 -0.1570 -0.7088  1.6925
 4601TIP3   OH213766   4.670   6.274   5.828 -0.0718 -0.4424 -0.3316
 4601TIP3    H113767   4.725   6.305   5.756 -1.2622 -0.7286 -1.3828
 4601TIP3    H213768   4.690   6.181   5.835 -2.4093 -1.2285 -2.6252
 4602TIP3   OH213769   4.375   3.558   4.059  0.3027  0.3401  0.0006
 4602TIP3    H113770   4.448   3.613   4.087  0.4451  0.8390 -1.2945
 4602TIP3    H213771   4.375   3.485   4.121  0.8950  1.1506  0.9809
 4603TIP3   OH213772   3.501   0.370   3.517  0.1686 -0.1303  0.1184
 4603TIP3    H113773   3.448   0.449   3.515 -1.8915 -1.3847  1.3107
 4603TIP3    H213774   3.496   0.336   3.427  0.3781  0.6657 -0.1972
 4604TIP3   OH213775   5.329   4.951   1.840 -0.5152 -0.0419 -0.3957
 4604TIP3    H113776   5.415   4.990   1.858 -0.2925 -0.3635 -0.7465
 4604TIP3    H213777   5.289   5.009   1.776 -0.9310  0.5960  0.4127
 4605TIP3   OH213778   2.071   0.811   3.340  0.6810 -0.5626  0.7465
 4605TIP3    H113779   2.021   0.730   3.326  1.3361 -0.6941 -1.0744
 4605TIP3    H213780   2.018   0.879   3.299  0.7319 -0.2630  1.1763
 4606TIP3   OH213781   3.513   5.845   2.438 -0.3244 -0.8187  0.0343
 4606TIP3    H113782   3.494   5.911   2.372  1.1725 -0.1979  0.1859
 4606TIP3    H213783   3.445   5.857   2.504  1.2005  2.2888  1.2850
 4607TIP3   OH213784   4.889   3.120   5.049 -0.4164 -0.1365  0.6867
 4607TIP3    H113785   4.903   3.114   4.954 -0.5579  2.5390  0.4120
 4607TIP3    H213786   4.966   3.165   5.082 -0.5736 -0.6427  1.7862
 4608TIP3   OH213787   3.851   5.046   2.660  0.3379 -0.2530  0.5793
 4608TIP3    H113788   3.777   5.082   2.612  1.3403 -0.8269 -1.4989
 4608TIP3    H213789   3.812   4.990   2.727 -1.1072 -0.1337 -0.1366
 4609TIP3   OH213790   3.046   0.351   3.793 -0.0842  0.3523  0.4707
 4609TIP3    H113791   3.112   0.290   3.759 -1.7069 -1.3736  0.2552
 4609TIP3    H213792   2.975   0.348   3.730 -0.7938  1.4592  1.1670
 4610TIP3   OH213793   2.357   3.419   5.843 -0.3357  0.7716 -0.0907
 4610TIP3    H113794   2.303   3.422   5.922  0.2169  0.1077  0.3319
 4610TIP3    H213795   2.403   3.503   5.842 -0.6478  0.9454  0.0723
 4611TIP3   OH213796   1.813   2.428   5.782  0.7548  0.3651 -0.3180
 4611TIP3    H113797   1.859   2.512   5.784  1.8895 -0.2545  0.5190
 4611TIP3    H213798   1.724   2.450   5.753  1.4012  1.6679 -1.4019
 4612TIP3   OH213799   6.268   0.251   2.642 -0.2021 -0.1617  0.4520
 4612TIP3    H113800   6.216   0.324   2.677 -0.6634  0.9004 -2.1910
 4612TIP3    H213801   6.352   0.291   2.620  0.4104 -1.0178  1.1798
 4613TIP3   OH213802   7.100   2.574   4.981  0.0837  0.0513 -0.0981
 4613TIP3    H113803   7.073   2.501   4.926  1.8916 -0.3516 -0.5264
 4613TIP3    H213804   7.188   2.597   4.948  0.2445  1.3032  1.1294
 4614TIP3   OH213805   3.415   3.144   4.769  0.3643  0.3780  0.1769
 4614TIP3    H113806   3.481   3.153   4.701 -0.0179  1.5424 -0.0571
 4614TIP3    H213807   3.444   3.201   4.840 -0.1263  0.5032  0.2859
 4615TIP3   OH213808   5.583   2.953   2.018  0.5029  0.2864  0.4475
 4615TIP3    H113809   5.510   2.935   1.959 -0.1833  0.1489  1.3071
 4615TIP3    H213810   5.566   3.042   2.050  0.9096  0.3901  0.3790
 4616TIP3   OH213811   5.683   6.419   0.018 -0.2880 -0.3801 -0.4828
 4616TIP3    H113812   5.601   6.391   0.057  0.3607  0.5350  1.6857
 4616TIP3    H213813   5.748   6.357   0.050 -0.0951 -1.0992 -2.1818
 4617TIP3   OH213814   3.006   5.678   5.842 -0.2244 -0.0631 -0.0531
 4617TIP3    H113815   2.968   5.725   5.767 -0.0250 -1.1287 -0.8389
 4617TIP3    H213816   3.035   5.595   5.806 -1.5255 -1.2493  1.5134
 4618TIP3   OH213817   5.930   3.562   0.079  0.4441 -0.3575  0.2071
 4618TIP3    H113818   5.973   3.585  -0.003 -0.9125  1.1066 -0.1375
 4618TIP3    H213819   5.837   3.556   0.057  0.2014 -1.2838  1.3710
 4619TIP3   OH213820   5.453   2.864   0.722 -0.2469  0.1499  0.2310
 4619TIP3    H113821   5.381   2.879   0.784  1.7412  1.1431  2.4830
 4619TIP3    H213822   5.437   2.777   0.687 -1.8417 -0.1770  1.6414
 4620TIP3   OH213823   3.890   0.519   0.691 -0.1248 -0.0537 -0.0280
 4620TIP3    H113824   3.950   0.491   0.760  0.8977  0.3875 -0.7069
 4620TIP3    H213825   3.898   0.614   0.690  1.5673 -0.1459 -2.1754
 4621TIP3   OH213826   6.121   4.922   3.450  0.6010 -0.6360  0.4792
 4621TIP3    H113827   6.140   4.860   3.520  1.1411 -1.9001 -0.7312
 4621TIP3    H213828   6.042   4.967   3.478  0.0145 -2.1004  1.2764
 4622TIP3   OH213829   5.234   5.659   5.777  0.5706  0.1967  0.1308
 4622TIP3    H113830   5.183   5.732   5.813 -0.1398 -1.2752  2.2953
 4622TIP3    H213831   5.305   5.646   5.839  0.4538 -1.1816  0.0120
 4623TIP3   OH213832   2.182   6.682   3.444 -0.1495  0.2428 -0.2640
 4623TIP3    H113833   2.161   6.701   3.352  2.3371 -2.1177 -1.4737
 4623TIP3    H213834   2.154   6.592   3.457  1.7579 -0.2981  0.4625
 4624TIP3   OH213835   5.297   2.545   3.201 -0.7462 -0.5365 -0.0953
 4624TIP3    H113836   5.336   2.525   3.286 -1.1737 -0.8078  0.0440
 4624TIP3    H213837   5.371   2.561   3.143 -0.3265 -2.7213 -0.2642
 4625TIP3   OH213838   3.629   3.914   2.333  0.2887  0.1806  0.2826
 4625TIP3    H113839   3.546   3.961   2.346 -0.2102 -0.4545 -0.5654
 4625TIP3    H213840   3.604   3.822   2.329  0.8891  0.0564 -1.1409
 4626TIP3   OH213841   1.983   5.474   5.168  0.2812 -0.1261 -0.2274
 4626TIP3    H113842   1.896   5.443   5.144  0.4709 -0.1986 -0.8294
 4626TIP3    H213843   2.020   5.403   5.221  1.0407 -1.3646 -2.3044
 4627TIP3   OH213844   3.371   4.853   3.219  0.3787 -0.2247 -0.2871
 4627TIP3    H113845   3.319   4.816   3.147 -1.3102  1.9280 -0.2850
 4627TIP3    H213846   3.318   4.838   3.297  1.7673 -1.7087  0.4095
 4628TIP3   OH213847   5.061   0.682   2.313 -0.9437  0.0241 -0.0653
 4628TIP3    H113848   5.063   0.708   2.221 -0.7359 -1.9216 -0.6543
 4628TIP3    H213849   5.074   0.587   2.312 -1.2243 -0.0906  1.9589
 4629TIP3   OH213850   1.890   3.834   1.139 -0.0987 -0.0543  0.2747
 4629TIP3    H113851   1.963   3.772   1.143 -1.1481 -1.3111  0.8135
 4629TIP3    H213852   1.871   3.841   1.046  0.1527 -0.4030  0.1927
 4630TIP3   OH213853   6.545   5.356   5.767  0.2594 -0.0505 -0.3352
 4630TIP3    H113854   6.512   5.382   5.681 -1.4358  1.8488  0.7822
 4630TIP3    H213855   6.639   5.346   5.755  0.2727  1.5731 -2.1322
 4631TIP3   OH213856   4.375   0.131   3.420 -0.2157  0.3066 -0.7326
 4631TIP3    H113857   4.444   0.070   3.396 -0.9109 -1.2129  0.9627
 4631TIP3    H213858   4.422   0.211   3.445  0.7528  0.1983 -2.0872
 4632TIP3   OH213859   1.994   4.683   3.978  0.6179 -0.0448  0.0854
 4632TIP3    H113860   2.078   4.693   3.934  0.7661 -1.9526 -0.1791
 4632TIP3    H213861   2.009   4.713   4.067  1.5911 -0.3630  0.0359
 4633TIP3   OH213862   3.526   1.577   2.811 -0.3110  0.0642  0.3329
 4633TIP3    H113863   3.471   1.575   2.733 -1.0521 -0.0033  0.8463
 4633TIP3    H213864   3.465   1.595   2.883  0.2600 -0.5203  0.9827
 4634TIP3   OH213865   6.391   1.993   0.147  0.8607 -0.3017 -0.0745
 4634TIP3    H113866   6.354   1.998   0.236 -1.8015  0.6610 -1.1298
 4634TIP3    H213867   6.480   1.961   0.160  1.4779  2.1783  3.1915
 4635TIP3   OH213868   2.302   3.602   4.074  0.4681  0.6773  0.0720
 4635TIP3    H113869   2.349   3.526   4.040 -0.5566  0.4571 -0.9178
 4635TIP3    H213870   2.335   3.676   4.024 -1.7043  0.2302 -2.2254
 4636TIP3   OH213871   1.774   3.985   4.015  0.1584 -0.1106 -0.0848
 4636TIP3    H113872   1.679   3.974   4.009  0.0423  1.1197 -0.9928
 4636TIP3    H213873   1.786   4.051   4.084  0.2752  0.4713 -0.6493
 4637TIP3   OH213874   6.285   3.212   0.674 -0.0245  0.4844 -0.9026
 4637TIP3    H113875   6.199   3.252   0.666 -0.7333 -0.8844 -0.5103
 4637TIP3    H213876   6.315   3.235   0.762 -0.2619  0.4709 -0.8186
 4638TIP3   OH213877   0.024   0.186   5.328  0.0976 -0.1071 -0.2328
 4638TIP3    H113878   0.052   0.278   5.329 -0.7301  0.1575 -0.0888
 4638TIP3    H213879  -0.013   0.173   5.241  1.9404 -0.8760 -0.9530
 4639TIP3   OH213880   6.586   0.692   5.817 -0.1076  0.3868 -0.1386
 4639TIP3    H113881   6.568   0.685   5.911 -1.9738  1.7313 -0.3304
 4639TIP3    H213882   6.525   0.760   5.786  0.6322  0.1526 -2.2813
 4640TIP3   OH213883   1.851   4.288   3.052  0.2496 -0.2831 -0.0780
 4640TIP3    H113884   1.817   4.223   3.113  0.7926 -0.2198  0.2938
 4640TIP3    H213885   1.910   4.239   2.995  2.5323  0.2473  1.6731
 4641TIP3   OH213886   6.457   4.039   4.125  0.0877 -0.4702  0.0577
 4641TIP3    H113887   6.364   4.016   4.132  0.4765 -2.3085 -0.2236
 4641TIP3    H213888   6.489   3.987   4.051  1.1997  0.6958 -0.3283
 4642TIP3   OH213889   0.789   2.460   2.478  0.6940 -0.0243  0.5938
 4642TIP3    H113890   0.824   2.517   2.545  0.7473  1.1345 -0.3863
 4642TIP3    H213891   0.705   2.429   2.514  0.9753  0.1354  1.4015
 4643TIP3   OH213892   6.387   0.764   0.420 -0.2131  0.4144  0.0021
 4643TIP3    H113893   6.393   0.677   0.459 -0.7113  0.3205 -0.1251
 4643TIP3    H213894   6.293   0.780   0.412 -0.1476 -0.0009 -2.1247
 4644TIP3   OH213895   6.619   3.942   3.429  0.2687  0.4272  0.3693
 4644TIP3    H113896   6.710   3.944   3.460  1.0449 -0.1330 -1.7288
 4644TIP3    H213897   6.604   4.028   3.392  0.7526 -0.1919 -1.3496
 4645TIP3   OH213898   6.233   2.968   2.732  0.3019  0.6446 -0.4731
 4645TIP3    H113899   6.205   2.977   2.641  0.4770  0.0511 -0.5890
 4645TIP3    H213900   6.219   2.876   2.753  0.6158  0.6967 -0.0171
 4646TIP3   OH213901   3.122   2.205   4.044  0.3550 -0.0467 -0.6855
 4646TIP3    H113902   3.107   2.214   4.138  0.3742 -0.4203 -0.6440
 4646TIP3    H213903   3.081   2.283   4.006 -2.0503 -1.1831 -0.6110
 4647TIP3   OH213904   6.246   4.492   1.333 -0.5114  0.1522  0.1029
 4647TIP3    H113905   6.272   4.453   1.416 -0.9855  0.4279  0.3860
 4647TIP3    H213906   6.304   4.567   1.322  1.1053 -1.1842 -0.9443
 4648TIP3   OH213907   2.879   2.115   4.675  0.2622 -0.3050 -0.0428
 4648TIP3    H113908   2.803   2.152   4.720  0.2874  1.1455 -1.1281
 4648TIP3    H213909   2.924   2.064   4.743 -1.1176 -0.3574  0.8737
 4649TIP3   OH213910   2.720   3.582   5.618 -0.1276  0.1281 -0.1448
 4649TIP3    H113911   2.807   3.568   5.581 -0.8562  0.4194 -2.1298
 4649TIP3    H213912   2.735   3.635   5.696  1.5796 -1.1250  0.4208
 4650TIP3   OH213913   3.166   6.511   4.318  0.0485  0.2075 -0.1354
 4650TIP3    H113914   3.111   6.588   4.300  0.8224  1.7282  3.2898
 4650TIP3    H213915   3.237   6.517   4.254  0.0701  2.3340  0.0324
 4651TIP3   OH213916   1.486   3.414   3.893 -0.0891 -0.1057 -0.9783
 4651TIP3    H113917   1.557   3.442   3.835  0.6870  0.1692  0.0821
 4651TIP3    H213918   1.408   3.418   3.838  0.3436  1.8520 -1.5444
 4652TIP3   OH213919   3.083   5.722   0.269  0.0584  0.1062  0.6339
 4652TIP3    H113920   3.164   5.699   0.225  0.2974  1.1059  0.5319
 4652TIP3    H213921   3.022   5.652   0.245 -0.0978  1.0273 -2.0350
 4653TIP3   OH213922   3.273   4.548   3.956  0.6637  0.6766  0.0457
 4653TIP3    H113923   3.359   4.512   3.934  0.0569 -0.8291  0.0972
 4653TIP3    H213924   3.210   4.490   3.913 -0.3623  1.2480  0.7403
 4654TIP3   OH213925   4.135   0.241   3.762  0.3810  0.1782  0.0394
 4654TIP3    H113926   4.211   0.184   3.761 -0.0686 -0.4187 -0.5611
 4654TIP3    H213927   4.068   0.194   3.712 -0.6651  0.2975  1.2547
 4655TIP3   OH213928   5.072   4.942   5.487  0.2051 -0.1196 -0.7077
 4655TIP3    H113929   5.012   5.015   5.472  0.7608  0.1807 -1.5291
 4655TIP3    H213930   5.061   4.885   5.411  0.4964 -0.3969 -0.5471
 4656TIP3   OH213931   6.234   0.787   3.331 -0.4936  0.2678 -0.0070
 4656TIP3    H113932   6.155   0.742   3.359  0.5281 -1.4411  0.2664
 4656TIP3    H213933   6.214   0.880   3.343 -3.1805  0.0624 -1.9438
 4657TIP3   OH213934   1.707   6.117   1.458  0.6647 -0.1558  0.0135
 4657TIP3    H113935   1.769   6.163   1.401  0.7762 -0.1893  0.1074
 4657TIP3    H213936   1.751   6.112   1.543 -0.0340  1.0242  0.4629
 4658TIP3   OH213937   5.113   1.146   4.302 -0.5126 -0.5421 -0.0508
 4658TIP3    H113938   5.054   1.117   4.233 -1.2086  0.7316 -0.0232
 4658TIP3    H213939   5.146   1.230   4.271  2.6032 -1.9137 -0.8119
 4659TIP3   OH213940   6.493   4.869   1.846 -0.2077  0.0457  0.5758
 4659TIP3    H113941   6.567   4.815   1.817 -0.4949 -1.5359  2.5973
 4659TIP3    H213942   6.507   4.880   1.940 -1.9084  0.7456  0.7733
 4660TIP3   OH213943   5.326   0.879   4.873  0.1743  0.1647  0.0874
 4660TIP3    H113944   5.274   0.877   4.953  0.3239 -1.1203  0.1824
 4660TIP3    H213945   5.279   0.938   4.815 -0.9536 -0.3367  0.4677
 4661TIP3   OH213946   4.518   1.317   4.548  0.0160  0.4718  0.1241
 4661TIP3    H113947   4.430   1.309   4.586 -0.2864  2.6796 -0.0012
 4661TIP3    H213948   4.522   1.406   4.514  2.4081  0.5172  0.3457
 4662TIP3   OH213949   0.552   0.843   3.031  0.3376 -0.5516  0.1283
 4662TIP3    H113950   0.516   0.863   3.118  2.6710  1.2463  0.7811
 4662TIP3    H213951   0.586   0.753   3.040  0.1496 -0.5489  0.9347
 4663TIP3   OH213952   5.372   6.018   2.849  0.1171  0.1949 -0.3696
 4663TIP3    H113953   5.333   6.105   2.857 -0.2403 -0.0289  0.3282
 4663TIP3    H213954   5.464   6.035   2.825 -0.0517  0.7480 -0.6361
 4664TIP3   OH213955   1.110   1.161   1.272  0.5233 -0.1459 -0.3986
 4664TIP3    H113956   1.184   1.221   1.263  0.7750 -0.5413 -0.9605
 4664TIP3    H213957   1.100   1.149   1.367 -0.6783  2.2139 -0.1503
 4665TIP3   OH213958   4.048   2.760   5.801  0.3883  0.6291  0.5353
 4665TIP3    H113959   4.096   2.746   5.720 -0.0787  1.2065  0.1528
 4665TIP3    H213960   4.004   2.676   5.817  0.8210  0.3796  0.4281
 4666TIP3   OH213961   4.985   4.658   5.400 -0.0999 -0.1878  0.0196
 4666TIP3    H113962   4.946   4.636   5.485  1.2866  0.5167  0.8687
 4666TIP3    H213963   4.935   4.734   5.370 -0.0071  0.1436  0.6696
 4667TIP3   OH213964   5.453   2.056   2.575 -0.1784 -0.4029  0.1331
 4667TIP3    H113965   5.442   2.003   2.654 -1.2506  0.3779  0.5266
 4667TIP3    H213966   5.404   2.009   2.508 -1.1548  0.0879  0.4892
 4668TIP3   OH213967   2.348   2.138   3.966 -0.1790 -0.7854 -0.3583
 4668TIP3    H113968   2.431   2.095   3.944 -0.6899 -1.4850 -0.9605
 4668TIP3    H213969   2.303   2.076   4.023  1.2838  1.1309  3.2678
 4669TIP3   OH213970   5.765   2.946   1.752  0.4707  0.3628  0.0569
 4669TIP3    H113971   5.834   2.964   1.815  0.7947 -0.9559  0.0924
 4669TIP3    H213972   5.695   2.906   1.803  0.2873  0.3040 -0.2392
 4670TIP3   OH213973   2.297   2.523   4.297 -0.1904 -0.1555 -0.2400
 4670TIP3    H113974   2.371   2.583   4.303  0.4061 -0.9136  0.1710
 4670TIP3    H213975   2.286   2.507   4.203 -0.1788  0.3787 -0.3319
 4671TIP3   OH213976   5.854   4.037   2.523 -0.6465 -0.4833  0.3231
 4671TIP3    H113977   5.791   4.067   2.590  0.6027  0.7693  0.9974
 4671TIP3    H213978   5.900   4.117   2.497  0.8114 -1.4007  0.0058
 4672TIP3   OH213979   4.317   5.628   0.859 -0.2047  0.1295 -0.5004
 4672TIP3    H113980   4.357   5.700   0.908  0.8113 -1.5045  1.1980
 4672TIP3    H213981   4.271   5.671   0.787 -0.4874  2.5425  1.0087
 4673TIP3   OH213982   2.090   2.961   1.057 -0.2295  0.5524 -0.0165
 4673TIP3    H113983   2.053   2.923   0.977  0.0272 -0.7982  0.4819
 4673TIP3    H213984   2.184   2.954   1.046 -0.1197  2.2075 -0.4332
 4674TIP3   OH213985   4.877   1.626   0.242  0.0834 -0.2319 -0.2873
 4674TIP3    H113986   4.879   1.618   0.338  0.9587  2.1662 -0.0342
 4674TIP3    H213987   4.784   1.618   0.220 -0.3320  0.8362  0.9689
 4675TIP3   OH213988   5.490   6.403   0.255 -0.1360  0.0942 -0.3283
 4675TIP3    H113989   5.550   6.409   0.329 -0.8824  1.3869  0.1997
 4675TIP3    H213990   5.419   6.463   0.276 -1.2673 -0.8608 -1.2755
 4676TIP3   OH213991   4.776   6.390   4.382 -0.1658  0.5826  0.1335
 4676TIP3    H113992   4.695   6.404   4.432 -0.2387 -0.9296  0.4657
 4676TIP3    H213993   4.752   6.408   4.291 -0.3508  2.1140  0.4558
 4677TIP3   OH213994   4.935   6.424   3.776 -0.5562  0.4032  0.2342
 4677TIP3    H113995   4.872   6.393   3.840 -1.2732  0.1066 -0.6061
 4677TIP3    H213996   4.916   6.517   3.766 -1.0656  0.2534 -0.2354
 4678TIP3   OH213997   1.422   0.428   2.853  0.5860  0.3736  0.1121
 4678TIP3    H113998   1.511   0.421   2.888  0.8135  1.3976 -0.2259
 4678TIP3    H213999   1.429   0.490   2.780 -0.5211  0.9843  0.4957
 4679TIP3   OH214000   5.261   0.473   4.313 -0.2163 -0.2846 -0.0357
 4679TIP3    H114001   5.205   0.408   4.356 -0.3690  0.4243  0.8633
 4679TIP3    H214002   5.253   0.551   4.367 -0.0756  0.5112 -1.1262
 4680TIP3   OH214003   4.234   3.469   0.990 -0.2637  0.1695  0.2274
 4680TIP3    H114004   4.140   3.458   1.004  0.1464 -1.0528  2.4866
 4680TIP3    H214005   4.264   3.521   1.065  0.8295  0.8657 -0.6568
 4681TIP3   OH214006   1.639   1.891   2.297 -0.3318 -0.2763  0.5855
 4681TIP3    H114007   1.582   1.870   2.371 -2.3037  0.1122 -0.7531
 4681TIP3    H214008   1.635   1.814   2.240 -4.0374  1.6104 -2.1519
 4682TIP3   OH214009   5.938   4.847   2.242 -0.1024 -0.2450 -0.1947
 4682TIP3    H114010   5.902   4.920   2.292 -0.4784  0.6996 -1.7764
 4682TIP3    H214011   6.003   4.808   2.300  0.2953  1.5131  0.6122
 4683TIP3   OH214012   5.838   4.739   5.510  0.0019 -0.3287  0.1387
 4683TIP3    H114013   5.883   4.823   5.498 -1.6891  0.3875 -1.7309
 4683TIP3    H214014   5.746   4.762   5.519 -0.4616 -1.9762 -0.1122
 4684TIP3   OH214015   5.619   5.526   5.208 -0.4644 -0.2094 -0.3078
 4684TIP3    H114016   5.644   5.593   5.144 -1.1350 -0.4568 -0.8318
 4684TIP3    H214017   5.624   5.444   5.160 -0.1656 -0.4909  0.1914
 4685TIP3   OH214018   4.240   2.263   3.934 -0.6486 -0.2797 -0.9374
 4685TIP3    H114019   4.199   2.220   3.860  0.7025 -2.6180 -0.4267
 4685TIP3    H214020   4.332   2.238   3.929  0.0088  1.7053  0.0566
 4686TIP3   OH214021   4.400   3.882   2.305 -0.4074 -0.1695 -0.0641
 4686TIP3    H114022   4.321   3.935   2.291 -0.3213 -0.1834 -0.6414
 4686TIP3    H214023   4.435   3.869   2.217 -0.4209 -1.1890  0.0773
 4687TIP3   OH214024   4.352   3.654   2.937 -0.1236  0.2161  0.1177
 4687TIP3    H114025   4.259   3.672   2.947 -0.2751 -0.0737 -0.7261
 4687TIP3    H214026   4.391   3.685   3.019 -1.0326 -0.1763  0.7158
 4688TIP3   OH214027   3.110   3.328   5.433 -0.4437 -0.2344  0.1782
 4688TIP3    H114028   3.059   3.247   5.446 -1.3563  0.3947  0.6281
 4688TIP3    H214029   3.094   3.351   5.342 -2.5140  0.9419  0.7699
 4689TIP3   OH214030   0.768   4.636   2.269  0.1957 -0.0512  0.4002
 4689TIP3    H114031   0.776   4.541   2.255 -2.0704 -0.2566  0.0239
 4689TIP3    H214032   0.744   4.644   2.361  1.4927  0.2756  0.7287
 4690TIP3   OH214033   0.839   1.889   2.312  0.2990  0.0443 -0.5911
 4690TIP3    H114034   0.784   1.964   2.334  1.0793  0.9320 -1.5937
 4690TIP3    H214035   0.862   1.850   2.397  0.4447  1.3356 -0.0199
 4691TIP3   OH214036   6.267   3.653   0.953  0.2992  0.2395 -0.1191
 4691TIP3    H114037   6.272   3.635   1.047  0.2312  0.3125 -0.1019
 4691TIP3    H214038   6.210   3.730   0.946 -1.9900 -1.3581 -0.3943
 4692TIP3   OH214039   3.504   3.714   3.140 -0.0744 -0.4431 -0.5052
 4692TIP3    H114040   3.595   3.728   3.114  0.2716 -1.7997 -0.1270
 4692TIP3    H214041   3.507   3.705   3.235 -0.7901  0.6870 -0.3595
 4693TIP3   OH214042   0.605   4.052   0.475 -0.2663  0.3858  0.1528
 4693TIP3    H114043   0.698   4.046   0.494 -0.1098 -0.2874 -0.7417
 4693TIP3    H214044   0.592   4.141   0.443  0.1492  0.3676 -0.0739
 4694TIP3   OH214045   6.683   0.254   1.468  0.3196  0.1782 -0.4005
 4694TIP3    H114046   6.646   0.281   1.552 -0.8408  1.8371 -1.3708
 4694TIP3    H214047   6.661   0.326   1.409  0.6121 -1.1875 -2.2575
 4695TIP3   OH214048   2.077   2.641   2.950  0.6142  0.3462 -0.0963
 4695TIP3    H114049   1.984   2.643   2.926  0.3094  0.2459  1.0397
 4695TIP3    H214050   2.090   2.719   3.004  1.2162  0.4064 -0.3177
 4696TIP3   OH214051   0.669   1.138   0.479 -0.7246  0.5067  0.0666
 4696TIP3    H114052   0.634   1.052   0.505 -2.1197  0.6448 -1.2314
 4696TIP3    H214053   0.762   1.122   0.464 -0.7127 -0.4892  1.0480
 4697TIP3   OH214054   3.771   6.592   5.343  0.2486 -1.0542 -0.1973
 4697TIP3    H114055   3.702   6.657   5.336  0.6564 -0.6782 -0.8898
 4697TIP3    H214056   3.831   6.613   5.271  0.0919 -2.5369 -0.8047
 4698TIP3   OH214057   6.748   4.313   1.108  0.1976  0.7257  0.5187
 4698TIP3    H114058   6.743   4.231   1.158 -0.0610  0.3946 -0.0320
 4698TIP3    H214059   6.677   4.366   1.142  1.2696  1.3206  1.9018
 4699TIP3   OH214060   1.022   6.553   1.296  0.5068  0.7609 -0.4658
 4699TIP3    H114061   1.071   6.635   1.296  1.0024  0.4657 -0.2591
 4699TIP3    H214062   1.082   6.489   1.333 -0.5724  0.7201  1.3363
 4700TIP3   OH214063   7.052   3.989   0.723 -0.4449 -0.2014  0.1311
 4700TIP3    H114064   6.982   4.014   0.662 -1.3483  1.2814  1.6922
 4700TIP3    H214065   7.007   3.964   0.803  0.7705 -0.6241  0.7106
 4701TIP3   OH214066   1.547   3.609   5.152  0.1626  0.1674  0.0719
 4701TIP3    H114067   1.634   3.580   5.122 -0.1719  0.4388 -1.2116
 4701TIP3    H214068   1.554   3.704   5.156  0.0085  0.1700  0.2662
 4702TIP3   OH214069   1.184   1.999   2.119  0.0766  0.0940 -0.0048
 4702TIP3    H114070   1.137   1.921   2.088 -0.7315  1.2574 -1.8975
 4702TIP3    H214071   1.120   2.070   2.113  1.7589  1.5792 -1.8950
 4703TIP3   OH214072   0.593   2.289   2.686  0.2104 -0.2956 -0.1730
 4703TIP3    H114073   0.551   2.239   2.616 -1.9166  1.6955 -0.4377
 4703TIP3    H214074   0.561   2.251   2.767  0.1311 -0.5821 -0.3394
 4704TIP3   OH214075   7.190   6.777   5.424 -0.2410  0.4200  0.6091
 4704TIP3    H114076   7.140   6.728   5.359 -0.8172  1.6657  0.0811
 4704TIP3    H214077   7.141   6.764   5.505  0.1913 -0.7089  0.7143
 4705TIP3   OH214078   4.822   2.429   2.017  0.6312  0.4285 -0.0140
 4705TIP3    H114079   4.757   2.483   1.972  0.9487  0.8984  0.0793
 4705TIP3    H214080   4.829   2.467   2.104  0.9724  0.3324  0.0022
 4706TIP3   OH214081   6.589   0.478   1.341  0.1532 -0.2587  0.0162
 4706TIP3    H114082   6.542   0.508   1.263 -0.9305  0.2080  0.8209
 4706TIP3    H214083   6.681   0.496   1.322 -0.1805  0.7205 -0.7734
 4707TIP3   OH214084   5.374   3.745   1.426  0.1093 -0.0105 -0.2452
 4707TIP3    H114085   5.305   3.805   1.453  0.9389  0.2596  1.3674
 4707TIP3    H214086   5.454   3.797   1.428  0.8007 -1.0684  0.9354
 4708TIP3   OH214087   5.051   6.549   5.679 -0.0634  0.2387  0.4535
 4708TIP3    H114088   4.964   6.574   5.649 -0.1433 -0.0848  0.4057
 4708TIP3    H214089   5.041   6.458   5.707  1.2288 -1.5961 -4.0606
 4709TIP3   OH214090   3.848   6.455   3.914  0.6542 -0.1002 -0.2273
 4709TIP3    H114091   3.885   6.442   3.827  0.1252  0.0234 -0.4678
 4709TIP3    H214092   3.884   6.539   3.943 -0.8649  0.9326 -1.2074
 4710TIP3   OH214093   3.769   2.074   0.641  0.4710  0.1134  0.2612
 4710TIP3    H114094   3.713   2.142   0.678  0.3112 -0.8796  1.9465
 4710TIP3    H214095   3.758   1.999   0.699  1.9157 -0.8192 -0.5908
 4711TIP3   OH214096   5.498   4.702   1.986 -0.2312  0.1579  0.2947
 4711TIP3    H114097   5.534   4.685   2.073  1.4735  0.9849 -0.1943
 4711TIP3    H214098   5.544   4.781   1.956 -3.4797  2.1900  0.1345
 4712TIP3   OH214099   1.452   6.694   3.948 -0.4671  0.3082  0.1013
 4712TIP3    H114100   1.406   6.653   4.022 -1.0842  0.0181 -0.4319
 4712TIP3    H214101   1.439   6.788   3.961  0.2295  0.3077  0.8659
 4713TIP3   OH214102   1.140   6.700   4.472  0.2517  0.5837 -0.0036
 4713TIP3    H114103   1.161   6.737   4.558 -0.7541  0.5730  0.2571
 4713TIP3    H214104   1.092   6.768   4.427  1.4097  0.8619 -0.8602
 4714TIP3   OH214105   3.072   1.044   3.598  0.5262  0.3466  0.0806
 4714TIP3    H114106   3.149   1.051   3.655  0.2208  0.1012  0.5268
 4714TIP3    H214107   2.998   1.062   3.655  0.1845 -0.3388 -0.1414
 4715TIP3   OH214108   6.827   6.134   0.933 -0.2729 -0.4698 -0.8128
 4715TIP3    H114109   6.878   6.150   1.013 -0.7750  0.5126 -0.6660
 4715TIP3    H214110   6.736   6.143   0.961 -0.4728 -0.7843 -1.3633
 4716TIP3   OH214111   0.864   5.522   2.028  0.1034  0.6887 -0.2338
 4716TIP3    H114112   0.903   5.508   2.114  0.9263 -1.9096 -0.9326
 4716TIP3    H214113   0.770   5.505   2.041  0.2682 -0.0007  0.1138
 4717TIP3   OH214114   3.768   5.721   3.095  0.2156  0.1009 -0.5577
 4717TIP3    H114115   3.759   5.637   3.139 -0.2054 -0.3327 -1.4544
 4717TIP3    H214116   3.684   5.765   3.109  0.3030  0.2236 -0.4098
 4718TIP3   OH214117   2.393   1.526   1.646  0.1414  0.8257  0.2454
 4718TIP3    H114118   2.355   1.451   1.692 -0.8280  1.7318  0.9711
 4718TIP3    H214119   2.481   1.497   1.623 -0.2308 -0.5559  0.4438
 4719TIP3   OH214120   0.702   5.325   0.751  0.1191 -0.0890  0.1772
 4719TIP3    H114121   0.794   5.328   0.776  0.3467 -1.3891 -0.4423
 4719TIP3    H214122   0.666   5.252   0.801 -0.7768  0.8538  0.9703
 4720TIP3   OH214123   1.764   5.142   1.514  0.5915 -0.9575 -0.9715
 4720TIP3    H114124   1.782   5.078   1.445  0.6254  0.1796 -2.0507
 4720TIP3    H214125   1.711   5.209   1.472 -1.0967 -1.1764  0.6114
 4721TIP3   OH214126   1.564   2.939   1.679 -0.4397  0.0922  0.2027
 4721TIP3    H114127   1.474   2.956   1.708 -0.6424 -1.1171  0.3644
 4721TIP3    H214128   1.600   3.025   1.659 -1.6037  0.6097  0.2360
 4722TIP3   OH214129   1.727   5.364   5.092  0.6938 -0.3272 -0.2146
 4722TIP3    H114130   1.676   5.444   5.076  0.5560 -0.2013  0.7958
 4722TIP3    H214131   1.737   5.324   5.006 -0.1164  0.2507 -0.5864
 4723TIP3   OH214132   3.204   6.535   5.290  0.2914  0.3227 -0.3056
 4723TIP3    H114133   3.134   6.521   5.226  1.7028  0.2352 -1.9176
 4723TIP3    H214134   3.163   6.520   5.375 -1.8912  1.3402 -1.1133
 4724TIP3   OH214135   5.504   2.149   5.550  0.1341 -0.5657  0.2020
 4724TIP3    H114136   5.449   2.222   5.580 -0.8832 -0.9483 -0.6385
 4724TIP3    H214137   5.587   2.161   5.595 -0.3071  0.6161  0.7491
 4725TIP3   OH214138   1.871   0.922   2.412 -0.1608  0.5292  0.6129
 4725TIP3    H114139   1.948   0.891   2.364  0.3391 -1.5655  2.5899
 4725TIP3    H214140   1.860   1.013   2.384  1.5617  0.1614 -1.5155
 4726TIP3   OH214141   2.201   0.390   1.972  0.0509  0.6227  0.3358
 4726TIP3    H114142   2.176   0.390   2.064  0.0143 -0.3017  0.3357
 4726TIP3    H214143   2.126   0.427   1.926 -1.1683 -1.6420  0.3824
 4727TIP3   OH214144   4.991   2.098   5.131  0.0190 -0.1324 -0.2284
 4727TIP3    H114145   5.039   2.049   5.198 -0.3161  0.2018  0.2695
 4727TIP3    H214146   5.029   2.186   5.134 -0.3177  0.0113 -0.1455
 4728TIP3   OH214147   3.811   5.708   1.262  0.2658  0.3549 -0.3397
 4728TIP3    H114148   3.895   5.698   1.306 -1.3605 -1.5933  2.6501
 4728TIP3    H214149   3.795   5.624   1.220 -0.8785  0.0835  0.5704
 4729TIP3   OH214150   3.735   0.675   4.602  0.7097  0.6050 -0.8124
 4729TIP3    H114151   3.799   0.611   4.570  1.1866 -0.1451  1.4309
 4729TIP3    H214152   3.694   0.632   4.677 -1.4244  1.6483 -1.3073
 4730TIP3   OH214153   0.639   6.472   2.527 -0.1798 -0.0979  0.4404
 4730TIP3    H114154   0.560   6.485   2.475  1.2786  0.0852 -1.8771
 4730TIP3    H214155   0.662   6.560   2.557  1.3597  0.6164 -2.4577
 4731TIP3   OH214156   0.904   2.225   2.076  0.1832 -0.6312 -0.0153
 4731TIP3    H114157   0.988   2.258   2.045 -0.4784  0.7505 -0.4074
 4731TIP3    H214158   0.903   2.247   2.169 -1.2122  2.8471 -0.6691
 4732TIP3   OH214159   6.082   4.472   2.239  0.3234  0.2653 -0.2319
 4732TIP3    H114160   6.067   4.459   2.145 -2.8716  0.0819  0.2206
 4732TIP3    H214161   6.059   4.389   2.280  0.5860  0.6972  0.8340
 4733TIP3   OH214162   4.911   2.629   2.602  0.5493  0.3898 -0.1858
 4733TIP3    H114163   4.900   2.629   2.697 -2.7843 -1.0234 -0.4413
 4733TIP3    H214164   4.876   2.713   2.573  0.0496  0.1495 -0.2803
 4734TIP3   OH214165   5.351   6.079   3.558 -0.2486  0.4372 -0.1044
 4734TIP3    H114166   5.384   6.113   3.475 -0.1056  1.1205  0.2335
 4734TIP3    H214167   5.369   6.147   3.622  0.5671 -0.5042  0.6994
 4735TIP3   OH214168   4.727   0.332   4.493 -0.2091 -0.0363 -0.5810
 4735TIP3    H114169   4.802   0.387   4.515 -0.2057  0.9826 -2.8642
 4735TIP3    H214170   4.659   0.394   4.467 -2.1594 -0.8917  1.9730
 4736TIP3   OH214171   3.066   1.012   5.271 -0.1070 -0.2830  0.2913
 4736TIP3    H114172   2.982   1.049   5.300  0.9547  1.1355  1.7965
 4736TIP3    H214173   3.043   0.931   5.226 -2.5811  1.9461 -2.8393
 4737TIP3   OH214174   7.178   3.467   3.396  0.0788  0.0185 -0.2678
 4737TIP3    H114175   7.111   3.522   3.437 -0.6754  0.2094 -1.6928
 4737TIP3    H214176   7.202   3.404   3.464 -0.5107  0.8379  0.7296
 4738TIP3   OH214177   5.921   0.761   1.578 -0.3268  0.2216 -0.1712
 4738TIP3    H114178   5.829   0.738   1.589 -0.5425  1.5985  1.4102
 4738TIP3    H214179   5.964   0.679   1.558 -1.9899 -0.3354 -1.7456
 4739TIP3   OH214180   4.522   2.589   4.851 -0.0815  0.0860 -0.2206
 4739TIP3    H114181   4.499   2.671   4.894  1.1723  0.4745 -0.2460
 4739TIP3    H214182   4.592   2.613   4.790  1.5630 -1.2806  1.0325
 4740TIP3   OH214183   0.810   0.545   1.829 -0.4239 -0.0454 -0.4254
 4740TIP3    H114184   0.849   0.466   1.866 -0.6783  0.0184 -0.0119
 4740TIP3    H214185   0.811   0.530   1.734 -0.6789 -0.6449 -0.3376
 4741TIP3   OH214186   6.956   0.343   5.312  0.1651 -0.0717  0.1720
 4741TIP3    H114187   6.921   0.431   5.322 -1.8320 -0.6608 -1.0429
 4741TIP3    H214188   6.975   0.334   5.219 -2.6714 -1.8682 -0.3662
 4742TIP3   OH214189   4.290   3.907   3.327  0.0027  0.3511 -0.0374
 4742TIP3    H114190   4.309   3.814   3.316 -0.6244 -0.0466  1.7784
 4742TIP3    H214191   4.323   3.948   3.248 -1.2775 -1.6195 -1.7095
 4743TIP3   OH214192   2.692   6.371   1.084 -0.4726 -0.2851  0.0511
 4743TIP3    H114193   2.765   6.321   1.120  0.5625  1.7039  0.9222
 4743TIP3    H214194   2.716   6.387   0.993  0.0389  0.0319  0.2319
 4744TIP3   OH214195   0.799   2.525   2.202 -0.2945  0.7755 -0.1589
 4744TIP3    H114196   0.889   2.552   2.183  0.0915  0.4842  1.1341
 4744TIP3    H214197   0.800   2.506   2.296 -1.1335 -1.4249 -0.5373
 4745TIP3   OH214198   2.779   1.641   1.503 -0.2315 -0.1690 -0.6836
 4745TIP3    H114199   2.782   1.683   1.417  2.0219 -1.2733 -1.2408
 4745TIP3    H214200   2.804   1.710   1.564  0.0681  0.1576 -1.1636
 4746TIP3   OH214201   5.132   1.393   3.864  0.1912  0.0812  0.0139
 4746TIP3    H114202   5.176   1.309   3.849 -1.9003 -1.0597 -0.1469
 4746TIP3    H214203   5.043   1.368   3.889 -0.3606  2.2755  0.3864
 4747TIP3   OH214204   6.951   2.575   2.076  0.6695  0.3376 -0.1355
 4747TIP3    H114205   6.974   2.501   2.132  1.9677 -0.2534 -1.3825
 4747TIP3    H214206   6.903   2.635   2.133  0.2673 -1.1089  1.0941
 4748TIP3   OH214207   0.008   6.700   1.928 -0.2766 -0.5380  0.1643
 4748TIP3    H114208  -0.010   6.792   1.909 -2.0860 -1.0221 -0.6682
 4748TIP3    H214209   0.017   6.696   2.023 -0.1227  0.4958  0.2050
 4749TIP3   OH214210   3.282   0.526   5.031  0.1207 -0.0238 -0.4746
 4749TIP3    H114211   3.334   0.527   5.112 -1.1093  0.1297  0.3399
 4749TIP3    H214212   3.198   0.488   5.057 -0.7597  1.2052 -1.3957
 4750TIP3   OH214213   3.324   0.395   0.536  0.1806  0.5634 -0.0883
 4750TIP3    H114214   3.252   0.417   0.595  1.2473 -0.3581  1.6270
 4750TIP3    H214215   3.295   0.316   0.490  0.3465 -0.2209  1.1167
 4751TIP3   OH214216   3.470   1.882   4.446 -0.2581  0.2630 -0.4815
 4751TIP3    H114217   3.446   1.792   4.424 -0.2723  0.4313 -1.2042
 4751TIP3    H214218   3.412   1.936   4.392 -1.5201  0.7590  1.2709
 4752TIP3   OH214219   6.091   3.753   4.675  0.3330 -0.1079 -0.0868
 4752TIP3    H114220   6.181   3.777   4.652  0.1084  0.5151 -0.3385
 4752TIP3    H214221   6.087   3.764   4.770  1.1606 -2.3487  0.2800
 4753TIP3   OH214222   1.021   2.347   5.089  0.0743 -0.0103  0.2284
 4753TIP3    H114223   0.947   2.391   5.131 -0.0457  0.3919 -0.3855
 4753TIP3    H214224   1.098   2.395   5.119 -0.0559  0.6319 -0.4322
 4754TIP3   OH214225   1.154   5.680   3.268  0.1707 -0.2874 -0.0073
 4754TIP3    H114226   1.059   5.683   3.258  0.3182  1.0466 -1.4549
 4754TIP3    H214227   1.168   5.671   3.362 -1.3754  0.8256  0.3738
 4755TIP3   OH214228   4.377   3.644   3.298 -0.4527 -0.2041  0.4382
 4755TIP3    H114229   4.436   3.611   3.365  1.6221 -1.3318 -1.7883
 4755TIP3    H214230   4.345   3.566   3.253  1.0935  0.4923 -2.1207
 4756TIP3   OH214231   1.973   6.224   2.453 -0.2899 -0.4406 -0.3251
 4756TIP3    H114232   2.065   6.226   2.427 -0.0873  1.8405  0.3099
 4756TIP3    H214233   1.974   6.238   2.547 -1.2882  0.4929 -0.4278
 4757TIP3   OH214234   5.445   0.325   5.400 -0.2079 -0.1644  0.0983
 4757TIP3    H114235   5.374   0.377   5.363  0.0916 -1.3943 -2.4326
 4757TIP3    H214236   5.405   0.239   5.418  0.2790 -0.3977  0.0776
 4758TIP3   OH214237   6.703   0.060   4.055 -0.0620 -0.6054  0.3033
 4758TIP3    H114238   6.720  -0.032   4.034  0.6095 -1.4134  3.7101
 4758TIP3    H214239   6.636   0.056   4.124  0.6194  1.3580  1.1584
 4759TIP3   OH214240   5.728   0.543   2.188 -0.2283  0.0060  0.1376
 4759TIP3    H114241   5.815   0.579   2.205  0.3994 -1.4502  0.1442
 4759TIP3    H214242   5.689   0.604   2.126  1.7424 -0.5762 -1.7894
 4760TIP3   OH214243   0.598   0.664   0.997 -0.0219  0.0369 -0.1590
 4760TIP3    H114244   0.590   0.753   1.032  0.6668 -0.3596  1.0545
 4760TIP3    H214245   0.692   0.647   0.995 -0.1863 -1.1062  0.7738
 4761TIP3   OH214246   5.624   3.205   3.986  0.0173 -0.1908 -0.0798
 4761TIP3    H114247   5.536   3.173   3.963 -0.7468  0.4764  1.6955
 4761TIP3    H214248   5.678   3.126   3.989 -0.8550 -0.8042  0.1389
 4762TIP3   OH214249   5.177   3.079   3.687  0.0763  0.2668  0.0991
 4762TIP3    H114250   5.224   3.157   3.657 -1.3374  0.8269 -0.7775
 4762TIP3    H214251   5.240   3.008   3.677  0.8883  1.0616 -0.6154
 4763TIP3   OH214252   1.518   5.397   4.807  0.2047 -0.2827 -0.1904
 4763TIP3    H114253   1.548   5.330   4.745 -1.4123 -0.8938 -0.3610
 4763TIP3    H214254   1.426   5.377   4.821 -0.1940  1.6109  0.1632
 4764TIP3   OH214255   1.028   6.218   2.245  0.5179 -0.3347 -0.1586
 4764TIP3    H114256   1.114   6.257   2.228  0.1945  1.2516  1.6217
 4764TIP3    H214257   0.972   6.254   2.176  0.9152 -0.1629 -0.4012
 4765TIP3   OH214258   5.307   5.350   4.292 -0.4559  0.2995 -0.7023
 4765TIP3    H114259   5.275   5.261   4.304  1.0042 -0.1935 -0.2362
 4765TIP3    H214260   5.229   5.405   4.299 -1.0802 -0.7432  1.3118
 4766TIP3   OH214261   1.003   4.163   3.777  0.0668  0.2543  0.0964
 4766TIP3    H114262   0.985   4.165   3.871  2.8599 -0.4135  0.7209
 4766TIP3    H214263   0.982   4.252   3.747 -2.4163  0.0409  0.9398
 4767TIP3   OH214264   0.213   1.336   5.236 -0.7079 -0.0114  0.2529
 4767TIP3    H114265   0.248   1.374   5.155  0.2432  2.0947  1.5504
 4767TIP3    H214266   0.291   1.316   5.288 -1.3191 -1.0043  0.8109
 4768TIP3   OH214267   6.422   1.733   2.149  0.7268  0.1608 -0.0157
 4768TIP3    H114268   6.464   1.802   2.201  2.1655 -1.0876  0.5697
 4768TIP3    H214269   6.330   1.758   2.146  1.1626  1.9533  0.4067
 4769TIP3   OH214270   4.917   1.092   0.961  0.5351 -0.3097 -0.1588
 4769TIP3    H114271   4.868   1.131   1.034  0.9777  1.9128 -0.9564
 4769TIP3    H214272   4.850   1.048   0.909 -0.4134  1.2914 -0.3656
 4770TIP3   OH214273   3.558   5.545   2.433  0.6757  0.2773  1.0439
 4770TIP3    H114274   3.539   5.633   2.399  1.2330  0.1247  0.3065
 4770TIP3    H214275   3.528   5.547   2.524 -1.4874  0.5206  0.3974
 4771TIP3   OH214276   0.122   1.734   2.995 -0.3226 -0.0138 -0.0587
 4771TIP3    H114277   0.158   1.806   2.944 -0.7749 -0.5194 -1.1347
 4771TIP3    H214278   0.027   1.745   2.987 -0.4368 -1.6980 -1.7405
 4772TIP3   OH214279   4.279   6.267   3.866 -0.4964  0.3323 -0.3328
 4772TIP3    H114280   4.220   6.301   3.933  0.7966 -0.1041  1.0759
 4772TIP3    H214281   4.259   6.319   3.788 -3.3982 -0.4492 -0.2316
 4773TIP3   OH214282   1.430   1.480   1.369  0.7055 -0.3729 -0.0500
 4773TIP3    H114283   1.443   1.575   1.380 -0.0758 -0.2078 -0.4301
 4773TIP3    H214284   1.518   1.445   1.359  1.1762  0.0432  2.0417
 4774TIP3   OH214285   6.178   4.444   4.378  0.0103 -0.3139 -0.1115
 4774TIP3    H114286   6.229   4.524   4.364 -1.4928  0.4297 -1.7733
 4774TIP3    H214287   6.109   4.470   4.439 -2.8121  0.8841 -3.5141
 4775TIP3   OH214288   5.382   4.058   0.979  0.0060  0.7668 -0.1915
 4775TIP3    H114289   5.341   4.067   0.893 -1.0199 -1.4678  0.0027
 4775TIP3    H214290   5.330   3.992   1.024  2.4229 -0.5368  0.9243
 4776TIP3   OH214291   3.075   0.590   1.362 -0.5246 -0.3787  1.0744
 4776TIP3    H114292   2.987   0.587   1.399 -1.2920 -0.9387 -0.6462
 4776TIP3    H214293   3.131   0.615   1.434 -1.9461 -1.1172  2.5032
 4777TIP3   OH214294   4.907   4.039   3.613  0.3717  1.1199 -0.4392
 4777TIP3    H114295   4.999   4.043   3.639  0.2759 -0.2987  0.2307
 4777TIP3    H214296   4.908   3.986   3.533  0.0798  0.5194 -0.0501
 4778TIP3   OH214297   3.073   5.159   1.821  0.4551  0.6393 -0.3784
 4778TIP3    H114298   3.113   5.146   1.735  1.3560  2.2017 -0.2327
 4778TIP3    H214299   3.097   5.248   1.845 -0.9184  0.6933  0.9138
 4779TIP3   OH214300   6.766   4.879   3.397 -0.1669  0.2400  0.5209
 4779TIP3    H114301   6.673   4.875   3.375 -0.5684  2.7209  1.5069
 4779TIP3    H214302   6.768   4.881   3.493  0.8842  0.5140  0.5061
 4780TIP3   OH214303   5.444   5.728   1.603 -0.0529  0.1731 -0.5623
 4780TIP3    H114304   5.412   5.640   1.587 -0.9270  0.1075  1.2062
 4780TIP3    H214305   5.539   5.722   1.591  0.0195 -1.2575  0.4294
 4781TIP3   OH214306   5.666   1.697   4.095  0.1008 -0.2664  0.6435
 4781TIP3    H114307   5.740   1.702   4.034 -0.5000 -0.1978 -0.0930
 4781TIP3    H214308   5.609   1.769   4.068 -0.8628 -1.1157  0.3660
 4782TIP3   OH214309   0.354   6.221   2.515  0.0146  0.3744  0.0251
 4782TIP3    H114310   0.376   6.224   2.422 -0.3693  0.7901 -0.0532
 4782TIP3    H214311   0.384   6.305   2.550 -1.5523  1.0265 -0.1173
 4783TIP3   OH214312   6.419   2.195   3.375 -0.0986 -0.1307 -0.1521
 4783TIP3    H114313   6.472   2.274   3.364  0.3349 -0.5097 -0.8109
 4783TIP3    H214314   6.329   2.224   3.360 -0.0834  0.4973  0.8821
 4784TIP3   OH214315   7.131   1.861   4.067 -0.3693 -0.1801 -0.4780
 4784TIP3    H114316   7.123   1.774   4.029  2.0975 -0.4530 -0.5510
 4784TIP3    H214317   7.065   1.864   4.137 -1.4669 -1.5353 -1.4188
 4785TIP3   OH214318   6.670   0.720   3.579 -0.5916  0.4070 -0.0130
 4785TIP3    H114319   6.611   0.656   3.540 -0.0622 -0.1840  0.1353
 4785TIP3    H214320   6.695   0.682   3.663 -0.6522  1.0363  0.2937
 4786TIP3   OH214321   1.193   2.219   2.624 -0.0435 -0.2918 -0.3441
 4786TIP3    H114322   1.238   2.184   2.700 -0.4686  0.0558  0.0748
 4786TIP3    H214323   1.153   2.142   2.583 -0.3995 -0.3990  0.1839
 4787TIP3   OH214324   5.482   4.181   3.337 -0.3290  0.3928  0.5323
 4787TIP3    H114325   5.566   4.212   3.373 -1.0007  1.5893  1.1364
 4787TIP3    H214326   5.488   4.201   3.244 -0.4431  1.7581  0.7850
 4788TIP3   OH214327   3.277   6.153   0.918 -0.4097 -0.0684 -0.4860
 4788TIP3    H114328   3.255   6.226   0.861  1.2782  2.0979  1.4432
 4788TIP3    H214329   3.199   6.140   0.973 -0.0776  1.6495  0.4471
 4789TIP3   OH214330   6.025   4.439   5.387 -0.0837  0.1101 -0.3179
 4789TIP3    H114331   6.026   4.344   5.380  2.9917  0.0600 -0.5794
 4789TIP3    H214332   5.991   4.457   5.475  3.1512 -1.5090  1.4163
 4790TIP3   OH214333   6.396   3.984   0.613  0.5906 -0.6548  0.6327
 4790TIP3    H114334   6.322   4.028   0.571  0.6588 -0.7321  0.4310
 4790TIP3    H214335   6.419   4.041   0.686  0.0644 -0.8373  0.9535
 4791TIP3   OH214336   5.266   1.799   3.906  0.0704 -0.7934 -0.7266
 4791TIP3    H114337   5.233   1.732   3.967  0.8546  0.0998  0.7581
 4791TIP3    H214338   5.262   1.880   3.957  0.3993  0.0547 -2.0263
 4792TIP3   OH214339   1.163   5.746   1.562 -0.0910 -0.2519  0.2086
 4792TIP3    H114340   1.242   5.748   1.616 -0.5538  0.3829  0.8767
 4792TIP3    H214341   1.195   5.727   1.473  1.3355  3.8693 -0.3763
 4793TIP3   OH214342   5.223   4.521   2.139  0.0106 -0.1467  0.1747
 4793TIP3    H114343   5.277   4.441   2.147  0.0182  0.0833  4.7368
 4793TIP3    H214344   5.134   4.488   2.129  0.0927 -0.7735  1.2969
 4794TIP3   OH214345   4.491   2.364   1.995  0.4894 -0.1276 -0.3226
 4794TIP3    H114346   4.493   2.347   1.901  1.0609 -2.0713 -0.0028
 4794TIP3    H214347   4.516   2.281   2.035 -1.9351 -0.0449  1.6400
 4795TIP3   OH214348   0.984   4.334   1.103  0.3421 -0.6100 -0.0190
 4795TIP3    H114349   0.966   4.371   1.017  1.3158  0.0422  0.0421
 4795TIP3    H214350   1.044   4.261   1.085  0.3355 -0.6412  0.0850
 4796TIP3   OH214351   1.555   0.765   4.425 -0.2463  0.1321 -0.5269
 4796TIP3    H114352   1.575   0.750   4.518  0.3667 -1.1567 -0.8367
 4796TIP3    H214353   1.509   0.849   4.423  0.4248  0.5594  0.8510
 4797TIP3   OH214354   2.796   5.129   1.797  0.7177 -0.7655 -0.1770
 4797TIP3    H114355   2.889   5.128   1.819  1.0102  0.9351 -1.1424
 4797TIP3    H214356   2.751   5.117   1.880  1.7977  0.2323  0.5826
 4798TIP3   OH214357   2.016   4.443   1.558 -0.1265 -0.3011  0.2372
 4798TIP3    H114358   2.006   4.516   1.496 -0.8752  0.8614  1.6781
 4798TIP3    H214359   1.985   4.367   1.509 -1.0887  0.6503 -0.7116
 4799TIP3   OH214360   3.210   2.731   2.202  0.2731  0.3459 -0.1882
 4799TIP3    H114361   3.303   2.721   2.182  0.1718 -0.0587 -0.4861
 4799TIP3    H214362   3.175   2.642   2.195  0.2945  0.0699  2.2201
 4800TIP3   OH214363   6.993   5.518   2.875  0.0353  0.1105  0.0473
 4800TIP3    H114364   6.988   5.611   2.852  0.2642  0.0808 -0.1269
 4800TIP3    H214365   6.907   5.483   2.852  0.0808  0.1961 -0.2514
 4801TIP3   OH214366   4.719   6.452   0.149 -0.1068  0.0940  0.5754
 4801TIP3    H114367   4.786   6.393   0.184 -1.3360 -1.1535  0.9158
 4801TIP3    H214368   4.763   6.500   0.079  1.5322  0.3550  1.7258
 4802TIP3   OH214369   2.638   6.124   3.286 -0.5411  0.3886  0.1975
 4802TIP3    H114370   2.726   6.157   3.268 -1.1207  2.4510  0.8225
 4802TIP3    H214371   2.652   6.045   3.337  0.9596 -0.8593 -1.9844
 4803TIP3   OH214372   6.642   1.697   4.265 -1.0268  0.1300 -0.7180
 4803TIP3    H114373   6.589   1.775   4.249 -0.2100  0.1677 -3.8277
 4803TIP3    H214374   6.730   1.730   4.279 -0.9629 -0.1677 -0.3972
 4804TIP3   OH214375   6.427   2.180   1.415  0.4129  0.1433  0.1102
 4804TIP3    H114376   6.426   2.157   1.322  2.0557 -1.5621  0.4588
 4804TIP3    H214377   6.429   2.276   1.415  2.0995  0.1791 -1.6977
 4805TIP3   OH214378   3.632   4.763   0.203 -0.9583 -0.4055 -0.0616
 4805TIP3    H114379   3.562   4.703   0.230 -0.1222 -1.4031 -0.0750
 4805TIP3    H214380   3.711   4.709   0.202 -0.6542 -0.0882 -2.9389
 4806TIP3   OH214381   5.072   4.768   2.140 -0.2024  0.4717  0.2406
 4806TIP3    H114382   4.993   4.737   2.184 -1.0233  2.7681  0.5358
 4806TIP3    H214383   5.140   4.705   2.164 -1.5638 -0.6133  1.3812
 4807TIP3   OH214384   3.908   2.479   5.407  0.9409  0.8379  0.0715
 4807TIP3    H114385   3.995   2.503   5.375  1.5213 -0.7750  0.3499
 4807TIP3    H214386   3.923   2.404   5.465 -0.4693  1.5070  1.3808
 4808TIP3   OH214387   0.292   3.874   0.229 -0.5476  0.4038 -0.2852
 4808TIP3    H114388   0.284   3.852   0.322 -0.1051  1.3259 -0.0088
 4808TIP3    H214389   0.365   3.821   0.198  0.3290  1.2102  0.3017
 4809TIP3   OH214390   5.751   5.295   2.049 -0.2111 -0.4178 -0.0358
 4809TIP3    H114391   5.689   5.295   2.122 -0.1794 -1.5595  0.0154
 4809TIP3    H214392   5.743   5.382   2.010 -0.8420 -0.0864  0.8104
 4810TIP3   OH214393   6.437   6.764   3.986  0.0526 -0.3099  0.7278
 4810TIP3    H114394   6.489   6.844   3.991 -0.1497 -0.0354 -1.0808
 4810TIP3    H214395   6.469   6.719   3.908 -1.0959 -1.1062  0.6934
 4811TIP3   OH214396   2.255   2.325   0.128 -0.4155  0.7885 -0.3973
 4811TIP3    H114397   2.197   2.386   0.173 -0.2409  1.1132 -0.6104
 4811TIP3    H214398   2.225   2.238   0.156 -1.7642  0.8960 -1.3992
 4812TIP3   OH214399   2.246   0.297   2.942  0.9027  0.3049  0.0872
 4812TIP3    H114400   2.243   0.350   3.022 -1.1212 -0.6022  0.6974
 4812TIP3    H214401   2.274   0.211   2.971 -2.5591 -0.8527  0.4734
 4813TIP3   OH214402   4.571   1.296   2.873 -0.1515  1.1341 -0.5476
 4813TIP3    H114403   4.504   1.273   2.809 -0.9070 -0.8809  0.8902
 4813TIP3    H214404   4.573   1.392   2.872 -2.8800  1.2527 -0.8147
 4814TIP3   OH214405   6.926   3.739   2.629  0.1451  0.6409 -0.3786
 4814TIP3    H114406   6.940   3.720   2.536 -0.3033  0.4234 -0.4067
 4814TIP3    H214407   7.006   3.784   2.657  0.5743  0.0864 -0.6973
 4815TIP3   OH214408   6.275   6.536   2.534 -0.3304 -0.3421 -0.0022
 4815TIP3    H114409   6.332   6.569   2.604 -1.1147 -0.7647  0.8718
 4815TIP3    H214410   6.220   6.611   2.511 -0.4666 -0.3603  0.2572
 4816TIP3   OH214411   1.315   6.789   4.676  0.0979 -0.6798 -0.2144
 4816TIP3    H114412   1.355   6.706   4.649 -0.0769 -0.0919 -2.5088
 4816TIP3    H214413   1.381   6.855   4.655 -0.3373 -0.1073  0.2013
 4817TIP3   OH214414   3.590   2.944   3.281 -0.0466  0.4490  0.5256
 4817TIP3    H114415   3.566   2.960   3.189  0.9000  1.5910  0.4478
 4817TIP3    H214416   3.508   2.956   3.329 -0.1879  1.7757  0.0076
 4818TIP3   OH214417   5.931   5.192   4.002 -0.2432 -0.1247  0.5891
 4818TIP3    H114418   5.966   5.198   3.913 -1.2630 -0.2364  0.1692
 4818TIP3    H214419   5.910   5.283   4.025 -0.5120 -0.1606  0.4909
 4819TIP3   OH214420   5.091   5.021   3.837  0.0941  0.3656  0.4119
 4819TIP3    H114421   5.082   5.053   3.747 -0.7038 -0.9397 -0.0122
 4819TIP3    H214422   5.055   4.932   3.834 -0.2386  0.4074  2.0948
 4820TIP3   OH214423   3.233   0.745   5.464 -0.4815 -0.3846  0.1535
 4820TIP3    H114424   3.227   0.759   5.370 -1.6726  1.6203  0.4555
 4820TIP3    H214425   3.221   0.651   5.476 -0.9218 -0.5890 -1.6571
 4821TIP3   OH214426   4.030   2.529   3.782  0.1447  0.7579  0.6643
 4821TIP3    H114427   4.040   2.474   3.704  1.4117  1.1864  0.5061
 4821TIP3    H214428   3.958   2.588   3.759  0.8866  1.2750 -0.4388
 4822TIP3   OH214429   5.632   2.894   1.508  0.2972  0.3320 -0.8990
 4822TIP3    H114430   5.560   2.949   1.477  0.5967  0.4316 -1.4295
 4822TIP3    H214431   5.671   2.944   1.579 -0.7163 -0.1275  0.0099
 4823TIP3   OH214432   3.550   2.572   5.581  0.0057 -0.1714  0.8120
 4823TIP3    H114433   3.521   2.502   5.639 -2.3302 -0.0919 -0.1191
 4823TIP3    H214434   3.480   2.637   5.586 -0.6530 -0.4277 -2.4731
 4824TIP3   OH214435   2.683   5.785   2.899 -0.0624 -0.0547  0.2913
 4824TIP3    H114436   2.685   5.876   2.929 -0.1518 -0.3316  1.1614
 4824TIP3    H214437   2.655   5.735   2.975 -0.2099 -0.7960 -0.2354
 4825TIP3   OH214438   1.240   1.410   5.692 -0.7165  0.4393 -0.2443
 4825TIP3    H114439   1.181   1.400   5.767 -1.2811  4.7059  0.1294
 4825TIP3    H214440   1.187   1.387   5.616 -1.7936  0.9469  0.3324
 4826TIP3   OH214441   4.595   5.136   3.177 -0.2129  0.1783 -0.7757
 4826TIP3    H114442   4.626   5.196   3.109 -2.8685  2.6063 -0.0346
 4826TIP3    H214443   4.522   5.183   3.219  0.3590 -1.8044  2.7992
 4827TIP3   OH214444   5.889   5.902   2.523 -0.3773 -0.0160 -0.4434
 4827TIP3    H114445   5.975   5.895   2.482  0.4461 -0.7783  1.3285
 4827TIP3    H214446   5.852   5.982   2.486  0.9676  0.1663 -1.4664
 4828TIP3   OH214447   3.529   2.518   1.838 -0.1306  0.4442  0.0392
 4828TIP3    H114448   3.561   2.604   1.864 -0.2572  0.3770  0.4243
 4828TIP3    H214449   3.445   2.509   1.883  0.1780 -0.1393  0.5046
 4829TIP3   OH214450   1.732   5.514   0.840 -0.3487 -0.2479  0.3819
 4829TIP3    H114451   1.782   5.484   0.916 -0.0484  1.8826  1.0992
 4829TIP3    H214452   1.788   5.580   0.799 -1.6985  0.7076  0.0067
 4830TIP3   OH214453   3.982   4.227   0.980  0.5009  0.0526  0.2743
 4830TIP3    H114454   4.006   4.189   1.065  0.5313  0.8743  0.6408
 4830TIP3    H214455   4.061   4.272   0.951  0.8787 -1.2572 -0.7840
 4831TIP3   OH214456   3.966   2.075   3.030  0.3470  0.2875 -0.2149
 4831TIP3    H114457   3.918   2.088   3.112 -0.4290 -0.9558 -0.4525
 4831TIP3    H214458   4.058   2.085   3.055  0.4533 -3.6620  1.6648
 4832TIP3   OH214459   3.393   4.688   5.805  0.7140  0.5893  0.4110
 4832TIP3    H114460   3.424   4.650   5.887  3.3246  1.2644 -0.1751
 4832TIP3    H214461   3.414   4.623   5.738 -0.8899  0.2806  0.1751
 4833TIP3   OH214462   0.010   1.512   0.319 -0.1640  0.5018 -0.1260
 4833TIP3    H114463   0.038   1.542   0.233  2.0163 -2.0015 -0.3858
 4833TIP3    H214464  -0.036   1.430   0.303 -0.2149  0.2760  1.0672
 4834TIP3   OH214465   0.562   5.233   2.226 -0.0157  0.3179  0.3949
 4834TIP3    H114466   0.625   5.286   2.276  0.1372 -0.3188  0.8890
 4834TIP3    H214467   0.603   5.147   2.219  0.0336  0.4298 -0.9742
 4835TIP3   OH214468   4.802   5.409   4.863  0.4518 -0.4688 -0.5463
 4835TIP3    H114469   4.732   5.461   4.823 -0.1612 -0.5831  0.3510
 4835TIP3    H214470   4.837   5.356   4.790 -0.7147 -0.7622 -0.9243
 4836TIP3   OH214471   4.791   2.181   0.960  0.2976 -0.1920  0.4186
 4836TIP3    H114472   4.871   2.133   0.982  1.3119  2.0298  1.9488
 4836TIP3    H214473   4.821   2.270   0.941 -1.6928  0.3487 -0.4845
 4837TIP3   OH214474   3.505   3.273   3.439 -0.1947  0.0672 -0.1819
 4837TIP3    H114475   3.503   3.352   3.493  0.1907  0.6370 -0.9848
 4837TIP3    H214476   3.536   3.302   3.354  1.0961 -1.1546 -0.1684
 4838TIP3   OH214477   4.103   0.124   2.262  0.0373 -0.7917 -0.5805
 4838TIP3    H114478   4.028   0.096   2.210 -2.4128  0.8503  1.7848
 4838TIP3    H214479   4.116   0.216   2.238 -0.3065 -0.3772  0.7312
 4839TIP3   OH214480   0.961   0.699   4.176  0.4139 -0.4948  0.3498
 4839TIP3    H114481   0.955   0.672   4.268  1.0752 -0.7653  0.3175
 4839TIP3    H214482   0.965   0.795   4.180 -2.1845 -0.3220  0.4497
 4840TIP3   OH214483   6.179   5.697   0.087  0.3089 -0.3240  0.1055
 4840TIP3    H114484   6.174   5.686   0.182 -1.5800 -1.5681 -0.0868
 4840TIP3    H214485   6.098   5.658   0.054  1.9536 -2.0844 -2.2049
 4841TIP3   OH214486   1.600   6.719   3.276  0.6194 -0.0206  0.1722
 4841TIP3    H114487   1.668   6.651   3.281 -0.9095 -1.6188  0.3514
 4841TIP3    H214488   1.647   6.797   3.248  2.2864 -1.4460 -1.3082
 4842TIP3   OH214489   1.162   0.913   2.240 -0.4690 -0.0327  0.2305
 4842TIP3    H114490   1.253   0.903   2.210  0.3333 -0.6889  2.6788
 4842TIP3    H214491   1.162   0.995   2.288 -1.0970 -0.2125  0.5435
 4843TIP3   OH214492   6.497   1.192   3.959  0.4554  0.6812 -0.2601
 4843TIP3    H114493   6.586   1.223   3.948  0.9013 -0.8092 -1.0328
 4843TIP3    H214494   6.472   1.158   3.873 -0.5880  0.4021  0.1354
 4844TIP3   OH214495   3.732   1.634   2.436 -0.4682 -0.7336 -0.2906
 4844TIP3    H114496   3.755   1.718   2.397 -2.8236 -0.4858 -1.2948
 4844TIP3    H214497   3.807   1.612   2.490  0.3618  1.8679 -0.2326
 4845TIP3   OH214498   3.969   2.231   0.529  0.3144  0.5792 -0.4054
 4845TIP3    H114499   3.919   2.167   0.579  1.5481  0.6977  1.0537
 4845TIP3    H214500   4.042   2.181   0.491  0.0915  0.7322 -1.0549
 4846TIP3   OH214501   2.703   5.270   2.781  0.3004 -0.3965 -0.0990
 4846TIP3    H114502   2.715   5.231   2.868 -0.1392  0.4595  0.3564
 4846TIP3    H214503   2.629   5.331   2.791  2.2586  2.1746 -0.2187
 4847TIP3   OH214504   0.768   4.510   1.930 -0.4175  0.2143 -0.2614
 4847TIP3    H114505   0.788   4.418   1.912  1.5452  0.4264  0.5566
 4847TIP3    H214506   0.727   4.509   2.017 -2.5220 -0.0625 -1.2126
 4848TIP3   OH214507   0.023   6.325   4.519 -0.3759 -0.2315  0.5212
 4848TIP3    H114508  -0.064   6.313   4.482  1.1840 -0.7818 -3.4335
 4848TIP3    H214509   0.071   6.247   4.493  1.6835  0.6759  1.3871
 4849TIP3   OH214510   1.724   2.522   1.254  0.1145 -0.5596  0.0676
 4849TIP3    H114511   1.788   2.500   1.322  0.1451 -2.4855 -0.5286
 4849TIP3    H214512   1.750   2.609   1.225  1.4793 -0.6315  0.9691
 4850TIP3   OH214513   5.462   0.113   2.306  0.6076  0.3435  0.0037
 4850TIP3    H114514   5.553   0.083   2.308  0.6458  0.0996 -2.4738
 4850TIP3    H214515   5.468   0.209   2.308  0.8830  0.3153  0.5114
 4851TIP3   OH214516   7.162   4.472   1.042 -1.0087  0.3109  0.8374
 4851TIP3    H114517   7.122   4.398   1.088 -1.0023 -0.3144 -0.1187
 4851TIP3    H214518   7.220   4.431   0.978 -1.6158  1.1242 -0.2687
 4852TIP3   OH214519   6.287   6.159   2.778  0.1576 -0.3497  0.4952
 4852TIP3    H114520   6.379   6.172   2.755  0.3264  0.3134  1.4821
 4852TIP3    H214521   6.249   6.114   2.702  1.7974 -2.6953  0.9295
 4853TIP3   OH214522   6.237   0.434   4.822  0.1431  0.1405  0.0893
 4853TIP3    H114523   6.318   0.423   4.773  0.1408 -0.0930  0.1333
 4853TIP3    H214524   6.204   0.520   4.796  0.8472  0.6167  0.7209
 4854TIP3   OH214525   4.066   2.126   0.805  0.2283  0.3754  0.9816
 4854TIP3    H114526   4.053   2.042   0.761 -4.7381  1.3135  0.0686
 4854TIP3    H214527   4.060   2.106   0.898 -0.7760 -0.3188  0.7756
 4855TIP3   OH214528   5.395   0.126   1.151 -0.4069 -0.6092 -0.0607
 4855TIP3    H114529   5.387   0.045   1.202 -0.4145 -0.4145  0.2485
 4855TIP3    H214530   5.382   0.196   1.215 -0.2725 -0.3600 -0.3046
 4856TIP3   OH214531   0.525   1.819   3.600 -0.0849 -0.6783  0.1791
 4856TIP3    H114532   0.465   1.835   3.527  0.0050 -0.3446  0.1764
 4856TIP3    H214533   0.577   1.899   3.606  1.3208 -1.4571 -0.7218
 4857TIP3   OH214534   5.250   6.367   4.094  0.0803  0.2623 -0.0496
 4857TIP3    H114535   5.298   6.445   4.070 -0.3026  0.7903  0.8625
 4857TIP3    H214536   5.227   6.379   4.186  1.1947 -1.5398  0.5239
 4858TIP3   OH214537   1.531   4.565   0.276 -0.5567  0.6784  0.3490
 4858TIP3    H114538   1.625   4.581   0.279 -0.2132 -0.8005 -1.0080
 4858TIP3    H214539   1.500   4.586   0.364  0.8946  1.9455  0.5964
 4859TIP3   OH214540   2.663   1.474   1.225 -0.3918 -0.1006  0.1993
 4859TIP3    H114541   2.658   1.569   1.234 -0.3871 -0.1017  0.2141
 4859TIP3    H214542   2.625   1.440   1.306  0.7481 -0.1057  0.7526
 4860TIP3   OH214543   3.390   3.496   4.892  0.1788 -0.1558 -0.4480
 4860TIP3    H114544   3.411   3.526   4.804 -1.7575 -0.7821 -1.1623
 4860TIP3    H214545   3.461   3.532   4.946  1.1963  0.5791 -2.1651
 4861TIP3   OH214546   6.235   0.990   1.895  0.6810 -0.2760  0.1155
 4861TIP3    H114547   6.148   0.965   1.865  0.5558  0.3773 -0.0943
 4861TIP3    H214548   6.294   0.958   1.826  0.8417 -2.4701  1.1843
 4862TIP3   OH214549   6.433   4.585   4.906  0.2349  0.1206 -0.1806
 4862TIP3    H114550   6.528   4.586   4.893 -0.1047 -1.1783 -3.8399
 4862TIP3    H214551   6.417   4.653   4.971  3.5938  0.9797 -0.0970
 4863TIP3   OH214552   0.524   1.463   2.857  0.1751 -0.0589  0.6171
 4863TIP3    H114553   0.568   1.488   2.938 -0.7203  0.0907  1.0684
 4863TIP3    H214554   0.445   1.516   2.855  1.0407  1.2949 -1.2657
 4864TIP3   OH214555   1.089   0.022   5.141 -0.5430  0.2941  0.3276
 4864TIP3    H114556   1.160   0.082   5.165 -0.3883  0.2473 -0.0100
 4864TIP3    H214557   1.030   0.024   5.217  0.8939 -1.3136  1.5776
 4865TIP3   OH214558   6.727   4.314   4.921  0.5591 -0.2759  0.3233
 4865TIP3    H114559   6.695   4.367   4.848  0.7829 -1.1971 -0.4630
 4865TIP3    H214560   6.672   4.235   4.919  0.2857 -0.1369  1.4256
 4866TIP3   OH214561   3.316   2.044   3.379  0.4547  0.3039 -0.2167
 4866TIP3    H114562   3.225   2.073   3.368  0.5387  0.7243  0.1307
 4866TIP3    H214563   3.324   2.025   3.472  0.7311  0.2999 -0.2398
 4867TIP3   OH214564   2.168   2.265   3.495 -0.0312 -0.1126  0.1341
 4867TIP3    H114565   2.229   2.202   3.532 -0.8058 -0.1128  1.4909
 4867TIP3    H214566   2.163   2.243   3.402  1.9942 -0.1077 -0.0129
 4868TIP3   OH214567   3.418   0.125   2.006  0.5602  0.1072 -0.0495
 4868TIP3    H114568   3.339   0.129   2.060 -0.6123 -1.9285 -1.4678
 4868TIP3    H214569   3.489   0.108   2.068 -0.6760 -1.7486  0.9558
 4869TIP3   OH214570   4.206   4.506   4.018  0.7354 -0.0458 -0.3113
 4869TIP3    H114571   4.232   4.424   4.060  2.2170  1.5556  2.1462
 4869TIP3    H214572   4.112   4.514   4.037  0.9641 -0.3180  1.0396
 4870TIP3   OH214573   4.295   5.685   1.889 -0.2089  0.1245 -0.2084
 4870TIP3    H114574   4.314   5.621   1.820  0.2213 -1.1359  1.0369
 4870TIP3    H214575   4.343   5.763   1.862 -0.0305 -0.3405 -1.3215
 4871TIP3   OH214576   5.395   5.853   2.331 -0.1418 -0.2234  0.2359
 4871TIP3    H114577   5.412   5.863   2.425 -1.8061  1.0038  0.4481
 4871TIP3    H214578   5.419   5.938   2.293 -0.4208 -0.3736 -0.2935
 4872TIP3   OH214579   4.487   3.271   3.241 -0.0674  0.5860  0.0247
 4872TIP3    H114580   4.421   3.327   3.201  0.3936  0.4665 -0.9327
 4872TIP3    H214581   4.436   3.203   3.286 -0.6072  1.2254  0.4029
 4873TIP3   OH214582   0.794   0.419   5.763  0.3153 -0.5194 -0.1115
 4873TIP3    H114583   0.717   0.471   5.739  1.1426  0.9381  0.2808
 4873TIP3    H214584   0.781   0.398   5.855  0.4468 -0.1896 -0.0201
 4874TIP3   OH214585   5.758   3.813   4.788 -0.0838  0.1568 -0.8416
 4874TIP3    H114586   5.728   3.845   4.873  0.7723  0.3303 -0.5873
 4874TIP3    H214587   5.777   3.892   4.738 -1.8284  0.0744 -1.6829
 4875TIP3   OH214588   4.267   5.529   3.477 -0.2421  0.5642 -0.1163
 4875TIP3    H114589   4.316   5.606   3.503  0.7298 -0.0852  0.0169
 4875TIP3    H214590   4.232   5.551   3.390  0.3441  1.0146 -0.2439
 4876TIP3   OH214591   1.230   6.360   1.854 -0.2195  0.2228 -0.8359
 4876TIP3    H114592   1.308   6.412   1.876 -0.1976  0.0143 -0.4204
 4876TIP3    H214593   1.166   6.382   1.921 -0.2554 -0.1812 -0.7317
 4877TIP3   OH214594   2.589   0.715   5.854 -0.1880 -0.2453  0.6970
 4877TIP3    H114595   2.653   0.716   5.782 -0.9338  0.7070  0.0159
 4877TIP3    H214596   2.606   0.633   5.900  0.3422 -0.8684 -0.5464
 4878TIP3   OH214597   0.053   1.502   4.565 -0.0146  0.4763 -0.2243
 4878TIP3    H114598   0.138   1.469   4.592 -0.0560  1.1461  0.7558
 4878TIP3    H214599  -0.005   1.482   4.638  0.1884  3.6201  0.9322
 4879TIP3   OH214600   7.123   4.435   2.372 -0.5505 -0.7151  0.0403
 4879TIP3    H114601   7.213   4.452   2.399 -0.6146  1.2156 -0.7856
 4879TIP3    H214602   7.070   4.462   2.447 -0.4577 -2.5252  0.8042
 4880TIP3   OH214603   4.326   2.208   3.257 -0.0262  0.0688  0.2473
 4880TIP3    H114604   4.315   2.262   3.335  0.5288  0.4901  0.0349
 4880TIP3    H214605   4.292   2.122   3.282 -1.4715  0.6666  0.3949
 4881TIP3   OH214606   1.626   1.610   2.527 -0.5701 -0.2734  0.2543
 4881TIP3    H114607   1.590   1.583   2.443 -5.4097  0.7707  1.6291
 4881TIP3    H214608   1.666   1.695   2.510 -1.3127 -0.1539 -1.0615
 4882TIP3   OH214609   4.263   6.777   1.377  0.5225 -0.5651 -0.8625
 4882TIP3    H114610   4.350   6.738   1.365  0.0998 -1.8239  0.1012
 4882TIP3    H214611   4.282   6.870   1.393  1.6852 -0.7934 -0.7747
 4883TIP3   OH214612   4.477   1.608   4.533 -0.2426  0.7723  0.8340
 4883TIP3    H114613   4.530   1.682   4.563 -0.3367  0.6636  1.2748
 4883TIP3    H214614   4.463   1.625   4.440 -0.4079  1.3984  0.9677
 4884TIP3   OH214615   5.212   5.099   4.326 -0.3652  0.5313 -0.1973
 4884TIP3    H114616   5.171   5.043   4.392  2.4983  0.5448  1.7435
 4884TIP3    H214617   5.202   5.050   4.244 -0.3280 -1.5446  0.9615
 4885TIP3   OH214618   5.627   5.113   5.366 -0.1066  0.0052  0.0458
 4885TIP3    H114619   5.542   5.152   5.386  0.0185 -0.7380  2.3107
 4885TIP3    H214620   5.691   5.173   5.404  0.2220 -0.8175  0.8342
 4886TIP3   OH214621   0.704   2.933   4.272 -0.0080 -0.3305  0.5871
 4886TIP3    H114622   0.734   2.847   4.303  0.0126 -1.0567 -1.3108
 4886TIP3    H214623   0.608   2.927   4.274 -0.0713 -1.4750 -2.1160
 4887TIP3   OH214624   1.174   2.094   4.130 -0.0058 -0.2028  0.0626
 4887TIP3    H114625   1.192   2.141   4.049 -2.0255 -0.3320 -0.5159
 4887TIP3    H214626   1.079   2.095   4.138  0.1310  0.0717  2.6135
 4888TIP3   OH214627   0.821   5.733   3.951 -0.1078 -0.2496  0.4054
 4888TIP3    H114628   0.839   5.641   3.937 -0.5956 -0.0033 -2.4357
 4888TIP3    H214629   0.725   5.740   3.949 -0.0703  0.3394  0.1193
 4889TIP3   OH214630   7.031   4.697   0.910  0.0388 -0.0468 -0.1059
 4889TIP3    H114631   7.035   4.616   0.961 -0.2451  0.2615  0.4215
 4889TIP3    H214632   7.096   4.685   0.841 -0.1393 -0.7993 -0.1514
 4890TIP3   OH214633   2.628   0.021   4.588 -0.1488  0.1416 -0.3397
 4890TIP3    H114634   2.606  -0.065   4.625  0.7535  0.6510  1.4632
 4890TIP3    H214635   2.569   0.082   4.631 -0.5980  0.4882 -1.4115
 4891TIP3   OH214636   3.547   2.787   1.917 -0.0071 -0.0330  0.2125
 4891TIP3    H114637   3.459   2.826   1.915 -0.6422 -1.2284  1.9270
 4891TIP3    H214638   3.600   2.849   1.966 -1.1594 -1.3958  3.4710
 4892TIP3   OH214639   6.667   4.487   0.073 -0.7801 -0.4947  0.9807
 4892TIP3    H114640   6.608   4.538   0.017  1.6488  1.2692 -0.1509
 4892TIP3    H214641   6.682   4.406   0.024 -0.6144 -0.0361  0.2507
 4893TIP3   OH214642   2.384   4.262   2.856  0.8937 -0.1359 -0.5458
 4893TIP3    H114643   2.336   4.286   2.777  0.3376  0.8308  0.0522
 4893TIP3    H214644   2.386   4.166   2.855 -2.2106 -0.3244  0.0099
 4894TIP3   OH214645   2.640   2.726   2.820 -0.2258  0.1851  0.9975
 4894TIP3    H114646   2.559   2.753   2.861 -1.0908  1.6591 -1.4607
 4894TIP3    H214647   2.614   2.692   2.734  1.4767 -2.5873  1.4178
 4895TIP3   OH214648   5.723   5.522   1.223 -0.2393 -0.0097  0.3308
 4895TIP3    H114649   5.784   5.543   1.152  0.5078  2.2977  1.5819
 4895TIP3    H214650   5.648   5.580   1.208 -0.8308 -0.7139  0.4994
 4896TIP3   OH214651   5.586   6.203   5.775  0.4393 -0.1852 -0.2933
 4896TIP3    H114652   5.583   6.131   5.711  0.9148  0.7274 -1.3854
 4896TIP3    H214653   5.634   6.273   5.729  0.5211  0.6054  0.9682
 4897TIP3   OH214654   5.901   5.525   3.579 -0.2083 -0.0085  0.3893
 4897TIP3    H114655   5.814   5.548   3.547 -0.2948 -0.0344  0.6059
 4897TIP3    H214656   5.961   5.582   3.531 -0.2441 -0.7777 -0.6123
 4898TIP3   OH214657   1.179   5.245   0.072  0.0750  0.6568  0.0058
 4898TIP3    H114658   1.186   5.150   0.070 -1.4077  0.4066  2.7340
 4898TIP3    H214659   1.259   5.274   0.116 -0.5033  0.4465  1.2366
 4899TIP3   OH214660   1.135   6.238   1.639  0.3343 -0.3115  0.4851
 4899TIP3    H114661   1.045   6.266   1.659  0.2294 -0.1874 -0.1605
 4899TIP3    H214662   1.190   6.290   1.698  0.2073  1.8618 -1.1957
 4900TIP3   OH214663   1.484   3.848   2.575 -0.6471  0.5273 -0.2254
 4900TIP3    H114664   1.398   3.876   2.607 -0.5329 -0.7154  1.2990
 4900TIP3    H214665   1.468   3.813   2.488 -1.4615  1.4894 -0.4686
 4901TIP3   OH214666   6.164   1.925   3.800  0.2380  0.2379  0.2524
 4901TIP3    H114667   6.171   1.840   3.756  1.4250  0.9085 -0.9261
 4901TIP3    H214668   6.075   1.926   3.836  0.3449 -1.6782  0.7033
 4902TIP3   OH214669   3.451   3.219   0.591 -0.3766 -0.4347  0.0689
 4902TIP3    H114670   3.471   3.259   0.506 -1.1935 -1.2454 -0.5264
 4902TIP3    H214671   3.396   3.284   0.635 -0.4608 -0.2715 -0.2712
 4903TIP3   OH214672   5.601   2.689   0.198 -0.2196  0.2915  0.4818
 4903TIP3    H114673   5.534   2.629   0.229 -1.2492  0.1986 -1.7040
 4903TIP3    H214674   5.565   2.776   0.216 -1.0287  0.2444 -0.7276
 4904TIP3   OH214675   5.564   2.339   0.647 -0.3204  0.2635 -0.0308
 4904TIP3    H114676   5.505   2.275   0.608 -2.0180  1.4484  0.4605
 4904TIP3    H214677   5.637   2.287   0.681 -1.1103 -1.2721 -0.5904
 4905TIP3   OH214678   2.589   4.892   2.707 -0.4100 -0.3697  0.4981
 4905TIP3    H114679   2.565   4.900   2.799 -0.4679  0.3930  0.4241
 4905TIP3    H214680   2.644   4.814   2.704 -3.8064 -3.0233  0.4623
 4906TIP3   OH214681   1.352   3.948   1.708 -0.0040 -0.0096 -0.3702
 4906TIP3    H114682   1.387   4.037   1.699 -0.6427  0.1965 -0.8684
 4906TIP3    H214683   1.394   3.898   1.638  0.7131 -0.2276  0.1973
 4907TIP3   OH214684   4.342   0.885   3.744  0.2234 -0.2350 -0.2959
 4907TIP3    H114685   4.249   0.863   3.738  0.5372 -1.8484  0.3666
 4907TIP3    H214686   4.371   0.894   3.653 -0.2747 -1.0448 -0.5376
 4908TIP3   OH214687   0.254   1.421   5.639  0.4475  0.0193 -0.4796
 4908TIP3    H114688   0.315   1.385   5.575  1.2090  3.7032 -2.0951
 4908TIP3    H214689   0.192   1.472   5.587 -1.4997 -0.1760  1.4790
 4909TIP3   OH214690   6.269   5.167   5.769  0.6702 -0.2576 -0.2585
 4909TIP3    H114691   6.285   5.073   5.779  0.8835 -0.3386 -1.3168
 4909TIP3    H214692   6.300   5.188   5.681  0.9060  0.8708  0.0750
 4910TIP3   OH214693   6.873   3.102   4.622  0.1916 -0.0063 -0.2495
 4910TIP3    H114694   6.820   3.027   4.649 -1.1865  0.0423 -2.5494
 4910TIP3    H214695   6.895   3.084   4.531  0.2183  2.1484 -0.7281
 4911TIP3   OH214696   2.484   6.653   1.145  0.0356  0.1745 -0.4158
 4911TIP3    H114697   2.578   6.650   1.164 -0.1519 -2.9108  0.4612
 4911TIP3    H214698   2.478   6.628   1.052  0.0569 -0.2576 -0.3028
 4912TIP3   OH214699   3.353   5.624   1.791  0.2879  0.4015 -0.2933
 4912TIP3    H114700   3.433   5.675   1.801  0.3742  0.2429 -0.1683
 4912TIP3    H214701   3.288   5.671   1.842  0.6732 -0.2899  0.8712
 4913TIP3   OH214702   1.888   3.184   5.651 -0.3057 -0.1569  0.5427
 4913TIP3    H114703   1.871   3.253   5.714 -0.8914  1.4251 -1.2386
 4913TIP3    H214704   1.981   3.192   5.631 -0.2369 -0.3038  0.8031
 4914TIP3   OH214705   3.870   2.279   3.874 -0.1521 -0.2649  0.0348
 4914TIP3    H114706   3.875   2.252   3.782 -1.7933  0.4005 -0.2965
 4914TIP3    H214707   3.925   2.357   3.879 -3.7922  2.7528 -1.7171
 4915TIP3   OH214708   2.464   3.327   5.314 -0.3265  0.1736 -0.2242
 4915TIP3    H114709   2.380   3.310   5.355 -1.2411  1.0843 -1.6465
 4915TIP3    H214710   2.498   3.240   5.292 -0.9264 -0.1929  0.2669
 4916TIP3   OH214711   5.572   1.046   2.025  0.6545  0.0876  0.0974
 4916TIP3    H114712   5.589   1.120   1.967 -1.7762  1.0245  0.4831
 4916TIP3    H214713   5.477   1.032   2.021  0.7541 -1.5842  1.7489
 4917TIP3   OH214714   2.849   1.914   1.533 -0.3453 -0.3179 -0.1489
 4917TIP3    H114715   2.764   1.955   1.517  0.2778  0.6923 -0.9871
 4917TIP3    H214716   2.889   1.909   1.446  1.8235  2.3153  0.5764
 4918TIP3   OH214717   5.921   0.167   5.515 -0.7176  0.1720  0.2053
 4918TIP3    H114718   5.890   0.175   5.606  0.5801 -2.4993  0.9879
 4918TIP3    H214719   5.864   0.226   5.465 -1.1929  2.1023  2.7846
 4919TIP3   OH214720   6.007   6.098   4.277 -0.6556  0.2282  0.0824
 4919TIP3    H114721   5.996   6.043   4.355 -2.4915  4.0019  2.7978
 4919TIP3    H214722   5.919   6.110   4.243 -0.8880  3.6683  1.4508
 4920TIP3   OH214723   4.089   6.225   2.707  0.4307  0.3046  0.1939
 4920TIP3    H114724   4.115   6.246   2.618  0.7793  2.9316  0.8481
 4920TIP3    H214725   4.086   6.129   2.709  0.4887  0.1779 -2.5788
 4921TIP3   OH214726   4.769   0.214   1.036  0.7236  0.1612  0.5005
 4921TIP3    H114727   4.745   0.125   1.062  0.9641 -0.0064  0.1591
 4921TIP3    H214728   4.766   0.212   0.940 -2.1541  1.3186  0.4784
 4922TIP3   OH214729   6.360   0.390   2.204  0.3963  0.3270  0.1758
 4922TIP3    H114730   6.423   0.458   2.227  1.5250 -0.6155 -0.0422
 4922TIP3    H214731   6.320   0.421   2.123  0.3039  1.1035  0.5102
 4923TIP3   OH214732   0.232   3.304   5.740  0.1132  0.3131 -0.6066
 4923TIP3    H114733   0.172   3.231   5.730 -1.2461  1.5849 -2.3114
 4923TIP3    H214734   0.273   3.314   5.653  1.6783  0.4419  0.1017
 4924TIP3   OH214735   6.031   1.843   0.795  0.0346  0.2246 -0.1324
 4924TIP3    H114736   5.965   1.786   0.835 -0.8460  1.1491 -0.2150
 4924TIP3    H214737   6.111   1.826   0.844 -0.8779  0.9167  1.6749
 4925TIP3   OH214738   7.121   3.012   0.046 -0.1803  0.5929 -0.3404
 4925TIP3    H114739   7.110   2.920   0.068 -1.9278  0.7375 -0.4938
 4925TIP3    H214740   7.112   3.016  -0.050 -1.5016  1.0700 -0.2174
 4926TIP3   OH214741   4.912   2.696   2.887 -0.2429 -0.2247  0.1963
 4926TIP3    H114742   4.856   2.652   2.951 -0.3730  1.5428  1.3513
 4926TIP3    H214743   5.001   2.680   2.917 -0.1616 -1.5112 -0.6360
 4927TIP3   OH214744   1.026   3.678   1.332 -0.3092 -0.3846  0.2883
 4927TIP3    H114745   0.947   3.691   1.385 -0.2529 -0.8962  0.5011
 4927TIP3    H214746   1.063   3.596   1.364  1.1832  0.6376  1.2874
 4928TIP3   OH214747   3.439   0.907   2.254 -0.1946  0.3212 -0.2387
 4928TIP3    H114748   3.345   0.888   2.249 -0.0844 -0.7484  1.1773
 4928TIP3    H214749   3.457   0.914   2.348  0.8838  1.9867 -0.5354
 4929TIP3   OH214750   4.625   6.078   0.168 -0.3050  0.3959  0.2627
 4929TIP3    H114751   4.700   6.107   0.117  0.8987 -1.7328  0.7067
 4929TIP3    H214752   4.643   6.108   0.257 -0.0753  0.0502  0.3327
 4930TIP3   OH214753   1.658   5.978   5.282 -0.3357  0.3111 -0.3822
 4930TIP3    H114754   1.700   5.923   5.215  0.1412  0.5462 -0.2784
 4930TIP3    H214755   1.566   5.955   5.276  0.1287 -2.4472  1.4460
 4931TIP3   OH214756   2.083   4.428   4.393  0.3836 -0.1377 -0.6357
 4931TIP3    H114757   2.163   4.430   4.341 -0.1138  0.1978 -1.4054
 4931TIP3    H214758   2.015   4.459   4.334 -0.1974  0.2814  0.2278
 4932TIP3   OH214759   2.623   1.757   1.758 -0.7912 -0.1821 -0.0415
 4932TIP3    H114760   2.576   1.695   1.703 -1.8085  0.4123  0.1354
 4932TIP3    H214761   2.564   1.832   1.766 -0.0237  0.3770  0.6050
 4933TIP3   OH214762   2.861   1.174   5.401 -0.1407  0.4008  0.0237
 4933TIP3    H114763   2.800   1.245   5.383 -1.7475 -0.4282  1.7822
 4933TIP3    H214764   2.837   1.144   5.489  1.9387 -0.8606  0.2289
 4934TIP3   OH214765   4.845   1.973   1.283  0.3574 -0.4743 -0.1077
 4934TIP3    H114766   4.803   2.059   1.276  1.5169  0.1780  0.6386
 4934TIP3    H214767   4.923   1.980   1.228  0.4955 -1.0282  0.0136
 4935TIP3   OH214768   0.010   1.524   1.220  0.2501 -0.0544  0.0115
 4935TIP3    H114769   0.052   1.571   1.148 -2.0802  0.3211 -1.1848
 4935TIP3    H214770   0.077   1.463   1.251  2.1304  1.4929 -0.8072
 4936TIP3   OH214771   6.273   0.705   4.063 -0.3680  0.5543 -0.1035
 4936TIP3    H114772   6.362   0.670   4.054 -0.4948  0.0776  0.4125
 4936TIP3    H214773   6.216   0.637   4.026 -0.4951  1.0009 -0.7284
 4937TIP3   OH214774   1.995   0.564   1.830 -0.2182 -0.0039 -0.9833
 4937TIP3    H114775   1.919   0.621   1.816 -0.3462 -0.1884 -1.0458
 4937TIP3    H214776   2.036   0.597   1.910  0.2801  0.7969 -1.5585
 4938TIP3   OH214777   0.852   1.053   4.960 -0.5486 -0.3590 -0.6316
 4938TIP3    H114778   0.820   1.120   5.020  0.5297 -0.0973 -0.3276
 4938TIP3    H214779   0.943   1.077   4.943  0.2726 -2.4233  0.4732
 4939TIP3   OH214780   1.194   5.107   2.527 -0.2166  0.1386  0.1831
 4939TIP3    H114781   1.116   5.162   2.530  0.7914  1.6212  0.2982
 4939TIP3    H214782   1.199   5.077   2.436  0.1398  1.6566 -0.3210
 4940TIP3   OH214783   5.822   2.839   2.020  0.4429  0.0386  0.2794
 4940TIP3    H114784   5.882   2.914   2.010  0.7596 -0.2708 -0.1821
 4940TIP3    H214785   5.735   2.879   2.026  0.5136  0.4104 -0.8822
 4941TIP3   OH214786   3.529   4.470   3.913 -0.0584  0.2193  0.6400
 4941TIP3    H114787   3.492   4.386   3.941 -1.1086  0.3205 -0.3436
 4941TIP3    H214788   3.623   4.459   3.922 -0.0856 -1.4916 -0.5582
 4942TIP3   OH214789   5.082   4.624   1.703  0.4079 -0.3783  0.3223
 4942TIP3    H114790   5.098   4.616   1.609  0.1688 -0.4296  0.2839
 4942TIP3    H214791   5.137   4.556   1.742  0.7604 -0.1393  0.2482
 4943TIP3   OH214792   4.355   1.138   0.810 -0.5099  0.2998 -0.4903
 4943TIP3    H114793   4.408   1.095   0.743  0.8729 -0.2345  0.9078
 4943TIP3    H214794   4.351   1.229   0.782 -2.4963 -0.3876 -2.8625
 4944TIP3   OH214795   4.289   5.334   2.161  0.1826  0.2029  0.0775
 4944TIP3    H114796   4.252   5.418   2.135  1.3080  0.2437 -1.5478
 4944TIP3    H214797   4.375   5.356   2.197 -0.4487 -0.0708  1.8419
 4945TIP3   OH214798   1.347   6.620   2.386 -0.1431 -0.5276 -0.3257
 4945TIP3    H114799   1.413   6.551   2.381 -0.3292 -0.7479  0.2553
 4945TIP3    H214800   1.398   6.702   2.388  0.1407 -0.7175  0.7250
 4946TIP3   OH214801   0.784   5.317   4.327 -0.0796 -0.7097 -0.2690
 4946TIP3    H114802   0.720   5.386   4.337  1.5070  0.6589  0.9496
 4946TIP3    H214803   0.867   5.363   4.313  0.6062 -2.4002 -2.3333
 4947TIP3   OH214804   3.232   1.228   5.126  0.3909 -0.0219  0.0239
 4947TIP3    H114805   3.236   1.205   5.219 -1.5659  1.2091  0.4983
 4947TIP3    H214806   3.268   1.317   5.122  1.4154 -0.4596 -0.5748
 4948TIP3   OH214807   0.822   5.755   4.963  0.4920  0.3578 -0.1028
 4948TIP3    H114808   0.777   5.761   5.047  0.3982 -0.7794 -0.0622
 4948TIP3    H214809   0.828   5.846   4.933  2.3984  1.0576  2.1076
 4949TIP3   OH214810   4.012   3.436   5.569  0.1017 -0.2493 -0.2384
 4949TIP3    H114811   3.997   3.364   5.508  0.1923 -0.7995  0.3687
 4949TIP3    H214812   4.090   3.410   5.618 -0.4050 -0.1846  0.6273
 4950TIP3   OH214813   1.057   0.317   0.457  0.0709  0.0138  0.3979
 4950TIP3    H114814   1.141   0.287   0.491  0.8330  1.5212 -0.0311
 4950TIP3    H214815   1.080   0.382   0.390 -1.4322 -0.2029 -0.3756
 4951TIP3   OH214816   0.386   2.526   4.376 -0.4878 -1.2414  0.4602
 4951TIP3    H114817   0.347   2.611   4.397  0.7522  0.2310 -2.6107
 4951TIP3    H214818   0.348   2.466   4.440 -1.8133  1.4918  2.4429
 4952TIP3   OH214819   0.507   3.919   2.257 -0.7379  0.5629  0.1044
 4952TIP3    H114820   0.573   3.958   2.200 -1.6377  0.0022 -1.3945
 4952TIP3    H214821   0.544   3.924   2.345  1.4765 -0.0884 -0.7201
 4953TIP3   OH214822   1.108   0.655   3.938  0.3528  0.3364 -0.2144
 4953TIP3    H114823   1.060   0.664   4.021  2.9582  2.5498  1.2426
 4953TIP3    H214824   1.042   0.630   3.874 -2.5907  2.3808  1.7634
 4954TIP3   OH214825   3.550   0.336   1.133 -0.2933 -0.1493 -0.0042
 4954TIP3    H114826   3.620   0.401   1.138 -1.1891  1.0143 -1.5081
 4954TIP3    H214827   3.476   0.378   1.176 -0.3741 -0.9637  0.6817
 4955TIP3   OH214828   0.825   2.002   2.826  0.1773  0.2741 -0.1883
 4955TIP3    H114829   0.892   2.063   2.857  1.3783 -0.4399 -1.3012
 4955TIP3    H214830   0.777   1.977   2.905  1.9953 -0.1148  0.8515
 4956TIP3   OH214831   3.609   2.956   1.286 -0.4265 -0.2379 -0.0556
 4956TIP3    H114832   3.671   3.020   1.322 -1.4982  0.9384 -0.2343
 4956TIP3    H214833   3.620   2.963   1.191  0.5192 -1.4424 -0.0651
 4957TIP3   OH214834   3.872   3.945   4.289  0.1708  0.5361  0.4097
 4957TIP3    H114835   3.841   3.915   4.204  0.4664  1.4535 -0.0275
 4957TIP3    H214836   3.929   3.874   4.320  0.3727  0.3629 -0.3346
 4958TIP3   OH214837   0.958   0.088   0.247  0.0558 -0.2644 -0.1129
 4958TIP3    H114838   1.044   0.095   0.289  0.2245 -1.2831 -0.2837
 4958TIP3    H214839   0.973   0.037   0.168 -0.8305 -1.0830  0.2286
 4959TIP3   OH214840   6.234   5.367   0.678 -0.3104  0.4829  0.5738
 4959TIP3    H114841   6.158   5.356   0.735 -2.0452  1.7644 -1.3651
 4959TIP3    H214842   6.246   5.281   0.637  0.2139 -0.1108  1.9036
 4960TIP3   OH214843   3.740   0.981   1.407  0.2899  0.0076 -0.2469
 4960TIP3    H114844   3.688   1.054   1.441  1.3706  0.7056 -0.0261
 4960TIP3    H214845   3.736   0.989   1.312  0.8627  0.7072 -0.2192
 4961TIP3   OH214846   7.113   2.190   1.470 -0.3322 -0.2470  0.0410
 4961TIP3    H114847   7.192   2.245   1.468 -0.0850 -0.6193 -1.2328
 4961TIP3    H214848   7.123   2.132   1.395 -0.8330 -1.7060  1.0669
 4962TIP3   OH214849   4.733   4.877   1.746 -0.1851 -0.0311  0.1467
 4962TIP3    H114850   4.813   4.893   1.795  0.9313 -0.9956 -1.2645
 4962TIP3    H214851   4.703   4.964   1.719  0.4985  0.3304  0.5347
 4963TIP3   OH214852   1.042   4.716   4.194 -0.1685 -0.2278  0.0689
 4963TIP3    H114853   1.043   4.792   4.253 -0.0315  0.5211 -0.8790
 4963TIP3    H214854   0.960   4.671   4.214 -0.5952  0.5666  0.1574
 4964TIP3   OH214855   2.258   6.645   0.710 -0.4198 -0.4776  0.0391
 4964TIP3    H114856   2.242   6.737   0.733 -0.9945 -0.7982  0.9990
 4964TIP3    H214857   2.230   6.638   0.619  0.4275  0.4806 -0.3211
 4965TIP3   OH214858   1.779   3.865   1.543  0.6303  0.3586  0.3242
 4965TIP3    H114859   1.856   3.852   1.488  0.7417  0.0583  0.5487
 4965TIP3    H214860   1.813   3.870   1.632  0.2981 -0.9039  0.5431
 4966TIP3   OH214861   6.573   3.189   2.897  0.2012  0.2356 -0.4168
 4966TIP3    H114862   6.511   3.260   2.883 -0.7158 -0.3752  0.4369
 4966TIP3    H214863   6.608   3.170   2.810  1.8696  2.9296 -0.4334
 4967TIP3   OH214864   4.480   3.885   5.541  0.7647 -0.2163 -0.1616
 4967TIP3    H114865   4.387   3.866   5.530  1.2185 -1.7935 -1.5501
 4967TIP3    H214866   4.485   3.980   5.548 -0.7784  0.0340 -1.9836
 4968TIP3   OH214867   3.769   4.520   4.417  0.5454 -0.0972 -0.7138
 4968TIP3    H114868   3.794   4.446   4.472  1.9856  0.4646 -0.5673
 4968TIP3    H214869   3.750   4.591   4.479  2.3713  0.5967 -0.8929
 4969TIP3   OH214870   2.593   6.488   1.731  0.0959 -0.2038  0.0264
 4969TIP3    H114871   2.525   6.493   1.664 -1.7532 -1.7822  1.6465
 4969TIP3    H214872   2.588   6.572   1.777  0.2740  0.2613 -0.7966
 4970TIP3   OH214873   5.410   1.308   5.234  0.0917 -0.2196 -0.2051
 4970TIP3    H114874   5.390   1.401   5.240 -0.7145 -0.4468  1.2074
 4970TIP3    H214875   5.373   1.280   5.150 -0.1329  0.6224 -0.3897
 4971TIP3   OH214876   3.403   4.882   5.255  0.5326 -0.2615  0.0633
 4971TIP3    H114877   3.387   4.936   5.178  1.4032 -0.4293 -0.2414
 4971TIP3    H214878   3.316   4.868   5.293  0.2941  1.5073  0.2595
 4972TIP3   OH214879   5.353   2.958   4.295 -0.0746  0.1926  0.3176
 4972TIP3    H114880   5.445   2.933   4.292 -0.0077  0.4164  0.4437
 4972TIP3    H214881   5.314   2.919   4.217  0.0095 -0.3602  0.5483
 4973TIP3   OH214882   3.331   0.107   2.847 -0.4559  1.0597 -0.1913
 4973TIP3    H114883   3.331   0.198   2.878  1.3428  0.6171  1.2498
 4973TIP3    H214884   3.343   0.114   2.752 -0.3305  2.3298 -0.0971
 4974TIP3   OH214885   5.372   1.046   2.406  0.4658  0.2582 -0.0655
 4974TIP3    H114886   5.351   1.129   2.448  1.1298  0.1132  0.5761
 4974TIP3    H214887   5.455   1.018   2.447  0.2712 -0.6963 -0.2890
 4975TIP3   OH214888   2.541   4.982   1.630  0.1069  0.2345 -0.3969
 4975TIP3    H114889   2.590   4.936   1.699  1.4166 -0.7969 -1.9482
 4975TIP3    H214890   2.585   5.067   1.622 -1.5306  1.3633  1.6003
 4976TIP3   OH214891   5.558   4.033   2.337 -0.4023 -0.3256  0.1380
 4976TIP3    H114892   5.605   4.112   2.363 -1.7614  0.3844  0.5434
 4976TIP3    H214893   5.563   3.976   2.414  1.2894 -1.0153 -0.4411
 4977TIP3   OH214894   5.570   4.159   5.607 -0.2100  0.2140  0.1638
 4977TIP3    H114895   5.601   4.150   5.517  0.3148  1.5928  0.1843
 4977TIP3    H214896   5.618   4.091   5.655 -1.4050 -1.3516 -0.7751
 4978TIP3   OH214897   6.706   3.054   3.437  0.7229 -0.1565 -0.1210
 4978TIP3    H114898   6.747   3.036   3.352  0.0903  0.7508 -0.6273
 4978TIP3    H214899   6.729   3.144   3.457  1.4138 -0.5627  1.0042
 4979TIP3   OH214900   1.466   2.919   3.436  0.5173 -0.0323  0.6620
 4979TIP3    H114901   1.470   3.010   3.407  0.3999 -0.5752 -1.1992
 4979TIP3    H214902   1.391   2.917   3.496 -0.2964  0.8571 -0.2693
 4980TIP3   OH214903   5.190   3.203   2.225 -0.4935  0.0283  0.5739
 4980TIP3    H114904   5.150   3.130   2.178 -0.3849  0.4149 -0.1325
 4980TIP3    H214905   5.120   3.236   2.282 -1.9120  1.9432 -2.0492
 4981TIP3   OH214906   3.088   6.572   0.762  0.4400  0.1175  0.0670
 4981TIP3    H114907   3.038   6.621   0.697  0.4606 -0.9143 -0.7599
 4981TIP3    H214908   3.138   6.638   0.810 -0.5150  1.0083 -0.1381
 4982TIP3   OH214909   0.283   3.663   1.719  0.0869 -0.6721  0.1358
 4982TIP3    H114910   0.231   3.593   1.760 -0.4775 -0.3247  0.0302
 4982TIP3    H214911   0.265   3.740   1.773  1.8680 -0.9249  1.1388
 4983TIP3   OH214912   7.108   5.341   0.922  0.1249  0.3915 -0.2302
 4983TIP3    H114913   7.027   5.299   0.891 -1.1999  1.9598  0.9367
 4983TIP3    H214914   7.133   5.399   0.851 -0.0063  0.2140 -0.4259
 4984TIP3   OH214915   0.904   6.052   0.662  0.6866 -0.1898  0.4742
 4984TIP3    H114916   0.915   5.985   0.729 -0.0518 -1.2918 -0.4647
 4984TIP3    H214917   0.988   6.054   0.615  0.8606 -0.1282  0.7851
 4985TIP3   OH214918   0.470   5.271   1.677 -0.0772  0.4306  0.3192
 4985TIP3    H114919   0.493   5.251   1.586 -0.0773  0.8911  0.2177
 4985TIP3    H214920   0.532   5.219   1.729 -0.3011 -0.1023  0.0623
 4986TIP3   OH214921   5.347   5.939   3.884  0.0173  0.1797  0.1723
 4986TIP3    H114922   5.270   5.883   3.871 -0.0364  0.3550 -0.2977
 4986TIP3    H214923   5.408   5.885   3.934 -0.0959 -0.2478 -0.1428
 4987TIP3   OH214924   0.697   0.106   4.176 -0.5681 -0.3006  0.2286
 4987TIP3    H114925   0.783   0.066   4.163  0.3123  1.4818  0.2731
 4987TIP3    H214926   0.665   0.068   4.257  0.1418 -1.0610  0.1653
 4988TIP3   OH214927   2.228   5.044   3.923 -0.0323 -0.1861  0.0330
 4988TIP3    H114928   2.311   5.036   3.876  0.0730 -0.3892  0.2512
 4988TIP3    H214929   2.231   5.130   3.965  0.0235 -0.1513 -0.0434
 4989TIP3   OH214930   5.569   0.011   3.031  0.2579  0.1669  0.2621
 4989TIP3    H114931   5.511  -0.061   3.006 -2.8110  2.6716 -0.4107
 4989TIP3    H214932   5.517   0.064   3.092  1.2810  3.2099 -1.2881
 4990TIP3   OH214933   1.123   1.191   1.708  0.0245  0.2376  0.2619
 4990TIP3    H114934   1.052   1.151   1.657 -1.4109  0.1080  2.2336
 4990TIP3    H214935   1.078   1.236   1.779  1.7968  2.4800  0.0876
 4991TIP3   OH214936   3.559   0.353   0.170 -0.5173  0.2911 -0.7416
 4991TIP3    H114937   3.540   0.443   0.199 -1.0559  0.1877 -0.7586
 4991TIP3    H214938   3.481   0.303   0.194  0.2716 -0.4425  0.3786
 4992TIP3   OH214939   4.154   2.054   5.693  0.9190 -0.8092 -0.5329
 4992TIP3    H114940   4.208   2.079   5.768 -0.8378 -1.3643  0.9908
 4992TIP3    H214941   4.172   1.961   5.681 -0.1345 -1.1512  0.3982
 4993TIP3   OH214942   1.037   4.968   1.626 -0.1970 -0.1532 -0.1835
 4993TIP3    H114943   1.054   5.057   1.655 -1.7550 -0.5040  2.0171
 4993TIP3    H214944   0.959   4.975   1.571 -0.0968 -0.1177 -0.3219
 4994TIP3   OH214945   4.333   3.168   0.262 -0.3654  0.1689 -0.6340
 4994TIP3    H114946   4.402   3.209   0.314 -0.4041  1.3645 -1.4934
 4994TIP3    H214947   4.257   3.225   0.275 -0.1286  1.0324 -2.6931
 4995TIP3   OH214948   5.023   0.303   0.533 -0.3248 -0.6402  0.5027
 4995TIP3    H114949   5.007   0.355   0.454  0.6877  0.8718  1.2443
 4995TIP3    H214950   5.014   0.213   0.504  0.8318 -0.1626 -1.5607
 4996TIP3   OH214951   1.361   2.367   1.767 -0.2411  0.3474  0.0566
 4996TIP3    H114952   1.435   2.309   1.749 -0.4106  0.1309  0.0695
 4996TIP3    H214953   1.288   2.330   1.718 -0.6387 -0.0972  0.9798
 4997TIP3   OH214954   3.055   3.656   1.120 -0.2589  0.2690 -0.5199
 4997TIP3    H114955   3.047   3.600   1.043  0.7593 -0.8389  0.1333
 4997TIP3    H214956   3.146   3.687   1.118 -0.2587  0.3238  0.1610
 4998TIP3   OH214957   2.085   5.767   4.448 -0.9454 -0.0988 -0.3427
 4998TIP3    H114958   2.012   5.783   4.388 -2.1092 -0.5427  0.9066
 4998TIP3    H214959   2.068   5.825   4.523  0.4844  0.4548 -0.3947
 4999TIP3   OH214960   5.790   5.689   5.440  0.7535  0.3929  0.1740
 4999TIP3    H114961   5.715   5.699   5.383  0.7973  2.2278  0.3956
 4999TIP3    H214962   5.785   5.763   5.501  1.8169 -0.3812  1.2652
 5000TIP3   OH214963   1.460   3.962   4.009 -0.1370  0.1491 -0.6090
 5000TIP3    H114964   1.456   3.995   4.099  3.4732  0.0717 -0.2727
 5000TIP3    H214965   1.422   4.032   3.956 -0.4026  1.1172  0.7934
 5001TIP3   OH214966   6.182   2.327   4.562 -0.2036 -0.2219 -0.3947
 5001TIP3    H114967   6.268   2.329   4.606 -0.3907 -0.4075 -0.0121
 5001TIP3    H214968   6.192   2.387   4.488 -0.1769  0.8503  0.4558
 5002TIP3   OH214969   5.208   2.349   2.795 -0.4318 -0.4998  0.4495
 5002TIP3    H114970   5.248   2.399   2.723  1.1628  0.1075  1.7051
 5002TIP3    H214971   5.167   2.416   2.850 -2.8247 -1.0622 -0.5109
 5003TIP3   OH214972   3.393   1.654   3.876 -0.3802  0.5028  0.3884
 5003TIP3    H114973   3.399   1.728   3.937  0.0784 -0.3439  1.4052
 5003TIP3    H214974   3.305   1.661   3.839 -0.9471  0.6400  1.6993
 5004TIP3   OH214975   1.648   3.393   2.792  0.5501 -0.6887 -0.3864
 5004TIP3    H114976   1.572   3.436   2.753  0.9412  0.7259  0.3485
 5004TIP3    H214977   1.688   3.345   2.720 -1.0669 -1.5439 -0.7678
 5005TIP3   OH214978   5.621   0.532   2.770  0.3216  0.5404 -0.0010
 5005TIP3    H114979   5.530   0.533   2.800  0.2018 -0.2925 -0.3181
 5005TIP3    H214980   5.636   0.442   2.741  1.6301  0.3398  1.2063
 5006TIP3   OH214981   7.042   1.391   3.633 -0.0678  0.1878 -0.1114
 5006TIP3    H114982   7.044   1.296   3.634 -0.2532  0.1696 -0.9290
 5006TIP3    H214983   7.133   1.417   3.624 -0.0591  0.0799 -0.3337
 5007TIP3   OH214984   0.715   1.216   2.904  0.5149 -0.1929  0.1364
 5007TIP3    H114985   0.798   1.264   2.906  1.3408 -1.2224 -3.2294
 5007TIP3    H214986   0.735   1.132   2.945  0.5986  0.2023  0.9375
 5008TIP3   OH214987   2.962   1.145   0.849  0.0554  0.0281  0.4717
 5008TIP3    H114988   2.966   1.049   0.847  0.1431  0.0371  0.0179
 5008TIP3    H214989   2.888   1.167   0.792 -0.9934  0.1828  1.8467
 5009TIP3   OH214990   0.386   1.732   4.494 -0.0693 -0.3200  0.3041
 5009TIP3    H114991   0.306   1.745   4.443  0.0253 -2.5764 -0.5439
 5009TIP3    H214992   0.392   1.810   4.550 -2.5874  0.1355  0.0708
 5010TIP3   OH214993   0.017   0.185   3.823  0.0803 -0.2098  0.5137
 5010TIP3    H114994   0.080   0.252   3.851  0.3177 -0.8947  1.6860
 5010TIP3    H214995   0.011   0.196   3.728  1.8976 -0.0490  0.3805
 5011TIP3   OH214996   0.772   4.423   1.587 -0.0726 -0.8865 -0.8440
 5011TIP3    H114997   0.812   4.454   1.505 -0.9203 -0.7431 -1.2182
 5011TIP3    H214998   0.704   4.488   1.606 -1.8903 -2.4393 -1.6340
 5012TIP3   OH214999   0.337   1.002   4.117  0.3052  0.3473 -0.1898
 5012TIP3    H115000   0.391   1.079   4.135  0.2788  0.3326 -0.0487
 5012TIP3    H215001   0.308   0.972   4.203  3.0462 -1.8226  0.1416
 5013TIP3   OH215002   2.550   0.063   0.610 -0.5651  0.1411  0.2621
 5013TIP3    H115003   2.510  -0.017   0.643 -0.6066  0.4038  0.8574
 5013TIP3    H215004   2.631   0.033   0.567 -0.0874 -0.1343  1.3176
 5014TIP3   OH215005   1.319   0.301   0.550  0.0726  0.4170 -0.6473
 5014TIP3    H115006   1.349   0.349   0.627 -0.7961  0.1933 -0.1624
 5014TIP3    H215007   1.392   0.242   0.529  0.9732  1.6172 -0.9884
 5015TIP3   OH215008   6.244   5.076   2.275  0.4114 -0.1093  0.4783
 5015TIP3    H115009   6.224   5.020   2.350  2.4837  1.0154  2.0104
 5015TIP3    H215010   6.276   5.158   2.315  1.4639  0.5871 -1.6273
 5016TIP3   OH215011   3.749   1.650   5.709 -0.2396 -0.7043  0.1671
 5016TIP3    H115012   3.689   1.674   5.639  1.3234 -2.4367 -1.9288
 5016TIP3    H215013   3.762   1.730   5.759 -3.9344 -0.1818  0.5480
 5017TIP3   OH215014   0.673   5.088   2.952 -0.0564  0.7384 -0.1795
 5017TIP3    H115015   0.642   5.093   2.861  0.3675  3.2960 -0.2717
 5017TIP3    H215016   0.763   5.120   2.948  0.6732 -1.0561  0.8968
 5018TIP3   OH215017   2.345   4.803   3.158 -0.7092 -0.3627  0.1502
 5018TIP3    H115018   2.384   4.777   3.241 -1.6839  1.6712  1.3230
 5018TIP3    H215019   2.253   4.778   3.166 -1.0802  0.9698  0.2282
 5019TIP3   OH215020   1.432   4.068   4.868 -0.3180 -0.4407  0.0614
 5019TIP3    H115021   1.457   3.977   4.851 -0.8930 -0.6503  0.3163
 5019TIP3    H215022   1.339   4.064   4.891  0.0725 -0.0079  1.8363
 5020TIP3   OH215023   1.361   2.436   0.519  0.4690 -0.3795 -0.6773
 5020TIP3    H115024   1.295   2.370   0.538  1.0986 -0.6444  0.6655
 5020TIP3    H215025   1.398   2.459   0.604 -2.3401  4.5749 -0.3825
 5021TIP3   OH215026   6.796   3.120   5.353  0.2086 -0.1346  0.3343
 5021TIP3    H115027   6.805   3.092   5.262  2.4617 -0.3613  0.5832
 5021TIP3    H215028   6.753   3.046   5.396  0.8393 -0.8172 -0.1786
 5022TIP3   OH215029   0.207   0.392   4.534 -0.1581  0.1340  0.6007
 5022TIP3    H115030   0.264   0.461   4.570  0.6094 -0.1577 -0.0108
 5022TIP3    H215031   0.212   0.321   4.599  0.9501 -0.2588  0.1238
 5023TIP3   OH215032   2.130   1.275   3.489 -0.2674 -0.4889  0.0373
 5023TIP3    H115033   2.054   1.332   3.477  0.1774  0.1407  0.1123
 5023TIP3    H215034   2.126   1.247   3.580 -0.2420 -0.1907  0.1341
 5024TIP3   OH215035   3.415   3.632   1.374 -0.1421 -0.3320  0.2104
 5024TIP3    H115036   3.498   3.586   1.366  0.6596  1.0080  0.5511
 5024TIP3    H215037   3.393   3.625   1.467 -0.4406 -0.6994  0.1180
 5025TIP3   OH215038   1.497   3.271   1.370  0.1480  0.1572 -0.2984
 5025TIP3    H115039   1.528   3.233   1.453 -1.7045  0.3954  0.5584
 5025TIP3    H215040   1.577   3.297   1.325  1.3072 -1.4204  0.6953
 5026TIP3   OH215041   0.499   4.290   3.414 -0.3716  0.3807  0.7018
 5026TIP3    H115042   0.478   4.197   3.414  1.7059 -0.1715  1.9635
 5026TIP3    H215043   0.492   4.316   3.322 -2.2683 -0.6648  0.5068
 5027TIP3   OH215044   1.839   4.220   1.468  0.4265 -0.0367  0.2032
 5027TIP3    H115045   1.842   4.186   1.379  0.3675 -2.8403  1.1591
 5027TIP3    H215046   1.760   4.180   1.506  1.8116 -1.0791  2.2247
 5028TIP3   OH215047   0.270   4.863   4.565 -0.1705 -0.2950  0.3240
 5028TIP3    H115048   0.196   4.901   4.613  0.6894  0.1722  1.3190
 5028TIP3    H215049   0.342   4.924   4.580  0.7460 -1.3767  0.4227
 5029TIP3   OH215050   0.584   1.414   2.379 -0.3795 -0.3834 -0.2149
 5029TIP3    H115051   0.528   1.369   2.315  0.1844 -0.6302 -0.5380
 5029TIP3    H215052   0.621   1.343   2.432 -1.1670 -0.1611  0.6724
 5030TIP3   OH215053   7.081   2.607   1.151  0.0552  0.3701 -0.1758
 5030TIP3    H115054   7.132   2.528   1.170 -0.9461 -0.2020  0.1985
 5030TIP3    H215055   7.111   2.670   1.217  0.2939  0.0432  0.0353
 5031TIP3   OH215056   5.195   5.838   1.619  0.5456  0.2254  0.6960
 5031TIP3    H115057   5.136   5.763   1.620  1.4577 -0.5396  2.6395
 5031TIP3    H215058   5.279   5.803   1.589  0.3735  1.0585 -0.8952
 5032TIP3   OH215059   7.105   2.739   1.479  0.3556 -0.0060 -0.0749
 5032TIP3    H115060   7.049   2.661   1.478 -0.7025  0.6777 -2.5689
 5032TIP3    H215061   7.068   2.795   1.546 -1.9417  0.3393 -1.5143
 5033TIP3   OH215062   2.314   4.369   5.059  0.5394  0.4145  0.4331
 5033TIP3    H115063   2.393   4.372   5.114  1.5803 -1.4840 -0.8499
 5033TIP3    H215064   2.342   4.403   4.974 -0.1746  0.1995  0.1061
 5034TIP3   OH215065   6.660   5.619   0.258  0.1643 -0.0989  0.2567
 5034TIP3    H115066   6.602   5.543   0.251 -0.0725 -0.0377  1.4826
 5034TIP3    H215067   6.686   5.622   0.350 -0.4136  1.7445  0.3962
 5035TIP3   OH215068   6.206   2.674   1.514 -0.4245 -0.5316 -0.0996
 5035TIP3    H115069   6.280   2.689   1.573 -0.7005 -0.5412  0.2559
 5035TIP3    H215070   6.244   2.674   1.426  0.3265 -2.5450  0.1755
 5036TIP3   OH215071   5.679   3.499  -0.006 -0.8305 -0.2025 -0.0696
 5036TIP3    H115072   5.664   3.408  -0.031  0.7705 -0.5533  0.0924
 5036TIP3    H215073   5.603   3.524   0.046  0.0764 -2.4846  2.5632
 5037TIP3   OH215074   6.309   6.060   4.464  0.3194  0.2539 -0.3022
 5037TIP3    H115075   6.260   6.053   4.382 -0.8350  0.1617  0.3723
 5037TIP3    H215076   6.394   6.094   4.438  0.2166 -0.4330 -1.6221
 5038TIP3   OH215077   6.951   6.710   0.586  0.6087  0.4375  0.1697
 5038TIP3    H115078   6.963   6.630   0.637 -1.4090  1.2657  2.0887
 5038TIP3    H215079   6.890   6.686   0.516 -0.0496  0.2791  0.7856
 5039TIP3   OH215080   1.772   0.879   2.049 -0.1166  0.1129  0.3658
 5039TIP3    H115081   1.681   0.896   2.025 -1.0250 -2.4737  1.5935
 5039TIP3    H215082   1.766   0.825   2.127  2.3723 -2.1639 -0.8712
 5040TIP3   OH215083   0.588   4.489   5.773 -0.4543  0.3859 -1.0096
 5040TIP3    H115084   0.639   4.415   5.738 -1.2345  0.0641 -1.4874
 5040TIP3    H215085   0.614   4.493   5.865 -2.8495 -2.6968 -0.0124
 5041TIP3   OH215086   3.349   1.664   0.632  0.9425  0.1273  0.2611
 5041TIP3    H115087   3.279   1.666   0.567  0.0461 -0.1346  1.2131
 5041TIP3    H215088   3.428   1.647   0.580  0.7393  2.8983 -1.1726
 5042TIP3   OH215089   1.869   6.577   0.854 -0.1363  0.4092  0.1575
 5042TIP3    H115090   1.827   6.660   0.830 -0.3645  0.8843  2.0256
 5042TIP3    H215091   1.801   6.511   0.838 -0.0506  0.6032 -1.0721
 5043TIP3   OH215092   4.982   2.991   5.539  0.0236  0.1432  0.1620
 5043TIP3    H115093   5.028   2.942   5.471 -0.9666 -0.1696 -0.2945
 5043TIP3    H215094   4.921   3.047   5.492 -0.8044 -0.2073  0.7921
 5044TIP3   OH215095   3.639   4.604   3.043 -0.0751  0.4390  0.2185
 5044TIP3    H115096   3.566   4.548   3.068 -0.7840  1.0674 -0.4000
 5044TIP3    H215097   3.693   4.609   3.122 -1.1025  0.5810  0.9298
 5045TIP3   OH215098   0.246   3.537   3.275 -0.1610  0.0573  0.3432
 5045TIP3    H115099   0.245   3.561   3.183  2.2965  1.7704  0.6648
 5045TIP3    H215100   0.155   3.544   3.303 -0.4826  3.1383 -1.1221
 5046TIP3   OH215101   1.811   0.785   5.731 -0.9739  0.5137 -0.7861
 5046TIP3    H115102   1.745   0.833   5.781 -1.2884  0.9158 -1.5892
 5046TIP3    H215103   1.894   0.812   5.770 -1.2728 -0.2119  0.4245
 5047TIP3   OH215104   7.103   2.106   2.366  0.2221  0.1715 -0.2519
 5047TIP3    H115105   7.031   2.150   2.411 -0.1886  1.2494 -1.8948
 5047TIP3    H215106   7.173   2.100   2.432 -1.0575 -0.1772  1.1259
 5048TIP3   OH215107   3.361   1.838   3.187 -0.2556  0.3022 -0.2523
 5048TIP3    H115108   3.296   1.905   3.207 -0.5911 -0.2900  0.6814
 5048TIP3    H215109   3.339   1.764   3.244  0.1758 -0.5664 -1.1695
 5049TIP3   OH215110   7.125   5.218   5.489 -0.3394 -0.1901 -0.5978
 5049TIP3    H115111   7.164   5.270   5.559 -0.6183  1.5255 -1.6591
 5049TIP3    H215112   7.193   5.155   5.466 -0.1965 -0.7050  1.0932
 5050TIP3   OH215113   4.760   6.734   3.518 -0.1633 -0.2825 -0.7274
 5050TIP3    H115114   4.673   6.765   3.542 -0.1058 -0.5586 -0.1407
 5050TIP3    H215115   4.819   6.796   3.561 -0.0595  1.0849 -2.7072
 5051TIP3   OH215116   5.777   2.249   2.495 -0.1448 -0.0523 -0.5400
 5051TIP3    H115117   5.735   2.325   2.455  1.2072  0.9203 -0.1916
 5051TIP3    H215118   5.858   2.237   2.444  0.1401 -0.6343  0.0380
 5052TIP3   OH215119   4.544   1.570   5.137  0.1510 -0.0007 -0.0108
 5052TIP3    H115120   4.576   1.640   5.194  0.2657  0.8184 -1.0420
 5052TIP3    H215121   4.453   1.558   5.163  0.5641 -0.5817  1.2396
 5053TIP3   OH215122   3.643   0.108   2.833 -0.6502 -0.2954  0.2004
 5053TIP3    H115123   3.705   0.154   2.777  0.5742 -0.5047  1.3302
 5053TIP3    H215124   3.575   0.173   2.851  0.5121  0.7952  0.9196
 5054TIP3   OH215125   0.392   6.332   5.610 -0.2672  0.1377 -0.3980
 5054TIP3    H115126   0.448   6.320   5.533 -0.5104 -1.8227 -0.3193
 5054TIP3    H215127   0.315   6.278   5.592 -0.6913  0.2865  0.8794
 5055TIP3   OH215128   5.373   4.170   1.895 -0.8309 -0.2201  0.3267
 5055TIP3    H115129   5.422   4.253   1.900 -1.6695  0.7016 -3.5292
 5055TIP3    H215130   5.284   4.194   1.921 -0.9009 -0.0413 -0.0587
 5056TIP3   OH215131   5.367   4.704   1.709  0.3485  0.1653 -0.3195
 5056TIP3    H115132   5.325   4.646   1.773 -1.2769 -0.5832 -1.9710
 5056TIP3    H215133   5.352   4.792   1.743 -2.0526 -0.1156 -0.4713
 5057TIP3   OH215134   1.372   5.847   3.705  0.4734  0.5891  0.2780
 5057TIP3    H115135   1.330   5.933   3.705  0.5385  0.6295  1.0137
 5057TIP3    H215136   1.348   5.808   3.621  0.0508  1.1380  0.1409
 5058TIP3   OH215137   4.271   1.004   3.488  0.6733 -0.3370 -0.3520
 5058TIP3    H115138   4.345   0.945   3.477  0.1945 -0.7225 -1.7745
 5058TIP3    H215139   4.222   0.996   3.406  0.0821  1.3306 -0.1952
 5059TIP3   OH215140   0.395   5.329   0.259  0.7157 -0.0177  0.3426
 5059TIP3    H115141   0.458   5.369   0.320 -0.7778  1.1452  1.1829
 5059TIP3    H215142   0.356   5.403   0.213 -0.0667 -0.7217 -0.1466
 5060TIP3   OH215143   2.161   0.243   1.061  0.3824  0.1935 -0.1316
 5060TIP3    H115144   2.225   0.292   1.113 -0.3069  0.4949  0.4512
 5060TIP3    H215145   2.162   0.287   0.975  1.2741 -0.0905 -0.2753
 5061TIP3   OH215146   1.404   1.555   2.667 -0.0700  0.2233  0.4460
 5061TIP3    H115147   1.437   1.549   2.756 -0.7014 -0.4600  0.6476
 5061TIP3    H215148   1.482   1.568   2.613  0.3812  0.0222  1.0368
 5062TIP3   OH215149   0.544   4.444   4.961  0.6379  0.5954 -0.3848
 5062TIP3    H115150   0.592   4.489   5.031  1.0685  0.7524 -0.7774
 5062TIP3    H215151   0.610   4.426   4.894  0.3670 -0.1801 -0.4526
 5063TIP3   OH215152   6.388   5.756   2.527 -0.0616 -0.2203  0.0174
 5063TIP3    H115153   6.371   5.850   2.530  0.6350 -0.1039  0.3504
 5063TIP3    H215154   6.327   5.723   2.461 -1.0419  0.3016  0.6406
 5064TIP3   OH215155   1.525  -0.015   4.234  0.3005  0.4688 -0.8786
 5064TIP3    H115156   1.570  -0.009   4.150  0.7724  0.1523 -0.6543
 5064TIP3    H215157   1.585   0.027   4.296  1.8193 -2.7362  0.0177
 5065TIP3   OH215158   6.065   1.148   3.588  1.0145 -0.3005 -0.6837
 5065TIP3    H115159   6.023   1.063   3.572 -0.2036  0.4428 -1.6763
 5065TIP3    H215160   6.006   1.211   3.547  2.0415  1.0075 -0.2082
 5066TIP3   OH215161   1.599   1.901   3.999  0.3034  0.1831  0.3968
 5066TIP3    H115162   1.651   1.857   4.066 -0.2394  0.4496  1.0059
 5066TIP3    H215163   1.657   1.968   3.964  0.5381  0.1534  0.7232
 5067TIP3   OH215164   5.565   3.354   1.408 -0.1863 -0.4412  0.1163
 5067TIP3    H115165   5.585   3.334   1.316  0.1823  1.2155 -0.1852
 5067TIP3    H215166   5.642   3.401   1.439 -1.8128  2.4510  0.1267
 5068TIP3   OH215167   5.779   2.243   4.230 -0.5635  0.5849 -0.1995
 5068TIP3    H115168   5.748   2.176   4.290 -1.3653  1.4079  0.3415
 5068TIP3    H215169   5.711   2.249   4.162 -0.5420  0.9049 -0.1963
 5069TIP3   OH215170   2.580   6.402   2.579  0.1313  0.2142  0.3899
 5069TIP3    H115171   2.668   6.370   2.599  0.1435  1.2362  2.2260
 5069TIP3    H215172   2.579   6.492   2.611 -0.3111  1.7216 -3.3697
 5070TIP3   OH215173   4.716   6.011   4.339 -0.0298  0.4641 -0.5041
 5070TIP3    H115174   4.701   5.978   4.428 -0.4234 -0.0977 -0.7675
 5070TIP3    H215175   4.629   6.008   4.299  0.2987 -0.1714 -1.1953
 5071TIP3   OH215176   0.009   3.922   3.622 -0.6779 -0.4513  1.0055
 5071TIP3    H115177   0.019   3.891   3.712  1.9901  1.0492  1.3266
 5071TIP3    H215178   0.082   3.881   3.575 -0.3112  1.0239  0.2357
 5072TIP3   OH215179   6.290   5.594   1.049  0.0949 -0.6859  0.5702
 5072TIP3    H115180   6.368   5.581   1.103  0.4504 -3.7584 -0.4726
 5072TIP3    H215181   6.276   5.689   1.050  2.8108 -0.1747  2.1695
 5073TIP3   OH215182   1.314   1.819   0.636 -0.5603  0.7290  0.3931
 5073TIP3    H115183   1.393   1.819   0.581 -1.2124 -0.1728 -0.6008
 5073TIP3    H215184   1.263   1.894   0.605 -0.6165  0.6244  0.2293
 5074TIP3   OH215185   0.753   2.125   0.191  0.3499  0.4408  0.2450
 5074TIP3    H115186   0.741   2.030   0.199 -2.2420  0.6941  0.3304
 5074TIP3    H215187   0.665   2.161   0.205  0.9702  2.7717 -1.3104
 5075TIP3   OH215188   2.831   0.535   0.321 -0.0676 -0.2571 -0.2532
 5075TIP3    H115189   2.840   0.621   0.362  0.9700 -0.3050 -0.3716
 5075TIP3    H215190   2.817   0.553   0.228  2.4543 -0.2316 -0.6833
 5076TIP3   OH215191   5.972   5.074   0.106  0.1274 -0.1596 -0.5168
 5076TIP3    H115192   5.892   5.059   0.055 -0.1952  0.7657 -0.3019
 5076TIP3    H215193   6.037   5.100   0.041  0.0577 -0.1952 -0.6019
 5077TIP3   OH215194   4.295   4.511   4.923  0.2842 -0.9019 -0.2299
 5077TIP3    H115195   4.227   4.579   4.917 -0.3123 -1.3890  0.7246
 5077TIP3    H215196   4.377   4.558   4.907  0.0282  0.3397  1.6304
 5078TIP3   OH215197   6.403   5.629   3.084  0.4531 -0.4025 -0.1959
 5078TIP3    H115198   6.465   5.634   3.010 -0.5320 -0.5799 -1.0612
 5078TIP3    H215199   6.436   5.693   3.147  1.4164 -0.3669 -0.7138
 5079TIP3   OH215200   3.004   0.492   4.836 -0.1258 -0.2733  0.1667
 5079TIP3    H115201   3.029   0.462   4.924 -1.0275 -0.5360  0.3463
 5079TIP3    H215202   3.051   0.434   4.776  1.7006  0.8556  0.4195
 5080TIP3   OH215203   2.103   1.219   5.527  0.0974 -0.0881  0.0193
 5080TIP3    H115204   2.098   1.304   5.484 -0.1843  0.1922  0.6005
 5080TIP3    H215205   2.032   1.168   5.487 -0.5044  0.3429  0.5081
 5081TIP3   OH215206   3.242   5.875   2.582 -0.0105  0.0569 -0.5682
 5081TIP3    H115207   3.171   5.825   2.624  1.2078 -1.8823 -0.7186
 5081TIP3    H215208   3.232   5.857   2.489  0.7813 -0.3768 -0.5755
 5082TIP3   OH215209   5.012   6.390   1.257 -0.0473 -0.1019 -0.3428
 5082TIP3    H115210   5.041   6.449   1.326 -0.2115  0.5653 -0.8330
 5082TIP3    H215211   5.093   6.347   1.227  0.2756  0.8239 -0.8470
 5083TIP3   OH215212   4.679   1.999   4.311 -0.7078  0.4857  0.3027
 5083TIP3    H115213   4.712   1.947   4.385 -2.3836  0.9917  1.4478
 5083TIP3    H215214   4.587   2.015   4.332 -0.7406  2.2477 -0.9958
 5084TIP3   OH215215   3.701   4.064   1.954 -0.1370  0.7035  0.4984
 5084TIP3    H115216   3.626   4.009   1.978  0.3774  0.1247  0.8088
 5084TIP3    H215217   3.742   4.018   1.881 -1.0073  1.8553 -0.7469
 5085TIP3   OH215218   1.507   0.835   4.100 -0.3350  0.0446  0.1984
 5085TIP3    H115219   1.480   0.859   4.012 -0.1402  1.9598  0.5982
 5085TIP3    H215220   1.507   0.918   4.148 -0.2518 -0.9124  1.9537
 5086TIP3   OH215221   6.030   5.880   2.226 -0.0906  0.2915 -0.3892
 5086TIP3    H115222   5.952   5.849   2.179 -1.5973 -0.0646  2.1424
 5086TIP3    H215223   6.039   5.971   2.199 -1.4420  0.3553 -0.7072
 5087TIP3   OH215224   5.686   5.979   2.747  0.8169 -0.1423  0.1638
 5087TIP3    H115225   5.674   6.036   2.823  0.1956 -1.5996  1.1963
 5087TIP3    H215226   5.752   5.916   2.775 -0.4381 -1.5667  0.0476
 5088TIP3   OH215227   0.582   1.551   4.379 -0.3218  0.0360  0.5372
 5088TIP3    H115228   0.492   1.582   4.388 -0.1642  0.1576  1.8993
 5088TIP3    H215229   0.592   1.486   4.449  0.9322  0.7304  1.0411
 5089TIP3   OH215230   3.232   5.151   0.193  0.4505 -0.1871  0.1864
 5089TIP3    H115231   3.316   5.183   0.224  0.2185 -0.1253  0.7699
 5089TIP3    H215232   3.172   5.167   0.266  0.1662 -1.2380  0.2040
 5090TIP3   OH215233   6.777   4.964   3.025 -0.7689 -0.7308 -0.1579
 5090TIP3    H115234   6.851   4.914   3.059 -0.9262 -1.3881 -0.7571
 5090TIP3    H215235   6.701   4.930   3.072 -0.8461 -0.9206 -0.4123
 5091TIP3   OH215236   2.962   4.732   2.752  0.2547 -0.2980  0.1619
 5091TIP3    H115237   2.922   4.819   2.760 -0.6786 -0.7243  0.2447
 5091TIP3    H215238   3.038   4.746   2.695 -0.5609  0.3500 -0.7865
 5092TIP3   OH215239   6.172   5.632   0.671  0.3298 -0.8083 -0.4990
 5092TIP3    H115240   6.091   5.632   0.721 -0.1723 -1.9613 -1.2755
 5092TIP3    H215241   6.204   5.542   0.676  0.9292 -0.6482 -1.1898
 5093TIP3   OH215242   0.358   1.045   4.704  0.0196  0.0159 -0.1300
 5093TIP3    H115243   0.380   1.123   4.756 -1.5995  0.7986 -0.5508
 5093TIP3    H215244   0.336   0.978   4.769  1.1386 -0.0380  0.2284
 5094TIP3   OH215245   1.878   0.387   1.642 -0.2639  0.1568  0.3795
 5094TIP3    H115246   1.934   0.445   1.694  0.2748 -0.6596  0.7260
 5094TIP3    H215247   1.790   0.399   1.678  0.0144 -0.0018  1.1272
 5095TIP3   OH215248   2.116   0.931   1.545  0.3272 -0.3051 -0.3282
 5095TIP3    H115249   2.087   0.842   1.524  1.1365 -0.3844 -1.2010
 5095TIP3    H215250   2.059   0.959   1.616  0.3138 -1.6812  0.2441
 5096TIP3   OH215251   5.611   5.580   0.141 -0.2147  0.0783 -0.3604
 5096TIP3    H115252   5.576   5.658   0.099  1.0095  0.9030  0.0726
 5096TIP3    H215253   5.534   5.528   0.164 -1.1094  1.5139  0.0162
 5097TIP3   OH215254   0.214   4.947   0.778  0.1622  0.1495  0.0641
 5097TIP3    H115255   0.199   4.852   0.778 -0.6564  0.2711 -0.4878
 5097TIP3    H215256   0.131   4.985   0.750  0.7701  0.9820 -0.6784
 5098TIP3   OH215257   0.174   5.514   2.921 -0.1099  0.1026  0.7630
 5098TIP3    H115258   0.234   5.486   2.990  2.0618 -1.8413 -1.7056
 5098TIP3    H215259   0.128   5.434   2.895 -0.1344  0.5527 -0.6803
 5099TIP3   OH215260   0.611   4.790   1.866  0.2808  0.5234  0.1221
 5099TIP3    H115261   0.649   4.771   1.952 -3.5773 -0.4047  1.8859
 5099TIP3    H215262   0.608   4.705   1.822  0.5699  0.6431 -0.1225
 5100TIP3   OH215263   4.059   5.530   1.810  0.4239  0.4885  0.2571
 5100TIP3    H115264   4.141   5.533   1.760  1.1630  1.1274  1.4520
 5100TIP3    H215265   4.079   5.473   1.885 -0.8448 -0.9461 -0.4535
 5101TIP3   OH215266   0.716   2.652   4.332 -0.3654 -0.3952 -0.3247
 5101TIP3    H115267   0.709   2.644   4.237 -0.1805  0.5203 -0.4277
 5101TIP3    H215268   0.750   2.567   4.361  2.3886  0.2392 -1.3979
 5102TIP3   OH215269   3.038   3.838   5.007 -0.8385 -0.6611  0.5279
 5102TIP3    H115270   3.103   3.769   5.020  0.2101  0.2606  0.2468
 5102TIP3    H215271   2.956   3.800   5.040  0.2859 -0.9847  3.1504
 5103TIP3   OH215272   3.789   6.204   0.270 -0.4352 -0.4406 -0.0214
 5103TIP3    H115273   3.726   6.192   0.200  2.4708 -0.7295 -2.8160
 5103TIP3    H215274   3.845   6.127   0.266  3.8745  2.4262 -2.0741
 5104TIP3   OH215275   2.081   4.530   0.660 -0.2059  0.5403  0.3498
 5104TIP3    H115276   2.020   4.467   0.699 -0.6266  0.5111 -0.3192
 5104TIP3    H215277   2.045   4.616   0.682  0.1921  0.5469  0.9920
 5105TIP3   OH215278   2.198   3.421   4.726  0.4106 -0.5061  0.0494
 5105TIP3    H115279   2.152   3.402   4.807  0.4719 -1.9948 -0.2280
 5105TIP3    H215280   2.147   3.491   4.685  0.6890  0.6536  1.5895
 5106TIP3   OH215281   4.991   3.941   0.798  0.0906  0.1243  0.4153
 5106TIP3    H115282   5.019   3.986   0.878  0.4046 -0.3386  0.5643
 5106TIP3    H215283   5.029   3.854   0.804 -0.8564 -0.3151  0.3208
 5107TIP3   OH215284   3.549   6.175   0.133  0.3805 -0.3339 -0.0746
 5107TIP3    H115285   3.548   6.261   0.176  1.4559 -0.6200  0.5610
 5107TIP3    H215286   3.475   6.128   0.172 -1.1253  0.7610 -1.4729
 5108TIP3   OH215287   5.702   5.235   0.614 -0.6135 -0.0204 -0.2822
 5108TIP3    H115288   5.613   5.202   0.632  0.2576 -1.9255  0.8670
 5108TIP3    H215289   5.723   5.288   0.690  0.9976 -3.6162  2.0308
 5109TIP3   OH215290   0.827   4.184   3.354  0.2719 -0.0982  0.0465
 5109TIP3    H115291   0.770   4.132   3.410  0.8136  1.1715  1.8598
 5109TIP3    H215292   0.915   4.156   3.378  0.5351  1.0537  0.4723
 5110TIP3   OH215293   4.979   3.666   3.595 -0.8211  0.2268  0.1773
 5110TIP3    H115294   5.062   3.714   3.597 -0.7221  0.0489  2.0612
 5110TIP3    H215295   4.926   3.713   3.531  1.0619 -0.2763 -1.8637
 5111TIP3   OH215296   6.420   3.458   2.906  0.0929 -0.4204 -0.0843
 5111TIP3    H115297   6.502   3.507   2.896  0.4311 -0.7711  0.8330
 5111TIP3    H215298   6.355   3.511   2.861  0.8740 -0.2733 -1.0741
 5112TIP3   OH215299   6.953   0.709   3.347  0.2840  0.3202 -0.1845
 5112TIP3    H115300   7.028   0.721   3.406 -0.8262  0.4811  1.2704
 5112TIP3    H215301   6.978   0.638   3.289  0.1375 -2.4546  2.8436
 5113TIP3   OH215302   2.455   3.710   1.738  0.0392  0.0606  0.0396
 5113TIP3    H115303   2.500   3.695   1.821  0.0227 -0.3791 -0.0270
 5113TIP3    H215304   2.444   3.623   1.701  0.2403  0.2704 -0.5262
 5114TIP3   OH215305   4.731   0.748   5.754  0.4447  0.1880  0.2002
 5114TIP3    H115306   4.822   0.743   5.725  0.0619  1.7415 -1.4789
 5114TIP3    H215307   4.687   0.678   5.707  0.5903  0.0536  0.2621
 5115TIP3   OH215308   4.586   4.952   5.354 -0.3672 -0.4010  0.0866
 5115TIP3    H115309   4.531   4.892   5.402  0.1868 -2.0329 -1.2129
 5115TIP3    H215310   4.597   5.027   5.412 -0.9397 -1.6202  1.8333
 5116TIP3   OH215311   3.600   5.193   0.925  0.2009  0.4822  0.1886
 5116TIP3    H115312   3.675   5.246   0.898  0.8431 -0.7085 -0.4730
 5116TIP3    H215313   3.620   5.166   1.014  0.4351  0.4024  0.1137
 5117TIP3   OH215314   3.413   2.351   1.522 -0.3571  0.5665  0.0586
 5117TIP3    H115315   3.346   2.300   1.477  0.8259 -0.9163 -0.1073
 5117TIP3    H215316   3.423   2.430   1.469  0.0389 -0.5233 -1.5422
 5118TIP3   OH215317   3.926   1.725   3.621 -0.2788 -0.4054 -0.1589
 5118TIP3    H115318   3.837   1.761   3.627  0.5767  1.6201  1.4038
 5118TIP3    H215319   3.975   1.770   3.690  1.6404 -2.5199 -0.0345
 5119TIP3   OH215320   2.676   2.184   5.811 -0.4146  0.5019 -0.2977
 5119TIP3    H115321   2.689   2.196   5.717 -0.0598  1.1209 -0.1782
 5119TIP3    H215322   2.585   2.153   5.819 -0.5928  0.8762 -0.8143
 5120TIP3   OH215323   1.489   1.830   1.873  0.0384  0.3654 -0.0781
 5120TIP3    H115324   1.417   1.769   1.886  0.6310 -0.5002 -0.6875
 5120TIP3    H215325   1.453   1.916   1.895 -1.4549  0.0912 -1.2638
 5121TIP3   OH215326   6.625   0.750   1.473  0.1290 -0.5936 -0.0293
 5121TIP3    H115327   6.674   0.675   1.441 -0.8917 -1.7355  0.9780
 5121TIP3    H215328   6.572   0.777   1.398  0.5247 -0.8584 -0.4083
 5122TIP3   OH215329   6.023   6.563   5.188 -0.1968  0.0740  1.0050
 5122TIP3    H115330   6.094   6.610   5.231 -0.7162  0.6656  1.2305
 5122TIP3    H215331   5.994   6.498   5.252 -0.4398  0.4194  1.2471
 5123TIP3   OH215332   5.012   2.931   1.425 -0.1157  0.2415 -0.1748
 5123TIP3    H115333   4.927   2.973   1.416 -0.3736 -0.3015 -0.2846
 5123TIP3    H215334   5.072   3.003   1.446 -0.8645  0.4182  1.4802
 5124TIP3   OH215335   6.856   0.519   1.301  0.0882  0.3158  0.3547
 5124TIP3    H115336   6.909   0.468   1.241 -1.1206 -2.2673  1.3453
 5124TIP3    H215337   6.918   0.580   1.342  1.1203  1.4006 -2.5851
 5125TIP3   OH215338   5.528   5.107   0.788 -0.7385  0.2720  0.0522
 5125TIP3    H115339   5.528   5.126   0.881 -0.8369 -0.5637  0.2265
 5125TIP3    H215340   5.456   5.045   0.775 -1.2345  0.9849 -0.7051
 5126TIP3   OH215341   2.039   3.935   1.483 -0.6102 -0.4642 -0.1080
 5126TIP3    H115342   1.985   4.010   1.507  0.2152  0.2024 -0.2987
 5126TIP3    H215343   2.092   3.965   1.410  1.7104 -0.3079  1.5134
 5127TIP3   OH215344   4.151   3.516   4.866 -0.4519 -0.1496  0.5317
 5127TIP3    H115345   4.077   3.548   4.813 -0.7578 -2.7942 -0.8320
 5127TIP3    H215346   4.228   3.537   4.814 -0.5016 -0.0939  0.4794
 5128TIP3   OH215347   0.089   4.169   0.930  0.0111 -0.5224  0.0026
 5128TIP3    H115348  -0.003   4.177   0.906 -0.7423 -0.5800  2.5298
 5128TIP3    H215349   0.088   4.113   1.008  2.3410 -1.6726 -0.6981
 5129TIP3   OH215350   0.965   0.091   1.145  0.3132  0.0801 -0.0119
 5129TIP3    H115351   0.956   0.138   1.227 -0.4566 -0.3052  0.1385
 5129TIP3    H215352   1.033   0.138   1.097 -0.0898  1.0513  0.3373
 5130TIP3   OH215353   4.214   3.793   5.135  0.3026  0.0331  0.1037
 5130TIP3    H115354   4.301   3.817   5.103 -0.0455 -0.6701 -1.5002
 5130TIP3    H215355   4.221   3.699   5.155  0.0559  0.0977  0.5119
 5131TIP3   OH215356   4.172   1.073   1.217 -0.1529 -0.5381  0.1432
 5131TIP3    H115357   4.158   1.071   1.123 -1.1180 -0.6734  0.2782
 5131TIP3    H215358   4.129   1.154   1.246 -1.0759 -1.1918  0.6366
 5132TIP3   OH215359   5.011   4.188   2.881 -0.1796  0.0939  0.3329
 5132TIP3    H115360   4.976   4.131   2.950  1.2174 -0.6442  0.4510
 5132TIP3    H215361   4.933   4.229   2.843 -1.2432 -1.9557  0.1743
 5133TIP3   OH215362   6.329   4.601   2.099 -0.9430  0.4698 -0.4059
 5133TIP3    H115363   6.243   4.641   2.107 -1.0992 -0.1346  1.6623
 5133TIP3    H215364   6.312   4.507   2.086 -0.6298  0.2569  0.6121
 5134TIP3   OH215365   4.319   0.066   2.438 -0.1116 -0.0785  0.1367
 5134TIP3    H115366   4.261  -0.002   2.473 -0.0523  0.5846  1.6151
 5134TIP3    H215367   4.300   0.068   2.344  0.3966 -2.6180 -0.1151
 5135TIP3   OH215368   5.356   0.142   3.237  0.3287 -0.2181 -0.2892
 5135TIP3    H115369   5.264   0.167   3.229  0.3575 -0.2050 -0.5692
 5135TIP3    H215370   5.360   0.095   3.320  0.1695  0.2352 -0.0153
 5136TIP3   OH215371   5.446   4.429   3.072  0.3346  0.1633 -0.0901
 5136TIP3    H115372   5.530   4.470   3.050  0.4252 -0.9833 -2.1828
 5136TIP3    H215373   5.386   4.458   3.003 -0.1133 -1.5171 -0.4548
 5137TIP3   OH215374   4.848   1.084   3.883 -0.0047  0.0621  0.2852
 5137TIP3    H115375   4.756   1.072   3.860  0.0246  1.1503 -0.4540
 5137TIP3    H215376   4.895   1.023   3.827 -0.2932 -0.7566  0.9189
 5138TIP3   OH215377   2.615   1.244   0.932 -0.0559 -0.0354 -0.1992
 5138TIP3    H115378   2.535   1.293   0.949 -1.2269 -2.0699  0.6100
 5138TIP3    H215379   2.625   1.188   1.009  0.9529 -1.3548 -1.2326
 5139TIP3   OH215380   5.149   5.160   4.811 -0.0115  0.1436  0.4838
 5139TIP3    H115381   5.097   5.141   4.889 -0.3287 -0.8915  0.0330
 5139TIP3    H215382   5.216   5.222   4.842 -0.9726  0.8321  1.2601
 5140TIP3   OH215383   0.162   2.629   1.487  0.1837  0.2566  0.1839
 5140TIP3    H115384   0.087   2.688   1.493  0.7220  0.9423  0.4667
 5140TIP3    H215385   0.129   2.544   1.515 -0.9749  0.0663 -1.6233
 5141TIP3   OH215386   1.649   1.052   4.639  0.3003 -0.6444  0.2104
 5141TIP3    H115387   1.562   1.063   4.599 -0.0791 -0.4146  1.0808
 5141TIP3    H215388   1.632   1.008   4.722  0.8164  1.0217  1.2325
 5142TIP3   OH215389   5.397   3.038   3.936 -0.2093 -0.3534  0.7748
 5142TIP3    H115390   5.363   3.021   3.848 -1.3622 -0.4926  1.2295
 5142TIP3    H215391   5.449   2.960   3.957  1.8810  0.6020 -0.5957
 5143TIP3   OH215392   3.832   0.973   2.435  0.4517 -0.7571  0.0480
 5143TIP3    H115393   3.879   0.891   2.452  0.3199 -0.9941 -0.6522
 5143TIP3    H215394   3.836   1.021   2.517  0.6140 -1.4303  0.4446
 5144TIP3   OH215395   4.216   4.731   3.860  0.1586 -0.0887 -0.3882
 5144TIP3    H115396   4.191   4.816   3.898  0.6128  0.1793 -0.6808
 5144TIP3    H215397   4.206   4.669   3.932 -0.3198  0.1877 -0.2076
 5145TIP3   OH215398   2.285   3.600   0.460 -0.4897  0.0990 -0.4615
 5145TIP3    H115399   2.375   3.627   0.481 -1.1220  2.0636 -0.0673
 5145TIP3    H215400   2.279   3.511   0.493  1.6369 -0.5012 -1.4650
 5146TIP3   OH215401   1.560   1.173   1.850 -0.3689 -0.1761  0.4202
 5146TIP3    H115402   1.619   1.176   1.775 -0.2157  1.0877  0.5777
 5146TIP3    H215403   1.496   1.243   1.834 -0.5176 -0.0930  1.3131
 5147TIP3   OH215404   3.988   2.866   5.254  0.1006 -0.0263 -0.1154
 5147TIP3    H115405   4.059   2.929   5.265  0.2014 -0.3677  1.4792
 5147TIP3    H215406   4.025   2.797   5.200  0.9782 -0.1505  0.6192
 5148TIP3   OH215407   4.332   1.807   4.102  0.1176  0.1400 -0.4261
 5148TIP3    H115408   4.428   1.813   4.101  0.1659 -0.3216  0.4964
 5148TIP3    H215409   4.304   1.864   4.031  1.1941 -1.7323 -2.5015
 5149TIP3   OH215410   5.490   6.761   0.073 -0.0735  0.1876  0.6147
 5149TIP3    H115411   5.506   6.849   0.107  0.3898  0.6591 -0.7711
 5149TIP3    H215412   5.433   6.720   0.138  1.4552  0.7423  2.3818
 5150TIP3   OH215413   0.347   4.635   0.970 -0.2860 -0.1137 -0.2394
 5150TIP3    H115414   0.295   4.575   0.916 -0.1598 -1.1043  0.7001
 5150TIP3    H215415   0.382   4.579   1.040 -1.0872  1.2807  1.3286
 5151TIP3   OH215416   0.720   4.583   2.530  0.2595 -0.6640  0.2434
 5151TIP3    H115417   0.755   4.506   2.574 -0.3376 -0.8778  0.3635
 5151TIP3    H215418   0.694   4.642   2.601  0.6117 -0.4022  0.1541
 5152TIP3   OH215419   5.906   2.691   1.227  0.3390 -0.1429  0.1093
 5152TIP3    H115420   5.943   2.619   1.278 -0.8332 -0.8457  0.0188
 5152TIP3    H215421   5.977   2.719   1.170  0.6950 -1.5653 -0.1964
 5153TIP3   OH215422   3.410   4.393   2.910  0.0770 -0.0576 -0.1239
 5153TIP3    H115423   3.399   4.394   3.005  2.2367 -0.1798  0.1702
 5153TIP3    H215424   3.378   4.307   2.883  3.5023 -1.9147  1.1394
 5154TIP3   OH215425   2.727   0.077   0.147 -0.0704 -0.7944  0.4387
 5154TIP3    H115426   2.719  -0.001   0.202  0.8468 -0.3113  1.2700
 5154TIP3    H215427   2.814   0.069   0.108  0.2599  0.0977  0.9784
 5155TIP3   OH215428   4.851   5.815   5.087 -1.1681 -0.3105  0.4113
 5155TIP3    H115429   4.870   5.722   5.081 -0.8215 -0.1758 -1.0563
 5155TIP3    H215430   4.936   5.858   5.097 -1.3352 -0.1529  1.2103
 5156TIP3   OH215431   3.785   4.634   3.272 -0.0005  0.2448 -0.3424
 5156TIP3    H115432   3.747   4.557   3.315  1.8502 -0.3288  0.3735
 5156TIP3    H215433   3.818   4.688   3.344 -0.2644  1.1819 -0.9010
 5157TIP3   OH215434   4.772   0.590   1.763 -0.2078  0.4907  0.3928
 5157TIP3    H115435   4.709   0.627   1.824 -0.5798  0.3586  0.0891
 5157TIP3    H215436   4.732   0.600   1.677 -0.3136 -0.6044  0.3035
 5158TIP3   OH215437   2.208   5.572   4.564 -0.1079  0.5611 -0.1386
 5158TIP3    H115438   2.170   5.527   4.639 -0.0222  0.0480 -0.3962
 5158TIP3    H215439   2.145   5.640   4.542 -0.4057  0.3494  0.0497
 5159TIP3   OH215440   4.109   4.231   1.874 -0.1508 -0.5909  0.2857
 5159TIP3    H115441   4.111   4.220   1.969  0.4778  0.3453  0.3940
 5159TIP3    H215442   4.020   4.260   1.854 -0.0498  0.0155  0.6929
 5160TIP3   OH215443   3.495   4.632   0.966 -0.7352  0.9898  0.1168
 5160TIP3    H115444   3.448   4.645   0.884  0.0741  0.2579 -0.4842
 5160TIP3    H215445   3.516   4.721   0.995 -0.3236  1.2400 -0.9021
 5161TIP3   OH215446   2.715   5.996  -0.010  0.0983 -0.1847  0.0386
 5161TIP3    H115447   2.703   5.958   0.077 -0.0530 -0.3472 -0.0509
 5161TIP3    H215448   2.627   5.994  -0.049  0.0356  0.5120  0.1357
 5162TIP3   OH215449   5.719   6.364   2.726 -0.7208 -0.0161  0.0405
 5162TIP3    H115450   5.682   6.342   2.640  0.2783 -0.1652 -0.3730
 5162TIP3    H215451   5.651   6.415   2.769 -1.5280 -0.5685 -0.5502
 5163TIP3   OH215452   5.322   4.531   0.028  0.2299 -0.5617 -0.1886
 5163TIP3    H115453   5.313   4.446  -0.014 -2.0111 -0.2639 -0.4474
 5163TIP3    H215454   5.246   4.537   0.087  0.6649  0.9995  0.2666
 5164TIP3   OH215455   4.610   3.878   2.968  0.1161 -0.2389 -0.1277
 5164TIP3    H115456   4.561   3.879   2.886 -0.4057 -2.3733  0.0943
 5164TIP3    H215457   4.624   3.785   2.987 -1.6154  0.0097  3.2683
 5165TIP3   OH215458   5.311   6.574   0.371  0.7889 -0.2260  0.4627
 5165TIP3    H115459   5.342   6.661   0.397 -0.0802  0.3318 -0.3422
 5165TIP3    H215460   5.216   6.578   0.379  0.2282  0.5436 -4.2513
 5166TIP3   OH215461   3.076   6.822   5.225  0.6342  0.5643 -0.1299
 5166TIP3    H115462   3.046   6.733   5.204  0.6773  0.5860 -0.2856
 5166TIP3    H215463   3.086   6.822   5.320  0.2264  0.5310 -0.0865
 5167TIP3   OH215464   1.919   3.347   2.332  0.1900  0.3370  0.3321
 5167TIP3    H115465   2.008   3.338   2.366 -0.5534 -1.8775  1.8797
 5167TIP3    H215466   1.862   3.323   2.405 -1.5388 -2.4775 -1.7040
 5168TIP3   OH215467   1.411   1.322   3.648 -0.0673  0.1967  0.8025
 5168TIP3    H115468   1.500   1.345   3.620 -0.8819  0.0815 -2.2022
 5168TIP3    H215469   1.412   1.226   3.654 -0.1335  0.1464  0.1087
 5169TIP3   OH215470   5.936   3.157   4.400 -0.6470 -0.4398  0.0792
 5169TIP3    H115471   5.916   3.200   4.483  1.1937  0.7030 -0.0198
 5169TIP3    H215472   5.857   3.169   4.346 -1.3852 -0.1194  1.2107
 5170TIP3   OH215473   6.776   4.958   5.464  0.2120  0.9410  0.3979
 5170TIP3    H115474   6.726   4.894   5.413  1.3553  0.3402  0.0083
 5170TIP3    H215475   6.724   5.039   5.459 -0.8236  0.2821  0.1892
 5171TIP3   OH215476   3.170   3.258   1.993  0.1080  0.1117  0.5273
 5171TIP3    H115477   3.191   3.299   2.077 -0.5334  1.2888  0.1462
 5171TIP3    H215478   3.117   3.324   1.948  0.3585 -0.5448 -0.7567
 5172TIP3   OH215479   1.187   3.600   5.642  0.0011  0.0028 -0.3026
 5172TIP3    H115480   1.174   3.551   5.723  1.2378 -0.9142 -0.6330
 5172TIP3    H215481   1.279   3.588   5.621 -0.7021 -1.5577 -2.9424
 5173TIP3   OH215482   5.667   0.161   3.615  0.4707  0.1998  0.3716
 5173TIP3    H115483   5.627   0.139   3.699  0.3285  0.3704  0.3470
 5173TIP3    H215484   5.758   0.131   3.623  0.7625  1.1976  0.9835
 5174TIP3   OH215485   0.213   3.761   0.462  0.0843 -0.7056 -0.5477
 5174TIP3    H115486   0.146   3.729   0.402 -0.8317  2.8175 -1.6350
 5174TIP3    H215487   0.165   3.793   0.539  0.4999  0.9843 -0.9326
 5175TIP3   OH215488   6.735   4.365   0.575 -0.1357  0.1085  0.2452
 5175TIP3    H115489   6.673   4.372   0.503 -0.6963  1.7546  0.8266
 5175TIP3    H215490   6.781   4.282   0.561 -0.0023  0.5267 -2.1748
 5176TIP3   OH215491   0.532   2.973   4.922  0.7798 -0.1931 -0.4030
 5176TIP3    H115492   0.470   3.045   4.911  0.4794 -0.1396  1.2897
 5176TIP3    H215493   0.618   3.014   4.912  0.5913  0.2659 -0.1856
 5177TIP3   OH215494   2.461   2.291   1.029  0.1966  0.3568  0.2225
 5177TIP3    H115495   2.508   2.291   1.112 -1.8902  1.6255  1.4610
 5177TIP3    H215496   2.462   2.382   1.001  0.0406  0.0965 -0.6674
 5178TIP3   OH215497   3.254   4.341   1.635 -0.0686 -0.0165 -0.1696
 5178TIP3    H115498   3.175   4.327   1.688  0.2518 -0.0513  0.3013
 5178TIP3    H215499   3.312   4.391   1.691 -0.7285  2.2890 -1.4018
 5179TIP3   OH215500   3.338   2.474   2.526 -0.0190  0.0427 -0.6221
 5179TIP3    H115501   3.277   2.456   2.454 -0.5286 -1.0141  0.0495
 5179TIP3    H215502   3.395   2.397   2.530  0.3087  0.3019 -0.1981
 5180TIP3   OH215503   1.297   4.755   1.127 -0.3831 -0.2376  0.2687
 5180TIP3    H115504   1.279   4.810   1.203  0.8160 -0.0305  0.4142
 5180TIP3    H215505   1.335   4.814   1.062 -0.7009 -0.5642 -0.2272
 5181TIP3   OH215506   0.083   3.633   2.768 -0.4925  0.4146  0.3335
 5181TIP3    H115507   0.107   3.722   2.742  1.4702 -0.3286 -0.6023
 5181TIP3    H215508   0.031   3.600   2.695  0.2674  0.2370 -0.1471
 5182TIP3   OH215509   6.883   1.001   2.153 -0.0749  0.2310 -0.0123
 5182TIP3    H115510   6.835   0.989   2.235  2.8559 -1.4584  1.6586
 5182TIP3    H215511   6.846   0.936   2.094  1.4233 -2.6863  1.9727
 5183TIP3   OH215512   6.753   5.221   1.152 -0.0088  0.2166  0.2417
 5183TIP3    H115513   6.668   5.179   1.155  0.2176 -0.3474 -0.9120
 5183TIP3    H215514   6.754   5.270   1.070  0.9135 -0.0885  0.0525
 5184TIP3   OH215515   0.591   6.084   5.750  0.0061 -0.0331  0.6891
 5184TIP3    H115516   0.511   6.089   5.697  0.2555 -0.1264  0.3004
 5184TIP3    H215517   0.598   6.170   5.791 -0.3683 -0.0681  0.8367
 5185TIP3   OH215518   1.007   5.076   3.831  0.5696 -1.0554 -0.4837
 5185TIP3    H115519   1.045   5.105   3.913  1.3212 -2.3528 -0.3492
 5185TIP3    H215520   0.914   5.063   3.850 -0.6943  4.2996 -1.3634
 5186TIP3   OH215521   4.854   3.729   2.602  0.0079  0.2454  0.3311
 5186TIP3    H115522   4.851   3.812   2.651  0.2579  0.3371  0.1938
 5186TIP3    H215523   4.818   3.752   2.516 -0.0898  0.1699  0.3523
 5187TIP3   OH215524   6.628   1.870   0.147  0.2409  0.4273 -0.4299
 5187TIP3    H115525   6.588   1.783   0.148  0.7066  0.1511  2.4782
 5187TIP3    H215526   6.721   1.854   0.133  0.5714  0.2430  1.6707
 5188TIP3   OH215527   0.711   3.536   0.969 -0.2698  0.5190 -0.5919
 5188TIP3    H115528   0.725   3.572   1.057  2.7055  1.2884 -1.2671
 5188TIP3    H215529   0.752   3.450   0.972 -1.4994 -0.0897 -0.8446
 5189TIP3   OH215530   6.956   3.807   5.772 -0.8410  0.4505 -0.0446
 5189TIP3    H115531   6.979   3.721   5.806  1.3985  0.9026 -0.2333
 5189TIP3    H215532   6.935   3.792   5.680 -0.1423  0.1250 -0.1589
 5190TIP3   OH215533   6.675   1.482   5.681  0.1522  0.1098  0.2363
 5190TIP3    H115534   6.745   1.524   5.631 -0.0404  0.3709  0.1857
 5190TIP3    H215535   6.616   1.446   5.615 -0.1152  0.4757  0.2775
 5191TIP3   OH215536   2.444   6.145   0.125  0.2027 -0.0997 -0.4212
 5191TIP3    H115537   2.405   6.171   0.208  1.6816  1.0943 -0.0675
 5191TIP3    H215538   2.522   6.200   0.116 -0.1158  0.0752 -2.7830
 5192TIP3   OH215539   3.525   1.270   2.123 -0.2326 -0.0070 -0.2232
 5192TIP3    H115540   3.492   1.299   2.209  0.5264  1.7761 -0.4770
 5192TIP3    H215541   3.590   1.203   2.144 -1.0395 -0.5921  0.5016
 5193TIP3   OH215542   5.505   6.713   1.789 -0.2079 -0.1749  0.1030
 5193TIP3    H115543   5.417   6.727   1.754  0.0597  0.1469 -0.4504
 5193TIP3    H215544   5.519   6.619   1.781 -0.0966 -0.0908 -0.7935
 5194TIP3   OH215545   3.673   2.238   0.914  0.0994 -0.7298  0.5176
 5194TIP3    H115546   3.610   2.310   0.908  1.3855  0.4196  0.2668
 5194TIP3    H215547   3.743   2.262   0.854  0.1680 -2.6385 -0.2375
 5195TIP3   OH215548   6.239   0.189   2.374  0.4233 -0.4473  0.0433
 5195TIP3    H115549   6.302   0.249   2.335 -0.9227  0.0064 -1.5648
 5195TIP3    H215550   6.247   0.203   2.468  2.9818 -0.7174 -0.0640
 5196TIP3   OH215551   4.657   1.375   3.734 -0.8054  0.0427  0.8203
 5196TIP3    H115552   4.732   1.389   3.792 -0.8767 -1.1062  1.2106
 5196TIP3    H215553   4.678   1.294   3.687 -0.1244  1.5998 -1.7683
 5197TIP3   OH215554   5.588   6.456   0.523  0.3109 -0.7328  0.2628
 5197TIP3    H115555   5.604   6.538   0.475 -0.6910  0.1662  1.3942
 5197TIP3    H215556   5.621   6.473   0.611  2.3828 -2.4616 -0.1286
 5198TIP3   OH215557   2.321   3.916   0.971 -0.1016  0.3335 -0.2156
 5198TIP3    H115558   2.347   3.839   1.021  0.7539  0.9095  0.2574
 5198TIP3    H215559   2.401   3.968   0.963 -0.7736  1.4507  0.0007
 5199TIP3   OH215560   6.020   5.213   4.260  0.0355  0.0650 -0.3921
 5199TIP3    H115561   6.080   5.284   4.234  0.7387 -0.2050  0.4099
 5199TIP3    H215562   5.992   5.174   4.178 -0.0926  1.0526 -0.8404
 5200TIP3   OH215563   6.719   4.589   5.001  0.3019 -0.6802 -0.4003
 5200TIP3    H115564   6.793   4.619   5.055 -0.9199 -0.0285  0.9967
 5200TIP3    H215565   6.721   4.494   5.008  0.1043 -0.6134  0.9697
 5201TIP3   OH215566   3.325   4.958   3.709  0.0252 -0.4138  0.0999
 5201TIP3    H115567   3.388   4.939   3.639  0.7620 -2.3248  1.1963
 5201TIP3    H215568   3.378   4.961   3.789 -1.1604 -1.3600  0.9568
 5202TIP3   OH215569   0.665   3.573   1.268  0.5239  0.2194  0.2194
 5202TIP3    H115570   0.611   3.547   1.342 -0.6102  1.1813 -0.2421
 5202TIP3    H215571   0.696   3.661   1.290 -0.3296  0.7679 -0.6993
 5203TIP3   OH215572   6.558   0.567   4.813  0.9072 -0.1636 -0.1575
 5203TIP3    H115573   6.575   0.501   4.880 -0.1891  0.5425  0.8670
 5203TIP3    H215574   6.517   0.519   4.741  0.3334 -0.6525  0.4798
 5204TIP3   OH215575   6.656   5.221   3.968 -0.4250 -0.3760  0.2312
 5204TIP3    H115576   6.739   5.268   3.963  0.5172 -1.8309  1.1864
 5204TIP3    H215577   6.607   5.249   3.891  1.1472  0.1664 -0.6040
 5205TIP3   OH215578   0.688   0.104   2.732 -0.4855 -0.0659 -0.2971
 5205TIP3    H115579   0.746   0.128   2.660  0.3424  1.3109  0.8005
 5205TIP3    H215580   0.600   0.105   2.692  0.0226 -0.0830 -1.4631
 5206TIP3   OH215581   2.039   5.209   3.199 -0.1887 -0.1796  0.0417
 5206TIP3    H115582   2.024   5.127   3.150 -0.0997  0.0491 -0.3716
 5206TIP3    H215583   1.973   5.207   3.268 -0.2660 -0.5487 -0.0377
 5207TIP3   OH215584   2.211   5.991   1.314  0.0627  0.0321 -0.0203
 5207TIP3    H115585   2.292   5.981   1.265  0.3770 -0.2089  0.5377
 5207TIP3    H215586   2.171   6.071   1.280  0.8826  0.5370  0.1838
 5208TIP3   OH215587   0.140   2.384   0.415 -0.0297  0.3412  0.4540
 5208TIP3    H115588   0.146   2.361   0.508  0.7214  0.3497  0.4176
 5208TIP3    H215589   0.127   2.300   0.371 -0.7266  0.3734  0.5886
 5209TIP3   OH215590   4.653   1.418   1.015  0.8461 -0.1796  0.8684
 5209TIP3    H115591   4.644   1.323   1.018  1.5687 -0.2612  0.8144
 5209TIP3    H215592   4.654   1.439   0.921 -1.1596  0.0977  0.8701
 5210TIP3   OH215593   0.607   4.691   3.005  0.1036  0.6032 -0.0458
 5210TIP3    H115594   0.555   4.642   3.069 -0.4275  0.9351 -0.2130
 5210TIP3    H215595   0.664   4.747   3.057  0.9978 -0.4619  0.1543
 5211TIP3   OH215596   5.221   0.706   4.464  0.0922  0.0712  0.2247
 5211TIP3    H115597   5.217   0.694   4.559  1.3091 -0.0033  0.2833
 5211TIP3    H215598   5.171   0.785   4.447  0.9933  0.8459  1.0896
 5212TIP3   OH215599   6.262   4.735   1.777 -0.1228 -0.7670 -0.0657
 5212TIP3    H115600   6.260   4.697   1.864  1.3081 -0.5103  0.1083
 5212TIP3    H215601   6.347   4.778   1.771 -0.6407  0.1839 -1.1906
 5213TIP3   OH215602   0.343   1.917   4.713  0.0101 -0.7854 -0.0828
 5213TIP3    H115603   0.410   1.947   4.774  0.6534 -2.5763  0.1548
 5213TIP3    H215604   0.296   1.997   4.687 -0.8498 -0.0119  3.3675
 5214TIP3   OH215605   0.502   3.414   3.180  0.1486  0.2074  0.0848
 5214TIP3    H115606   0.426   3.451   3.225  0.4328  0.5659  0.2691
 5214TIP3    H215607   0.501   3.321   3.205  0.2056  0.3677  0.6960
 5215TIP3   OH215608   3.984   0.332   1.152 -1.2010 -0.0721 -0.5172
 5215TIP3    H115609   4.002   0.245   1.116 -0.2954 -0.1447  0.0977
 5215TIP3    H215610   3.935   0.315   1.232 -1.9443  0.0365 -0.9371
 5216TIP3   OH215611   2.195   2.860   3.662 -0.1129  0.3528  0.2196
 5216TIP3    H115612   2.144   2.886   3.739 -0.2631 -1.8566  0.9570
 5216TIP3    H215613   2.183   2.765   3.657  3.1107 -0.1464 -0.1652
 5217TIP3   OH215614   1.826   1.869   4.160  0.6581 -0.1490  0.7390
 5217TIP3    H115615   1.876   1.904   4.233  2.0942 -1.5509  0.4779
 5217TIP3    H215616   1.841   1.774   4.163 -1.5112 -0.5767  0.2813
 5218TIP3   OH215617   5.984   2.115   1.260 -0.4811 -0.4154 -0.0144
 5218TIP3    H115618   6.053   2.090   1.198 -1.3576 -1.9484 -0.3994
 5218TIP3    H215619   6.032   2.140   1.340  0.5149 -2.3410  0.0418
 5219TIP3   OH215620   3.226   5.514   4.632 -0.2570  0.0071 -0.6456
 5219TIP3    H115621   3.322   5.520   4.625 -0.2465  0.6398 -0.0686
 5219TIP3    H215622   3.202   5.585   4.692 -0.9446 -1.0879  0.4153
 5220TIP3   OH215623   0.797   3.188   3.492 -0.2354 -0.3096 -0.0177
 5220TIP3    H115624   0.797   3.224   3.403  1.4848  0.3440  0.2154
 5220TIP3    H215625   0.869   3.126   3.493  1.2013  1.2903  1.5093
 5221TIP3   OH215626   5.512   2.050   5.295  0.0110 -0.7030  0.0821
 5221TIP3    H115627   5.493   1.956   5.295 -1.2850 -0.4951  1.7894
 5221TIP3    H215628   5.507   2.075   5.388  0.6662  0.9967 -0.3066
 5222TIP3   OH215629   5.518   2.574   3.021 -0.0819  0.1209  0.1149
 5222TIP3    H115630   5.494   2.618   2.939  0.2281  1.2473  0.6213
 5222TIP3    H215631   5.536   2.484   2.994 -0.7704  0.2672 -0.9328
 5223TIP3   OH215632   1.944   4.827   0.984  0.2378  0.2935 -0.0390
 5223TIP3    H115633   2.017   4.888   0.970  0.8595 -0.5164 -0.4375
 5223TIP3    H215634   1.883   4.875   1.040  0.4550  1.4794 -0.7793
 5224TIP3   OH215635   5.317   4.419   5.842 -0.2268  0.3107  0.0604
 5224TIP3    H115636   5.283   4.385   5.925 -0.3318 -0.8570 -0.4409
 5224TIP3    H215637   5.386   4.481   5.868 -0.9074  0.6784  1.0246
 5225TIP3   OH215638   6.917   1.511   5.545  0.0643  0.1024 -0.5344
 5225TIP3    H115639   6.997   1.461   5.561 -0.7154 -0.9539  0.2341
 5225TIP3    H215640   6.878   1.470   5.468 -0.3000 -0.1285 -0.2320
 5226TIP3   OH215641   6.931   5.707   0.182 -0.0261 -0.2081 -0.0592
 5226TIP3    H115642   6.977   5.776   0.229  0.1535 -0.5588  0.2893
 5226TIP3    H215643   6.890   5.654   0.250 -0.4447 -0.2473 -0.3394
 5227TIP3   OH215644   3.930   5.132   0.583 -0.4424 -0.4804 -0.2836
 5227TIP3    H115645   3.911   5.088   0.500 -1.0938  0.0250 -0.4127
 5227TIP3    H215646   3.921   5.063   0.648  0.3523 -0.9452 -0.6556
 5228TIP3   OH215647   2.980   1.560   4.350 -0.2753  0.1620  0.3564
 5228TIP3    H115648   3.065   1.551   4.393 -0.7434 -1.5420  0.9825
 5228TIP3    H215649   2.954   1.470   4.329 -2.9817  0.4091  2.2531
 5229TIP3   OH215650   1.983   2.460   4.210 -0.0806  0.1196 -0.2837
 5229TIP3    H115651   2.078   2.464   4.198 -0.0763  2.3106  0.0978
 5229TIP3    H215652   1.955   2.552   4.217 -2.2633 -0.4514 -0.6090
 5230TIP3   OH215653   0.192   5.920   2.808  0.0255 -0.5332  0.4405
 5230TIP3    H115654   0.111   5.949   2.850  0.7640  1.3253  0.6729
 5230TIP3    H215655   0.262   5.951   2.865  0.9840  0.4012 -1.1556
 5231TIP3   OH215656   3.903   4.609   1.059  0.0265 -0.0716 -0.0514
 5231TIP3    H115657   3.897   4.615   1.154 -0.2969 -1.0637  0.0119
 5231TIP3    H215658   3.980   4.660   1.035 -0.8092  1.5557  0.5660
 5232TIP3   OH215659  -0.021   4.815   3.031 -0.5936 -0.5660  0.0573
 5232TIP3    H115660   0.032   4.743   2.998 -1.2643 -0.3207 -1.6360
 5232TIP3    H215661   0.011   4.892   2.984 -1.4892 -0.1691  0.0751
 5233TIP3   OH215662   1.346   6.122   5.484  0.0542 -0.8014  0.1862
 5233TIP3    H115663   1.274   6.091   5.428 -0.3310 -0.0247  0.2384
 5233TIP3    H215664   1.312   6.115   5.573 -1.0725  2.2049  0.0957
 5234TIP3   OH215665   5.456   3.131   0.444  0.2592  0.4957 -0.0646
 5234TIP3    H115666   5.372   3.158   0.481 -0.3131  0.3094 -1.1982
 5234TIP3    H215667   5.510   3.108   0.521 -0.6926  0.6760  0.6720
 5235TIP3   OH215668   6.828   1.219   1.062 -0.1034 -0.4115 -0.2410
 5235TIP3    H115669   6.901   1.280   1.056 -1.1623  0.8782 -0.3497
 5235TIP3    H215670   6.768   1.258   1.126 -0.4865 -1.6874  0.2244
 5236TIP3   OH215671   2.057   0.584   5.863  0.3835  0.0440 -0.1679
 5236TIP3    H115672   2.042   0.679   5.861 -2.6101 -0.3715 -1.7126
 5236TIP3    H215673   1.981   0.549   5.910  0.8712 -1.6963 -0.6191
 5237TIP3   OH215674   1.289   0.641   4.151 -0.1138 -0.3387 -0.3371
 5237TIP3    H115675   1.241   0.652   4.070 -0.2623 -0.9420 -0.3412
 5237TIP3    H215676   1.361   0.703   4.146 -0.6714  0.3047 -0.5009
 5238TIP3   OH215677   5.592   4.206   3.092  0.4082 -0.4073  0.0933
 5238TIP3    H115678   5.548   4.290   3.078 -0.7475 -0.9865  0.1298
 5238TIP3    H215679   5.685   4.226   3.079  0.1729  0.8938  0.1992
 5239TIP3   OH215680   0.446   4.637   2.500 -0.5238 -0.0121 -0.1195
 5239TIP3    H115681   0.531   4.620   2.539  0.7144  2.0454 -1.6781
 5239TIP3    H215682   0.403   4.697   2.562  0.9994  2.3880 -1.2072
 5240TIP3   OH215683   3.610   2.107   5.799 -0.9015  0.2580 -0.0079
 5240TIP3    H115684   3.692   2.057   5.804 -1.1779 -0.3473 -1.2406
 5240TIP3    H215685   3.622   2.166   5.725 -0.7089  1.8488  1.2328
 5241TIP3   OH215686   3.629   2.356   0.615 -0.1282 -0.0370  0.0259
 5241TIP3    H115687   3.641   2.365   0.520  0.6349 -1.3413 -0.0271
 5241TIP3    H215688   3.637   2.445   0.648 -0.9956  0.5200 -1.1905
 5242TIP3   OH215689   0.191   6.173   0.143  0.5185 -1.0808  0.0302
 5242TIP3    H115690   0.134   6.176   0.219  0.4176  1.2979 -0.0667
 5242TIP3    H215691   0.152   6.108   0.085 -1.4097 -0.4051  0.5097
 5243TIP3   OH215692   0.356   2.956   4.634 -0.4559 -0.6397 -0.7658
 5243TIP3    H115693   0.404   3.035   4.608  0.0814 -1.1751 -1.4316
 5243TIP3    H215694   0.423   2.898   4.670 -0.5347 -1.5323 -2.0136
 5244TIP3   OH215695   6.099   3.700   5.338 -0.3150 -0.5640 -0.2832
 5244TIP3    H115696   6.188   3.666   5.329  0.3945  0.3850  2.3070
 5244TIP3    H215697   6.046   3.622   5.355  0.4793 -0.9187  0.6913
 5245TIP3   OH215698   2.170   1.122   4.441 -0.4222 -0.1434 -0.6660
 5245TIP3    H115699   2.089   1.170   4.422  0.1872  0.4656 -1.7966
 5245TIP3    H215700   2.240   1.185   4.426  0.3446 -1.0877 -1.1602
 5246TIP3   OH215701   3.550   2.770   3.781  0.0284 -0.2363 -0.6084
 5246TIP3    H115702   3.519   2.736   3.697 -0.6013 -1.6575  0.1648
 5246TIP3    H215703   3.470   2.782   3.833  0.3818  0.9247 -0.3034
 5247TIP3   OH215704   2.999   0.960   4.770  0.3988  0.0274  0.2872
 5247TIP3    H115705   3.064   0.966   4.840  1.6907  0.2844 -0.8882
 5247TIP3    H215706   3.051   0.958   4.690 -0.9418 -2.3715 -0.5984
 5248TIP3   OH215707   3.286   0.165   1.136 -0.4861 -0.5151  0.1321
 5248TIP3    H115708   3.307   0.240   1.192 -1.3468 -0.4987  0.4492
 5248TIP3    H215709   3.342   0.177   1.059 -0.9599  0.7428 -0.0529
 5249TIP3   OH215710   4.823   5.412   2.640  0.1795  0.2406 -0.1098
 5249TIP3    H115711   4.814   5.488   2.699  2.9687  1.1410 -0.6662
 5249TIP3    H215712   4.783   5.440   2.558  0.7813  0.9665 -0.1666
 5250TIP3   OH215713   4.712   0.013   2.373 -0.0771  0.5079 -0.3904
 5250TIP3    H115714   4.680   0.089   2.423  0.0310  0.7776 -0.7317
 5250TIP3    H215715   4.633  -0.024   2.333 -0.0695  0.7124 -0.5966
 5251TIP3   OH215716   1.413   3.511   2.644  0.1657 -0.5762 -0.3594
 5251TIP3    H115717   1.324   3.481   2.665 -0.0046 -0.8145 -1.3513
 5251TIP3    H215718   1.410   3.531   2.551  0.8482  0.5625 -0.1532
 5252TIP3   OH215719   1.097   4.950   5.064 -0.3206 -0.1999 -0.2005
 5252TIP3    H115720   1.071   4.937   4.972  2.0832 -1.7339 -0.7576
 5252TIP3    H215721   1.176   4.897   5.074 -1.3207 -1.3038  3.2042
 5253TIP3   OH215722   4.041   1.163   4.695  0.2849  0.9676 -0.2401
 5253TIP3    H115723   3.969   1.120   4.650 -1.0631 -0.2726  2.8020
 5253TIP3    H215724   4.009   1.177   4.785  2.9633  2.6435  0.5958
 5254TIP3   OH215725   6.522   5.270   1.594  0.0363  0.0725 -0.4374
 5254TIP3    H115726   6.459   5.203   1.622 -0.6028  0.8131 -0.0869
 5254TIP3    H215727   6.468   5.343   1.566  0.7102  0.0522 -1.8635
 5255TIP3   OH215728   4.268   1.250   4.952  0.0215  0.0055 -0.1577
 5255TIP3    H115729   4.182   1.284   4.978  0.7607  0.5422  1.7235
 5255TIP3    H215730   4.311   1.323   4.908 -0.1680  0.0012 -0.3519
 5256TIP3   OH215731   3.687   2.947   5.881 -0.2167 -0.0622 -0.4966
 5256TIP3    H115732   3.720   3.032   5.910 -1.9491  0.2292  0.7283
 5256TIP3    H215733   3.714   2.941   5.789  3.2733  0.0725  0.3728
 5257TIP3   OH215734   2.855   2.423   3.884  0.0797  0.2511  0.2082
 5257TIP3    H115735   2.938   2.391   3.850  0.2270  0.9520 -0.1059
 5257TIP3    H215736   2.871   2.441   3.976  0.2618  0.3461  0.1571
 5258TIP3   OH215737   6.694   4.841   4.025 -0.1687  0.2003  0.1462
 5258TIP3    H115738   6.643   4.760   4.012  0.3256 -0.1360  0.2915
 5258TIP3    H215739   6.631   4.903   4.061 -1.0065  0.4233 -1.5522
 5259TIP3   OH215740   0.935   0.494   3.498 -0.2721 -0.2136 -0.0970
 5259TIP3    H115741   0.990   0.541   3.436  1.5146 -1.0026  0.7923
 5259TIP3    H215742   0.853   0.478   3.451  0.1950  1.1148 -1.4390
 5260TIP3   OH215743   5.950   2.787   2.888  0.3100 -0.0708  0.0602
 5260TIP3    H115744   5.897   2.750   2.818  0.9533  0.0044 -0.4765
 5260TIP3    H215745   5.917   2.746   2.968  0.0893 -0.7520 -0.3753
 5261TIP3   OH215746   4.694   3.245   2.075  0.5126  0.8140  0.1221
 5261TIP3    H115747   4.615   3.191   2.066  0.8721  0.2363  0.3752
 5261TIP3    H215748   4.745   3.201   2.143  1.6961  0.3788 -0.9932
 5262TIP3   OH215749   1.900   5.699   0.754 -0.2314 -0.2777  0.5790
 5262TIP3    H115750   1.955   5.672   0.828 -0.0242 -0.6299  0.2931
 5262TIP3    H215751   1.935   5.785   0.728  2.6333 -2.0455 -1.9952
 5263TIP3   OH215752   1.460   1.423   0.925 -0.1857 -0.2086  0.4406
 5263TIP3    H115753   1.459   1.518   0.913 -1.3346 -0.3963 -1.3253
 5263TIP3    H215754   1.539   1.394   0.881  0.3522 -0.0722  1.2821
 5264TIP3   OH215755   4.229   5.620   0.230 -0.1557  0.8611 -0.0129
 5264TIP3    H115756   4.207   5.539   0.185  1.4162 -0.5358  1.5965
 5264TIP3    H215757   4.154   5.678   0.213 -1.5612 -1.0684 -0.7736
 5265TIP3   OH215758   0.455   0.190   1.503 -0.1589  0.6912 -0.0878
 5265TIP3    H115759   0.540   0.188   1.459 -1.9387  0.9814 -3.9883
 5265TIP3    H215760   0.438   0.099   1.527 -0.8655 -0.4774 -4.2559
 5266TIP3   OH215761   1.692   2.410   4.779 -0.4598  0.2248  0.0745
 5266TIP3    H115762   1.749   2.441   4.849 -0.2283 -1.8651  0.8811
 5266TIP3    H215763   1.626   2.357   4.823 -1.3358  0.2482 -1.1408
 5267TIP3   OH215764   5.191   6.108   1.068 -0.0450 -0.1550 -0.2633
 5267TIP3    H115765   5.166   6.086   1.157  0.4831  1.1833  0.2514
 5267TIP3    H215766   5.209   6.024   1.026 -1.2428 -0.8626  0.5856
 5268TIP3   OH215767   5.513   2.711   2.767 -0.2589 -0.3962 -0.1355
 5268TIP3    H115768   5.590   2.659   2.742  0.3301  0.9460 -1.1896
 5268TIP3    H215769   5.547   2.775   2.830 -0.5671  0.0549 -0.4261
 5269TIP3   OH215770   4.531   5.189   1.324 -0.3458 -0.6158 -0.1562
 5269TIP3    H115771   4.571   5.189   1.237  0.7769  1.4060  0.2954
 5269TIP3    H215772   4.548   5.276   1.358 -3.5410 -0.2871  0.8825
 5270TIP3   OH215773   6.665   4.179   1.865  0.2902 -0.2113  0.3839
 5270TIP3    H115774   6.737   4.238   1.844  0.2358  0.0370  0.8775
 5270TIP3    H215775   6.706   4.093   1.876  0.3813 -0.2469 -0.2441
 5271TIP3   OH215776   5.891   4.481   5.631  0.3291 -0.4539 -0.1365
 5271TIP3    H115777   5.803   4.445   5.647 -0.1814  0.1890 -1.3356
 5271TIP3    H215778   5.874   4.563   5.585  1.5765 -0.4907 -0.6808
 5272TIP3   OH215779   3.358   2.218   1.793  0.6587 -0.0944  0.1433
 5272TIP3    H115780   3.408   2.233   1.712 -1.4668  3.0944 -0.8207
 5272TIP3    H215781   3.273   2.186   1.762  0.7160 -1.5469  1.4019
 5273TIP3   OH215782   2.495   1.556   2.270 -0.3578  0.4873  1.0128
 5273TIP3    H115783   2.460   1.601   2.347 -0.5267  1.9695  0.1072
 5273TIP3    H215784   2.586   1.586   2.265 -0.4202  0.5987  0.5048
 5274TIP3   OH215785   4.747   4.268   3.217 -0.2322  0.1889 -0.3171
 5274TIP3    H115786   4.806   4.271   3.293  0.7631 -1.0949 -1.0053
 5274TIP3    H215787   4.720   4.359   3.204  0.1495  0.5373  1.1302
 5275TIP3   OH215788   0.818   1.772   4.859 -0.5039  0.2458  0.1865
 5275TIP3    H115789   0.889   1.710   4.878 -0.7253 -0.3238 -0.7809
 5275TIP3    H215790   0.846   1.853   4.900 -0.3655 -0.5681  1.7920
 5276TIP3   OH215791   6.911   5.535   2.380 -0.3628 -0.5102 -0.2106
 5276TIP3    H115792   6.875   5.535   2.469 -0.2933  0.7315 -0.1639
 5276TIP3    H215793   6.994   5.582   2.389 -1.1156  1.0775 -1.2038
 5277TIP3   OH215794   1.432   3.619   1.913 -0.4159  0.5167 -0.0036
 5277TIP3    H115795   1.480   3.647   1.835  1.2391 -1.8705  0.0744
 5277TIP3    H215796   1.446   3.525   1.918 -0.6744  0.5347  3.0325
 5278TIP3   OH215797   1.167   2.473   5.288  0.1189  0.3188  0.3203
 5278TIP3    H115798   1.107   2.518   5.347  0.1601  0.6145  0.1380
 5278TIP3    H215799   1.222   2.419   5.345 -0.5777 -0.2541  0.4531
 5279TIP3   OH215800   2.119   2.658   2.623 -0.0856  0.6444  0.0794
 5279TIP3    H115801   2.088   2.616   2.543  1.3212 -0.2735 -0.0056
 5279TIP3    H215802   2.040   2.672   2.675 -1.0881  1.6342 -1.6100
 5280TIP3   OH215803   0.960   5.955   2.227 -0.1118  0.0474  0.1722
 5280TIP3    H115804   0.993   6.040   2.256  2.3354 -0.5701 -0.5697
 5280TIP3    H215805   1.024   5.926   2.162 -0.7889 -2.4294  0.5200
 5281TIP3   OH215806   4.225   3.294   5.681  0.3152 -0.2895 -0.2318
 5281TIP3    H115807   4.275   3.240   5.742 -0.7135 -0.4755  0.4874
 5281TIP3    H215808   4.290   3.328   5.620  1.7006  1.3491  1.9873
 5282TIP3   OH215809   2.390   2.700   3.971 -0.2846 -1.1245 -0.2038
 5282TIP3    H115810   2.304   2.675   3.937 -1.2141  0.4347  0.8858
 5282TIP3    H215811   2.452   2.647   3.920 -1.8104 -1.5963 -1.6670
 5283TIP3   OH215812   5.634   0.925   5.253  0.5496 -0.3184  0.0713
 5283TIP3    H115813   5.683   0.844   5.236  1.2730  0.2680 -0.7052
 5283TIP3    H215814   5.702   0.993   5.258 -0.2178  0.8366 -2.8905
 5284TIP3   OH215815   6.335   4.912   4.023 -0.3237  0.2453  0.6168
 5284TIP3    H115816   6.395   4.844   4.052  0.0469 -0.0650 -0.8350
 5284TIP3    H215817   6.382   4.958   3.953 -1.9131 -0.2782 -0.8502
 5285TIP3   OH215818   1.039   4.834   3.147 -0.1819 -0.1815 -0.2948
 5285TIP3    H115819   1.014   4.784   3.225 -2.1240 -1.1831 -1.4962
 5285TIP3    H215820   0.957   4.873   3.117  0.8909  1.8915 -0.7186
 5286TIP3   OH215821   1.136   4.350   1.322  0.0399 -0.4247 -0.9175
 5286TIP3    H115822   1.210   4.291   1.304 -1.1091 -3.0672  2.0846
 5286TIP3    H215823   1.079   4.341   1.245  1.1219 -1.1935 -1.6588
 5287TIP3   OH215824   3.738   6.116   4.439  0.1913 -0.1644 -0.7818
 5287TIP3    H115825   3.681   6.170   4.384 -0.4931 -0.9550 -0.8726
 5287TIP3    H215826   3.683   6.042   4.464  0.6971 -0.1462  0.4431
 5288TIP3   OH215827   1.148   1.562   2.480  0.4588 -0.7593  0.0427
 5288TIP3    H115828   1.200   1.615   2.540  0.1901  0.1731 -0.5240
 5288TIP3    H215829   1.063   1.605   2.478  0.1259 -1.4146 -0.1719
 5289TIP3   OH215830   5.041   2.744   2.323 -0.0345 -0.1523  0.1897
 5289TIP3    H115831   5.014   2.654   2.341  0.5341 -0.2831  0.4224
 5289TIP3    H215832   5.008   2.795   2.396  1.1241 -0.4633  0.9572
 5290TIP3   OH215833   1.486   5.068   2.261  0.0446  0.2937 -0.0280
 5290TIP3    H115834   1.500   5.057   2.167 -2.1680  0.4707 -0.4201
 5290TIP3    H215835   1.499   5.161   2.277  1.2277  0.1384  0.0277
 5291TIP3   OH215836   0.882   6.362   5.233  0.1678  0.0632  0.3221
 5291TIP3    H115837   0.952   6.374   5.169  0.0800 -2.2911 -0.3297
 5291TIP3    H215838   0.911   6.288   5.287 -1.0653  0.1311  1.1261
 5292TIP3   OH215839   7.073   0.237   5.564  0.9266 -0.3820 -0.1328
 5292TIP3    H115840   7.038   0.150   5.585 -0.3568 -0.1929 -1.3094
 5292TIP3    H215841   7.112   0.227   5.477  0.0608  0.3732 -0.6269
 5293TIP3   OH215842   5.320   5.616   3.548  0.2392  0.8657  0.5827
 5293TIP3    H115843   5.387   5.679   3.573  2.5604 -0.3364 -2.0752
 5293TIP3    H215844   5.277   5.656   3.472 -2.2526  1.6542  2.2871
 5294TIP3   OH215845   1.839   3.057   0.888 -0.0223  0.3046  0.3721
 5294TIP3    H115846   1.856   3.048   0.982 -0.6013 -1.2744  0.3511
 5294TIP3    H215847   1.923   3.036   0.846 -0.7394 -3.4062  0.4296
 5295TIP3   OH215848   0.503   4.719   5.135 -0.2552  0.8222 -0.3869
 5295TIP3    H115849   0.580   4.674   5.169 -0.7526 -0.9540 -1.5062
 5295TIP3    H215850   0.539   4.792   5.084  0.7439 -0.4049 -1.4852
 5296TIP3   OH215851   5.668   3.090   0.653 -0.5092  0.1197  0.0171
 5296TIP3    H115852   5.662   2.994   0.649  0.5846  0.0617 -0.4502
 5296TIP3    H215853   5.721   3.114   0.578  1.3542  0.8858  1.5132
 5297TIP3   OH215854   1.662   1.521   0.626  0.4158  0.6094  0.1196
 5297TIP3    H115855   1.661   1.446   0.686  0.5683 -0.0564 -0.6985
 5297TIP3    H215856   1.662   1.597   0.684  2.6580 -0.0091  1.0493
 5298TIP3   OH215857   2.659   3.534   2.178  0.0662 -0.0315  0.3205
 5298TIP3    H115858   2.663   3.447   2.218 -0.8107  0.1220  0.7620
 5298TIP3    H215859   2.710   3.589   2.237  1.7216 -0.4633 -0.6272
 5299TIP3   OH215860   2.487   0.947   4.900 -0.0401  0.6864  0.2400
 5299TIP3    H115861   2.396   0.917   4.896  0.4258 -0.8450  0.0830
 5299TIP3    H215862   2.498   1.002   4.822 -0.5615 -0.0033 -0.3401
 5300TIP3   OH215863   5.899   2.848  -0.028 -0.1366  0.0223  0.0020
 5300TIP3    H115864   5.830   2.886   0.027 -1.3176 -0.0756 -1.3540
 5300TIP3    H215865   5.979   2.860   0.023 -1.1506  0.0169  1.7020
 5301TIP3   OH215866   2.001   4.967   3.069 -0.2907  0.1767  0.2372
 5301TIP3    H115867   2.046   4.995   2.989 -2.3780  0.9978 -0.7113
 5301TIP3    H215868   2.029   4.876   3.081  1.2906  0.5377 -0.5042
 5302TIP3   OH215869   0.476   3.602   4.296 -0.5327 -0.4161 -0.3969
 5302TIP3    H115870   0.430   3.566   4.372  1.6138 -1.4385  0.5052
 5302TIP3    H215871   0.511   3.686   4.327  0.2315 -0.7724 -0.2790
 5303TIP3   OH215872   2.519   2.356   0.086 -0.7284 -0.0926 -0.1619
 5303TIP3    H115873   2.424   2.347   0.096 -1.0285  2.0061 -0.7481
 5303TIP3    H215874   2.543   2.423   0.149  0.3451 -0.4379 -0.1886
 5304TIP3   OH215875   3.889   1.504   0.206 -0.3262 -0.2292  0.2602
 5304TIP3    H115876   3.932   1.427   0.242  0.2805 -0.5904 -1.1502
 5304TIP3    H215877   3.949   1.576   0.223  0.1568 -0.4716 -0.3674
 5305TIP3   OH215878   1.079   3.821   3.963  0.7273  0.2176  0.0223
 5305TIP3    H115879   1.120   3.742   3.928 -0.7749 -0.7603  0.3803
 5305TIP3    H215880   1.062   3.801   4.055 -0.1057  0.7644  0.0025
 5306TIP3   OH215881   4.289   0.434   2.054 -0.2947 -0.6543 -0.5395
 5306TIP3    H115882   4.216   0.384   2.017 -0.8335 -0.8664  0.7567
 5306TIP3    H215883   4.281   0.521   2.015 -1.5643 -0.5216 -0.0348
 5307TIP3   OH215884   4.597   3.989   4.867 -0.2335 -0.3908  0.3883
 5307TIP3    H115885   4.674   3.933   4.856 -0.8720 -1.4069  0.9467
 5307TIP3    H215886   4.630   4.078   4.852  1.2705 -0.6979  1.6196
 5308TIP3   OH215887   2.709   0.445   1.064  0.1486  0.2322  0.0839
 5308TIP3    H115888   2.687   0.533   1.092  0.3583  0.6752 -1.0928
 5308TIP3    H215889   2.637   0.419   1.006  0.9417  0.3194 -0.9646
 5309TIP3   OH215890   3.725   1.671   1.435  0.3686  0.7378 -0.5803
 5309TIP3    H115891   3.730   1.731   1.510  2.0966  0.2529 -0.2630
 5309TIP3    H215892   3.737   1.727   1.358  1.5779  0.8824 -0.3090
 5310TIP3   OH215893   6.223   4.822   4.607 -0.5034  0.6239 -0.3812
 5310TIP3    H115894   6.253   4.858   4.690  1.8843  0.4704 -1.0956
 5310TIP3    H215895   6.158   4.884   4.576 -0.4395  1.3975  0.9734
 5311TIP3   OH215896   3.535   4.430   1.392  0.3209  0.1714 -0.4200
 5311TIP3    H115897   3.556   4.444   1.300  0.9865  1.1927 -0.1332
 5311TIP3    H215898   3.614   4.458   1.439 -0.9388  2.2776  0.6036
 5312TIP3   OH215899   1.091   3.610   3.042  0.4216  0.5079  0.1903
 5312TIP3    H115900   1.167   3.637   2.991 -1.5513  1.0365 -2.6554
 5312TIP3    H215901   1.117   3.626   3.133  3.1273  2.1372 -0.7529
 5313TIP3   OH215902   6.494   3.579   4.908  0.3838 -0.0485  0.4476
 5313TIP3    H115903   6.488   3.520   4.833  1.8472  0.5337 -0.1832
 5313TIP3    H215904   6.447   3.535   4.978 -0.5022 -0.8920 -0.6464
 5314TIP3   OH215905   4.986   2.196   2.012  0.1640  0.0203 -0.4694
 5314TIP3    H115906   5.044   2.242   1.952  0.4843  0.1863 -0.0337
 5314TIP3    H215907   4.911   2.254   2.022  1.3900  1.3792  1.5611
 5315TIP3   OH215908   4.958   6.560   4.927  0.3721  0.5131 -0.9052
 5315TIP3    H115909   4.864   6.571   4.914  0.3108  1.0369 -0.0636
 5315TIP3    H215910   4.998   6.624   4.868  0.1868  0.6803 -0.8485
 5316TIP3   OH215911   3.945   1.091   0.001  0.2011  0.2205  0.6079
 5316TIP3    H115912   3.881   1.144  -0.046  0.1881 -1.8262 -1.8743
 5316TIP3    H215913   3.893   1.036   0.060 -0.5227 -1.7858 -1.7497
 5317TIP3   OH215914   6.013   3.392   3.075  0.4754  0.3142  0.4223
 5317TIP3    H115915   6.093   3.443   3.092  1.2105 -0.7840  0.3426
 5317TIP3    H215916   5.944   3.441   3.121  0.6538  2.7595 -1.6805
 5318TIP3   OH215917   3.634   2.650   0.690  0.2969 -0.6323  0.6476
 5318TIP3    H115918   3.666   2.740   0.698  1.4654 -1.0245  0.5989
 5318TIP3    H215919   3.581   2.650   0.611 -1.5901  0.5278  1.8279
 5319TIP3   OH215920   2.775   5.532   0.694 -0.1461  0.0421  0.6769
 5319TIP3    H115921   2.816   5.618   0.687  1.0319 -0.4615  1.0367
 5319TIP3    H215922   2.821   5.490   0.767 -0.1728 -1.1568  0.0260
 5320TIP3   OH215923   5.342   1.633   1.459  0.0924 -0.1261  0.5766
 5320TIP3    H115924   5.351   1.541   1.486  1.5690  0.0105  0.6487
 5320TIP3    H215925   5.373   1.634   1.368  1.4012  0.5010  1.0007
 5321TIP3   OH215926   6.453   0.221   1.714 -0.0726 -0.0948  0.3604
 5321TIP3    H115927   6.386   0.274   1.673 -0.7563 -1.1532  0.0630
 5321TIP3    H215928   6.412   0.188   1.794 -0.4992 -1.9858 -0.5798
 5322TIP3   OH215929   4.186   5.960   0.794 -0.1607  0.1404 -0.1669
 5322TIP3    H115930   4.176   5.913   0.877  0.4469 -1.0685 -0.7403
 5322TIP3    H215931   4.263   6.015   0.807  1.1334 -1.4937 -0.5121
 5323TIP3   OH215932   5.729   0.068   3.927 -0.6781  0.1213  0.6094
 5323TIP3    H115933   5.813   0.025   3.907 -1.9067 -1.0258 -2.6921
 5323TIP3    H215934   5.754   0.155   3.958  1.7748  0.6562 -2.4061
 5324TIP3   OH215935   5.968   5.608   1.721  0.4778 -0.8601 -0.0673
 5324TIP3    H115936   5.987   5.547   1.650  2.2089 -0.9386  0.4202
 5324TIP3    H215937   6.054   5.637   1.752 -0.1949 -1.0820  2.2269
 5325TIP3   OH215938   4.140   2.145   4.776  0.5007 -0.0709  0.3232
 5325TIP3    H115939   4.083   2.219   4.757 -0.4366 -0.6866  0.6516
 5325TIP3    H215940   4.124   2.126   4.869  2.9024  1.1339  1.0669
 5326TIP3   OH215941   6.072   0.432   1.323 -0.0448  0.6569 -0.3985
 5326TIP3    H115942   6.149   0.421   1.267  0.3173  0.7864  0.0607
 5326TIP3    H215943   5.999   0.399   1.271  0.1871  1.3591 -1.1745
 5327TIP3   OH215944   3.067   4.484   0.977  0.0454 -0.1158  0.3589
 5327TIP3    H115945   3.033   4.556   1.030  0.7673  1.1908 -0.8755
 5327TIP3    H215946   2.999   4.469   0.911  0.3408  0.1626 -0.0161
 5328TIP3   OH215947   6.137   1.283   1.035  0.1591 -0.0488  0.5555
 5328TIP3    H115948   6.107   1.313   0.949 -0.2674  2.0899  1.3896
 5328TIP3    H215949   6.218   1.332   1.050 -0.7651  1.0670  2.1454
 5329TIP3   OH215950   3.480   5.857   5.482  0.3612 -0.0045 -0.1236
 5329TIP3    H115951   3.499   5.943   5.445 -0.6498 -0.0349 -0.7569
 5329TIP3    H215952   3.519   5.859   5.570 -0.4892  1.4569  0.2440
 5330TIP3   OH215953   7.028   3.624   1.557  0.2941 -0.0655  0.3403
 5330TIP3    H115954   7.111   3.672   1.554  1.0125 -1.2400  0.6971
 5330TIP3    H215955   7.054   3.532   1.562 -1.0471 -0.4833 -0.0610
 5331TIP3   OH215956   7.171   3.382   2.526  0.0911 -0.3604  0.1214
 5331TIP3    H115957   7.162   3.330   2.606  1.5319  1.4483  1.5132
 5331TIP3    H215958   7.263   3.377   2.503  0.5687  2.5009  1.0159
 5332TIP3   OH215959   3.935   4.358   2.974 -0.6800  0.2152  0.4661
 5332TIP3    H115960   3.855   4.357   2.920 -0.7559 -2.0447  0.4908
 5332TIP3    H215961   4.006   4.367   2.911 -0.7956 -1.9710 -0.0842
 5333TIP3   OH215962   2.740   1.179   5.669 -0.2313  0.4179 -0.3174
 5333TIP3    H115963   2.790   1.165   5.750 -0.6813  0.1859 -0.0769
 5333TIP3    H215964   2.694   1.262   5.684 -2.5572 -0.9834  0.8447
 5334TIP3   OH215965   3.435   6.383   1.619 -0.6470 -0.5100  0.0847
 5334TIP3    H115966   3.480   6.370   1.703 -1.3622 -2.1443  0.2387
 5334TIP3    H215967   3.350   6.420   1.643 -1.4292 -2.3290  0.2291
 5335TIP3   OH215968   6.501   0.765   5.451  0.4242 -0.6385 -0.6097
 5335TIP3    H115969   6.573   0.731   5.505  0.9791 -0.6611 -1.3440
 5335TIP3    H215970   6.530   0.751   5.361 -0.0236  0.3346 -0.9236
 5336TIP3   OH215971   0.976   5.205   0.271 -0.0096  0.0442 -0.4796
 5336TIP3    H115972   1.040   5.186   0.203 -0.5594 -1.3869 -0.6279
 5336TIP3    H215973   1.028   5.208   0.352  0.3628 -0.2728 -0.7014
 5337TIP3   OH215974   5.972   6.153   3.959  0.6482 -0.3614 -0.2315
 5337TIP3    H115975   5.883   6.138   3.928  0.4054 -2.0938  1.1133
 5337TIP3    H215976   6.024   6.081   3.922  1.6035  0.8126 -1.2800
 5338TIP3   OH215977   3.965   4.979   1.992  0.4761  0.0971 -0.3702
 5338TIP3    H115978   3.981   4.901   1.939 -0.4714 -1.9505  2.1669
 5338TIP3    H215979   3.873   4.999   1.979  0.6838  0.7337 -0.9040
 5339TIP3   OH215980   3.695   2.078   4.907 -0.3308 -0.5396 -0.1040
 5339TIP3    H115981   3.734   2.021   4.974  1.5577 -0.0473 -0.7158
 5339TIP3    H215982   3.711   2.033   4.825 -0.4085  0.0372 -0.4405
 5340TIP3   OH215983   1.317   1.887   4.017  0.2827 -0.1660  0.5176
 5340TIP3    H115984   1.412   1.887   4.024  0.2236  0.4843  1.4665
 5340TIP3    H215985   1.290   1.971   4.055 -0.7494 -0.8862  1.4268
 5341TIP3   OH215986   0.011   6.796   3.186 -0.4530  0.1482 -0.5479
 5341TIP3    H115987  -0.020   6.800   3.276  0.0224 -1.4217 -0.2878
 5341TIP3    H215988   0.104   6.771   3.193 -0.6266 -0.8317 -1.4843
 5342TIP3   OH215989   4.054   5.501   5.022  0.8681 -0.1560  0.5520
 5342TIP3    H115990   3.962   5.489   5.047 -0.1131  1.6938 -1.7861
 5342TIP3    H215991   4.072   5.430   4.961  0.7506 -0.1040  0.4562
 5343TIP3   OH215992   6.402   6.325   5.563 -0.4573 -0.4852  0.1794
 5343TIP3    H115993   6.478   6.378   5.539 -0.0208  0.0695  2.5280
 5343TIP3    H215994   6.370   6.290   5.480  0.9942  1.0936 -1.1198
 5344TIP3   OH215995   0.349   6.018   4.969  0.1050 -0.3627  0.2661
 5344TIP3    H115996   0.323   6.069   4.891  0.8588 -1.1833 -0.5441
 5344TIP3    H215997   0.335   5.927   4.943  0.9337 -0.6717  0.8769
 5345TIP3   OH215998   1.423   5.970   4.110 -0.7795 -0.4543  0.2161
 5345TIP3    H115999   1.394   6.021   4.187 -0.5812 -0.5682  0.3661
 5345TIP3    H216000   1.462   5.891   4.147 -2.2103 -1.3311 -0.0322
 5346TIP3   OH216001   3.474   4.655   2.468 -0.4118  0.0727  0.1233
 5346TIP3    H116002   3.504   4.568   2.440 -0.8142 -0.9450  2.6162
 5346TIP3    H216003   3.383   4.659   2.438 -0.5866 -0.6473  0.5304
 5347TIP3   OH216004   2.657   1.999   0.075  0.5932 -0.1290 -0.2598
 5347TIP3    H116005   2.692   1.962  -0.006  0.6020 -0.9855  0.1287
 5347TIP3    H216006   2.734   2.015   0.130  0.5035 -0.5524 -0.0082
 5348TIP3   OH216007   3.665   2.042   2.942  0.2700  0.0150  0.3913
 5348TIP3    H116008   3.675   1.952   2.911  3.0049  0.5356 -0.5106
 5348TIP3    H216009   3.642   2.033   3.034  1.1475 -1.6411  0.4923
 5349TIP3   OH216010   6.496   6.674   4.665  0.5260 -0.1297 -0.2683
 5349TIP3    H116011   6.555   6.626   4.724  0.8702 -0.3046 -0.7478
 5349TIP3    H216012   6.522   6.765   4.674 -0.0175 -0.0395  0.5203
 5350TIP3   OH216013   6.798   5.134   1.811  0.3465 -0.1542  0.1757
 5350TIP3    H116014   6.858   5.073   1.853  0.5943 -1.5524 -2.0447
 5350TIP3    H216015   6.852   5.181   1.748 -0.2526  0.9705  0.4790
 5351TIP3   OH216016   6.201   2.783   5.338 -0.2930  0.3141 -0.2831
 5351TIP3    H116017   6.210   2.730   5.259 -0.1020 -0.1057  0.0128
 5351TIP3    H216018   6.225   2.872   5.311  1.4851 -0.1284 -0.3198
 5352TIP3   OH216019   1.868   2.585   2.730 -0.7364 -0.3089 -0.6869
 5352TIP3    H116020   1.856   2.491   2.717 -1.2843  0.0445 -3.1331
 5352TIP3    H216021   1.793   2.612   2.782 -1.6449 -0.9315 -1.6367
 5353TIP3   OH216022   7.054   5.897   3.355  0.6294 -0.3662  0.1315
 5353TIP3    H116023   7.003   5.818   3.340 -0.9211  0.2462  1.7300
 5353TIP3    H216024   7.066   5.935   3.268 -1.4810 -0.6816 -0.3496
 5354TIP3   OH216025   7.059   1.705   2.270 -0.2733 -0.3054  0.4439
 5354TIP3    H116026   7.154   1.706   2.267 -0.1211  1.1793  2.9029
 5354TIP3    H216027   7.032   1.791   2.236 -0.7010 -0.4999  0.2771
 5355TIP3   OH216028   3.312   5.824   4.040 -0.5314  0.2029  0.0048
 5355TIP3    H116029   3.219   5.804   4.025 -0.7759 -0.4843  2.1545
 5355TIP3    H216030   3.312   5.879   4.118  0.9569 -1.4087  1.2133
 5356TIP3   OH216031   7.149   6.039   1.012  0.4717  0.0966  0.3769
 5356TIP3    H116032   7.187   5.973   0.955  0.1977 -1.4438  1.8812
 5356TIP3    H216033   7.114   6.106   0.953  1.0209 -0.9461 -1.1824
 5357TIP3   OH216034   2.686   3.526   5.227  0.5216 -0.2283  0.4548
 5357TIP3    H116035   2.634   3.540   5.148 -0.1527 -2.6269  0.3816
 5357TIP3    H216036   2.749   3.459   5.203  0.9933 -0.2461  1.6783
 5358TIP3   OH216037   3.190   2.873   0.502  0.0851 -0.3684 -0.0874
 5358TIP3    H116038   3.244   2.906   0.431  1.0160 -0.1967  0.6686
 5358TIP3    H216039   3.123   2.940   0.514  0.0097 -0.3294 -0.7025
 5359TIP3   OH216040   5.122   3.673   0.962  0.2471 -0.0393  0.0271
 5359TIP3    H116041   5.154   3.618   1.033 -1.1379 -1.1302 -0.1469
 5359TIP3    H216042   5.133   3.762   0.994 -0.8186 -0.5146  1.8663
 5360TIP3   OH216043   5.011   3.989   2.013 -0.2665 -0.6755 -0.1408
 5360TIP3    H116044   4.930   4.022   2.052  1.2360  0.6394  2.0967
 5360TIP3    H216045   5.047   3.929   2.078 -1.0199 -4.0247 -2.5420
 5361TIP3   OH216046   5.464   6.747   3.798 -0.3906  0.3183 -0.0086
 5361TIP3    H116047   5.381   6.702   3.815 -0.2971  0.0911 -0.1472
 5361TIP3    H216048   5.474   6.807   3.872 -1.3973  1.4135 -0.7247
 5362TIP3   OH216049   0.789   2.864   5.358  0.5788  0.1185 -0.2625
 5362TIP3    H116050   0.861   2.877   5.420  0.2438  0.3978  0.0722
 5362TIP3    H216051   0.715   2.841   5.413  0.6087 -1.0078 -0.6704
 5363TIP3   OH216052   6.888   4.165   3.634 -0.2432  0.0644  0.5100
 5363TIP3    H116053   6.849   4.188   3.550 -1.2788  1.6925  1.3792
 5363TIP3    H216054   6.974   4.207   3.634  0.2282 -0.8767 -0.1586
 5364TIP3   OH216055   1.749   0.733   4.213 -0.1826 -0.2848  0.1773
 5364TIP3    H116056   1.716   0.775   4.133  1.0177  0.8774  0.2688
 5364TIP3    H216057   1.685   0.757   4.280  0.4504  1.4001  0.2174
 5365TIP3   OH216058   1.768   0.197   5.879  0.6222  0.1735 -0.0441
 5365TIP3    H116059   1.705   0.160   5.818  1.5329  0.9639 -1.5230
 5365TIP3    H216060   1.716   0.254   5.936 -0.0849  0.4189 -0.9157
 5366TIP3   OH216061   5.895   4.747   0.899 -0.6504 -0.2629  0.3176
 5366TIP3    H116062   5.873   4.839   0.916  0.1321  0.2897 -1.3946
 5366TIP3    H216063   5.978   4.733   0.944 -0.2823  0.1756 -0.2098
 5367TIP3   OH216064   6.898   3.251   0.441 -0.7738 -0.1620 -0.2646
 5367TIP3    H116065   6.988   3.258   0.410 -0.1524 -1.8356  1.0045
 5367TIP3    H216066   6.863   3.174   0.397 -0.6996 -1.0678  1.2025
 5368TIP3   OH216067   3.702   3.686   4.390 -0.1627 -0.6001  0.4386
 5368TIP3    H116068   3.635   3.707   4.456  0.1367  2.9117 -0.1825
 5368TIP3    H216069   3.684   3.747   4.319  3.5978  0.4122  0.1942
 5369TIP3   OH216070   1.559   4.185   2.148  0.2109  0.0439  0.3047
 5369TIP3    H116071   1.505   4.261   2.171 -1.7921 -0.8700 -1.0645
 5369TIP3    H216072   1.542   4.171   2.055  2.2472 -0.8085  0.0106
 5370TIP3   OH216073   2.716   1.750   1.225  0.2928  0.3245 -0.0796
 5370TIP3    H116074   2.693   1.838   1.254  0.6495  0.9007 -1.5095
 5370TIP3    H216075   2.742   1.760   1.134 -0.6268 -1.4188 -0.5800
 5371TIP3   OH216076   5.876   3.552   4.834 -0.2687 -0.1289 -0.2379
 5371TIP3    H116077   5.863   3.641   4.802  0.2594 -0.3895 -1.2340
 5371TIP3    H216078   5.964   3.553   4.872  0.1400 -0.4598 -1.1488
 5372TIP3   OH216079   6.770   1.854   3.006 -0.3787 -0.7936 -0.3176
 5372TIP3    H116080   6.848   1.813   3.044 -0.1626  0.2762  0.4552
 5372TIP3    H216081   6.796   1.876   2.917  1.0829  1.6431  0.6053
 5373TIP3   OH216082   3.646   2.972   4.343  0.1577  0.4342  0.8653
 5373TIP3    H116083   3.655   2.884   4.379  0.9847 -0.3485 -1.0889
 5373TIP3    H216084   3.709   2.975   4.271 -0.4445  2.3514  0.3478
 5374TIP3   OH216085   5.401   3.859   4.527 -0.0190 -0.1201  0.7043
 5374TIP3    H116086   5.329   3.909   4.566 -1.0559 -0.5474 -0.5839
 5374TIP3    H216087   5.358   3.798   4.468  1.3842 -0.8386  0.3800
 5375TIP3   OH216088   5.252   3.828   2.458  0.2397  0.3335  0.2521
 5375TIP3    H116089   5.204   3.886   2.517 -0.6102 -0.8830  0.7883
 5375TIP3    H216090   5.344   3.838   2.484  0.0282  0.9105  0.7943
 5376TIP3   OH216091   3.451   1.277   2.400 -0.2383  0.2575 -0.1781
 5376TIP3    H116092   3.458   1.201   2.459 -0.6154  0.3730  0.0227
 5376TIP3    H216093   3.540   1.311   2.393 -0.2923  0.6679  0.8993
 5377TIP3   OH216094   1.592   5.179   4.651 -0.0860  0.2636 -0.0532
 5377TIP3    H116095   1.549   5.096   4.671 -0.5544  0.7333  0.9711
 5377TIP3    H216096   1.616   5.173   4.558 -1.3920 -0.4362 -0.3594
 5378TIP3   OH216097   1.276   0.374   3.949  0.5670  0.6753  0.6626
 5378TIP3    H116098   1.288   0.280   3.941  0.2454  0.6619  0.2917
 5378TIP3    H216099   1.193   0.384   3.996 -0.0976  0.7631 -0.4783
 5379TIP3   OH216100   6.040   1.371   2.455 -0.4691  0.2130 -0.3115
 5379TIP3    H116101   5.967   1.430   2.435 -0.6259  0.2962  0.4653
 5379TIP3    H216102   6.015   1.288   2.415 -1.7715 -0.2208  1.2656
 5380TIP3   OH216103   1.840   6.132   1.686 -0.4516 -0.2166  0.0794
 5380TIP3    H116104   1.786   6.125   1.765  0.2219 -0.6768  0.5065
 5380TIP3    H216105   1.913   6.072   1.701  0.6970  1.0869 -0.0868
 5381TIP3   OH216106   6.901   3.100   4.048  0.2005 -0.0141 -0.2991
 5381TIP3    H116107   6.879   3.067   4.135  1.9290 -1.1910 -0.2621
 5381TIP3    H216108   6.938   3.187   4.063  1.8886 -0.7974  0.3502
 5382TIP3   OH216109   6.618   4.271   5.242 -0.0294 -0.6822  0.2616
 5382TIP3    H116110   6.560   4.316   5.181  0.3605 -0.9991 -0.3542
 5382TIP3    H216111   6.706   4.292   5.212  0.1861  0.0972  1.4153
 5383TIP3   OH216112   6.444   1.685   4.755 -0.4515  0.0200  0.0262
 5383TIP3    H116113   6.390   1.759   4.780 -1.1973 -0.2928 -0.5817
 5383TIP3    H216114   6.428   1.619   4.823  1.3014  0.8842  1.3447
 5384TIP3   OH216115   1.320   3.527   4.134  0.0839 -0.2015 -0.5446
 5384TIP3    H116116   1.378   3.456   4.108 -1.0990 -0.9596 -1.2127
 5384TIP3    H216117   1.359   3.561   4.214  0.3588 -2.0239  0.1528
 5385TIP3   OH216118   5.145   1.443   4.290  0.4921  0.9853 -0.0150
 5385TIP3    H116119   5.206   1.486   4.349  0.1156 -0.0853  1.1925
 5385TIP3    H216120   5.062   1.441   4.337 -0.0543  0.9251 -0.9493
 5386TIP3   OH216121   4.104   3.749   0.479 -0.6295 -0.2141 -0.4882
 5386TIP3    H116122   4.122   3.780   0.390 -1.6570  0.4359 -0.4970
 5386TIP3    H216123   4.186   3.761   0.525 -0.0798 -0.5553 -1.3430
 5387TIP3   OH216124   6.022   3.322   1.719  0.6837 -0.3030 -0.3135
 5387TIP3    H116125   5.980   3.397   1.761  1.9255 -0.4062  1.2019
 5387TIP3    H216126   5.950   3.274   1.677 -0.6955 -0.3240  1.9235
 5388TIP3   OH216127   6.898   2.111   4.258 -0.2151 -0.0789 -0.0644
 5388TIP3    H116128   6.899   2.141   4.349  1.9569 -1.7738  0.5613
 5388TIP3    H216129   6.839   2.171   4.214 -2.7813 -0.2603  2.7944
 5389TIP3   OH216130   6.195   2.002   1.106  0.5391 -0.0640 -0.7138
 5389TIP3    H116131   6.279   2.019   1.148 -0.0444  0.1833  0.3729
 5389TIP3    H216132   6.203   1.913   1.071  0.7652 -0.5834  0.6116
 5390TIP3   OH216133   1.590   3.950   3.544  0.1369  0.3562  0.5062
 5390TIP3    H116134   1.622   4.040   3.556  1.0672 -0.0814  1.5151
 5390TIP3    H216135   1.532   3.955   3.469  0.5169  1.7267  0.2738
 5391TIP3   OH216136   4.845   3.837   3.409  0.6831  0.2542  0.3182
 5391TIP3    H116137   4.901   3.852   3.334 -2.0597  1.7524 -1.6187
 5391TIP3    H216138   4.760   3.874   3.384 -1.8940 -3.6901  2.1198
 5392TIP3   OH216139   0.119   3.584   0.858 -0.0986  0.0955 -0.0659
 5392TIP3    H116140   0.124   3.669   0.813  0.1689  0.4346  0.5895
 5392TIP3    H216141   0.079   3.604   0.942  0.1895 -0.3915  0.1924
 5393TIP3   OH216142   0.597   3.612   2.784 -0.5913 -0.2124 -0.2193
 5393TIP3    H116143   0.507   3.581   2.791 -0.2761 -0.9079  0.9035
 5393TIP3    H216144   0.620   3.597   2.692 -1.9221  0.8925 -0.7728
 5394TIP3   OH216145   5.954   4.573   2.633  0.8015 -0.5388  0.1935
 5394TIP3    H116146   5.991   4.541   2.716  0.7831 -0.9889  0.0344
 5394TIP3    H216147   5.883   4.511   2.613 -0.8172  0.9377  1.0653
 5395TIP3   OH216148   0.492   3.521   1.483  0.4634  0.0731 -0.1523
 5395TIP3    H116149   0.454   3.441   1.447 -0.0742  0.9112 -1.5452
 5395TIP3    H216150   0.519   3.497   1.571 -1.1214 -1.2162  0.0365
 5396TIP3   OH216151   0.410   6.521   5.791  0.5280 -0.4804  0.7851
 5396TIP3    H116152   0.379   6.598   5.742  1.6690 -0.5362 -0.0649
 5396TIP3    H216153   0.409   6.451   5.727  3.1290 -0.3165  0.4605
 5397TIP3   OH216154   3.665   5.950   0.870 -0.2192  0.5048 -0.6750
 5397TIP3    H116155   3.640   6.030   0.915 -2.6347 -0.2474 -0.5389
 5397TIP3    H216156   3.731   5.910   0.926  0.6204  2.0967 -0.4721
 5398TIP3   OH216157   4.912   6.582   1.753 -0.1986  0.0778 -0.1229
 5398TIP3    H116158   4.938   6.515   1.817  0.7495 -0.3294 -0.9132
 5398TIP3    H216159   4.850   6.637   1.800  0.2428 -0.3997  1.0499
 5399TIP3   OH216160   5.446   4.430   3.971 -0.1863 -0.5904 -0.0311
 5399TIP3    H116161   5.523   4.422   4.027  0.2575  0.6655 -0.4285
 5399TIP3    H216162   5.445   4.349   3.919 -0.7709 -1.9069  1.9442
 5400TIP3   OH216163   4.407   1.536   3.280  0.0821 -0.0113  0.6170
 5400TIP3    H116164   4.440   1.517   3.368 -0.2095 -0.1740  0.6895
 5400TIP3    H216165   4.486   1.537   3.225  0.4778  1.8061  1.1669
 5401TIP3   OH216166   4.945   1.049   2.082  0.2933 -0.6719  0.7341
 5401TIP3    H116167   5.030   1.047   2.127  0.2630 -0.8865  0.7809
 5401TIP3    H216168   4.943   1.135   2.040  0.1218 -0.2705  1.5339
 5402TIP3   OH216169   1.236   4.164   3.645 -0.0531  0.3867 -0.3978
 5402TIP3    H116170   1.144   4.160   3.670 -0.6106 -0.4348 -2.3624
 5402TIP3    H216171   1.284   4.162   3.728 -1.7916  1.9445  0.7206
 5403TIP3   OH216172   6.119   0.070   1.827  0.3166 -0.4454  0.1649
 5403TIP3    H116173   6.134   0.011   1.753  1.7598  0.4200 -0.2503
 5403TIP3    H216174   6.030   0.103   1.812 -0.5255 -2.4264  0.3797
 5404TIP3   OH216175   0.095   3.401   1.180 -0.2609 -0.3616  0.1983
 5404TIP3    H116176   0.050   3.485   1.166  2.0674  0.9342 -0.1257
 5404TIP3    H216177   0.095   3.359   1.094  1.1596  0.7541 -0.3919
 5405TIP3   OH216178   0.628   1.675   0.457 -0.5840 -0.7172 -0.8746
 5405TIP3    H116179   0.625   1.582   0.477 -2.1723 -0.9614 -1.9963
 5405TIP3    H216180   0.646   1.718   0.541  2.3383 -2.0756 -0.6941
 5406TIP3   OH216181   3.378   5.230   3.909 -0.3448 -0.6239 -0.2617
 5406TIP3    H116182   3.290   5.196   3.895 -0.3810 -0.1334 -1.3821
 5406TIP3    H216183   3.366   5.325   3.914  0.2410 -0.4510 -1.6881
 5407TIP3   OH216184   5.901   3.349   5.194  0.1718  0.6960 -0.0660
 5407TIP3    H116185   5.905   3.394   5.278 -1.5642  0.4124  0.2072
 5407TIP3    H216186   5.879   3.258   5.216  1.2247  0.2399 -0.7581
 5408TIP3   OH216187   3.265   1.518   0.203 -0.4414 -0.5424  0.5647
 5408TIP3    H116188   3.334   1.454   0.222  0.0833  0.2097  1.2434
 5408TIP3    H216189   3.313   1.600   0.187 -0.8879 -0.8121 -2.8479
 5409TIP3   OH216190   0.870   1.305   3.549  0.1746 -0.3501  0.0065
 5409TIP3    H116191   0.934   1.319   3.479  1.1091 -0.7803  0.7585
 5409TIP3    H216192   0.893   1.369   3.616 -0.4619 -0.2192  0.1058
 5410TIP3   OH216193   3.758   4.893   1.157  0.2107  0.0365 -0.3155
 5410TIP3    H116194   3.685   4.846   1.117  0.5552 -1.0537  0.3055
 5410TIP3    H216195   3.817   4.913   1.084  0.3872 -1.1148 -0.4957
 5411TIP3   OH216196   4.298   1.042   4.752  0.1401  0.8904  0.1110
 5411TIP3    H116197   4.317   1.104   4.822  3.1633  0.1029  0.1310
 5411TIP3    H216198   4.212   1.068   4.718  0.4380  3.8269  1.3858
 5412TIP3   OH216199   0.978   3.760   1.987  0.4038 -0.4243 -0.0105
 5412TIP3    H116200   0.923   3.837   1.972  0.6688 -0.0872  0.6935
 5412TIP3    H216201   1.066   3.788   1.961  0.4801 -0.5243  0.1378
 5413TIP3   OH216202   4.204   3.369   4.484 -0.1143  0.0351 -0.3645
 5413TIP3    H116203   4.127   3.326   4.521 -0.5320  1.3808  0.3886
 5413TIP3    H216204   4.184   3.462   4.489  2.4882  0.5962  2.0389
 5414TIP3   OH216205   7.167   3.153   0.645 -1.1048 -0.4304  0.1313
 5414TIP3    H116206   7.195   3.065   0.671  0.0810 -0.2123 -0.3239
 5414TIP3    H216207   7.178   3.154   0.550 -0.4937  0.4053  0.2057
 5415TIP3   OH216208   3.728   6.682   5.759 -0.7557  0.1102 -0.1463
 5415TIP3    H116209   3.695   6.756   5.708 -0.0396  0.2932 -0.3602
 5415TIP3    H216210   3.711   6.705   5.850  0.1002  0.8669 -0.1658
 5416TIP3   OH216211   3.951   0.757   2.550 -0.3325 -0.6037 -0.1436
 5416TIP3    H116212   3.983   0.670   2.573  2.1838  0.7435  1.9658
 5416TIP3    H216213   3.898   0.783   2.626 -2.5333 -0.8824 -1.5029
 5417TIP3   OH216214   6.511   6.326   3.294 -0.4604 -0.6493  0.0048
 5417TIP3    H116215   6.447   6.277   3.243 -0.6740 -2.2117  1.6591
 5417TIP3    H216216   6.460   6.388   3.346 -0.5305 -0.9745  0.3331
 5418TIP3   OH216217   5.430   6.366   2.208  0.0324  0.3428  0.3400
 5418TIP3    H116218   5.494   6.411   2.153  1.5875  0.9223  2.4993
 5418TIP3    H216219   5.353   6.422   2.204 -0.9039 -0.9031 -3.1474
 5419TIP3   OH216220   4.646   4.049   2.557 -0.8865  0.1135  0.3070
 5419TIP3    H116221   4.720   4.080   2.505 -1.3887 -1.9802 -1.8680
 5419TIP3    H216222   4.570   4.095   2.521 -0.7944  1.8170  2.1387
 5420TIP3   OH216223   5.840   1.421   4.115  0.0128  0.0409 -0.3521
 5420TIP3    H116224   5.841   1.328   4.095 -1.4599 -0.2924  0.8792
 5420TIP3    H216225   5.927   1.452   4.093  1.0220 -1.9430  0.5818
 5421TIP3   OH216226   5.655   2.842   0.435  0.3626 -0.1872 -0.3530
 5421TIP3    H116227   5.673   2.784   0.510  0.6079  2.2985  1.6408
 5421TIP3    H216228   5.728   2.827   0.375  2.1286  0.2964  1.5719
 5422TIP3   OH216229   2.830   4.944   4.534  0.2370  0.5966  0.0029
 5422TIP3    H116230   2.910   4.934   4.585  1.4592  0.3290 -1.8607
 5422TIP3    H216231   2.777   4.868   4.557  0.7525  0.4856  0.8593
 5423TIP3   OH216232   1.862   1.111   2.632 -0.0004  0.5511  0.3330
 5423TIP3    H116233   1.843   1.153   2.548  1.3380  0.7535  0.1049
 5423TIP3    H216234   1.952   1.079   2.623 -0.9604 -2.5024  0.4691
 5424TIP3   OH216235   0.620   0.999   1.213  0.3484  0.0528 -0.4098
 5424TIP3    H116236   0.540   0.972   1.168  1.0623 -2.2619 -0.4032
 5424TIP3    H216237   0.666   1.053   1.149 -1.4666  2.0299 -0.1744
 5425TIP3   OH216238   5.065   3.685   1.975  0.1754 -0.8096  0.5947
 5425TIP3    H116239   4.972   3.680   1.954  0.0087  2.4612  0.0278
 5425TIP3    H216240   5.067   3.725   2.062  1.0269 -0.5705  0.4745
 5426TIP3   OH216241   0.955   2.022   1.914 -0.3652 -0.6329  0.2289
 5426TIP3    H116242   0.874   1.991   1.874 -0.3189  0.6566 -0.9412
 5426TIP3    H216243   0.927   2.079   1.985 -0.4459 -2.1126  1.4386
 5427TIP3   OH216244   0.327   4.794   2.711  0.2392 -0.2620  0.0751
 5427TIP3    H116245   0.291   4.868   2.662 -0.0948 -0.8687 -0.6065
 5427TIP3    H216246   0.250   4.747   2.743  0.2955 -2.2813 -2.4375
 5428TIP3   OH216247   2.911   5.974   3.858  0.4042  0.2138 -0.4890
 5428TIP3    H116248   2.925   5.967   3.952 -1.4113 -1.0038 -0.2598
 5428TIP3    H216249   2.955   6.055   3.833  1.3771  0.2805  1.2995
 5429TIP3   OH216250   3.462   3.351   2.839  0.0316  0.3396  0.6036
 5429TIP3    H116251   3.371   3.365   2.811  0.3556 -1.4335 -1.6717
 5429TIP3    H216252   3.499   3.440   2.846 -1.4579  1.0332  0.0528
 5430TIP3   OH216253   7.010   1.237   4.457 -0.5926 -0.2645  0.3700
 5430TIP3    H116254   7.095   1.203   4.485  0.5130  0.1161 -2.2375
 5430TIP3    H216255   6.992   1.309   4.517  0.3784 -1.0410  1.6501
 5431TIP3   OH216256   4.731   0.263   3.698  0.0437  0.4639  0.2317
 5431TIP3    H116257   4.740   0.323   3.625 -0.6271  1.2208  0.7592
 5431TIP3    H216258   4.807   0.281   3.754  1.5578 -1.3493 -1.1072
 5432TIP3   OH216259   5.877   3.142   1.361 -0.2526 -0.1149  0.4222
 5432TIP3    H116260   5.878   3.183   1.275 -3.2543 -0.6146  0.0347
 5432TIP3    H216261   5.944   3.074   1.356  0.0530  0.2664 -1.3101
 5433TIP3   OH216262   5.589   1.755   5.301  0.1250  0.1573 -0.1184
 5433TIP3    H116263   5.646   1.814   5.351  1.3200 -0.1959 -0.9992
 5433TIP3    H216264   5.649   1.689   5.266 -0.9038 -0.4740 -0.7309
 5434TIP3   OH216265   4.803   5.095   0.248  0.1558  0.3031  0.2914
 5434TIP3    H116266   4.744   5.170   0.248 -2.1376 -1.3558  2.0499
 5434TIP3    H216267   4.818   5.076   0.340  0.3087 -1.6499 -0.0940
 5435TIP3   OH216268   5.085   5.720   1.337 -0.1863 -0.1606 -0.0531
 5435TIP3    H116269   5.129   5.637   1.358 -0.6753 -0.5960 -0.6961
 5435TIP3    H216270   5.036   5.701   1.257 -0.2870  0.7640 -0.2195
 5436TIP3   OH216271   3.868   4.327   0.168  0.0930 -0.0740  0.5447
 5436TIP3    H116272   3.793   4.382   0.145  0.3085 -0.8606 -2.4667
 5436TIP3    H216273   3.835   4.237   0.158  1.4239 -0.4366 -1.2080
 5437TIP3   OH216274   2.825   1.217   2.636  0.5519 -0.5799  0.2635
 5437TIP3    H116275   2.868   1.135   2.612  0.6549 -1.2511  2.4516
 5437TIP3    H216276   2.752   1.190   2.692 -1.4848  0.6746 -1.6384
 5438TIP3   OH216277   5.289   4.011   0.434  0.7136 -0.1517 -0.1105
 5438TIP3    H116278   5.223   4.072   0.402  1.3178 -0.5336 -2.2674
 5438TIP3    H216279   5.240   3.934   0.462  0.0671  0.6888  1.1371
 5439TIP3   OH216280   0.252   4.247   3.177  0.3408 -0.7468 -0.7480
 5439TIP3    H116281   0.210   4.181   3.232 -0.0945 -0.0856 -0.2750
 5439TIP3    H216282   0.202   4.327   3.191 -0.1450 -0.6834 -2.5570
 5440TIP3   OH216283   0.528   0.597   3.393 -0.3846  0.4997  0.0851
 5440TIP3    H116284   0.561   0.507   3.385 -1.2700  0.1431  0.3390
 5440TIP3    H216285   0.571   0.644   3.322 -0.5434 -0.3172 -0.5712
 5441TIP3   OH216286   0.469   0.516   1.843 -0.0624  0.1789  0.2187
 5441TIP3    H116287   0.435   0.505   1.754  0.9951  1.5223 -0.3886
 5441TIP3    H216288   0.556   0.553   1.830 -0.0577  0.7871  1.8389
 5442TIP3   OH216289   1.089   6.782   5.323 -0.2147 -0.1221 -0.7278
 5442TIP3    H116290   1.006   6.751   5.359 -0.9566  0.6469 -1.7216
 5442TIP3    H216291   1.150   6.781   5.397 -0.8847 -1.4793 -0.1781
 5443TIP3   OH216292   5.088   3.831   2.218 -0.3237  0.4807 -0.4450
 5443TIP3    H116293   5.036   3.883   2.278  0.1538 -0.5681  0.9264
 5443TIP3    H216294   5.163   3.801   2.270 -1.0738 -2.3852 -0.8317
 5444TIP3   OH216295   3.543   4.392   5.214 -0.1571  0.4381 -0.2927
 5444TIP3    H116296   3.450   4.380   5.199 -0.0280 -0.4008 -0.4867
 5444TIP3    H216297   3.575   4.436   5.135 -0.5454  1.6335  0.1903
 5445TIP3   OH216298   6.379   0.943   4.778 -0.4304 -0.1539 -1.0102
 5445TIP3    H116299   6.468   0.921   4.751 -0.1710  0.8309 -0.9874
 5445TIP3    H216300   6.390   1.002   4.852 -1.1208 -0.5628 -0.5708
 5446TIP3   OH216301   1.076   3.784   0.046 -0.4497  0.1226  0.1904
 5446TIP3    H116302   1.141   3.837  -0.001  1.2231 -1.4967  0.5920
 5446TIP3    H216303   1.026   3.741  -0.024 -0.8400  1.0141 -0.1101
 5447TIP3   OH216304   3.823   1.404   1.411  0.2417  0.0893 -0.0731
 5447TIP3    H116305   3.786   1.492   1.417 -0.5893 -0.2855  0.4633
 5447TIP3    H216306   3.749   1.349   1.384  0.4984 -0.6090  0.6153
 5448TIP3   OH216307   6.143   1.198   3.126 -0.4704 -0.0488  0.1754
 5448TIP3    H116308   6.138   1.118   3.073  0.3890 -0.1725  0.2687
 5448TIP3    H216309   6.139   1.269   3.062 -3.2913 -0.0588  0.2030
 5449TIP3   OH216310   4.991   4.407   1.197  0.1939 -0.2965  0.0506
 5449TIP3    H116311   4.925   4.470   1.168 -0.3795 -0.6481  0.5619
 5449TIP3    H216312   5.041   4.386   1.118 -1.9926 -2.0056 -1.0042
 5450TIP3   OH216313   3.246   0.709   2.494  0.5109  0.4658  0.9935
 5450TIP3    H116314   3.239   0.799   2.527  2.2984  1.1902 -0.4243
 5450TIP3    H216315   3.311   0.668   2.552  0.8905  0.5920  0.6592
 5451TIP3   OH216316   6.538   4.926   3.183 -0.0244  0.0088 -0.5506
 5451TIP3    H116317   6.497   4.885   3.107  0.0187  0.4365 -0.8115
 5451TIP3    H216318   6.468   4.933   3.248 -0.5014  1.1420 -1.1544
 5452TIP3   OH216319   5.060   3.846   0.449 -0.4584  0.0045  0.1385
 5452TIP3    H116320   5.019   3.916   0.500  0.5233 -1.2474  2.8587
 5452TIP3    H216321   4.987   3.791   0.420 -1.0915  1.0620 -0.2914
 5453TIP3   OH216322   0.706   6.263   1.863  0.7198  0.3674 -0.0316
 5453TIP3    H116323   0.746   6.287   1.947  1.0433 -0.4749  0.0606
 5453TIP3    H216324   0.706   6.167   1.863 -2.5927  0.2475  0.6237
 5454TIP3   OH216325   1.723   3.716   3.461 -0.3264  0.0547  0.2093
 5454TIP3    H116326   1.748   3.800   3.501 -0.2891 -0.9263  2.4097
 5454TIP3    H216327   1.806   3.680   3.429  0.2132 -0.4626  2.0351
 5455TIP3   OH216328   0.344   3.705   1.061 -0.1567 -0.1286 -0.3179
 5455TIP3    H116329   0.312   3.616   1.077 -2.4690  0.2656 -2.1342
 5455TIP3    H216330   0.375   3.703   0.971  2.0237  0.3872  0.3586
 5456TIP3   OH216331   2.312   6.772   4.154 -0.2032 -0.2305 -0.3157
 5456TIP3    H116332   2.354   6.708   4.212 -1.2537  0.8737  1.7636
 5456TIP3    H216333   2.339   6.857   4.188 -1.3574  0.4605 -1.0705
 5457TIP3   OH216334   6.916   5.545   4.754 -0.2347 -0.4796 -0.2423
 5457TIP3    H116335   6.874   5.591   4.682 -0.9895  1.5096  1.3738
 5457TIP3    H216336   6.890   5.453   4.742  0.2832 -0.3556 -2.8470
 5458TIP3   OH216337   4.698   6.736   0.407  0.2842  0.3034 -0.3834
 5458TIP3    H116338   4.686   6.694   0.492 -0.8383 -1.2664 -1.2600
 5458TIP3    H216339   4.792   6.734   0.391  0.3693 -0.6767  0.2036
 5459TIP3   OH216340   3.892   0.661   3.988 -0.5843 -0.3550 -0.0137
 5459TIP3    H116341   3.957   0.730   3.976 -0.0972 -0.5225  1.5276
 5459TIP3    H216342   3.942   0.580   3.986 -1.1182 -0.6874 -1.5338
 5460TIP3   OH216343   5.592   2.636   5.773  0.4508 -0.5259  0.4279
 5460TIP3    H116344   5.670   2.688   5.753 -2.0471  4.0150  1.1478
 5460TIP3    H216345   5.613   2.591   5.854  2.4375  0.2778  0.4106
 5461TIP3   OH216346   4.728   1.755   2.003  0.2216 -0.8906  0.2587
 5461TIP3    H116347   4.662   1.772   2.070  0.7845 -1.1525  0.8955
 5461TIP3    H216348   4.720   1.828   1.941 -0.6896 -0.9491  0.2989
 5462TIP3   OH216349   5.974   4.162   3.744 -0.0827 -0.2836 -0.4383
 5462TIP3    H116350   6.060   4.169   3.788  0.4228  2.1811 -1.6539
 5462TIP3    H216351   5.912   4.148   3.816  0.8130  2.8032  1.1111
 5463TIP3   OH216352   2.703   4.548   5.667  0.6130  0.0986 -0.0706
 5463TIP3    H116353   2.779   4.521   5.719  0.5042  1.3623  0.7829
 5463TIP3    H216354   2.666   4.466   5.634  2.3483 -0.5453 -0.5248
 5464TIP3   OH216355   5.193   6.505   1.843 -0.5079  0.0170  0.4765
 5464TIP3    H116356   5.210   6.422   1.799 -2.9510 -0.6857  0.7189
 5464TIP3    H216357   5.161   6.480   1.929  0.8977  1.3047  1.4208
 5465TIP3   OH216358   1.605   5.072   3.331  0.0042 -0.2212 -0.0965
 5465TIP3    H116359   1.624   5.028   3.413  0.8041  0.9905  0.4060
 5465TIP3    H216360   1.648   5.019   3.264 -0.1111 -0.8673  0.3325
 5466TIP3   OH216361   0.052   3.129   0.375 -0.9372 -0.4375 -0.0295
 5466TIP3    H116362   0.126   3.083   0.335 -0.7486 -0.6572  0.5625
 5466TIP3    H216363  -0.015   3.132   0.306 -0.4173 -0.3219 -0.5355
 5467TIP3   OH216364   2.597   0.571   4.216  0.2973  0.0625 -0.0002
 5467TIP3    H116365   2.605   0.615   4.301  0.3984 -0.4235  0.2486
 5467TIP3    H216366   2.566   0.639   4.156  1.8350  0.8528  0.0422
 5468TIP3   OH216367   2.346   0.088   1.647  0.1977  0.2774 -0.0323
 5468TIP3    H116368   2.253   0.094   1.628  0.4749  2.5519 -1.1161
 5468TIP3    H216369   2.354   0.116   1.738 -0.3292 -2.1829  0.8428
 5469TIP3   OH216370   2.362   6.390   2.381 -0.0024  0.2719  0.0660
 5469TIP3    H116371   2.373   6.463   2.319  1.4741  0.8362  0.9228
 5469TIP3    H216372   2.435   6.400   2.442 -1.4760 -0.1716  2.0009
 5470TIP3   OH216373   3.981   1.610   2.547 -0.5089  0.4035 -0.6877
 5470TIP3    H116374   4.047   1.602   2.616 -0.6836 -0.8680 -0.6566
 5470TIP3    H216375   3.983   1.526   2.502 -1.6967  0.5700 -1.0669
 5471TIP3   OH216376   2.282   2.986   5.716  0.3103 -0.4083 -0.1966
 5471TIP3    H116377   2.243   2.903   5.691 -0.0075  0.1184 -1.5338
 5471TIP3    H216378   2.360   2.962   5.766  1.1405 -1.5570 -1.9417
 5472TIP3   OH216379   3.400   3.049   2.678  0.2243  0.2806  0.3115
 5472TIP3    H116380   3.313   3.088   2.672  0.2990  0.3768 -0.1604
 5472TIP3    H216381   3.384   2.955   2.689  0.0605  0.1444 -0.9023
 5473TIP3   OH216382   1.986   4.351   3.452 -0.2970 -0.2950 -0.1730
 5473TIP3    H116383   1.964   4.404   3.376 -1.6734 -0.8107 -0.1756
 5473TIP3    H216384   2.013   4.414   3.519  2.7270  0.0485 -1.5897
 5474TIP3   OH216385   2.746   0.157   5.824 -0.0844 -0.3822 -0.1660
 5474TIP3    H116386   2.727   0.247   5.797 -1.2477 -1.3632 -2.9177
 5474TIP3    H216387   2.672   0.134   5.881 -1.1981 -0.4180 -1.5824
 5475TIP3   OH216388   3.188   5.796   5.314  0.2845 -0.1583 -0.3077
 5475TIP3    H116389   3.241   5.852   5.257  0.9549  1.5035  1.8252
 5475TIP3    H216390   3.122   5.854   5.351 -0.5110 -1.3213  0.1809
 5476TIP3   OH216391   3.982   6.317   1.783  0.4146  0.3393  0.2183
 5476TIP3    H116392   3.926   6.315   1.706 -1.7654 -0.5929  1.7153
 5476TIP3    H216393   4.070   6.299   1.750 -0.5387 -0.7093 -1.9477
 5477TIP3   OH216394   0.959   5.417   0.779 -0.1762  0.2763 -0.2295
 5477TIP3    H116395   0.970   5.386   0.869 -2.1651  1.3998  0.4644
 5477TIP3    H216396   1.038   5.468   0.762  1.4140 -1.9814 -0.0840
 5478TIP3   OH216397   5.914   1.271   1.207 -0.5944 -0.1023 -0.6947
 5478TIP3    H116398   5.994   1.313   1.175 -1.1528  0.7377 -1.0081
 5478TIP3    H216399   5.929   1.177   1.194  0.2478  0.0613 -0.9491
 5479TIP3   OH216400   3.144   3.893   0.348 -1.0270 -0.0927  0.1896
 5479TIP3    H116401   3.234   3.864   0.331 -0.7920  1.1683 -0.9781
 5479TIP3    H216402   3.155   3.973   0.401 -1.3636  0.7373 -0.9475
 5480TIP3   OH216403   6.185   0.193   2.948 -0.0663 -0.0832 -0.3502
 5480TIP3    H116404   6.194   0.288   2.953  0.7688  0.0009 -2.4202
 5480TIP3    H216405   6.091   0.177   2.956 -0.0459  0.6682  2.3099
 5481TIP3   OH216406   1.839   5.664   1.147  0.2427 -0.4553 -0.2299
 5481TIP3    H116407   1.897   5.682   1.221  0.4650 -0.1115 -0.4817
 5481TIP3    H216408   1.862   5.575   1.120  1.4612  0.0708 -1.0279
 5482TIP3   OH216409   1.798   4.368   5.865  0.0032  0.1604 -0.6141
 5482TIP3    H116410   1.818   4.307   5.795 -1.8732 -0.6973 -0.4475
 5482TIP3    H216411   1.713   4.405   5.842 -0.8447 -0.4088  1.3524
 5483TIP3   OH216412   5.860   2.688   3.706  0.5294  0.4324 -0.0192
 5483TIP3    H116413   5.796   2.660   3.772  1.7117 -2.6556 -0.0102
 5483TIP3    H216414   5.811   2.690   3.624  0.1414 -0.8621  0.1544
 5484TIP3   OH216415   0.361   4.828   0.235 -0.4438 -0.3707 -0.0263
 5484TIP3    H116416   0.401   4.759   0.181 -1.2961  0.3085 -1.6085
 5484TIP3    H216417   0.425   4.900   0.234  0.6552 -1.2335  2.0105
 5485TIP3   OH216418   0.386   3.203   3.368  0.6326  0.0269 -0.0572
 5485TIP3    H116419   0.305   3.158   3.346  1.3759 -1.5641  0.3413
 5485TIP3    H216420   0.359   3.272   3.429 -0.2834 -1.3201  1.1392
 5486TIP3   OH216421   4.365   5.781   4.452  0.6548  0.2584 -0.5719
 5486TIP3    H116422   4.437   5.821   4.500  0.6873 -0.9566  0.4381
 5486TIP3    H216423   4.350   5.840   4.378  1.8346  1.1926 -0.1017
 5487TIP3   OH216424   0.578   1.517   3.133 -0.1522 -0.0103  0.1345
 5487TIP3    H116425   0.605   1.479   3.216 -2.3677  1.9427  1.8939
 5487TIP3    H216426   0.484   1.533   3.143 -0.2628  1.3815 -2.3035
 5488TIP3   OH216427   2.671   4.109   0.758 -0.4732  0.8105 -0.5943
 5488TIP3    H116428   2.638   4.153   0.680  0.4243  0.0287 -1.4450
 5488TIP3    H216429   2.621   4.028   0.764 -0.2074  0.6392 -0.6452
 5489TIP3   OH216430   0.782   4.635   0.085 -0.5901 -0.0447  0.0475
 5489TIP3    H116431   0.745   4.722   0.070 -0.9793 -0.1972  0.1220
 5489TIP3    H216432   0.857   4.631   0.026 -1.3970 -0.1939 -0.9845
 5490TIP3   OH216433   2.567   4.202   0.233 -0.6348 -0.2013 -0.2775
 5490TIP3    H116434   2.615   4.284   0.250 -1.1584 -0.1020  0.7866
 5490TIP3    H216435   2.521   4.218   0.151  0.7808 -0.1299 -1.0844
 5491TIP3   OH216436   2.504   5.471   2.819 -0.5257 -0.2896  0.0331
 5491TIP3    H116437   2.470   5.559   2.801  0.6618 -0.1284 -1.7217
 5491TIP3    H216438   2.495   5.460   2.913 -2.2819  1.0275  0.0645
 5492TIP3   OH216439   0.760   6.663   4.875  0.4710  0.3552  0.1091
 5492TIP3    H116440   0.841   6.708   4.852 -0.3889  1.1709 -1.4787
 5492TIP3    H216441   0.692   6.707   4.823 -1.0169 -0.2385  1.4625
 5493TIP3   OH216442   5.608   4.594   4.636 -0.1006 -0.4541 -0.8063
 5493TIP3    H116443   5.642   4.617   4.549 -0.4279 -0.6593 -0.9893
 5493TIP3    H216444   5.586   4.678   4.677 -0.4973 -0.3888 -1.1471
 5494TIP3   OH216445   0.408   5.180   4.306  0.0961  0.4905  0.0863
 5494TIP3    H116446   0.444   5.269   4.298 -0.2589  0.5511 -1.0751
 5494TIP3    H216447   0.432   5.152   4.394 -0.4910  2.0458  0.7745
 5495TIP3   OH216448   1.995   1.677   5.624 -0.1197 -0.1229 -0.4894
 5495TIP3    H116449   2.056   1.741   5.588  0.3884 -0.6556 -0.5998
 5495TIP3    H216450   1.934   1.728   5.677 -0.2201  0.5452 -1.2318
 5496TIP3   OH216451   1.549   2.919   2.203  0.2463 -0.7362 -0.2351
 5496TIP3    H116452   1.464   2.879   2.187  1.0338 -2.6404  0.0626
 5496TIP3    H216453   1.596   2.910   2.120  0.6130 -0.9156 -0.0122
 5497TIP3   OH216454   2.736   3.318   0.732 -0.3374  0.1392 -0.2036
 5497TIP3    H116455   2.676   3.311   0.806 -0.8370 -0.0537 -0.6217
 5497TIP3    H216456   2.708   3.249   0.672  0.4117 -0.0604 -0.3313
 5498TIP3   OH216457   4.397   3.775   0.326  0.1282 -0.2352  0.5307
 5498TIP3    H116458   4.364   3.685   0.326  2.3627 -1.1761 -1.6725
 5498TIP3    H216459   4.452   3.781   0.404 -0.7706 -0.4670  1.1859
 5499TIP3   OH216460   2.003   6.480   4.989  0.0157 -0.1213  0.1584
 5499TIP3    H116461   1.913   6.506   4.974 -0.1238 -1.8256 -2.7486
 5499TIP3    H216462   2.055   6.556   4.965 -0.5685  0.9445  2.0624
 5500TIP3   OH216463   5.058   1.800   0.165 -0.9486  0.0287  0.0027
 5500TIP3    H116464   5.004   1.724   0.184 -1.3404  0.5770  1.1527
 5500TIP3    H216465   5.003   1.856   0.111 -0.0119 -1.2993 -2.4933
 5501TIP3   OH216466   5.599   0.860   0.401  0.6972  0.8037 -0.0212
 5501TIP3    H116467   5.613   0.884   0.492 -0.8167 -1.7105  1.0059
 5501TIP3    H216468   5.651   0.780   0.389 -0.2683  0.2733 -0.8710
 5502TIP3   OH216469   3.946   4.389   5.060 -0.0652 -0.3556 -0.6865
 5502TIP3    H116470   3.913   4.299   5.064 -1.1026  0.0463  0.4988
 5502TIP3    H216471   3.995   4.393   4.979 -1.8489 -1.3748 -1.8847
 5503TIP3   OH216472   6.666   2.175   2.038  0.5228  0.0280  0.5994
 5503TIP3    H116473   6.729   2.138   2.100  0.8283  0.2812  0.4380
 5503TIP3    H216474   6.583   2.134   2.062  0.9608 -1.2243  0.0348
 5504TIP3   OH216475   6.584   0.570   3.974  0.4076  0.4402  1.1847
 5504TIP3    H116476   6.561   0.480   3.996 -1.4608  0.4657 -0.3970
 5504TIP3    H216477   6.545   0.585   3.888  1.5775  2.4470  0.9222
 5505TIP3   OH216478   3.912   5.253   1.811 -0.3319 -0.4716  0.7341
 5505TIP3    H116479   3.886   5.221   1.898 -1.3069  0.8627  0.9626
 5505TIP3    H216480   3.898   5.179   1.753 -1.5007 -0.8168  1.4156
 5506TIP3   OH216481   3.575   5.466   4.449  0.0532  0.0197 -0.3100
 5506TIP3    H116482   3.575   5.539   4.510 -0.8942  0.0339 -0.3006
 5506TIP3    H216483   3.492   5.476   4.401  0.6345 -0.1638 -1.3783
 5507TIP3   OH216484   1.327   0.246   5.127  0.2441  0.1354 -0.0937
 5507TIP3    H116485   1.304   0.291   5.046  0.0351 -0.1238 -0.1794
 5507TIP3    H216486   1.317   0.312   5.195 -0.0670  0.2167 -0.2182
 5508TIP3   OH216487   4.012   6.067   4.241 -0.5841  0.1217  0.3411
 5508TIP3    H116488   3.968   6.136   4.191  1.5815  0.2538 -1.5370
 5508TIP3    H216489   3.969   5.986   4.214 -0.7727  0.4004 -0.2019
 5509TIP3   OH216490   3.043   3.469   4.660  0.2270  0.0369 -0.2905
 5509TIP3    H116491   2.976   3.465   4.592 -0.6948  0.2157  0.5888
 5509TIP3    H216492   2.996   3.455   4.742  1.0674  1.4170  0.4683
 5510TIP3   OH216493   3.960   1.631   5.540  0.2633  0.3797 -0.2022
 5510TIP3    H116494   3.913   1.568   5.485 -0.7958  0.9558  0.0089
 5510TIP3    H216495   3.904   1.643   5.617  1.1357  0.5138  0.4289
 5511TIP3   OH216496   4.372   6.151   2.019  0.4730  0.4161  0.4968
 5511TIP3    H116497   4.386   6.072   1.967 -0.9454  0.7645 -0.4670
 5511TIP3    H216498   4.461   6.185   2.034  1.0103 -0.4927 -0.4331
 5512TIP3   OH216499   2.378   4.078   4.386  0.5464  0.3150  0.8474
 5512TIP3    H116500   2.473   4.085   4.382  0.6934 -1.4818  0.1038
 5512TIP3    H216501   2.356   4.103   4.476  1.4942  2.4743  0.5493
 5513TIP3   OH216502   4.689   0.569   5.502  0.3215  0.1242  0.5641
 5513TIP3    H116503   4.655   0.643   5.451  2.3310 -0.1966 -1.4010
 5513TIP3    H216504   4.611   0.529   5.541 -1.1998  1.1855 -1.2148
 5514TIP3   OH216505   2.339   1.057   5.539  0.5264  0.5773  0.0771
 5514TIP3    H116506   2.290   1.138   5.553 -0.0686  0.1725  0.4036
 5514TIP3    H216507   2.412   1.061   5.601  0.3273  0.7250  0.3030
 5515TIP3   OH216508   0.820   2.206   5.264  0.2697 -0.0598  0.2417
 5515TIP3    H116509   0.859   2.287   5.230  0.9366 -0.7154 -0.6052
 5515TIP3    H216510   0.888   2.140   5.252  0.3271 -0.4493  2.3990
 5516TIP3   OH216511   2.460   2.838   0.703  0.4619  0.5908 -0.4738
 5516TIP3    H116512   2.387   2.783   0.674  1.5542 -2.0778  1.4007
 5516TIP3    H216513   2.447   2.847   0.798  1.9950  0.9104 -0.2675
 5517TIP3   OH216514   6.941   0.736   2.494  0.0270 -0.4690 -0.2514
 5517TIP3    H116515   6.940   0.681   2.415  0.0921  0.9808 -1.3179
 5517TIP3    H216516   7.021   0.787   2.487 -1.4057  1.8663 -0.8898
 5518TIP3   OH216517   5.514   4.915   4.839 -0.0300  0.1699 -0.1261
 5518TIP3    H116518   5.575   4.846   4.866  1.4757  1.6783  0.4951
 5518TIP3    H216519   5.459   4.874   4.772  1.6542 -1.2574 -0.6944
 5519TIP3   OH216520   3.093   1.273   4.557 -0.3410 -0.0224 -0.1930
 5519TIP3    H116521   3.156   1.201   4.555  0.1398  0.2999  1.4547
 5519TIP3    H216522   3.148   1.352   4.553 -0.7245  0.2526 -0.0676
 5520TIP3   OH216523   0.557   0.339   2.432  0.0449  0.3879 -0.0908
 5520TIP3    H116524   0.519   0.278   2.369  1.6517  0.5175 -1.2653
 5520TIP3    H216525   0.594   0.409   2.378  0.8524  0.8677  1.0366
 5521TIP3   OH216526   5.131   4.864   5.018  0.2943 -0.8036 -0.1127
 5521TIP3    H116527   5.077   4.786   5.003 -2.3076  0.5502  1.3844
 5521TIP3    H216528   5.068   4.932   5.042  2.6342  1.1893  0.8318
 5522TIP3   OH216529   6.395   4.240   2.829 -0.0492  0.1763  0.3419
 5522TIP3    H116530   6.424   4.282   2.749 -1.7086 -1.4140 -1.2035
 5522TIP3    H216531   6.474   4.230   2.882  1.2143  0.6676 -1.3882
 5523TIP3   OH216532   2.241   0.450   0.795  0.0310  0.1313  0.3758
 5523TIP3    H116533   2.244   0.363   0.754  0.0085  0.4516 -0.3215
 5523TIP3    H216534   2.168   0.494   0.751  1.6958  1.4597 -1.2523
 5524TIP3   OH216535   4.105   4.377  -0.004  0.0670 -0.3753 -0.3302
 5524TIP3    H116536   4.141   4.460   0.027  0.5583 -0.8582  0.4231
 5524TIP3    H216537   4.018   4.373   0.036  0.1149 -0.3078 -0.2166
 5525TIP3   OH216538   0.793   4.333   2.220  0.0001  0.0003  0.5956
 5525TIP3    H116539   0.834   4.283   2.291 -0.2851  1.6882  2.0022
 5525TIP3    H216540   0.712   4.285   2.201  1.0166 -1.5549  0.0105
 5526TIP3   OH216541   6.531   1.790   1.085 -0.4006 -0.3220  0.2028
 5526TIP3    H116542   6.610   1.842   1.093 -0.9942  0.8834 -1.3554
 5526TIP3    H216543   6.527   1.740   1.166  1.2753  0.5268  0.8499
 5527TIP3   OH216544   2.584   0.504   2.455  0.8472 -0.4082  0.2707
 5527TIP3    H116545   2.646   0.524   2.385  0.9744  0.9766  0.7385
 5527TIP3    H216546   2.590   0.580   2.514  0.1047 -1.1387  1.3169
 5528TIP3   OH216547   5.714   6.659   3.870 -0.3757 -0.0829 -0.3366
 5528TIP3    H116548   5.620   6.644   3.861 -0.1814 -1.0612 -0.8758
 5528TIP3    H216549   5.754   6.581   3.832  0.6625  0.4765 -0.4137
 5529TIP3   OH216550   6.025   4.400   3.994 -0.3763  0.0004  0.1053
 5529TIP3    H116551   5.933   4.395   3.971 -0.0704 -1.4917 -0.9015
 5529TIP3    H216552   6.068   4.338   3.936  1.4625  1.6032 -0.3458
 5530TIP3   OH216553   4.508   5.080   0.080 -0.6108  0.5211 -0.3170
 5530TIP3    H116554   4.504   5.167   0.041  1.2462 -0.0534 -1.9215
 5530TIP3    H216555   4.583   5.038   0.039 -0.9849 -1.5902  0.9848
 5531TIP3   OH216556   3.938   0.367   2.827 -0.1141  0.2076 -0.0045
 5531TIP3    H116557   3.884   0.337   2.754 -3.5848  2.0993  1.5170
 5531TIP3    H216558   3.906   0.318   2.903  1.9651 -0.2227  0.6699
 5532TIP3   OH216559   2.127   2.147   0.695  0.2930  0.1943 -0.3539
 5532TIP3    H116560   2.168   2.160   0.780 -2.1545 -0.0285  0.9463
 5532TIP3    H216561   2.156   2.060   0.667  0.2780 -0.1777  0.7524
 5533TIP3   OH216562   6.064   0.171   5.786 -0.1471  0.6320 -0.1180
 5533TIP3    H116563   6.093   0.257   5.757  1.3174  0.0570 -0.4052
 5533TIP3    H216564   6.127   0.146   5.854 -1.1643  0.2113  0.7089
 5534TIP3   OH216565   1.326   4.156   5.235  0.1443 -0.4107  0.1275
 5534TIP3    H116566   1.289   4.103   5.306  3.0394 -2.3768  0.3832
 5534TIP3    H216567   1.294   4.114   5.155 -0.9522  0.1337  0.2596
 5535TIP3   OH216568   6.732   5.416   3.100 -0.1519  0.0955  1.2816
 5535TIP3    H116569   6.769   5.435   3.013 -0.2856  2.3972  1.6741
 5535TIP3    H216570   6.757   5.325   3.117  0.9124 -0.0274 -0.6506
 5536TIP3   OH216571   2.327   6.138   0.371 -0.2467  0.0864 -0.3356
 5536TIP3    H116572   2.304   6.173   0.457  1.6993  2.1026 -0.5215
 5536TIP3    H216573   2.377   6.058   0.390  1.0400  1.0554  0.4975
 5537TIP3   OH216574   4.030   6.110   0.616 -0.0992  0.6355 -0.0791
 5537TIP3    H116575   3.968   6.041   0.591 -0.2238  1.1381 -1.2264
 5537TIP3    H216576   4.089   6.068   0.678 -0.2132 -0.4966 -0.6998
 5538TIP3   OH216577   5.421   4.110   2.683  0.8266 -0.0517  0.1540
 5538TIP3    H116578   5.359   4.070   2.743 -0.6841 -0.4322 -1.5601
 5538TIP3    H216579   5.506   4.102   2.726 -0.4235  1.7511  3.2339
 5539TIP3   OH216580   4.216   0.518   0.137 -0.1871  0.4840 -0.0353
 5539TIP3    H116581   4.262   0.477   0.064 -0.7835 -1.4575  0.6302
 5539TIP3    H216582   4.123   0.511   0.115 -0.3316  0.7521  0.4670
 5540TIP3   OH216583   1.384   4.888   0.462  0.6151  0.8907 -0.1333
 5540TIP3    H116584   1.470   4.848   0.473  0.8504  1.2309 -0.6730
 5540TIP3    H216585   1.398   4.958   0.398  0.0924  1.4490  0.3514
 5541TIP3   OH216586   6.450   0.104   4.717 -0.1964  0.3123 -0.1831
 5541TIP3    H116587   6.506   0.182   4.717  0.6340 -0.2486 -1.2777
 5541TIP3    H216588   6.366   0.135   4.683 -0.0460  0.8523 -0.0693
 5542TIP3   OH216589   5.442   6.727   4.390 -0.2569  0.6059  0.5586
 5542TIP3    H116590   5.486   6.643   4.402 -0.5480  0.4816  0.7561
 5542TIP3    H216591   5.475   6.782   4.461  2.4244  1.7224 -1.3676
 5543TIP3   OH216592   4.628   3.816   0.153  0.3543 -0.2343 -0.0291
 5543TIP3    H116593   4.574   3.759   0.208 -0.6017  0.1823 -0.5179
 5543TIP3    H216594   4.566   3.878   0.116  1.0257 -0.3504 -1.3816
 5544TIP3   OH216595   4.441   5.050   1.888 -0.2756 -0.3108 -0.1821
 5544TIP3    H116596   4.439   4.964   1.930  1.5786 -0.2180  0.1830
 5544TIP3    H216597   4.365   5.097   1.925 -0.2534 -1.1679  0.9902
 5545TIP3   OH216598   4.159   2.147   5.133 -0.2083  0.0384  0.1470
 5545TIP3    H116599   4.172   2.054   5.111  1.1128  0.1580  0.3147
 5545TIP3    H216600   4.068   2.164   5.111 -0.1897 -1.0295 -0.8997
 5546TIP3   OH216601   2.538   3.369   0.924 -0.1230  0.6388 -0.0904
 5546TIP3    H116602   2.480   3.295   0.942  0.7603 -0.2960 -0.9362
 5546TIP3    H216603   2.580   3.387   1.007 -0.5010  0.3222  0.1742
 5547TIP3   OH216604   5.864   0.574   0.225  0.6498  0.0160  0.0861
 5547TIP3    H116605   5.851   0.527   0.308 -0.5823 -0.3783 -0.3035
 5547TIP3    H216606   5.783   0.559   0.177  1.5656 -0.2407 -1.4394
 5548TIP3   OH216607   2.267   1.850   4.728  0.2410 -0.0574 -0.6278
 5548TIP3    H116608   2.202   1.788   4.760 -0.5898  2.3713  3.0782
 5548TIP3    H216609   2.228   1.936   4.743  3.3663  1.4894 -0.3563
 5549TIP3   OH216610   4.508   1.003   2.153  0.1849  0.0552 -0.4039
 5549TIP3    H116611   4.542   1.046   2.232  2.8123  0.6268 -1.7294
 5549TIP3    H216612   4.495   1.074   2.091 -0.0888 -0.5680 -1.0657
 5550TIP3   OH216613   5.162   6.737   0.686  0.0170  0.3936 -0.0912
 5550TIP3    H116614   5.198   6.654   0.655  1.6038 -0.1274  2.8467
 5550TIP3    H216615   5.238   6.795   0.694 -0.7726  1.4634 -0.1164
 5551TIP3   OH216616   4.128   6.331   4.339 -0.3631 -0.2639  0.2764
 5551TIP3    H116617   4.123   6.414   4.387 -1.9983 -0.5812  0.7148
 5551TIP3    H216618   4.062   6.275   4.381 -0.3345 -1.2727 -0.9768
 5552TIP3   OH216619   0.780   0.978   2.630 -0.3458  0.5099  0.0601
 5552TIP3    H116620   0.783   0.891   2.668 -2.3154  1.0033  1.5229
 5552TIP3    H216621   0.851   1.026   2.673  1.1092 -0.4653 -1.1620
 5553TIP3   OH216622   3.955   6.286   3.196  0.3704  0.1982 -0.4243
 5553TIP3    H116623   3.885   6.341   3.162  1.5622  0.0387 -3.3422
 5553TIP3    H216624   4.000   6.341   3.260 -0.9968  1.0888 -0.1832
 5554TIP3   OH216625   2.220   4.444   5.380 -0.0882  0.1545  0.7153
 5554TIP3    H116626   2.280   4.518   5.384 -0.7913  0.7600  0.2843
 5554TIP3    H216627   2.148   4.474   5.324  0.2849 -1.3463 -0.6444
 5555TIP3   OH216628   4.143   1.921   0.643 -0.1215 -0.2704  0.5098
 5555TIP3    H116629   4.237   1.929   0.627 -0.3360  1.1032 -0.2778
 5555TIP3    H216630   4.108   1.884   0.562 -0.3218 -0.2568  0.5889
 5556TIP3   OH216631   4.952   3.993   1.213  0.3454 -0.2166  0.4151
 5556TIP3    H116632   4.946   4.051   1.288 -0.7188  0.2425 -0.0073
 5556TIP3    H216633   4.942   3.905   1.249  0.2861 -0.0280  0.8576
 5557TIP3   OH216634   4.618   2.433   1.389  0.5993 -0.5275  0.4166
 5557TIP3    H116635   4.529   2.435   1.422  0.5346  0.2758  0.2104
 5557TIP3    H216636   4.667   2.492   1.446  1.0443 -1.0958  0.6373
 5558TIP3   OH216637   4.629   5.224   4.055  0.2648 -0.3105 -0.2977
 5558TIP3    H116638   4.710   5.254   4.097  0.9106 -0.1557 -1.6233
 5558TIP3    H216639   4.658   5.174   3.979 -0.8905 -0.3392 -0.7377
 5559TIP3   OH216640   2.979   0.713   2.463 -0.4889  0.7284  0.5854
 5559TIP3    H116641   3.074   0.717   2.466 -0.2758 -0.7946 -1.5982
 5559TIP3    H216642   2.957   0.626   2.495 -1.0035  0.4734 -0.4072
 5560TIP3   OH216643   1.360   5.116   5.269  0.7272 -0.6031 -0.5506
 5560TIP3    H116644   1.442   5.067   5.262  1.5247  0.7187 -0.8174
 5560TIP3    H216645   1.341   5.144   5.180 -0.3351 -1.3679 -0.5808
 5561TIP3   OH216646   3.417   3.825   0.313 -0.1858  0.2147 -0.1258
 5561TIP3    H116647   3.481   3.854   0.377  0.6155 -0.2320 -0.7014
 5561TIP3    H216648   3.428   3.886   0.239 -1.8925  1.4531  0.5636
 5562TIP3   OH216649   1.544   6.465   5.785  0.0874 -0.2948  0.4198
 5562TIP3    H116650   1.557   6.519   5.863  1.0798  0.2489 -0.1171
 5562TIP3    H216651   1.449   6.463   5.774 -0.1526 -1.1684  2.1889
 5563TIP3   OH216652   4.275   6.064   5.458 -0.0861 -0.0476  0.3582
 5563TIP3    H116653   4.322   6.039   5.538 -0.1455 -0.0680  0.3869
 5563TIP3    H216654   4.296   5.995   5.395 -1.1574 -0.8028  0.7834
 5564TIP3   OH216655   0.984   6.532   0.868 -0.3560  0.1022 -0.0606
 5564TIP3    H116656   0.903   6.571   0.901  0.2683  1.1735  0.2559
 5564TIP3    H216657   0.955   6.457   0.816 -1.4459 -0.7013  1.6141
 5565TIP3   OH216658   2.064   4.234   4.596 -0.2102 -0.2379  0.0103
 5565TIP3    H116659   2.159   4.242   4.607 -0.2507  0.1475  0.1124
 5565TIP3    H216660   2.044   4.290   4.522 -0.3002 -0.6874 -0.3097
 5566TIP3   OH216661   1.805   6.559   0.537 -0.5297 -0.4283  0.4963
 5566TIP3    H116662   1.784   6.564   0.444 -0.9474 -0.4970  0.5859
 5566TIP3    H216663   1.894   6.523   0.540 -0.1594  0.4398  0.0973
 5567TIP3   OH216664   1.297   1.374   0.079  1.0799 -0.2493  0.3716
 5567TIP3    H116665   1.343   1.389   0.162  1.3215  1.9036 -0.0866
 5567TIP3    H216666   1.360   1.399   0.012 -0.0310  0.7747 -0.3354
 5568TIP3   OH216667   0.185   6.251   1.897  0.0462  0.4267  0.1594
 5568TIP3    H116668   0.210   6.168   1.857 -0.7603  0.3722 -0.2328
 5568TIP3    H216669   0.090   6.254   1.891  0.0674  1.4225  0.0744
 5569TIP3   OH216670   5.556   4.521   1.574  0.1549  0.0006 -0.4019
 5569TIP3    H116671   5.557   4.570   1.491  0.7109  0.5489 -0.0805
 5569TIP3    H216672   5.506   4.577   1.633  0.3813 -0.0497 -0.1640
 5570TIP3   OH216673   7.095   6.441   3.498 -0.5582 -0.0144  0.2360
 5570TIP3    H116674   7.090   6.485   3.413  0.3269  0.5078  0.4406
 5570TIP3    H216675   7.070   6.508   3.561 -0.9871 -0.3362  0.4167
 5571TIP3   OH216676   3.161   2.662   2.647 -0.2121  0.0607  0.0196
 5571TIP3    H116677   3.242   2.632   2.606  0.5695  1.9864  0.0445
 5571TIP3    H216678   3.110   2.582   2.662  1.1397 -1.0653 -1.1345
 5572TIP3   OH216679   5.636   1.725   5.831 -0.0875  0.4005 -0.2758
 5572TIP3    H116680   5.604   1.764   5.750  1.2528  1.3364 -0.3890
 5572TIP3    H216681   5.596   1.777   5.901 -0.6185  0.0960 -0.3497
 5573TIP3   OH216682   4.787   3.767   0.420 -0.4872 -0.0538 -0.5483
 5573TIP3    H116683   4.743   3.792   0.501 -0.0753 -1.8718  0.2938
 5573TIP3    H216684   4.733   3.804   0.350 -0.8330  1.5851  0.5291
 5574TIP3   OH216685   2.607   6.555   2.831 -0.5804 -0.2017 -0.3284
 5574TIP3    H116686   2.655   6.633   2.805 -0.6639  0.1698  0.5904
 5574TIP3    H216687   2.672   6.501   2.877 -0.5546 -0.6240 -0.8448
 5575TIP3   OH216688   5.078   3.976   3.986 -0.2701 -0.0731 -0.1698
 5575TIP3    H116689   5.094   4.065   3.954 -1.9762  0.8669  1.3571
 5575TIP3    H216690   5.155   3.956   4.039 -0.0177  0.6504 -0.2460
 5576TIP3   OH216691   7.056   4.012   0.427  0.5322  0.1708  0.0228
 5576TIP3    H116692   7.122   4.030   0.494 -0.4595  0.6065  0.9130
 5576TIP3    H216693   7.085   4.062   0.351  0.4185  1.6296  0.9064
 5577TIP3   OH216694   4.099   4.292   5.339 -0.4951  0.3696 -0.5241
 5577TIP3    H116695   4.026   4.259   5.392  0.3126 -0.3462  0.1788
 5577TIP3    H216696   4.154   4.338   5.402 -0.0197  0.3561 -0.9315
 5578TIP3   OH216697   2.881   5.808   1.411  0.9981 -0.8332 -0.1429
 5578TIP3    H116698   2.927   5.884   1.376 -0.1077 -0.4133 -0.7329
 5578TIP3    H216699   2.923   5.791   1.495  1.8070 -0.0850 -0.3813
 5579TIP3   OH216700   0.387   5.768   4.797  0.5915  0.6988  0.2264
 5579TIP3    H116701   0.335   5.689   4.781 -0.2034  1.0166  1.1631
 5579TIP3    H216702   0.461   5.760   4.737  0.7790 -0.9843  0.6289
 5580TIP3   OH216703   4.713   5.541   2.428  0.5760 -0.7275  0.2675
 5580TIP3    H116704   4.640   5.582   2.475 -1.1029 -1.3050 -1.7079
 5580TIP3    H216705   4.773   5.613   2.409 -1.4581  0.5656 -1.5820
 5581TIP3   OH216706   0.731   0.455   0.527 -0.4897 -0.0876 -0.2599
 5581TIP3    H116707   0.658   0.420   0.579  0.0010 -0.1299  0.4184
 5581TIP3    H216708   0.718   0.418   0.440 -1.8523  0.7194 -0.4242
 5582TIP3   OH216709   5.036   0.432   1.055 -0.1445 -0.2398  0.3880
 5582TIP3    H116710   5.099   0.363   1.078  0.9539  1.1870  1.8596
 5582TIP3    H216711   4.984   0.444   1.135 -0.8036  0.1511 -0.0928
 5583TIP3   OH216712   7.045   1.558   3.873 -0.0333  0.0215  0.0487
 5583TIP3    H116713   7.104   1.513   3.933  0.5323  1.2045  0.4302
 5583TIP3    H216714   7.004   1.489   3.822  1.8613 -0.8414 -0.3896
 5584TIP3   OH216715   2.489   0.301   0.019 -0.0250 -0.0128 -0.0084
 5584TIP3    H116716   2.440   0.347   0.088  0.3259  0.7807 -0.2734
 5584TIP3    H216717   2.581   0.317   0.040  0.1007 -0.5585 -0.1363
 5585TIP3   OH216718   1.876   4.974   2.763 -0.2540  0.1000  0.3336
 5585TIP3    H116719   1.840   5.063   2.760  0.4267  0.4509  1.8376
 5585TIP3    H216720   1.927   4.967   2.682 -1.6200  0.4758 -0.6030
 5586TIP3   OH216721   3.570   0.267   4.489  0.1338 -0.1520 -0.8752
 5586TIP3    H116722   3.649   0.213   4.491 -0.0320 -0.3752  0.1976
 5586TIP3    H216723   3.585   0.328   4.416  1.3060 -0.1703 -0.6764
 5587TIP3   OH216724   3.049   1.955   3.987  0.2589  0.0720  0.0846
 5587TIP3    H116725   3.092   2.031   4.027  0.6595  0.0405 -0.2740
 5587TIP3    H216726   3.001   1.991   3.912 -1.0025  0.2249  0.9277
 5588TIP3   OH216727   1.655   6.253   5.218  0.0703 -0.1899  0.3241
 5588TIP3    H116728   1.631   6.162   5.201  0.7577 -0.1990 -0.6672
 5588TIP3    H216729   1.650   6.262   5.313  1.1458 -1.5987  0.5400
 5589TIP3   OH216730   3.005   1.055   4.058 -0.6362  0.7882  0.0566
 5589TIP3    H116731   2.923   1.015   4.086 -0.0412 -1.3289 -1.0506
 5589TIP3    H216732   3.008   1.040   3.963  1.6793 -0.5564  0.2632
 5590TIP3   OH216733   1.702   1.705   4.436 -0.0663 -0.0473  0.3919
 5590TIP3    H116734   1.731   1.716   4.346  2.5461  5.4923  1.4998
 5590TIP3    H216735   1.772   1.652   4.477 -0.8853 -1.9299 -0.5305
 5591TIP3   OH216736   6.018   3.007   3.526  0.5939 -0.4553 -0.3314
 5591TIP3    H116737   6.079   2.949   3.480  2.0447  0.2151  0.6506
 5591TIP3    H216738   6.003   2.964   3.610  0.2600 -0.2758 -0.2980
 5592TIP3   OH216739   2.244   6.289   0.618 -0.1131 -0.1154 -0.4375
 5592TIP3    H116740   2.338   6.308   0.624  0.0924 -1.0762 -0.5023
 5592TIP3    H216741   2.203   6.351   0.679  0.7100 -0.7840  0.8223
 5593TIP3   OH216742   5.630   5.214   4.637  0.0756 -0.0838  0.1318
 5593TIP3    H116743   5.561   5.279   4.624  1.0203  1.1441  1.0005
 5593TIP3    H216744   5.634   5.166   4.555  0.0903  1.6833 -0.9449
 5594TIP3   OH216745   0.462   2.055   3.169  0.0133  0.0594 -0.0085
 5594TIP3    H116746   0.427   1.983   3.221  0.8162  0.5000  1.1776
 5594TIP3    H216747   0.551   2.068   3.203  0.4084  0.6365 -1.2078
 5595TIP3   OH216748   1.433   5.965   5.111 -0.4167 -0.1546 -0.1794
 5595TIP3    H116749   1.497   5.961   5.040 -1.4634  0.6343 -1.2023
 5595TIP3    H216750   1.366   5.902   5.085 -1.2518  0.7924 -0.3615
 5596TIP3   OH216751   7.001   3.896   1.082 -0.0764 -0.2165 -0.1134
 5596TIP3    H116752   6.961   3.871   1.165  0.2612 -2.1491 -0.4683
 5596TIP3    H216753   6.937   3.955   1.041 -0.7740 -0.1657  1.0025
 5597TIP3   OH216754   2.096   4.709   3.087  0.6179  0.8206  0.2802
 5597TIP3    H116755   2.048   4.628   3.106 -0.0094  1.4191  1.4161
 5597TIP3    H216756   2.100   4.712   2.992  1.3520 -0.9302  0.2104
 5598TIP3   OH216757   4.499   6.697   5.108  0.0042  0.5636 -0.0709
 5598TIP3    H116758   4.516   6.636   5.180 -2.2883 -1.0040 -0.7611
 5598TIP3    H216759   4.427   6.751   5.138 -0.8821 -0.0096 -1.1024
 5599TIP3   OH216760   2.553   6.582   4.066  0.7762 -0.1824  0.1167
 5599TIP3    H116761   2.482   6.622   4.015 -1.0760 -2.0601  1.0699
 5599TIP3    H216762   2.563   6.495   4.029  0.9655 -0.7607  1.4800
 5600TIP3   OH216763   5.446   0.981   3.541  0.1472 -0.0357 -0.2837
 5600TIP3    H116764   5.377   0.948   3.484  0.0444  0.0679 -0.2210
 5600TIP3    H216765   5.426   1.075   3.551 -0.4531 -0.2544  0.7725
 5601TIP3   OH216766   3.313   2.527   0.251  0.6804  0.1689 -0.0410
 5601TIP3    H116767   3.249   2.591   0.219 -0.2162 -1.2145 -1.1070
 5601TIP3    H216768   3.261   2.457   0.289  1.5872 -0.6572 -0.2782
 5602TIP3   OH216769   5.786   4.876   0.647 -0.5422  0.2359  0.2191
 5602TIP3    H116770   5.698   4.838   0.646  0.5213 -2.5216 -2.5149
 5602TIP3    H216771   5.839   4.812   0.694  0.2520  1.3390  0.8610
 5603TIP3   OH216772   6.597   3.931   2.475 -0.2798  0.0047 -0.1126
 5603TIP3    H116773   6.555   4.010   2.441 -1.1448  0.0599  1.0310
 5603TIP3    H216774   6.613   3.949   2.567 -0.4445 -1.1199  0.1594
 5604TIP3   OH216775   3.806   3.194   1.271  0.3747  0.3749  0.3295
 5604TIP3    H116776   3.723   3.235   1.294 -0.6947  0.1191 -2.6208
 5604TIP3    H216777   3.845   3.169   1.354 -1.3936  2.5834  1.9466
 5605TIP3   OH216778   1.181   1.486   4.439 -0.0297 -0.1943  0.0236
 5605TIP3    H116779   1.142   1.491   4.526 -1.3082 -2.7110 -0.2986
 5605TIP3    H216780   1.219   1.398   4.436 -0.0322 -0.1569 -1.9632
 5606TIP3   OH216781   2.283   5.853   1.849  0.0473 -0.2093 -0.0034
 5606TIP3    H116782   2.209   5.863   1.788 -0.2391 -0.0019  0.3732
 5606TIP3    H216783   2.287   5.758   1.866 -1.2040 -0.0714  1.2666
 5607TIP3   OH216784   2.811   5.194   2.515  0.0610  0.4337 -0.0141
 5607TIP3    H116785   2.764   5.200   2.598 -0.0768  0.5092 -0.0964
 5607TIP3    H216786   2.775   5.116   2.472  0.6206  0.0031  0.2978
 5608TIP3   OH216787   5.128   2.083   4.553 -0.4632  0.0064  0.0114
 5608TIP3    H116788   5.108   2.171   4.585 -0.4747  0.4379 -1.1150
 5608TIP3    H216789   5.181   2.044   4.621  1.4411  1.6922 -0.3967
 5609TIP3   OH216790   0.243   6.123   4.457 -0.3027  0.6864  0.2339
 5609TIP3    H116791   0.217   6.120   4.365  1.0429 -2.2685 -0.1590
 5609TIP3    H216792   0.317   6.184   4.458 -0.2838  0.6980 -0.6712
 5610TIP3   OH216793   6.249   3.498   1.747 -0.1474 -0.1327  0.2333
 5610TIP3    H116794   6.184   3.438   1.785 -1.1658  0.3729 -0.6634
 5610TIP3    H216795   6.225   3.584   1.781  0.9581 -0.1295  1.0542
 5611TIP3   OH216796   5.327   5.930   5.262  0.0218 -0.2733  0.4367
 5611TIP3    H116797   5.317   6.022   5.287 -1.4789 -0.9093  2.4148
 5611TIP3    H216798   5.282   5.881   5.331  0.3954 -2.4876 -0.7941
 5612TIP3   OH216799   6.525   4.004   5.179 -0.3412 -0.2968 -0.2844
 5612TIP3    H116800   6.563   4.071   5.235 -1.3132 -1.8149  2.3417
 5612TIP3    H216801   6.557   4.025   5.091  1.6358  1.9199  0.8692
 5613TIP3   OH216802   4.084   3.782   2.564 -0.2876 -0.4426  0.1605
 5613TIP3    H116803   4.049   3.870   2.555  0.3134 -0.0990  1.0518
 5613TIP3    H216804   4.033   3.743   2.635  0.4291 -0.2923  0.7668
 5614TIP3   OH216805   5.682   4.469   4.118 -0.0194  0.2695 -0.1627
 5614TIP3    H116806   5.700   4.546   4.171 -1.7822  0.6654 -0.0546
 5614TIP3    H216807   5.707   4.493   4.029  0.4689  0.5548  0.0497
 5615TIP3   OH216808   0.484   1.251   3.175  0.1664  0.0882 -0.2461
 5615TIP3    H116809   0.391   1.270   3.159  0.0015 -0.3015  0.2282
 5615TIP3    H216810   0.530   1.298   3.106 -0.3181  1.1108  0.1147
 5616TIP3   OH216811   1.546   0.443   5.516  0.0098 -0.6350 -0.2335
 5616TIP3    H116812   1.613   0.449   5.584  1.0675 -0.1366 -1.2609
 5616TIP3    H216813   1.541   0.532   5.480 -1.5270 -0.5724  0.0963
 5617TIP3   OH216814   6.017   0.440   2.644  0.4448  0.1060  0.0358
 5617TIP3    H116815   6.095   0.490   2.622  0.3616  0.4589  0.5258
 5617TIP3    H216816   6.021   0.431   2.739 -0.8788  1.4306  0.2539
 5618TIP3   OH216817   2.179   2.714   5.693 -0.4184 -0.4435  0.1214
 5618TIP3    H116818   2.112   2.698   5.760 -0.7726  1.0076  0.1479
 5618TIP3    H216819   2.129   2.742   5.617  0.1052 -0.3917 -0.2045
 5619TIP3   OH216820   5.099   6.516   2.871 -0.6838 -0.0818 -0.3821
 5619TIP3    H116821   5.146   6.596   2.846 -0.2768 -0.2275 -0.1115
 5619TIP3    H216822   5.098   6.462   2.792 -0.4657 -0.0383 -0.4160
 5620TIP3   OH216823   0.736   3.409   2.972  0.9051  0.0936  0.2375
 5620TIP3    H116824   0.661   3.393   3.029  0.4282  0.8450 -0.1578
 5620TIP3    H216825   0.699   3.450   2.894  1.6037 -0.5160 -0.4364
 5621TIP3   OH216826   5.032   6.534   0.392 -0.5006 -0.4477 -0.0410
 5621TIP3    H116827   4.996   6.538   0.481  1.1350 -0.3700  0.6554
 5621TIP3    H216828   4.999   6.613   0.349  1.0012  1.1052  1.4611
 5622TIP3   OH216829   1.803   4.433   2.688 -0.1115  0.1376 -0.4266
 5622TIP3    H116830   1.778   4.516   2.648 -0.6325  0.3398  0.3125
 5622TIP3    H216831   1.809   4.372   2.614  1.1058  1.0051 -1.0807
 5623TIP3   OH216832   4.938   4.516   4.440 -0.6618 -0.3968 -0.5914
 5623TIP3    H116833   4.961   4.507   4.532  1.5517  0.6153 -0.9650
 5623TIP3    H216834   4.846   4.490   4.435 -0.9365 -0.1649  1.9371
 5624TIP3   OH216835   2.070   2.417   4.617 -0.8881 -0.0779  0.6029
 5624TIP3    H116836   2.000   2.370   4.662 -0.8833 -1.0617 -0.3604
 5624TIP3    H216837   2.135   2.435   4.684 -0.8077 -1.6495  0.9767
 5625TIP3   OH216838   3.651   4.700   4.567  0.0741 -0.3271  0.5828
 5625TIP3    H116839   3.585   4.635   4.590  0.4523 -1.4308 -1.2174
 5625TIP3    H216840   3.603   4.767   4.519  0.2616 -1.4289 -1.2623
 5626TIP3   OH216841   3.529   6.149   5.046  0.3487 -0.3496  0.1172
 5626TIP3    H116842   3.532   6.227   5.101  1.4637 -0.3642  0.0911
 5626TIP3    H216843   3.471   6.174   4.973  0.8852  0.5519 -0.0260
 5627TIP3   OH216844  -0.004   2.238   4.229 -0.5104 -0.3048 -0.6573
 5627TIP3    H116845   0.039   2.153   4.222  1.1335  0.4571 -0.2019
 5627TIP3    H216846   0.018   2.269   4.317 -0.6176  0.8430 -1.0251
 5628TIP3   OH216847   0.794   1.525   5.644  0.2507  0.2648 -0.1077
 5628TIP3    H116848   0.760   1.437   5.630 -0.0889  0.7882 -3.2486
 5628TIP3    H216849   0.719   1.583   5.629  0.7937  1.1524  0.4732
 5629TIP3   OH216850   0.301   2.780   4.941 -0.0835  0.2531 -1.4354
 5629TIP3    H116851   0.339   2.734   4.865  2.0454 -1.6521  0.6174
 5629TIP3    H216852   0.374   2.830   4.977 -0.9870  0.9206 -0.4843
 5630TIP3   OH216853   1.801   0.196   3.962  0.4415 -0.1170 -0.3318
 5630TIP3    H116854   1.892   0.225   3.970  0.5137 -0.6002  0.6750
 5630TIP3    H216855   1.750   0.274   3.982  0.6405 -0.3655  1.2307
 5631TIP3   OH216856   2.342   3.214   1.118 -0.1178 -0.1368  0.2123
 5631TIP3    H116857   2.345   3.203   1.214  0.8021  1.7292  0.4452
 5631TIP3    H216858   2.376   3.132   1.084  0.7188 -0.3732  1.5356
 5632TIP3   OH216859   1.061   1.955   1.126 -0.1875  0.7373  0.1728
 5632TIP3    H116860   1.155   1.956   1.143 -0.3714  2.3428  1.3137
 5632TIP3    H216861   1.020   1.963   1.213 -1.3538  1.1218 -0.3837
 5633TIP3   OH216862   5.883   1.914   4.872 -0.3045  0.1431  0.0030
 5633TIP3    H116863   5.964   1.902   4.823 -0.0632  0.5448  0.2943
 5633TIP3    H216864   5.910   1.908   4.964 -0.3621  1.6102  0.1432
 5634TIP3   OH216865   1.851   3.033   4.928  0.2467 -0.3764 -0.5512
 5634TIP3    H116866   1.936   3.006   4.964  0.1299 -1.1440 -0.8516
 5634TIP3    H216867   1.867   3.042   4.834  0.3627  0.9178 -0.4276
 5635TIP3   OH216868   6.998   2.567   5.745 -0.0049 -0.5224 -0.0046
 5635TIP3    H116869   7.074   2.536   5.794  0.5875  2.2780  1.0356
 5635TIP3    H216870   7.030   2.577   5.655  0.9671  0.7829  0.4528
 5636TIP3   OH216871   0.962   0.210   3.004  0.4327 -0.2754  0.1082
 5636TIP3    H116872   0.927   0.121   3.002 -1.2716  0.3743 -0.6714
 5636TIP3    H216873   0.962   0.238   2.912 -2.4228  1.7136  0.5551
 5637TIP3   OH216874   0.224   6.121   3.917 -0.4039 -0.0985  0.2184
 5637TIP3    H116875   0.254   6.082   3.835 -0.2161 -0.3459  0.4026
 5637TIP3    H216876   0.130   6.134   3.904 -1.2557 -3.8788  1.3679
 5638TIP3   OH216877   3.700   6.666   4.956  0.1182  0.5261  0.1563
 5638TIP3    H116878   3.653   6.637   4.877  1.3187 -1.6936  0.2114
 5638TIP3    H216879   3.704   6.762   4.946 -1.6793  0.5103 -1.3602
 5639TIP3   OH216880   2.018   4.904   1.579 -0.6158 -0.2410 -0.5463
 5639TIP3    H116881   1.969   4.966   1.633 -1.2170 -1.2207  0.0668
 5639TIP3    H216882   2.099   4.890   1.627 -0.5517 -0.0537 -0.6002
 5640TIP3   OH216883   5.882   5.674   4.578 -0.1274  0.1573 -0.0570
 5640TIP3    H116884   5.860   5.605   4.640 -0.8205  0.8371  0.4679
 5640TIP3    H216885   5.811   5.672   4.513 -0.9465  1.2988  0.7548
 5641TIP3   OH216886   6.979   4.232   1.890  0.0079  0.9260  0.2719
 5641TIP3    H116887   7.002   4.324   1.902  1.0181  0.6694  0.3989
 5641TIP3    H216888   7.048   4.196   1.834  0.0590  0.0718  0.8508
 5642TIP3   OH216889   0.773   3.407   5.777 -0.1738 -0.7576  0.1838
 5642TIP3    H116890   0.689   3.439   5.811  0.4166  0.1385  0.8300
 5642TIP3    H216891   0.749   3.337   5.716 -1.6787  1.8587 -2.4906
 5643TIP3   OH216892   2.600   1.293   0.526 -0.2106 -0.6215  0.1300
 5643TIP3    H116893   2.652   1.362   0.568 -0.4207 -0.3280 -0.0810
 5643TIP3    H216894   2.509   1.324   0.534 -0.1451  0.3637 -2.1589
 5644TIP3   OH216895   6.351   3.864   2.354  0.4177  0.2349 -0.3596
 5644TIP3    H116896   6.303   3.915   2.419  1.1246  1.1719 -0.5448
 5644TIP3    H216897   6.439   3.856   2.390  1.2570  2.0468 -1.8155
 5645TIP3   OH216898   4.421   3.224   4.584 -0.0402 -0.3239  0.3432
 5645TIP3    H116899   4.347   3.181   4.626  0.0621 -0.9177 -0.0730
 5645TIP3    H216900   4.384   3.304   4.545 -0.3780 -0.4115  0.4869
 5646TIP3   OH216901   1.958   4.988   0.515  0.2961 -0.0946 -0.2974
 5646TIP3    H116902   1.985   4.927   0.584 -0.0825 -0.2049 -0.2433
 5646TIP3    H216903   1.981   5.074   0.550 -1.5533  0.0297  0.8197
 5647TIP3   OH216904   1.285   2.598   1.474  0.2671 -0.0353  0.2095
 5647TIP3    H116905   1.268   2.662   1.406 -1.1595 -0.5192  0.0728
 5647TIP3    H216906   1.313   2.649   1.550  1.0829  0.5698 -0.4940
 5648TIP3   OH216907   0.597   3.059   1.995 -0.5530  0.3922 -0.1433
 5648TIP3    H116908   0.511   3.093   2.020  0.0912  2.4363 -0.4607
 5648TIP3    H216909   0.611   2.984   2.053 -1.5064  1.5344  1.6862
 5649TIP3   OH216910   4.566   1.988   2.200 -0.2087 -0.3461  0.0971
 5649TIP3    H116911   4.582   2.073   2.240  0.2285 -0.0643 -0.6773
 5649TIP3    H216912   4.582   2.001   2.107 -3.2053 -0.4787 -0.5398
 5650TIP3   OH216913   4.038   5.970   5.251 -0.3519  0.1723  0.7521
 5650TIP3    H116914   3.983   5.947   5.176 -2.7766  0.1681  2.4269
 5650TIP3    H216915   4.062   5.886   5.291 -1.8177  0.2193  1.8052
 5651TIP3   OH216916   4.015   4.302   3.506  0.3594  0.4802  0.2143
 5651TIP3    H116917   4.083   4.250   3.549  0.0429 -0.8373 -0.8201
 5651TIP3    H216918   3.951   4.238   3.476  0.2514  1.4024 -1.6664
 5652TIP3   OH216919   4.954   1.894   3.633  0.3147  0.4132 -0.2563
 5652TIP3    H116920   4.955   1.819   3.692 -0.7192  0.9542  0.4758
 5652TIP3    H216921   5.030   1.881   3.576  0.4077 -0.9452  0.1488
 5653TIP3   OH216922   1.632   5.290   2.292  0.1255 -0.3764  0.3307
 5653TIP3    H116923   1.623   5.377   2.332  0.1611 -0.6814  1.0128
 5653TIP3    H216924   1.662   5.308   2.202  0.6251  0.2977  0.6228
 5654TIP3   OH216925   2.914   2.244   4.950 -0.2897 -0.3304  0.1064
 5654TIP3    H116926   2.866   2.163   4.935 -0.3384 -0.3411  0.3148
 5654TIP3    H216927   2.979   2.222   5.017  0.0244 -0.3231 -0.1881
 5655TIP3   OH216928   7.051   3.761   2.970  0.0206 -0.0381 -0.0347
 5655TIP3    H116929   7.146   3.745   2.976  0.1938 -0.3063 -2.4012
 5655TIP3    H216930   7.024   3.711   2.893 -1.9195  0.6386  0.1681
 5656TIP3   OH216931   2.476   4.374   0.812 -0.0456 -0.1975  0.8886
 5656TIP3    H116932   2.523   4.321   0.748 -0.8880  0.8210 -0.6203
 5656TIP3    H216933   2.420   4.311   0.858 -0.0511 -0.8285  0.0526
 5657TIP3   OH216934   6.011   6.073   3.544 -0.5103 -0.5084 -0.0444
 5657TIP3    H116935   5.917   6.089   3.542 -0.3978  0.2141 -1.7709
 5657TIP3    H216936   6.050   6.159   3.531  0.4534 -0.6406  1.6758
 5658TIP3   OH216937   5.309   1.172   5.447  0.1053 -0.0738  0.6422
 5658TIP3    H116938   5.374   1.142   5.510  0.0305  0.7770  1.1244
 5658TIP3    H216939   5.359   1.219   5.380  0.1076 -0.4060  0.4046
 5659TIP3   OH216940   2.765   0.826   3.953  0.1464  0.6978 -0.3400
 5659TIP3    H116941   2.805   0.797   4.035 -0.2402  1.3736  0.0935
 5659TIP3    H216942   2.774   0.751   3.894 -1.0612 -0.4231  0.8258
 5660TIP3   OH216943   5.014   4.646   4.900 -0.0096 -0.4683 -0.4724
 5660TIP3    H116944   5.055   4.597   4.829  2.4384  1.5496 -0.5723
 5660TIP3    H216945   4.988   4.579   4.963 -0.0991 -2.1250 -2.1570
 5661TIP3   OH216946   0.586   6.393   2.178  0.2393 -0.2487  0.1527
 5661TIP3    H116947   0.626   6.479   2.184 -0.8928  0.1965  2.2525
 5661TIP3    H216948   0.521   6.403   2.108  1.6820 -0.1368 -1.2348
 5662TIP3   OH216949   6.635   6.654   1.957 -0.0795 -0.1665  0.0281
 5662TIP3    H116950   6.673   6.622   1.875 -1.2572  0.8852 -0.9678
 5662TIP3    H216951   6.706   6.703   1.998  0.1970  0.2501 -0.9247
 5663TIP3   OH216952   4.188   2.154   3.685 -0.1234  0.4822 -0.1350
 5663TIP3    H116953   4.224   2.076   3.728 -1.1136 -0.1172 -0.3592
 5663TIP3    H216954   4.130   2.119   3.617  0.3890  1.4185 -1.0968
 5664TIP3   OH216955   0.403   2.316   3.458  0.3204  0.2394 -0.5194
 5664TIP3    H116956   0.491   2.294   3.429  0.7655 -0.2570  1.1297
 5664TIP3    H216957   0.347   2.296   3.383  1.6050  0.7063 -1.6410
 5665TIP3   OH216958   4.316   3.506   0.450  0.1059 -0.7411  0.2053
 5665TIP3    H116959   4.401   3.467   0.469  0.3991 -0.4729 -0.5050
 5665TIP3    H216960   4.284   3.538   0.534  1.4065  0.5178  0.2642
 5666TIP3   OH216961   0.454   2.672   2.448 -0.2975  0.0896  0.2349
 5666TIP3    H116962   0.499   2.657   2.531  2.0361  1.4956 -0.6852
 5666TIP3    H216963   0.475   2.762   2.425 -1.7795  0.0798 -1.3971
 5667TIP3   OH216964   1.579   6.409   3.728 -0.2407 -0.1352 -0.3967
 5667TIP3    H116965   1.520   6.411   3.652  0.2506 -0.9255 -0.8105
 5667TIP3    H216966   1.521   6.396   3.803 -0.6078 -0.8798 -0.7949
 5668TIP3   OH216967   1.442   0.879   2.799  0.4949 -0.4069 -0.1837
 5668TIP3    H116968   1.457   0.812   2.867 -1.5963  0.0004  0.7459
 5668TIP3    H216969   1.402   0.831   2.727 -1.0854 -0.1864  0.5168
 5669TIP3   OH216970   2.767   2.193   0.420 -0.3211 -0.2271 -0.2554
 5669TIP3    H116971   2.673   2.191   0.407 -0.3374 -1.5087 -0.0034
 5669TIP3    H216972   2.798   2.107   0.392  0.7073 -0.0013  0.1286
 5670TIP3   OH216973   6.132   4.575   0.463 -0.0294 -0.9201  0.6329
 5670TIP3    H116974   6.096   4.664   0.466  1.4415 -0.2828 -0.0282
 5670TIP3    H216975   6.174   4.564   0.548  1.9003 -0.0309 -0.1516
 5671TIP3   OH216976   4.335   2.538   2.383 -0.3650  0.4909  0.0400
 5671TIP3    H116977   4.250   2.574   2.410 -0.0558  1.4172 -0.1930
 5671TIP3    H216978   4.368   2.494   2.461 -0.9962  0.2346  0.1725
 5672TIP3   OH216979   5.643   2.494   5.547  0.2998  0.0541  0.4980
 5672TIP3    H116980   5.564   2.529   5.506  0.4839  1.8669  1.6042
 5672TIP3    H216981   5.646   2.535   5.633  2.0252 -0.6008  0.7949
 5673TIP3   OH216982   2.424   2.984   2.672  0.0983  0.7320  0.5042
 5673TIP3    H116983   2.418   2.935   2.754  0.3948  1.1624  0.7863
 5673TIP3    H216984   2.517   2.984   2.650 -0.0913 -0.2939 -0.4029
 5674TIP3   OH216985   0.511   0.242   4.543  0.1257  0.0993 -0.1715
 5674TIP3    H116986   0.599   0.212   4.519  1.3046  1.8510  1.5920
 5674TIP3    H216987   0.507   0.333   4.514 -0.4139  0.5829  1.3179
 5675TIP3   OH216988   4.554   2.165   1.497  0.3423  0.3634 -0.0973
 5675TIP3    H116989   4.635   2.114   1.489  2.0710  3.0897 -1.6532
 5675TIP3    H216990   4.511   2.154   1.412  0.8215  1.5211 -0.5160
 5676TIP3   OH216991   3.488   6.700   4.127 -0.2887  0.4006  0.4636
 5676TIP3    H116992   3.486   6.785   4.172 -0.3409  1.5571 -1.6273
 5676TIP3    H216993   3.540   6.715   4.049  1.7152 -2.1595  1.1913
 5677TIP3   OH216994   4.284   3.579   5.436 -0.1333  0.5794  0.1023
 5677TIP3    H116995   4.253   3.563   5.347 -1.2387 -0.6234  0.6699
 5677TIP3    H216996   4.356   3.518   5.448 -0.2868  0.4135  0.1849
 5678TIP3   OH216997   4.235   2.052   2.008 -0.3711 -0.5119 -0.0970
 5678TIP3    H116998   4.185   2.131   1.987 -0.0604 -0.6437 -1.4736
 5678TIP3    H216999   4.291   2.039   1.931  0.7753 -1.1501  0.8085
 5679TIP3   OH217000   2.668   4.216   3.738 -0.1874 -0.3118  0.2399
 5679TIP3    H117001   2.672   4.140   3.796  1.1675 -1.1876 -0.9306
 5679TIP3    H217002   2.633   4.286   3.792 -0.9738 -1.6292  1.5024
 5680TIP3   OH217003   2.179   3.027   4.811 -0.3090  0.1995 -0.0227
 5680TIP3    H117004   2.267   3.050   4.839 -0.5658  2.5266 -0.8884
 5680TIP3    H217005   2.131   3.007   4.891  0.6365  0.3087  0.5716
 5681TIP3   OH217006   5.441   1.103   1.397 -0.1875 -0.1506 -0.4393
 5681TIP3    H117007   5.465   1.175   1.455  0.8413 -0.6407 -0.2482
 5681TIP3    H217008   5.505   1.034   1.415 -1.4135 -1.2948 -0.2962
 5682TIP3   OH217009   1.771   4.297   1.017 -0.2327 -0.0941  0.9071
 5682TIP3    H117010   1.717   4.223   0.989  0.4559  0.1883 -1.4167
 5682TIP3    H217011   1.723   4.337   1.089 -2.1568 -0.9846  0.1682
 5683TIP3   OH217012   2.831   4.219   4.847 -0.7963  0.3097 -0.2257
 5683TIP3    H117013   2.763   4.204   4.912 -0.5189  1.1058  0.2701
 5683TIP3    H217014   2.872   4.134   4.833 -0.8962  0.1221  0.6125
 5684TIP3   OH217015   1.282   2.077   2.985 -0.0248 -0.4933  0.5685
 5684TIP3    H117016   1.290   2.108   3.075 -1.5145  0.9165  0.2678
 5684TIP3    H217017   1.257   2.155   2.935  1.9531 -0.9635 -1.3061
 5685TIP3   OH217018   2.860   4.952   1.097  0.3206 -0.0347 -0.5240
 5685TIP3    H117019   2.931   4.980   1.156 -0.9871 -1.1951  1.7551
 5685TIP3    H217020   2.858   4.857   1.106 -2.2030  0.0229  0.4264
 5686TIP3   OH217021   6.973   0.016   1.116  0.5833  0.4487 -0.5477
 5686TIP3    H117022   7.019   0.001   1.199 -1.3595  0.8391  0.6547
 5686TIP3    H217023   6.991   0.108   1.096 -0.6690  0.9725  0.6035
 5687TIP3   OH217024   0.774   3.123   1.404  0.3473  0.3530  0.0741
 5687TIP3    H117025   0.790   3.134   1.498 -0.1216  2.7239 -0.0561
 5687TIP3    H217026   0.799   3.033   1.386  0.2330 -0.2456  2.5173
 5688TIP3   OH217027   2.289   4.514   3.228  0.0293  0.4828  0.4237
 5688TIP3    H117028   2.280   4.425   3.192  0.2877  0.8514 -0.5868
 5688TIP3    H217029   2.319   4.567   3.154  0.6248  1.2688  1.2050
 5689TIP3   OH217030   7.058   0.817   3.925  0.6549 -0.6363 -0.4053
 5689TIP3    H117031   7.038   0.862   4.007  1.4219 -2.1467  0.6739
 5689TIP3    H217032   6.993   0.747   3.919  1.3509 -1.3083 -0.4076
 5690TIP3   OH217033   3.000   4.447   1.767  0.2162  0.4491 -0.0499
 5690TIP3    H117034   2.936   4.487   1.708 -0.5640  1.7185  1.5878
 5690TIP3    H217035   3.064   4.517   1.784  0.1320  0.2901  1.0021
 5691TIP3   OH217036   0.713   6.744   5.149 -0.7183 -0.0701 -0.0626
 5691TIP3    H117037   0.741   6.655   5.173  1.4962  0.6041  0.0620
 5691TIP3    H217038   0.703   6.741   5.054  0.0655 -0.2817 -0.1456
 5692TIP3   OH217039   3.246   4.566   3.566 -0.3973 -0.7870  0.5367
 5692TIP3    H117040   3.316   4.588   3.629 -1.0468 -1.6392  1.5911
 5692TIP3    H217041   3.238   4.471   3.572 -0.5330 -0.8780 -0.8140
 5693TIP3   OH217042   1.678   4.637   3.350 -0.5079 -0.3588 -0.2689
 5693TIP3    H117043   1.670   4.709   3.413  0.5530 -0.2041 -0.2954
 5693TIP3    H217044   1.663   4.677   3.265 -0.2960 -0.2392 -0.2506
 5694TIP3   OH217045   2.863   3.887   4.434 -0.1004 -0.1720  0.7552
 5694TIP3    H117046   2.947   3.854   4.403  0.6512  2.0931  0.2003
 5694TIP3    H217047   2.859   3.860   4.526  0.6344 -1.3789  0.4528
 5695TIP3   OH217048   1.341   2.788   5.741  0.2500 -0.4214 -0.3563
 5695TIP3    H117049   1.291   2.813   5.663  1.2098  0.1205 -0.8140
 5695TIP3    H217050   1.276   2.750   5.800 -0.5164 -0.7159 -1.3603
 5696TIP3   OH217051   4.009   2.153   2.266 -0.4573 -0.3384 -0.3924
 5696TIP3    H117052   4.023   2.240   2.302 -0.4313 -1.9534  4.2106
 5696TIP3    H217053   4.051   2.155   2.180  0.6169  3.7635  0.0289
 5697TIP3   OH217054   5.950   5.612   0.443  0.1021  0.2210  0.4973
 5697TIP3    H117055   5.924   5.522   0.464 -0.2113  0.5764  1.6707
 5697TIP3    H217056   5.915   5.626   0.355  1.3584 -1.2652 -0.2935
 5698TIP3   OH217057   1.256   1.772   5.389  0.0853 -0.5269 -0.3912
 5698TIP3    H117058   1.255   1.676   5.393  0.1232 -0.5320 -0.5037
 5698TIP3    H217059   1.331   1.796   5.444 -1.7302 -0.4255  2.2043
 5699TIP3   OH217060   5.878   3.442   1.210  0.0903  0.7610 -0.9092
 5699TIP3    H117061   5.891   3.527   1.167 -0.4520  1.6273  0.5459
 5699TIP3    H217062   5.949   3.436   1.274  0.0716  0.1654 -0.9372
 5700TIP3   OH217063   1.421   5.394   0.512  0.3415 -0.5029 -0.3570
 5700TIP3    H117064   1.329   5.392   0.487 -0.3383  1.9296  1.5128
 5700TIP3    H217065   1.446   5.302   0.518 -1.9346 -1.2371 -1.0181
 5701TIP3   OH217066   3.209   4.305   2.132  0.1457 -0.3243  0.0240
 5701TIP3    H117067   3.206   4.401   2.134  1.7170 -0.2157 -1.4417
 5701TIP3    H217068   3.156   4.278   2.208 -2.8198  1.6114 -1.1700
 5702TIP3   OH217069   4.982   0.264   3.890  0.2044  0.1287 -0.6949
 5702TIP3    H117070   4.924   0.312   3.949  0.5156 -1.1088  0.6754
 5702TIP3    H217071   5.048   0.225   3.947 -0.7558 -3.0240 -1.5198
 5703TIP3   OH217072   6.588   1.117   0.501  0.1187  0.1014  0.2748
 5703TIP3    H117073   6.577   1.211   0.513  1.0982  0.2382  0.1863
 5703TIP3    H217074   6.556   1.100   0.413 -0.1545  0.3338  0.3290
 5704TIP3   OH217075   5.764   1.303   4.646  0.1174 -0.0909  0.2004
 5704TIP3    H117076   5.853   1.337   4.654  0.3297 -0.6024  0.0501
 5704TIP3    H217077   5.739   1.321   4.556 -0.2406  0.7839  0.4649
 5705TIP3   OH217078   3.336   2.032   4.257 -0.4598  0.2941  0.3550
 5705TIP3    H117079   3.241   2.025   4.263 -0.3557 -1.7683  0.3717
 5705TIP3    H217080   3.355   2.124   4.274 -2.2180  0.1913  3.7248
 5706TIP3   OH217081   1.473   6.304   4.740 -0.2867  0.6538  0.3359
 5706TIP3    H117082   1.547   6.296   4.799 -1.5452  2.3419  2.2651
 5706TIP3    H217083   1.406   6.247   4.778 -0.3058 -0.2482 -0.9555
 5707TIP3   OH217084   2.538   0.612   1.184 -0.1007 -0.0539 -0.3093
 5707TIP3    H117085   2.468   0.604   1.248 -1.3288  1.2665 -1.4020
 5707TIP3    H217086   2.561   0.705   1.184  0.9733 -0.3011 -0.6640
 5708TIP3   OH217087   2.584   3.965   1.678 -0.0153 -0.8458 -0.0404
 5708TIP3    H117088   2.528   3.887   1.677 -1.0037 -0.1551  0.4742
 5708TIP3    H217089   2.525   4.038   1.661  0.5477  0.0092  1.4650
 5709TIP3   OH217090   5.406   1.573   5.205 -0.6134  0.0595  0.3316
 5709TIP3    H117091   5.397   1.608   5.116 -1.7978  2.5387  1.3003
 5709TIP3    H217092   5.472   1.629   5.246  0.0194 -1.1394  0.9847
 5710TIP3   OH217093   2.396   5.588   1.553  0.5090 -0.1031 -0.4148
 5710TIP3    H117094   2.450   5.643   1.496  0.0679  0.7793 -0.0111
 5710TIP3    H217095   2.344   5.535   1.493  1.3970 -0.5447 -0.8094
 5711TIP3   OH217096   2.429   6.039   1.136 -0.1081 -0.3993  0.1701
 5711TIP3    H117097   2.500   6.057   1.198  0.3005 -1.7629  0.1244
 5711TIP3    H217098   2.422   6.120   1.085  1.5137 -0.2708  0.0815
 5712TIP3   OH217099   2.820   4.408   0.770 -0.0546 -0.0838 -0.0810
 5712TIP3    H117100   2.837   4.417   0.676 -1.2087 -0.6390 -0.3573
 5712TIP3    H217101   2.870   4.330   0.795  0.6396  0.3393 -0.1246
 5713TIP3   OH217102   0.041   3.186   5.107 -0.0184  0.5421  0.3479
 5713TIP3    H117103   0.022   3.171   5.015 -1.7319 -0.9120  0.8945
 5713TIP3    H217104   0.135   3.206   5.109  0.3248 -0.6464 -1.5648
 5714TIP3   OH217105   5.145   4.158   3.230 -0.1779  0.2037  0.1904
 5714TIP3    H117106   5.106   4.071   3.240  0.7392 -0.3000 -0.4820
 5714TIP3    H217107   5.118   4.186   3.143  0.4089  0.1209 -0.0253
 5715TIP3   OH217108   7.105   2.858   5.618 -0.2892  0.4666 -0.8378
 5715TIP3    H117109   7.028   2.875   5.672  1.0044  0.0114  1.2865
 5715TIP3    H217110   7.080   2.782   5.565 -0.9623 -0.3906  0.6218
 5716TIP3   OH217111   1.551   5.918   4.859  0.5068 -0.1490 -0.2659
 5716TIP3    H117112   1.492   5.843   4.855  0.6975 -0.3933  1.0528
 5716TIP3    H217113   1.624   5.894   4.802  0.0439 -0.4677 -0.7395
 5717TIP3   OH217114   0.652   0.791   1.710  0.2347 -0.2856  0.0322
 5717TIP3    H117115   0.720   0.778   1.776  0.1968  1.2353  0.4200
 5717TIP3    H217116   0.582   0.836   1.756  0.3951  1.2492 -1.1060
 5718TIP3   OH217117   5.574   6.678   3.318  0.2148  0.0670 -0.1984
 5718TIP3    H117118   5.650   6.685   3.376  0.7631  0.0955 -0.9035
 5718TIP3    H217119   5.610   6.644   3.235 -0.6579 -0.6302 -0.3104
 5719TIP3   OH217120   2.827   3.884   1.096 -0.0149  0.4726 -0.0302
 5719TIP3    H117121   2.850   3.893   1.004  1.4976  2.5081  0.4516
 5719TIP3    H217122   2.890   3.821   1.131  0.2371  0.6646 -0.1375
 5720TIP3   OH217123   6.539   1.787   2.596 -0.5449 -0.1326  0.3160
 5720TIP3    H117124   6.574   1.710   2.641  0.7910  0.4914  0.3834
 5720TIP3    H217125   6.498   1.839   2.666  3.3899  1.9109  1.4065
 5721TIP3   OH217126   6.074   3.061   1.154 -0.0621  0.3031  0.0241
 5721TIP3    H117127   6.089   2.970   1.130  0.1746  0.0946  0.9170
 5721TIP3    H217128   6.032   3.100   1.078 -0.1541 -0.5521 -0.3670
 5722TIP3   OH217129   4.854   6.741   4.340  0.0463 -0.4043  0.4247
 5722TIP3    H117130   4.856   6.646   4.343  1.0064 -0.6621 -3.4468
 5722TIP3    H217131   4.945   6.768   4.350 -0.0516 -0.0114  0.2843
 5723TIP3   OH217132   0.180   5.296   1.678 -0.0759 -0.2101 -0.1764
 5723TIP3    H117133   0.163   5.203   1.694 -2.0063  0.3019  1.2678
 5723TIP3    H217134   0.275   5.305   1.681  0.1817 -2.2308 -1.0467
 5724TIP3   OH217135   0.864   3.330   4.039  0.8236  0.6774  0.2737
 5724TIP3    H117136   0.788   3.301   3.990  1.0782  0.7675 -0.1848
 5724TIP3    H217137   0.939   3.304   3.985  1.2436 -1.3793  1.7368
 5725TIP3   OH217138   0.539   2.483   5.354 -0.3157  0.3878 -0.3169
 5725TIP3    H117139   0.482   2.505   5.280  0.0027 -0.7916 -0.9339
 5725TIP3    H217140   0.489   2.421   5.407 -0.1925  0.5338 -0.0255
 5726TIP3   OH217141   4.598   1.548   1.256  0.3242  0.2485 -0.7835
 5726TIP3    H117142   4.621   1.492   1.183 -0.7652 -0.9652 -0.2246
 5726TIP3    H217143   4.677   1.551   1.310  0.3398 -0.9030 -0.7290
 5727TIP3   OH217144   0.842   1.938   3.515  0.1210  0.0230 -0.2492
 5727TIP3    H117145   0.847   1.865   3.454  0.3723  0.3303 -0.6059
 5727TIP3    H217146   0.851   1.899   3.601 -2.0604 -0.6478 -0.2627
 5728TIP3   OH217147   6.638   5.891   0.191 -0.0593 -0.1675 -0.6442
 5728TIP3    H117148   6.588   5.948   0.249  0.3985  0.5608 -0.9544
 5728TIP3    H217149   6.636   5.805   0.234 -0.1706  0.2387  0.1750
 5729TIP3   OH217150   4.613   2.007   4.928  0.7464  0.0619 -0.9072
 5729TIP3    H117151   4.583   2.097   4.919 -0.0284 -0.3859 -4.4655
 5729TIP3    H217152   4.703   2.009   4.894  1.1775 -0.3272  0.1767
 5730TIP3   OH217153   2.289   5.490   3.764  0.3641  0.1250 -0.2766
 5730TIP3    H117154   2.264   5.575   3.800  0.0740 -0.4229  0.8555
 5730TIP3    H217155   2.208   5.456   3.725  0.9800  1.3473 -2.8987
 5731TIP3   OH217156   2.793   6.003   0.613 -0.3365 -0.0120 -0.2756
 5731TIP3    H117157   2.793   5.912   0.643  0.3393 -0.6874 -2.1914
 5731TIP3    H217158   2.850   6.049   0.675  0.4515 -1.1870 -0.1008
 5732TIP3   OH217159   2.801   2.925   5.671  0.5929 -0.2004  0.1411
 5732TIP3    H117160   2.893   2.953   5.669  0.7789 -0.5477  2.0782
 5732TIP3    H217161   2.805   2.834   5.700 -0.2348 -1.1820 -2.4950
 5733TIP3   OH217162   5.385   2.899   3.719  0.2187 -0.0097 -0.4250
 5733TIP3    H117163   5.476   2.900   3.687  0.4686 -1.1980  0.1974
 5733TIP3    H217164   5.358   2.808   3.712 -0.4348  0.0792  0.7340
 5734TIP3   OH217165   2.358   2.441   2.277 -0.1533 -0.1022 -0.4912
 5734TIP3    H117166   2.446   2.412   2.300 -0.3888 -0.7053 -0.3166
 5734TIP3    H217167   2.356   2.437   2.181 -0.2895 -1.0224 -0.4588
 5735TIP3   OH217168   1.655   3.580   3.747  0.1617 -0.0374  0.2223
 5735TIP3    H117169   1.670   3.651   3.684 -3.7043  0.2549 -0.6158
 5735TIP3    H217170   1.637   3.626   3.829 -0.4286 -0.1305  0.1465
 5736TIP3   OH217171   3.819   0.099   5.706 -0.2082 -0.2667  0.2025
 5736TIP3    H117172   3.809   0.021   5.761  1.4601 -0.7457 -0.1141
 5736TIP3    H217173   3.906   0.132   5.727  0.0235  0.1852 -1.3496
 5737TIP3   OH217174   6.767   3.188   3.780  0.1148  0.0977  0.4517
 5737TIP3    H117175   6.723   3.263   3.819 -0.1163 -0.8430  2.1036
 5737TIP3    H217176   6.778   3.126   3.853 -1.5131 -2.3298 -1.2121
 5738TIP3   OH217177   3.710   2.688   1.351  0.4303 -0.2083  0.1027
 5738TIP3    H117178   3.667   2.767   1.318  0.5333 -0.5666 -0.9002
 5738TIP3    H217179   3.798   2.717   1.375  0.3284  0.0689  0.1435
 5739TIP3   OH217180   3.641  -0.018   3.451 -0.0912 -0.3023  0.4150
 5739TIP3    H117181   3.624   0.043   3.379  1.9773 -0.3505 -0.1891
 5739TIP3    H217182   3.571  -0.001   3.514 -1.1798  0.6966 -0.9911
 5740TIP3   OH217183   3.030   3.686   0.530 -0.4891 -0.2259 -0.4124
 5740TIP3    H117184   2.998   3.773   0.509 -1.4280 -0.7402 -1.1765
 5740TIP3    H217185   2.964   3.649   0.589  1.0053  0.3629  1.7833
 5741TIP3   OH217186   5.065   3.393   2.893  0.4635 -0.6762 -0.0469
 5741TIP3    H117187   5.084   3.464   2.831  2.3294 -1.3171 -0.2662
 5741TIP3    H217188   5.097   3.427   2.977 -0.1479 -0.6266  0.1676
 5742TIP3   OH217189   5.605   5.780   4.552 -0.1937 -0.1178 -0.0320
 5742TIP3    H117190   5.604   5.685   4.566  0.1554 -0.2419 -0.8295
 5742TIP3    H217191   5.586   5.816   4.639  0.8516 -0.8943  0.5561
 5743TIP3   OH217192   1.537   1.533   0.122  0.3503 -0.1645  0.4610
 5743TIP3    H117193   1.624   1.492   0.116 -0.3497 -1.6003 -0.2349
 5743TIP3    H217194   1.537   1.599   0.053  0.3330 -1.2916 -0.6590
 5744TIP3   OH217195   0.072   3.159   3.038 -0.2258  0.0347 -0.0227
 5744TIP3    H117196   0.018   3.236   3.056 -1.6095 -0.9516  0.2540
 5744TIP3    H217197   0.010   3.086   3.037  1.2365 -1.3319  1.4288
 5745TIP3   OH217198   4.814   3.411   3.217  0.0999  0.5031 -0.0720
 5745TIP3    H117199   4.878   3.372   3.276 -0.9800 -0.7985  0.2991
 5745TIP3    H217200   4.768   3.336   3.178 -0.2410  1.3631 -1.4171
 5746TIP3   OH217201   6.433   5.294   3.762 -0.8723  0.4427 -0.0335
 5746TIP3    H117202   6.459   5.292   3.670  0.5081  0.6366  0.3250
 5746TIP3    H217203   6.409   5.385   3.778 -1.4693  0.3312 -0.2928
 5747TIP3   OH217204   2.015   1.047   2.128 -0.3756 -0.0591  0.0517
 5747TIP3    H117205   1.949   1.099   2.173 -0.5844  0.0113 -0.3282
 5747TIP3    H217206   1.971   0.964   2.107  0.1361 -0.6347  1.1831
 5748TIP3   OH217207   1.363   2.915   0.972 -0.0203 -0.2789 -0.5043
 5748TIP3    H117208   1.431   2.874   1.025 -0.6682 -0.2880  0.3619
 5748TIP3    H217209   1.391   3.006   0.965 -0.3027 -0.0881  0.5519
 5749TIP3   OH217210   1.941   1.251   4.357 -0.4960 -0.0864 -0.5167
 5749TIP3    H117211   1.873   1.299   4.404 -1.2773  0.1874 -1.8740
 5749TIP3    H217212   1.919   1.262   4.265  0.4783 -1.3483 -0.9371
 5750TIP3   OH217213   6.901   4.992   4.370 -0.0743 -0.6871  0.0989
 5750TIP3    H117214   6.812   4.993   4.406 -0.5797  1.3710 -1.0172
 5750TIP3    H217215   6.888   4.993   4.275  1.1357 -0.2248 -0.0790
 5751TIP3   OH217216   0.945   3.232   0.010 -0.1454 -0.5192  0.4059
 5751TIP3    H117217   0.919   3.316   0.047  0.4127 -0.3193  0.3526
 5751TIP3    H217218   0.989   3.187   0.083  1.9813  0.3316 -0.2833
 5752TIP3   OH217219   6.002   5.585   5.284  0.0878 -0.2759 -0.1571
 5752TIP3    H117220   5.909   5.594   5.302  0.2785 -2.3176  2.6141
 5752TIP3    H217221   6.035   5.675   5.281 -1.8954  0.4848 -1.1977
 5753TIP3   OH217222   1.724   4.318   2.355  0.2283 -0.2005  0.3523
 5753TIP3    H117223   1.805   4.266   2.359 -0.7039 -1.8454 -0.7609
 5753TIP3    H217224   1.661   4.267   2.405 -0.4884  0.3053 -0.0249
 5754TIP3   OH217225   1.391   5.386   4.430 -0.2490 -0.0749 -0.0870
 5754TIP3    H117226   1.316   5.439   4.405 -0.5263 -0.3464  0.1597
 5754TIP3    H217227   1.380   5.372   4.524  2.1240  3.1358  0.8499
 5755TIP3   OH217228   2.398   5.781   0.665 -0.3016  0.0682 -0.3310
 5755TIP3    H117229   2.417   5.687   0.669 -1.0793 -0.0713  0.6977
 5755TIP3    H217230   2.380   5.805   0.756 -1.6112  0.8821 -0.7798
 5756TIP3   OH217231   1.720   0.151   1.817 -0.0081  0.1764 -0.1385
 5756TIP3    H117232   1.742   0.060   1.796  0.9963  0.4278 -0.2301
 5756TIP3    H217233   1.803   0.191   1.843 -0.3201  1.2166 -0.6495
 5757TIP3   OH217234   4.790   0.712   0.248 -0.2152  0.1570 -1.0587
 5757TIP3    H117235   4.837   0.725   0.166  1.0444 -1.1082 -0.5818
 5757TIP3    H217236   4.701   0.688   0.220 -0.9151  3.3595 -1.9612
 5758TIP3   OH217237   3.425   2.626   4.161  0.3812  0.0081 -0.4384
 5758TIP3    H117238   3.495   2.593   4.104 -0.3413 -0.3574 -1.1363
 5758TIP3    H217239   3.376   2.686   4.106  0.0258  0.1121 -0.0137
 5759TIP3   OH217240   2.802   1.885   2.818 -0.3552  0.7618  0.0047
 5759TIP3    H117241   2.759   1.901   2.733  1.1743 -1.4487 -1.2762
 5759TIP3    H217242   2.891   1.920   2.806 -0.2115  0.6726  0.8001
 5760TIP3   OH217243   0.558   3.262   4.173  0.4283  0.1777 -0.2310
 5760TIP3    H117244   0.643   3.304   4.187  0.4217  1.2018 -2.6801
 5760TIP3    H217245   0.567   3.218   4.088 -0.4325 -2.6480  1.0453
 5761TIP3   OH217246   1.062   3.077   4.398 -0.1663 -0.2180  0.3287
 5761TIP3    H117247   0.968   3.095   4.395 -0.6400 -2.4820 -0.8653
 5761TIP3    H217248   1.077   3.017   4.325  2.2810  0.3190  0.3175
 5762TIP3   OH217249   2.745   5.252   0.853  0.0527 -0.3553  0.1865
 5762TIP3    H117250   2.767   5.165   0.823 -1.0525 -0.2304 -1.0684
 5762TIP3    H217251   2.655   5.265   0.825  0.0306  0.9968  0.8014
 5763TIP3   OH217252   5.387   0.628   1.643 -0.5533 -0.3002  0.0668
 5763TIP3    H117253   5.318   0.602   1.582 -2.2538  1.0304  1.3146
 5763TIP3    H217254   5.369   0.578   1.723  1.1069 -1.3487 -0.1721
 5764TIP3   OH217255   4.227   2.277   5.379  0.3044  0.0296 -0.2598
 5764TIP3    H117256   4.206   2.228   5.300 -1.3516 -0.5073  0.4697
 5764TIP3    H217257   4.301   2.229   5.417  1.3014  0.4516 -1.5718
 5765TIP3   OH217258   3.090   2.369   2.721 -0.4527 -0.3066 -0.3539
 5765TIP3    H117259   3.093   2.390   2.628 -1.4685  1.6672  0.0017
 5765TIP3    H217260   3.181   2.375   2.750 -0.3092  0.6069 -0.9375
 5766TIP3   OH217261   0.334   5.465   1.851 -0.7304 -0.3206  0.3784
 5766TIP3    H117262   0.376   5.404   1.792 -1.3386 -0.9152  0.5441
 5766TIP3    H217263   0.304   5.411   1.924 -0.3025  0.3468  1.0634
 5767TIP3   OH217264   3.487   3.277   2.020 -0.7095 -0.1073  0.2122
 5767TIP3    H117265   3.402   3.303   1.984 -0.9357  1.2422  1.6501
 5767TIP3    H217266   3.466   3.235   2.103 -0.0406 -1.0704 -0.0889
 5768TIP3   OH217267   1.254   5.628   4.696 -0.1156 -0.1563 -0.2927
 5768TIP3    H117268   1.164   5.643   4.726  0.4601 -2.7255  3.3057
 5768TIP3    H217269   1.244   5.569   4.621 -1.4150  0.5828 -0.7482
 5769TIP3   OH217270   4.063   6.702   4.203 -0.4605  0.9345  0.3609
 5769TIP3    H117271   4.067   6.793   4.234  0.9422  0.9395  0.2342
 5769TIP3    H217272   3.996   6.661   4.258  0.6962  1.3865  2.2053
 5770TIP3   OH217273   0.445   2.551   4.112  0.2346  0.2764 -0.1357
 5770TIP3    H117274   0.473   2.642   4.103 -0.2920  0.5371  0.6785
 5770TIP3    H217275   0.419   2.544   4.204 -0.7008 -0.4203 -0.4411
 5771TIP3   OH217276   5.188   2.273   5.381 -0.0706  0.0297  0.6045
 5771TIP3    H117277   5.097   2.279   5.353 -0.3251 -2.7615  0.5386
 5771TIP3    H217278   5.205   2.179   5.387  1.9293  0.4588  3.5808
 5772TIP3   OH217279   4.047   6.319   4.920 -0.7979 -0.1454  0.0396
 5772TIP3    H117280   4.103   6.396   4.928 -1.1095 -0.0467  1.4925
 5772TIP3    H217281   4.098   6.247   4.958 -0.8784 -0.4790 -0.4627
 5773TIP3   OH217282   6.747   1.146   0.210  0.3850 -0.0847  0.4462
 5773TIP3    H117283   6.663   1.108   0.185  0.5276 -0.3482  0.3602
 5773TIP3    H217284   6.785   1.081   0.270  1.2553 -0.7566 -0.7939
 5774TIP3   OH217285   1.180   3.384   2.666 -0.0927  0.1584 -0.1465
 5774TIP3    H117286   1.138   3.429   2.592 -0.6370  0.3345  0.2664
 5774TIP3    H217287   1.112   3.378   2.733  0.4881  0.2803  0.4643
 5775TIP3   OH217288   0.113   3.645   3.707  0.4964  0.0008  0.2901
 5775TIP3    H117289   0.198   3.668   3.743 -0.1352  3.3590 -0.0370
 5775TIP3    H217290   0.120   3.660   3.613  0.1412 -1.9701 -0.1075
 5776TIP3   OH217291   6.905   0.264   0.129  0.1668 -0.3956  0.1660
 5776TIP3    H117292   6.893   0.288   0.220 -1.5208  2.2756 -0.6490
 5776TIP3    H217293   6.896   0.169   0.128 -0.6476 -0.4170  2.6628
 5777TIP3   OH217294   2.231   0.598   3.671  0.3896  0.6864 -0.2296
 5777TIP3    H117295   2.307   0.609   3.613  0.5041  0.9582 -0.0317
 5777TIP3    H217296   2.159   0.636   3.622 -0.3294 -2.4320 -1.8325
 5778TIP3   OH217297   5.921   4.738   3.014  0.3998  0.0480  0.0655
 5778TIP3    H117298   5.857   4.669   2.999  0.7328 -0.3380  0.4133
 5778TIP3    H217299   5.884   4.815   2.970 -0.1030 -0.2755 -0.0821
 5779TIP3   OH217300   3.824   5.748   5.513  0.5338  0.1992  0.2178
 5779TIP3    H117301   3.865   5.696   5.443  1.1637  0.6168  0.2724
 5779TIP3    H217302   3.741   5.704   5.529  0.9492 -0.6560  0.0944
 5780TIP3   OH217303   1.012   4.909   1.136  0.4586  0.2056  0.0485
 5780TIP3    H117304   1.058   4.890   1.218  0.4565 -0.9436 -0.2017
 5780TIP3    H217305   0.930   4.949   1.163  0.5420  0.0108  0.5974
 5781TIP3   OH217306   2.528   5.048   4.431 -0.1151 -0.2120 -0.0608
 5781TIP3    H117307   2.557   5.004   4.351  1.3905  1.3420 -0.4147
 5781TIP3    H217308   2.535   5.141   4.411 -1.2882  0.2139  1.3520
 5782TIP3   OH217309   2.230   3.846   2.128  0.0155  0.3692 -0.0921
 5782TIP3    H117310   2.172   3.846   2.204 -0.0293  0.3969 -0.1269
 5782TIP3    H217311   2.318   3.850   2.166  0.1902 -2.6759  0.0986
 5783TIP3   OH217312   3.989   3.052   5.707 -0.7974 -0.1110  0.1136
 5783TIP3    H117313   4.081   3.074   5.692 -0.6711  0.0904  1.0937
 5783TIP3    H217314   3.992   2.972   5.759 -1.1625  0.0481  0.3828
 5784TIP3   OH217315   5.597   1.125   5.566  0.7478 -0.4877  0.2597
 5784TIP3    H117316   5.632   1.159   5.483  1.7294 -0.3716  0.6973
 5784TIP3    H217317   5.621   1.192   5.631 -0.2795 -0.4297  0.5915
 5785TIP3   OH217318   7.134  -0.004   0.848  0.5385  0.0555 -0.2405
 5785TIP3    H117319   7.092   0.081   0.860  0.2984 -0.1279  0.2330
 5785TIP3    H217320   7.187  -0.016   0.927  1.7086  0.4066 -0.9462
 5786TIP3   OH217321   5.842   4.880   3.718 -0.5490  0.0754  0.6671
 5786TIP3    H117322   5.781   4.940   3.677  0.5415  2.7692  2.6517
 5786TIP3    H217323   5.827   4.892   3.812  1.4370 -0.8863  1.1589
 5787TIP3   OH217324   2.106   6.668   4.676 -0.6218  0.5725  0.0009
 5787TIP3    H117325   2.184   6.720   4.660 -1.7816  2.0477 -1.1262
 5787TIP3    H217326   2.066   6.656   4.590 -0.5599 -2.0319  0.2374
 5788TIP3   OH217327   0.698   0.668   3.199  0.8303  0.0669  0.7064
 5788TIP3    H117328   0.751   0.730   3.249  1.3833 -0.1026  0.3400
 5788TIP3    H217329   0.745   0.585   3.206  0.6608 -0.0628  0.3097
 5789TIP3   OH217330   4.280   0.816   5.804 -0.3048 -0.0089  0.0517
 5789TIP3    H117331   4.291   0.842   5.713  0.3676 -0.7077 -0.0724
 5789TIP3    H217332   4.185   0.816   5.817 -0.4217 -0.2397 -0.7508
 5790TIP3   OH217333   6.510   1.583   1.259  0.4098 -0.3676  0.1232
 5790TIP3    H117334   6.529   1.583   1.352  0.6236 -0.3926  0.0801
 5790TIP3    H217335   6.586   1.540   1.219 -0.2357 -1.4756  0.0508
 5791TIP3   OH217336   4.843   4.036   3.071 -0.0377  0.3055 -0.4071
 5791TIP3    H117337   4.808   4.108   3.124  1.5833 -0.6832  2.2093
 5791TIP3    H217338   4.775   3.969   3.076  0.1603  0.1625  0.6064
 5792TIP3   OH217339   3.192   5.311   2.794  0.0812 -0.5431  0.4497
 5792TIP3    H117340   3.134   5.242   2.763 -0.9788  0.6122 -0.2048
 5792TIP3    H217341   3.248   5.268   2.859 -0.6172 -1.9789  0.1355
 5793TIP3   OH217342   4.080   2.413   0.254  0.2745 -0.0305 -0.6302
 5793TIP3    H117343   4.032   2.431   0.173  1.0951 -0.2304 -1.1688
 5793TIP3    H217344   4.132   2.492   0.268 -0.6882  0.4573  0.3129
 5794TIP3   OH217345   1.823   0.625   5.171 -0.4466 -0.8913 -0.3734
 5794TIP3    H117346   1.878   0.642   5.247 -2.2128  2.1984  0.3808
 5794TIP3    H217347   1.886   0.611   5.099  1.3689  1.3071  0.6561
 5795TIP3   OH217348   6.164   0.372   1.752  0.1810  0.2961  0.2225
 5795TIP3    H117349   6.094   0.385   1.688 -0.3058  0.6459  0.8121
 5795TIP3    H217350   6.132   0.301   1.808  1.2805 -1.1025 -0.8356
 5796TIP3   OH217351   1.993   3.266   0.239 -0.1041 -0.7052 -0.2809
 5796TIP3    H117352   1.976   3.324   0.165  2.1209 -0.2402 -0.4939
 5796TIP3    H217353   1.948   3.185   0.218 -2.6507  0.6324 -0.3446
 5797TIP3   OH217354   7.056   4.434   3.777  0.0118  0.3301  0.3161
 5797TIP3    H117355   7.081   4.390   3.696  1.5352 -0.6375  1.2543
 5797TIP3    H217356   7.063   4.366   3.845 -1.1226  1.1326  1.2819
 5798TIP3   OH217357   2.737   0.849   1.181  0.1958 -0.1201  0.6182
 5798TIP3    H117358   2.677   0.923   1.177 -1.9403 -1.5821  2.4130
 5798TIP3    H217359   2.760   0.842   1.274  0.5314 -1.5453  0.4601
 5799TIP3   OH217360   0.598   4.721   2.744 -0.3494  0.1292 -0.0334
 5799TIP3    H117361   0.627   4.692   2.830 -0.6468 -0.2941 -0.0686
 5799TIP3    H217362   0.504   4.737   2.754 -0.2680  0.6888 -0.1242
 5800TIP3   OH217363   3.102   2.020   0.384  0.1390  0.0566  0.4426
 5800TIP3    H117364   3.198   2.015   0.382  0.2034  0.6875  1.3800
 5800TIP3    H217365   3.083   2.110   0.410 -0.6988 -0.2007  0.7547
 5801TIP3   OH217366   1.166   4.331   3.438 -0.4789 -0.2801  0.0186
 5801TIP3    H117367   1.168   4.286   3.522 -1.1106 -0.3265  0.0118
 5801TIP3    H217368   1.105   4.281   3.385 -0.2574 -0.1199 -0.3950
 5802TIP3   OH217369   6.681   3.591   3.284  0.0376  0.0593 -0.3246
 5802TIP3    H117370   6.683   3.598   3.189  0.6815  0.7622 -0.2631
 5802TIP3    H217371   6.589   3.604   3.307  0.3090  3.3658 -0.6252
 5803TIP3   OH217372   6.141   4.024   1.667 -0.2130 -0.5016 -0.0161
 5803TIP3    H117373   6.173   4.015   1.577  0.0683 -1.7284  0.1983
 5803TIP3    H217374   6.187   4.101   1.701  1.0848 -1.1029 -0.3442
 5804TIP3   OH217375   3.818   0.274   4.698 -0.8537  0.1021 -0.2409
 5804TIP3    H117376   3.829   0.345   4.635  1.7534  0.0457  0.0278
 5804TIP3    H217377   3.907   0.239   4.710 -1.6510 -1.4735  1.6292
 5805TIP3   OH217378   5.258   6.088   2.535  0.0695  0.4701 -0.8412
 5805TIP3    H117379   5.202   6.018   2.501  0.4262  0.7593 -2.0523
 5805TIP3    H217380   5.231   6.097   2.627 -1.1150 -0.1274 -1.1076
 5806TIP3   OH217381   5.962   1.577   5.654 -0.1185 -0.2682  0.2064
 5806TIP3    H117382   6.052   1.599   5.676 -0.2440  0.7175 -0.2017
 5806TIP3    H217383   5.924   1.659   5.623 -0.6830 -1.0373 -1.2226
 5807TIP3   OH217384   0.943   1.768   4.352  1.0854  0.5253 -0.3118
 5807TIP3    H117385   0.994   1.838   4.392  1.2661  0.6779 -0.8091
 5807TIP3    H217386   0.913   1.715   4.426  1.0189  1.0778  0.0609
 5808TIP3   OH217387   1.891   0.332   0.761 -0.1513 -0.2067  0.2943
 5808TIP3    H117388   1.801   0.305   0.743  0.1513 -0.4759 -0.9263
 5808TIP3    H217389   1.938   0.250   0.778  0.4018 -0.3671 -1.7206
 5809TIP3   OH217390   4.420   1.237   3.633 -0.2014 -0.0505 -0.0608
 5809TIP3    H117391   4.502   1.197   3.603 -0.0532 -1.3462  1.8940
 5809TIP3    H217392   4.351   1.186   3.591  0.0129 -0.9665  0.6491
 5810TIP3   OH217393   6.176   0.634   3.066 -0.1472  0.2344  0.3183
 5810TIP3    H117394   6.257   0.651   3.018  0.6990 -1.7763  0.9157
 5810TIP3    H217395   6.198   0.561   3.124 -2.7094 -1.1471 -0.3220
 5811TIP3   OH217396   6.467   2.748   2.921 -0.0205  0.2107  0.0418
 5811TIP3    H117397   6.481   2.698   2.841  1.0475 -0.3439  0.5539
 5811TIP3    H217398   6.374   2.736   2.941 -0.4763  0.9439 -1.4739
 5812TIP3   OH217399   1.843   2.122   5.805  0.0495  0.1880 -0.1694
 5812TIP3    H117400   1.829   2.217   5.808 -2.6202 -0.1259  0.1003
 5812TIP3    H217401   1.800   2.094   5.724  1.3800 -0.7373 -0.5824
 5813TIP3   OH217402   6.630   5.690   4.180  0.1957  0.8226  0.1546
 5813TIP3    H117403   6.724   5.679   4.196 -0.1579 -0.4524  1.6139
 5813TIP3    H217404   6.613   5.782   4.200  0.9999  0.8631  0.6997
 5814TIP3   OH217405   1.935   6.358   1.929 -0.2795  0.2973  0.1331
 5814TIP3    H117406   1.923   6.390   2.019 -0.8574 -0.1634  0.2247
 5814TIP3    H217407   2.000   6.288   1.937  1.1792  1.5499 -0.1017
 5815TIP3   OH217408   2.387   5.575   1.832 -0.5044  0.3311 -0.0130
 5815TIP3    H117409   2.382   5.557   1.738  0.2868 -0.4625  0.0851
 5815TIP3    H217410   2.298   5.563   1.864 -0.3981 -1.5364 -0.3039
 5816TIP3   OH217411   3.831   5.548   2.385  0.6531 -0.3288 -0.1215
 5816TIP3    H117412   3.851   5.605   2.310 -0.7245  1.0871  0.5334
 5816TIP3    H217413   3.741   5.570   2.408 -0.1950 -3.2736 -0.2216
 5817TIP3   OH217414   5.283   0.392   4.642 -0.1143  0.6893  0.6574
 5817TIP3    H117415   5.355   0.388   4.704 -0.2197  1.9955  0.8792
 5817TIP3    H217416   5.247   0.480   4.651 -0.6027  0.6612 -0.7370
 5818TIP3   OH217417   1.663   6.386   2.717  0.5033  0.5791 -0.5486
 5818TIP3    H117418   1.751   6.395   2.754  0.0044  0.4503  0.7277
 5818TIP3    H217419   1.653   6.292   2.703  0.5086  0.5734 -0.5158
 5819TIP3   OH217420   0.346   2.899   5.216 -0.0035  0.4190  0.0597
 5819TIP3    H117421   0.299   2.815   5.214  0.9948 -0.2767  2.0514
 5819TIP3    H217422   0.433   2.878   5.183  0.7637  0.2091  2.0256
 5820TIP3   OH217423   3.183   4.583   4.215 -0.1293  0.0588  0.2285
 5820TIP3    H117424   3.215   4.511   4.270 -0.9624  0.1800  0.8908
 5820TIP3    H217425   3.218   4.563   4.128 -2.0164 -2.3026 -0.0829
 5821TIP3   OH217426   5.186   1.882   0.555  0.2331  0.0672 -0.3237
 5821TIP3    H117427   5.177   1.787   0.552  4.3821 -0.5062 -0.3121
 5821TIP3    H217428   5.279   1.897   0.568 -0.0569  4.2114 -1.5472
 5822TIP3   OH217429   6.920   5.005   0.019 -0.4431  0.4013  0.2190
 5822TIP3    H117430   6.896   4.970   0.105 -1.0219  0.8917  0.2652
 5822TIP3    H217431   6.946   4.929  -0.032  0.2229  0.1459  0.9343
 5823TIP3   OH217432   6.149   1.533   1.298  0.2660  0.5966  0.6414
 5823TIP3    H117433   6.114   1.476   1.367  1.8779 -0.6442  0.5062
 5823TIP3    H217434   6.224   1.484   1.263  0.4040  1.8751 -0.9656
 5824TIP3   OH217435   2.777   1.602   2.240 -0.6213  0.1579  0.2876
 5824TIP3    H117436   2.860   1.605   2.191 -1.4606  1.2871 -1.1468
 5824TIP3    H217437   2.791   1.660   2.314  0.4375 -1.0272  1.0563
 5825TIP3   OH217438   3.726   3.827   0.015  0.0820  0.3652 -0.7807
 5825TIP3    H117439   3.674   3.764  -0.034 -1.4904  1.8774 -1.1538
 5825TIP3    H217440   3.730   3.791   0.104 -0.2750 -0.5491 -1.1316
 5826TIP3   OH217441   5.282   0.645   0.824  0.1946 -0.6537 -0.1138
 5826TIP3    H117442   5.250   0.731   0.849  1.0406 -0.3672  0.0164
 5826TIP3    H217443   5.206   0.601   0.787 -0.5218 -0.2645  0.8521
 5827TIP3   OH217444   2.682   0.683   5.601 -0.0256 -0.0029  0.1970
 5827TIP3    H117445   2.662   0.777   5.604 -0.5478 -0.1255  1.0609
 5827TIP3    H217446   2.768   0.678   5.559  0.0679  0.8703  0.2542
 5828TIP3   OH217447   2.845   3.052   3.058 -0.3437  0.0305 -0.3445
 5828TIP3    H117448   2.927   3.099   3.044  0.2587 -0.6155  0.8116
 5828TIP3    H217449   2.779   3.120   3.068  0.4023  0.6420  0.6450
 5829TIP3   OH217450   5.585   1.693   4.391 -0.7276  0.0955 -0.4221
 5829TIP3    H117451   5.510   1.748   4.415  0.5159  2.0437 -0.8440
 5829TIP3    H217452   5.661   1.749   4.403  0.7605 -1.9686  0.4185
 5830TIP3   OH217453   3.133   4.524   0.543  0.0693 -0.3630  0.5575
 5830TIP3    H117454   3.195   4.463   0.584  0.1037 -1.0340 -0.4637
 5830TIP3    H217455   3.121   4.593   0.608  0.2407 -1.3195  1.6301
 5831TIP3   OH217456   6.939   3.654   0.919  0.0226 -0.3826 -0.4815
 5831TIP3    H117457   6.869   3.654   0.854  0.2647  0.7649 -0.7591
 5831TIP3    H217458   6.948   3.746   0.944  2.4035 -0.2592 -1.5393
 5832TIP3   OH217459   3.624   5.393   2.832  0.3914 -0.3181  0.2929
 5832TIP3    H117460   3.715   5.400   2.861 -0.1151  2.3935  1.5473
 5832TIP3    H217461   3.618   5.447   2.754 -0.1850 -0.2842  0.3514
 5833TIP3   OH217462   6.260   5.881   1.250  0.9033 -0.1146  0.0177
 5833TIP3    H117463   6.329   5.911   1.309  2.4315 -0.3141 -1.5944
 5833TIP3    H217464   6.229   5.961   1.207  0.9622 -0.1640 -0.1175
 5834TIP3   OH217465   5.885   2.883   2.413  0.0292  0.2777 -0.5584
 5834TIP3    H117466   5.851   2.795   2.402  0.2448 -0.0064  0.8622
 5834TIP3    H217467   5.852   2.932   2.338 -0.6106 -0.8489 -1.0225
 5835TIP3   OH217468   4.020   4.414   4.789 -0.1445  0.0200 -0.3188
 5835TIP3    H117469   3.958   4.476   4.749 -0.4425 -0.6219 -0.8674
 5835TIP3    H217470   4.105   4.438   4.752 -0.2695  0.0572 -0.5860
 5836TIP3   OH217471   4.232   2.966   2.650  0.1934  0.1595  0.2039
 5836TIP3    H117472   4.190   3.051   2.638 -0.4372  0.0321  1.3482
 5836TIP3    H217473   4.321   2.978   2.617  0.1590  1.3104  0.4891
 5837TIP3   OH217474   5.404   2.605   0.650 -0.1788  0.2451  0.4120
 5837TIP3    H117475   5.315   2.583   0.677 -0.1519  0.1845  0.4515
 5837TIP3    H217476   5.450   2.522   0.650 -0.6170 -0.0397 -1.5261
 5838TIP3   OH217477   2.323   2.339   2.772 -0.6733  0.0872  0.2629
 5838TIP3    H117478   2.368   2.423   2.765  2.5991 -1.6168 -2.4140
 5838TIP3    H217479   2.286   2.324   2.685 -0.7990 -1.4127  0.5507
 5839TIP3   OH217480   1.485   1.835   3.219  0.1276 -0.3288  0.5175
 5839TIP3    H117481   1.521   1.811   3.304  0.0735 -1.6317  0.1990
 5839TIP3    H217482   1.392   1.815   3.226  0.3339 -1.6688 -0.2373
 5840TIP3   OH217483   6.696   3.617   5.133  0.2145 -0.3178  0.1963
 5840TIP3    H117484   6.617   3.594   5.084 -0.9257 -0.1660  1.8811
 5840TIP3    H217485   6.768   3.605   5.071 -1.0669 -1.1259 -1.1725
 5841TIP3   OH217486   0.750   3.570   4.351  0.0244  0.4290  0.4613
 5841TIP3    H117487   0.834   3.545   4.311 -0.4054  1.3068 -1.0852
 5841TIP3    H217488   0.686   3.559   4.280 -0.8191  1.8270  0.9685
 5842TIP3   OH217489   5.305   2.287   2.208 -0.6080  0.0711  0.5222
 5842TIP3    H117490   5.232   2.227   2.195 -0.8870  0.3393  0.8256
 5842TIP3    H217491   5.362   2.273   2.133 -0.8106 -0.3729  0.4523
 5843TIP3   OH217492   4.261   4.499   1.103  0.6069 -0.3032  0.5063
 5843TIP3    H117493   4.333   4.488   1.165 -0.2908 -2.5107  1.2297
 5843TIP3    H217494   4.270   4.427   1.041  0.2211  0.6263 -0.6776
 5844TIP3   OH217495   2.628   0.507   4.752 -0.4711  0.5760 -0.0224
 5844TIP3    H117496   2.680   0.466   4.820  1.8677  1.1562 -1.3599
 5844TIP3    H217497   2.549   0.537   4.797 -0.0777 -1.0897  1.9203
 5845TIP3   OH217498   1.504   5.213   4.040 -0.8234 -0.3443 -0.1756
 5845TIP3    H117499   1.475   5.156   3.968 -0.7234 -0.2637 -0.2790
 5845TIP3    H217500   1.519   5.152   4.113 -3.2526 -0.1998  0.5373
 5846TIP3   OH217501   3.685   4.720   2.135  0.1863 -0.0601  0.3165
 5846TIP3    H117502   3.719   4.686   2.218 -1.7156 -0.1231  1.1062
 5846TIP3    H217503   3.686   4.645   2.076 -1.1384 -0.7681  1.1550
 5847TIP3   OH217504   6.038   3.407   4.315 -0.0599 -0.2709 -0.1545
 5847TIP3    H117505   6.031   3.317   4.346  0.7531 -1.6205 -3.4193
 5847TIP3    H217506   5.951   3.429   4.284  0.3644 -1.1307 -2.0836
 5848TIP3   OH217507   4.880   4.593   1.039  0.5648  0.4267  0.4284
 5848TIP3    H117508   4.924   4.608   0.955 -0.8921  1.9628 -0.1019
 5848TIP3    H217509   4.819   4.666   1.048 -0.4787 -0.5909  2.0741
 5849TIP3   OH217510   6.499   2.387   1.219 -0.2056  0.3495 -0.0368
 5849TIP3    H117511   6.582   2.433   1.232 -0.0481 -0.1935  0.9494
 5849TIP3    H217512   6.470   2.414   1.132  0.4354  1.4277  0.0735
 5850TIP3   OH217513   3.929   0.538   0.086  0.2611 -0.2680  0.1109
 5850TIP3    H117514   3.940   0.513   0.178  1.4111  0.2226  0.1206
 5850TIP3    H217515   3.877   0.618   0.089  0.5912 -0.0626  0.3476
 5851TIP3   OH217516   0.373   6.411   2.004 -0.0885  0.3147 -0.0933
 5851TIP3    H117517   0.323   6.344   1.958  0.3922 -1.6077  2.0368
 5851TIP3    H217518   0.317   6.436   2.078  0.5833  0.7919  0.2578
 5852TIP3   OH217519   2.601   1.155   2.850  0.5999 -0.4783  0.3777
 5852TIP3    H117520   2.510   1.155   2.877  1.3126  0.1701  3.0934
 5852TIP3    H217521   2.633   1.067   2.869  1.1234  0.0017  1.9187
 5853TIP3   OH217522   5.676   2.946   3.683  0.4172  0.7455 -0.1804
 5853TIP3    H117523   5.734   3.016   3.653  3.0701 -1.1689  0.2433
 5853TIP3    H217524   5.682   2.879   3.615 -0.6829  0.1410  0.2925
 5854TIP3   OH217525   5.380   2.596   2.151 -0.3865 -0.0951  0.3782
 5854TIP3    H117526   5.398   2.647   2.229  1.5553 -0.0913 -0.0139
 5854TIP3    H217527   5.408   2.507   2.173 -2.3688 -0.7159  0.5644
 5855TIP3   OH217528   0.993   0.339   3.907  0.0731  0.1525 -0.0331
 5855TIP3    H117529   1.025   0.250   3.891  1.4650  0.8008 -1.0452
 5855TIP3    H217530   0.995   0.348   4.003  2.5416 -0.0288 -0.0157
 5856TIP3   OH217531   4.651   6.373   3.149 -0.1938  0.8841  0.6314
 5856TIP3    H117532   4.704   6.324   3.212 -0.0385  0.9422  0.5457
 5856TIP3    H217533   4.713   6.404   3.084 -0.3223  1.0194  0.5717
 5857TIP3   OH217534   7.220   3.290   3.589  0.4987  0.3839 -0.2649
 5857TIP3    H117535   7.127   3.268   3.598  0.3289  0.6417 -1.2791
 5857TIP3    H217536   7.261   3.207   3.564  0.0042  0.9188 -3.1336
 5858TIP3   OH217537   4.250   6.253   1.741  0.3199  0.6099  0.1917
 5858TIP3    H117538   4.316   6.261   1.810  0.5683  2.2777 -0.1819
 5858TIP3    H217539   4.299   6.270   1.660 -0.0109 -1.0918 -0.4076
 5859TIP3   OH217540   4.225   1.062   0.431  0.5410 -0.1590 -0.1936
 5859TIP3    H117541   4.197   0.979   0.392  1.9628 -0.9879  0.4438
 5859TIP3    H217542   4.303   1.086   0.382 -0.6390  1.5830 -1.3023
 5860TIP3   OH217543   7.199   3.065   4.895 -0.4295  0.4060 -0.4929
 5860TIP3    H117544   7.261   3.036   4.827  1.4606  0.9034  0.9322
 5860TIP3    H217545   7.149   2.986   4.916  0.8588 -0.4557 -0.5314
 5861TIP3   OH217546   0.687   1.209   0.194 -0.3039  0.0618 -0.5835
 5861TIP3    H117547   0.646   1.161   0.267  0.6682  0.4287  0.2331
 5861TIP3    H217548   0.743   1.274   0.237 -1.3971  1.7738 -1.6794
 5862TIP3   OH217549   0.528   1.835   5.137  1.3280  0.4022 -0.0328
 5862TIP3    H117550   0.576   1.917   5.151  0.1212  1.2394 -0.6810
 5862TIP3    H217551   0.446   1.847   5.184  1.0139 -0.3228 -0.3805
 5863TIP3   OH217552   5.098   4.673   2.986 -0.0366 -0.0680 -0.0468
 5863TIP3    H117553   5.003   4.667   2.977 -0.2378  1.2330  1.0112
 5863TIP3    H217554   5.112   4.718   3.069  1.5546 -2.2088  0.9646
 5864TIP3   OH217555   1.728   0.246   0.054 -0.2607  0.4068 -0.2286
 5864TIP3    H117556   1.794   0.178   0.062 -1.5184 -0.7375  1.0542
 5864TIP3    H217557   1.777   0.328   0.057  0.9878 -0.2995  3.6217
 5865TIP3   OH217558   0.872   3.051   5.833 -0.0397  0.0488 -0.6488
 5865TIP3    H117559   0.918   2.992   5.891  1.1593  1.1740 -0.4119
 5865TIP3    H217560   0.783   3.056   5.869 -0.0304 -1.2133 -0.4190
 5866TIP3   OH217561   6.660   1.695   2.009  0.2362 -0.1579 -0.4573
 5866TIP3    H117562   6.579   1.693   2.061  0.6951  0.9928  0.3520
 5866TIP3    H217563   6.634   1.741   1.928 -0.5542 -2.2310 -1.4553
 5867TIP3   OH217564   4.567   0.801   5.382 -0.6940 -0.4890  0.5235
 5867TIP3    H117565   4.604   0.885   5.352 -0.1053  0.2348  3.0596
 5867TIP3    H217566   4.489   0.789   5.328  0.0796  0.8743 -0.9915
 5868TIP3   OH217567   4.007   1.817   1.988  0.6595  0.1189  0.3282
 5868TIP3    H117568   3.914   1.823   1.967  0.8054  0.2519 -0.2971
 5868TIP3    H217569   4.047   1.889   1.939  1.0571  0.2100  0.7856
 5869TIP3   OH217570   2.699   6.682   4.538 -0.3921  0.0841 -0.2090
 5869TIP3    H117571   2.708   6.663   4.445 -1.7234 -2.1419  0.0295
 5869TIP3    H217572   2.687   6.777   4.543 -0.7164  0.1930 -2.3443
 5870TIP3   OH217573   5.411   4.850   1.018 -0.2248 -0.2023 -0.0663
 5870TIP3    H117574   5.320   4.878   1.026 -0.5686 -1.2334 -0.1644
 5870TIP3    H217575   5.407   4.754   1.025  0.7315 -0.3353 -1.1531
 5871TIP3   OH217576   2.315   5.462   5.567 -0.0303  0.5138 -0.0392
 5871TIP3    H117577   2.370   5.487   5.492  0.4290  1.2739  0.5391
 5871TIP3    H217578   2.299   5.545   5.613  0.0461 -0.0125  0.9421
 5872TIP3   OH217579   1.100   2.820   4.605 -0.2518 -0.0081  0.0226
 5872TIP3    H117580   1.102   2.747   4.543  0.3204 -0.1672  0.2199
 5872TIP3    H217581   1.131   2.782   4.687 -2.8407 -0.2974  0.9754
 5873TIP3   OH217582   4.631   3.161   5.205  0.3289  0.0418 -0.5206
 5873TIP3    H117583   4.680   3.133   5.127  1.3079 -2.5067  0.8752
 5873TIP3    H217584   4.540   3.140   5.184  0.5840 -0.6644 -0.9795
 5874TIP3   OH217585   3.989   0.828   4.302  0.5595 -0.5941 -0.1208
 5874TIP3    H117586   3.893   0.825   4.309  0.5987 -0.6311  0.3910
 5874TIP3    H217587   4.008   0.918   4.277  0.3525 -0.7471 -0.8577
 5875TIP3   OH217588   1.582   1.460   5.047  0.0034  0.4312  0.4816
 5875TIP3    H117589   1.547   1.409   4.974  2.6292  1.0543 -1.3764
 5875TIP3    H217590   1.629   1.532   5.005  1.2993  1.0444  2.8235
 5876TIP3   OH217591   6.498   2.532   2.750  0.0975 -0.6916 -0.7525
 5876TIP3    H117592   6.522   2.604   2.691  0.8276 -0.2821  0.0219
 5876TIP3    H217593   6.471   2.462   2.691 -3.8463  1.2046 -1.5153
 5877TIP3   OH217594   6.777   6.543   0.960 -0.1374 -0.6479  0.5201
 5877TIP3    H117595   6.685   6.570   0.961  0.2822  1.3334 -1.8994
 5877TIP3    H217596   6.824   6.620   0.991  0.7620 -1.3151  0.8324
 5878TIP3   OH217597   3.146   6.138   4.022  0.4597  0.3175 -0.2729
 5878TIP3    H117598   3.199   6.173   3.950 -1.3491  1.2097 -1.2282
 5878TIP3    H217599   3.160   6.043   4.018  2.1038  0.5257 -0.3576
 5879TIP3   OH217600   0.325   0.218   3.119  0.0876 -0.3344 -0.5194
 5879TIP3    H117601   0.351   0.127   3.133 -1.1616 -0.9229 -1.7789
 5879TIP3    H217602   0.276   0.217   3.037 -3.4985  0.7306  1.4148
 5880TIP3   OH217603   5.923   0.690   0.812  0.4097  0.0519 -0.0786
 5880TIP3    H117604   5.872   0.650   0.882 -0.0807 -0.2219 -0.5880
 5880TIP3    H217605   5.996   0.630   0.797  0.0986 -0.2678 -0.3163
 5881TIP3   OH217606   0.548   2.782   0.470  0.4410 -0.2715  0.3659
 5881TIP3    H117607   0.602   2.777   0.391 -0.1895 -0.7329 -0.0370
 5881TIP3    H217608   0.496   2.702   0.469 -0.9355  0.5981  0.2451
 5882TIP3   OH217609   3.594   6.477   0.699 -0.3173  0.5881  0.3784
 5882TIP3    H117610   3.580   6.385   0.678 -0.9200  0.9352 -0.8451
 5882TIP3    H217611   3.670   6.477   0.757 -1.6231 -0.8423  2.1989
 5883TIP3   OH217612   3.313   0.504   1.539 -0.5069 -0.1706  0.1033
 5883TIP3    H117613   3.331   0.586   1.585 -4.7792  0.5534  0.9302
 5883TIP3    H217614   3.319   0.436   1.606  0.8558 -0.2921 -0.1047
 5884TIP3   OH217615   2.131   5.729   1.192  0.1399  0.2511  0.4611
 5884TIP3    H117616   2.128   5.647   1.241 -0.6411  0.9395  1.6004
 5884TIP3    H217617   2.107   5.705   1.103 -1.4233 -0.5668  1.0692
 5885TIP3   OH217618   1.815   4.806   4.273 -0.5172  0.0507 -0.0852
 5885TIP3    H117619   1.760   4.818   4.196 -0.5832 -1.7273 -0.3709
 5885TIP3    H217620   1.905   4.813   4.240 -0.5371 -1.0657 -0.4370
 5886TIP3   OH217621   6.132   5.546   4.518 -0.2680 -0.3301 -0.1045
 5886TIP3    H117622   6.050   5.593   4.534  0.4766  0.9131  0.1923
 5886TIP3    H217623   6.160   5.576   4.432  1.0764  1.1228  0.8014
 5887TIP3   OH217624   2.512   4.009   2.748 -0.8517  0.2509  0.5046
 5887TIP3    H117625   2.591   3.956   2.757 -1.0222  0.1038  1.2248
 5887TIP3    H217626   2.476   3.985   2.662  0.0493  0.5586  0.0259
 5888TIP3   OH217627   0.660   3.781   5.865  0.3094  0.4434 -0.0001
 5888TIP3    H117628   0.582   3.741   5.905  1.4997 -0.7450  1.2660
 5888TIP3    H217629   0.648   3.769   5.771 -1.0292  0.3030  0.1666
 5889TIP3   OH217630   4.244   1.161   3.891  0.2668 -0.6090 -0.7826
 5889TIP3    H117631   4.336   1.188   3.886  0.1070  0.2913  0.6597
 5889TIP3    H217632   4.198   1.222   3.835  0.1165  1.2799  1.2719
 5890TIP3   OH217633   0.996   1.649   1.030 -0.0509  0.0519 -0.4508
 5890TIP3    H117634   1.086   1.681   1.023 -0.6884  2.0752  0.0863
 5890TIP3    H217635   0.992   1.606   1.115  0.3687  0.0358 -0.4389
 5891TIP3   OH217636   2.128   6.657   2.816 -0.3249 -0.3950  0.2975
 5891TIP3    H117637   2.204   6.669   2.874  0.5190  1.6978 -1.1257
 5891TIP3    H217638   2.165   6.621   2.736 -0.9870 -0.3116 -0.0482
 5892TIP3   OH217639   4.816   5.856   3.981 -0.1772 -0.2692  0.0004
 5892TIP3    H117640   4.769   5.850   3.898  1.6227  1.6694 -1.2607
 5892TIP3    H217641   4.755   5.902   4.039 -0.8982 -0.2905 -0.7161
 5893TIP3   OH217642   6.225   2.949   5.752 -0.5172 -0.5486  0.5180
 5893TIP3    H117643   6.270   2.993   5.823 -0.0743  0.0510 -0.1212
 5893TIP3    H217644   6.198   3.020   5.693  0.3585 -1.1226 -0.6091
 5894TIP3   OH217645   3.287   1.216   1.985 -0.3512  0.3795 -0.7235
 5894TIP3    H117646   3.368   1.256   2.018 -0.5884  0.6289 -0.4398
 5894TIP3    H217647   3.239   1.191   2.063 -0.3372 -0.2105 -0.8967
 5895TIP3   OH217648   2.433   6.354   4.548 -0.1347  0.1784 -0.1662
 5895TIP3    H117649   2.444   6.313   4.462 -1.8444  0.6349 -0.6413
 5895TIP3    H217650   2.521   6.379   4.574  0.6864 -1.7426 -0.8813
 5896TIP3   OH217651   4.026   2.416   1.173  0.6250 -0.4922 -0.3539
 5896TIP3    H117652   3.948   2.451   1.131  0.2513 -0.9567 -0.0564
 5896TIP3    H217653   4.078   2.379   1.102 -0.5664 -2.3773 -0.3198
 5897TIP3   OH217654   4.310   4.223   2.128 -0.8225 -0.2328  0.0314
 5897TIP3    H117655   4.248   4.174   2.181 -3.9241  2.5139 -0.7206
 5897TIP3    H217656   4.301   4.313   2.158  2.0644  0.4878 -0.9180
 5898TIP3   OH217657   2.467   1.540   4.271 -0.4560  0.0709 -0.2770
 5898TIP3    H117658   2.548   1.568   4.227  0.0680 -0.7124  0.1688
 5898TIP3    H217659   2.474   1.576   4.359 -1.0556  0.8204 -0.5288
 5899TIP3   OH217660   4.125   2.132   0.293 -0.3837 -0.1151  0.5627
 5899TIP3    H117661   4.116   2.227   0.281 -0.4391  0.0279  1.6540
 5899TIP3    H217662   4.062   2.094   0.232 -2.4565  0.6431  2.0903
 5900TIP3   OH217663   3.257   3.165   3.843 -0.0013 -0.2955  0.0844
 5900TIP3    H117664   3.267   3.091   3.783  0.7540  0.3239 -0.5837
 5900TIP3    H217665   3.170   3.153   3.882 -0.5118 -0.7302 -1.1324
 5901TIP3   OH217666   3.853   3.349   5.108 -0.0799 -0.1451  0.6885
 5901TIP3    H117667   3.946   3.348   5.085 -0.1102  0.6225  0.5002
 5901TIP3    H217668   3.820   3.264   5.080 -0.7089  1.4727 -4.5866
 5902TIP3   OH217669   3.315   4.794   4.666 -0.4043 -0.0528 -0.1020
 5902TIP3    H117670   3.256   4.803   4.591  0.0858  0.4878 -0.4382
 5902TIP3    H217671   3.329   4.884   4.696 -0.0030 -0.1987  0.1612
 5903TIP3   OH217672   3.188   0.905   1.167  0.4600 -0.0167  0.1841
 5903TIP3    H117673   3.145   0.860   1.240  0.5625  0.4551  0.5341
 5903TIP3    H217674   3.189   0.840   1.097 -0.2027 -0.2643  0.3972
 5904TIP3   OH217675   6.902   4.662   4.342  0.5126  0.1882  0.5338
 5904TIP3    H117676   6.926   4.746   4.381  0.6778  1.3166 -1.8499
 5904TIP3    H217677   6.986   4.623   4.316  0.2999  0.4688 -0.6215
 5905TIP3   OH217678   3.996   5.392   4.410  0.0537 -0.6162 -0.8504
 5905TIP3    H117679   4.023   5.479   4.440 -1.0056 -0.7262  0.5283
 5905TIP3    H217680   4.075   5.356   4.370  0.5850  0.8779 -1.2499
 5906TIP3   OH217681   7.128   1.023   2.323 -0.5595  0.2224  0.3286
 5906TIP3    H117682   7.042   1.002   2.286 -2.0321  2.0672  2.3607
 5906TIP3    H217683   7.169   1.080   2.258 -1.2859  0.0962 -0.2577
 5907TIP3   OH217684   2.621   1.104   1.176 -0.2598  0.1219 -0.4676
 5907TIP3    H117685   2.637   1.168   1.246  1.3340  0.5832 -1.2197
 5907TIP3    H217686   2.527   1.110   1.160 -1.1592 -1.6185  3.1266
 5908TIP3   OH217687   6.707   1.566   3.310  0.2575  0.0611 -0.0216
 5908TIP3    H117688   6.763   1.545   3.385 -2.4046 -0.9962  1.8614
 5908TIP3    H217689   6.715   1.490   3.252  1.1373  0.1670 -0.0519
 5909TIP3   OH217690   4.285   2.982   5.650 -0.2024 -0.7799  0.1897
 5909TIP3    H117691   4.291   3.039   5.574 -1.6823 -0.5759  0.1924
 5909TIP3    H217692   4.297   2.893   5.615 -1.7389 -0.7660 -0.4569
 5910TIP3   OH217693   5.119   1.531   2.860  0.5793  0.6589  0.1242
 5910TIP3    H117694   5.092   1.441   2.877 -0.3168  0.8640 -0.1831
 5910TIP3    H217695   5.203   1.523   2.816  0.7188 -0.0131  0.5014
 5911TIP3   OH217696   4.852   5.062   4.473 -0.4971  0.4492 -0.9955
 5911TIP3    H117697   4.759   5.046   4.488 -0.0642 -0.2272  1.5942
 5911TIP3    H217698   4.886   4.979   4.439 -0.4848 -0.1265  0.3329
 5912TIP3   OH217699   4.734   3.514   1.601  0.0740 -0.6179 -0.4085
 5912TIP3    H117700   4.708   3.439   1.654  2.0147 -1.6671 -0.8534
 5912TIP3    H217701   4.721   3.590   1.658 -1.5356 -1.3061  0.1943
 5913TIP3   OH217702   6.039   2.968   0.568 -0.1318 -0.1768  0.3707
 5913TIP3    H117703   6.024   2.877   0.542  0.3345 -1.0045  2.7463
 5913TIP3    H217704   6.089   2.962   0.649 -0.9261  2.1885  1.1160
 5914TIP3   OH217705   2.934   6.046   1.624 -0.3420 -0.2482  0.0860
 5914TIP3    H117706   2.894   5.965   1.654 -2.2125 -0.6554 -3.0588
 5914TIP3    H217707   3.014   6.019   1.580 -1.2671 -0.5293 -1.4866
 5915TIP3   OH217708   4.134   0.162   0.371  0.2270 -0.2526 -0.3472
 5915TIP3    H117709   4.191   0.222   0.418  0.6954 -1.0594  0.1295
 5915TIP3    H217710   4.094   0.108   0.439 -0.8192  0.0404 -0.7030
 5916TIP3   OH217711   4.017   2.213   2.815 -0.2255 -0.0101 -1.0119
 5916TIP3    H117712   3.983   2.156   2.884 -0.0088  0.8950 -0.1411
 5916TIP3    H217713   4.065   2.153   2.757  0.0549 -0.7145 -0.0847
 5917TIP3   OH217714   0.241   2.019   4.222 -0.3970 -0.6066 -0.2252
 5917TIP3    H117715   0.262   2.107   4.189  0.7056 -1.3416 -1.5958
 5917TIP3    H217716   0.320   1.968   4.204 -1.1303 -1.9603  0.2876
 5918TIP3   OH217717   6.069   6.755   0.860 -0.5815 -0.2314 -0.4344
 5918TIP3    H117718   6.067   6.659   0.870 -0.7643 -0.2391 -0.5448
 5918TIP3    H217719   6.128   6.785   0.929  0.3825 -0.5258 -1.1025
 5919TIP3   OH217720   1.721   0.858   0.324 -0.2041 -0.7192 -0.3509
 5919TIP3    H117721   1.626   0.861   0.314 -0.2931 -0.7690  0.4050
 5919TIP3    H217722   1.741   0.765   0.335 -0.1013 -0.6797 -0.2049
 5920TIP3   OH217723   1.094   2.217   4.862 -0.3087  0.1742 -0.1033
 5920TIP3    H117724   1.077   2.261   4.945  2.3683  0.0821  0.5943
 5920TIP3    H217725   1.119   2.128   4.887  0.9454  0.2682 -0.9168
 5921TIP3   OH217726   3.689   1.372   2.411 -0.4477 -0.5567  0.4901
 5921TIP3    H117727   3.773   1.361   2.367  0.1281 -2.0109  1.8511
 5921TIP3    H217728   3.676   1.467   2.415  2.5235 -0.0925  2.6287
 5922TIP3   OH217729   5.606   4.478   4.929 -0.3021 -0.2443 -0.0077
 5922TIP3    H117730   5.651   4.551   4.886  0.2295 -0.4438  0.2027
 5922TIP3    H217731   5.650   4.400   4.896 -0.7803 -0.4719 -0.1261
 5923TIP3   OH217732   3.158   5.142   1.567 -0.1929  0.9101  1.1255
 5923TIP3    H117733   3.166   5.068   1.506  0.0766  0.1473  2.0682
 5923TIP3    H217734   3.233   5.198   1.546 -0.7143  1.2325  0.0176
 5924TIP3   OH217735   2.188   4.526   5.842 -0.4125  0.5097  0.0195
 5924TIP3    H117736   2.102   4.551   5.876 -0.7239  0.6150 -0.8173
 5924TIP3    H217737   2.169   4.483   5.758  0.1415 -2.0000  1.0822
 5925TIP3   OH217738   1.576   3.481   0.399 -0.1954 -0.1698  0.3904
 5925TIP3    H117739   1.594   3.387   0.395 -1.1907 -0.3359 -0.8644
 5925TIP3    H217740   1.495   3.487   0.451  0.0698  0.0344  0.7847
 5926TIP3   OH217741   1.684   0.372   4.695  0.6099  0.1120 -0.3171
 5926TIP3    H117742   1.620   0.354   4.764 -0.0022 -0.6792 -1.0697
 5926TIP3    H217743   1.768   0.372   4.740  0.2180 -0.3666  0.4328
 5927TIP3   OH217744   2.317   3.078   0.163  0.0241  0.7612 -0.0670
 5927TIP3    H117745   2.387   3.139   0.140 -0.3716  0.4713 -2.3442
 5927TIP3    H217746   2.328   3.006   0.101 -0.8520 -0.4411  1.1220
 5928TIP3   OH217747   5.301   2.988   2.968  0.5283  0.4784 -0.6581
 5928TIP3    H117748   5.384   3.036   2.966  0.9773 -0.2741 -0.5600
 5928TIP3    H217749   5.322   2.903   2.931  0.0423 -0.0863  0.3163
 5929TIP3   OH217750   7.074   6.726   2.202 -0.3917  0.2363 -0.0581
 5929TIP3    H117751   7.129   6.792   2.244 -1.8578  0.7566  1.1366
 5929TIP3    H217752   7.017   6.694   2.272 -1.1092 -0.8105 -1.0851
 5930TIP3   OH217753   5.841   0.302   4.128 -0.4492 -0.0554 -0.2026
 5930TIP3    H117754   5.759   0.350   4.114  0.4066  0.9122 -2.5729
 5930TIP3    H217755   5.907   0.356   4.084  1.1884 -1.6178  0.2354
 5931TIP3   OH217756   1.183   4.059   4.970  0.2960  0.0505  0.4363
 5931TIP3    H117757   1.149   3.970   4.979  0.1080 -0.2056 -2.1491
 5931TIP3    H217758   1.107   4.111   4.944  0.9737  0.2931 -1.2253
 5932TIP3   OH217759   1.473   4.972   2.997 -0.0680 -0.1214 -0.2342
 5932TIP3    H117760   1.466   4.882   2.965  1.4041  0.1156 -1.4005
 5932TIP3    H217761   1.453   4.967   3.090 -0.4195 -1.5844 -0.3681
 5933TIP3   OH217762   4.825   3.494   4.236 -0.1781  0.6361  0.0893
 5933TIP3    H117763   4.773   3.535   4.167 -1.5491  0.3054  0.8769
 5933TIP3    H217764   4.899   3.455   4.191  0.3386  2.5999 -0.8758
 5934TIP3   OH217765   2.634   1.297   3.439  0.6426  0.1484  0.1481
 5934TIP3    H117766   2.622   1.311   3.345  1.0287 -0.0140  0.0704
 5934TIP3    H217767   2.724   1.263   3.447  0.1157 -1.2722  0.4163
 5935TIP3   OH217768   5.433   0.721   4.125 -0.7040 -0.7361 -0.2367
 5935TIP3    H117769   5.341   0.709   4.102 -0.9142 -1.1908  0.7915
 5935TIP3    H217770   5.436   0.807   4.167  0.0971  1.2528 -3.9426
 5936TIP3   OH217771   1.947   3.704   4.396  0.0939 -0.0491 -0.1825
 5936TIP3    H117772   1.888   3.640   4.357 -0.3047  0.1783  0.0497
 5936TIP3    H217773   1.995   3.741   4.321 -1.9641  1.7106 -0.7261
 5937TIP3   OH217774   5.535   1.539   1.735  0.4917  0.1731  0.6336
 5937TIP3    H117775   5.571   1.548   1.823  0.8258  2.8199  0.3162
 5937TIP3    H217776   5.498   1.626   1.716  1.2382 -0.0441 -2.1772
 5938TIP3   OH217777   3.361   0.631   2.205  0.7572  0.5968 -0.1667
 5938TIP3    H117778   3.348   0.684   2.126  0.1965  0.5053 -0.1398
 5938TIP3    H217779   3.298   0.666   2.268  0.2943 -0.1750 -0.1873
 5939TIP3   OH217780   6.540   0.595   2.324  0.3910 -0.3100  0.3284
 5939TIP3    H117781   6.497   0.644   2.394  2.6860  0.5739  1.2074
 5939TIP3    H217782   6.517   0.642   2.244  0.8451  0.9758  0.9271
 5940TIP3   OH217783   2.494   3.298   0.131  0.0819 -0.6344 -0.6918
 5940TIP3    H117784   2.459   3.377   0.171  1.5762 -1.1469  1.8348
 5940TIP3    H217785   2.552   3.330   0.061 -1.6645  0.3230 -1.7871
 5941TIP3   OH217786   6.114   5.593   3.135 -0.2452 -0.2224 -0.4942
 5941TIP3    H117787   6.125   5.688   3.139  0.1144 -0.3229  1.5094
 5941TIP3    H217788   6.203   5.559   3.127 -0.3971 -0.4020 -1.5786
 5942TIP3   OH217789   4.509   4.392   1.226  0.1321 -0.2485  0.7123
 5942TIP3    H117790   4.577   4.442   1.271 -0.0657  1.8148 -1.1304
 5942TIP3    H217791   4.538   4.388   1.135 -1.8909  0.2037 -0.0140
 5943TIP3   OH217792   1.184   5.813   3.006 -0.2587  0.0706 -0.2517
 5943TIP3    H117793   1.280   5.804   3.004 -0.1893 -0.4777  1.9560
 5943TIP3    H217794   1.152   5.724   2.998 -0.4822  0.0574  0.6389
 5944TIP3   OH217795   2.711   6.712   4.262  0.1681 -0.1184 -0.2717
 5944TIP3    H117796   2.650   6.684   4.194  1.6185  2.2183 -2.7438
 5944TIP3    H217797   2.794   6.721   4.216  1.1320  1.9775  1.7323
 5945TIP3   OH217798   4.433   0.742   4.467 -0.1566  0.1632  0.7716
 5945TIP3    H117799   4.349   0.745   4.421  0.7366  0.7797 -0.9230
 5945TIP3    H217800   4.491   0.796   4.413  1.0981  0.5151  2.3976
 5946TIP3   OH217801   3.872   0.429   4.469 -0.0809  0.4289  0.1710
 5946TIP3    H117802   3.955   0.388   4.444 -0.2544  0.2997 -0.2120
 5946TIP3    H217803   3.834   0.458   4.386 -0.4728  0.3771  0.3313
 5947TIP3   OH217804   1.069   5.983   3.217  0.0719  0.3478 -0.0489
 5947TIP3    H117805   1.089   5.897   3.180 -0.3574 -0.1573  0.8878
 5947TIP3    H217806   1.100   6.044   3.150  0.0758 -0.5295 -0.8791
 5948TIP3   OH217807   0.784   3.936   4.943  0.4810 -0.1461  0.3266
 5948TIP3    H117808   0.734   3.986   5.007 -0.1123  0.3456 -0.5010
 5948TIP3    H217809   0.800   3.852   4.985  0.8067  0.4423  1.4308
 5949TIP3   OH217810   1.114   0.352   4.666 -0.4619 -0.1344  0.2751
 5949TIP3    H117811   1.209   0.357   4.657 -0.5052 -0.2043 -0.3009
 5949TIP3    H217812   1.099   0.342   4.760 -0.0713  3.5121  0.8482
 5950TIP3   OH217813   3.900   1.632   3.993  0.1612 -0.4476 -0.2877
 5950TIP3    H117814   3.884   1.646   4.087  2.1333 -0.9277  0.1686
 5950TIP3    H217815   3.834   1.566   3.968 -0.0973 -0.6635  0.8704
 5951TIP3   OH217816   5.792   0.881   4.136 -0.4778  0.2992  0.1809
 5951TIP3    H117817   5.845   0.802   4.145  0.6626  0.8607 -1.1049
 5951TIP3    H217818   5.760   0.899   4.224 -0.4194 -1.3478  0.5642
 5952TIP3   OH217819   3.576   4.968   0.620 -0.2089  0.2055 -0.0358
 5952TIP3    H117820   3.563   4.920   0.538 -1.5017 -0.8017  0.7292
 5952TIP3    H217821   3.513   5.040   0.616 -1.1214 -0.5376  0.5677
 5953TIP3   OH217822   5.027   3.126   3.915 -0.4648  0.3531  0.4396
 5953TIP3    H117823   5.027   3.220   3.932 -0.9922  0.3571  0.4435
 5953TIP3    H217824   5.080   3.116   3.836 -0.0523  0.6059  0.6852
 5954TIP3   OH217825   5.801   1.341   2.123  0.7340 -0.1538 -0.0828
 5954TIP3    H117826   5.791   1.380   2.210  3.1383  2.0545 -0.6967
 5954TIP3    H217827   5.864   1.269   2.136  0.9679  0.0723  0.0409
 5955TIP3   OH217828   5.552   6.249   0.748  0.9012  0.4022 -0.1977
 5955TIP3    H117829   5.645   6.228   0.752  0.4973 -1.6038 -0.2441
 5955TIP3    H217830   5.508   6.166   0.767 -0.8915  0.7455 -2.3975
 5956TIP3   OH217831   2.635   1.888   3.554  0.1993 -0.3843  0.1371
 5956TIP3    H117832   2.576   1.862   3.483  3.1996 -0.9800 -2.3645
 5956TIP3    H217833   2.621   1.823   3.622 -1.8607 -0.5757 -0.4104
 5957TIP3   OH217834   0.405   0.837   0.075 -0.5187 -0.2653  0.0485
 5957TIP3    H117835   0.447   0.811  -0.007  2.6081  0.5376  1.2341
 5957TIP3    H217836   0.478   0.852   0.135 -2.5593  1.7153  2.2274
 5958TIP3   OH217837   5.907   0.671   2.420  0.3698  0.3429  0.4048
 5958TIP3    H117838   5.828   0.663   2.474 -0.4091  0.8527 -0.6257
 5958TIP3    H217839   5.941   0.582   2.413 -1.7738 -0.4135 -1.5518
 5959TIP3   OH217840   1.182   2.492   0.940 -0.0302  0.4117  0.0811
 5959TIP3    H117841   1.125   2.502   0.864 -1.3418  2.5269  1.2202
 5959TIP3    H217842   1.122   2.475   1.012  1.2158 -1.9823  0.6423
 5960TIP3   OH217843   3.631   4.537   1.819 -0.0385 -0.3737  0.0963
 5960TIP3    H117844   3.569   4.609   1.826  0.6617  0.3173 -0.6556
 5960TIP3    H217845   3.652   4.532   1.726  0.1156 -1.3835  0.1730
 5961TIP3   OH217846   2.405   0.185   2.257 -0.4480  0.2321  0.4985
 5961TIP3    H117847   2.423   0.192   2.350 -1.7403 -0.3373  0.8107
 5961TIP3    H217848   2.328   0.240   2.243 -0.4370  0.0863 -0.1745
 5962TIP3   OH217849   5.862   0.682   5.903 -0.4686 -0.0098  0.3271
 5962TIP3    H117850   5.860   0.778   5.898  3.1176  0.2590  1.3522
 5962TIP3    H217851   5.789   0.654   5.848 -1.4729  3.2841 -0.2423
 5963TIP3   OH217852   3.124   0.764   3.599  0.2171  0.3363  0.0223
 5963TIP3    H117853   3.128   0.854   3.565  1.8543  0.3190  0.1308
 5963TIP3    H217854   3.063   0.770   3.672 -1.1307  0.9656 -1.0843
 5964TIP3   OH217855   4.117   1.864   5.079  0.0517 -0.2564  0.2145
 5964TIP3    H117856   4.088   1.775   5.095 -2.5085  0.3571 -0.5982
 5964TIP3    H217857   4.197   1.854   5.026 -0.3854 -2.0525 -0.1631
 5965TIP3   OH217858   5.647   3.984   5.054 -0.8223  0.2342 -0.3475
 5965TIP3    H117859   5.581   4.037   5.010 -0.1013  0.9163 -0.6447
 5965TIP3    H217860   5.704   4.048   5.097 -0.3856 -0.3373 -0.0622
 5966TIP3   OH217861   1.832   3.377   3.796  0.5223 -0.3065 -0.1877
 5966TIP3    H117862   1.898   3.426   3.746  0.1578  0.2947 -0.0849
 5966TIP3    H217863   1.752   3.429   3.786  0.3147 -0.4845  0.5559
 5967TIP3   OH217864   3.009   6.483   1.035 -0.4484 -0.0980  0.2100
 5967TIP3    H117865   3.071   6.494   0.964 -0.7245  2.0325  0.2330
 5967TIP3    H217866   3.028   6.555   1.096 -1.8895 -0.3219  0.9914
 5968TIP3   OH217867   5.708   0.586   0.973  0.7175 -0.0217  0.2452
 5968TIP3    H117868   5.637   0.574   0.910  0.1899  0.4132  0.7532
 5968TIP3    H217869   5.666   0.626   1.049  1.7276  1.3933  0.0856
 5969TIP3   OH217870   1.558   3.478   4.533  0.1985  0.0393  0.2482
 5969TIP3    H117871   1.481   3.436   4.496 -0.0346 -0.7007  1.4931
 5969TIP3    H217872   1.592   3.534   4.463 -0.4393 -0.9760 -0.9026
 5970TIP3   OH217873   0.887   1.878   4.028 -0.4268 -0.2219 -0.5519
 5970TIP3    H117874   0.808   1.932   4.031  0.3871  0.9639  0.9756
 5970TIP3    H217875   0.860   1.794   4.066 -1.3434 -0.4408 -1.6222
 5971TIP3   OH217876   5.364   3.495   5.259  0.2333  0.6170  0.5754
 5971TIP3    H117877   5.297   3.557   5.230 -0.5260 -0.4444  0.0021
 5971TIP3    H217878   5.447   3.538   5.237 -0.2980  0.6597 -1.5707
 5972TIP3   OH217879   5.993   2.243   0.606  0.7564  0.2881  0.5107
 5972TIP3    H117880   6.079   2.237   0.564 -0.1200  0.7017 -1.4506
 5972TIP3    H217881   5.953   2.157   0.593  0.1407  0.6833 -0.3200
 5973TIP3   OH217882   5.188   6.685   3.800  0.3649  0.2443  0.1349
 5973TIP3    H117883   5.105   6.653   3.763  1.3987  0.2847 -2.4526
 5973TIP3    H217884   5.167   6.772   3.833 -1.1420 -0.6990  1.8288
 5974TIP3   OH217885   2.035   2.138   2.430  0.5506  0.7245 -0.2755
 5974TIP3    H117886   2.011   2.065   2.373  2.1067  1.3205 -1.7992
 5974TIP3    H217887   1.980   2.211   2.401  1.4651  1.0752 -1.1847
 5975TIP3   OH217888   4.179   6.587   3.055 -0.1194  0.1057 -0.2959
 5975TIP3    H117889   4.248   6.653   3.055  0.6719 -0.6969 -0.1029
 5975TIP3    H217890   4.225   6.505   3.072 -1.2236 -0.3583  0.5407
 5976TIP3   OH217891   7.154   5.127   0.442 -0.2771  0.1250  0.5175
 5976TIP3    H117892   7.181   5.047   0.395 -1.3775 -0.1436  0.3111
 5976TIP3    H217893   7.197   5.120   0.527  0.9787  0.1428 -0.0940
 5977TIP3   OH217894   4.305   5.110   3.530 -0.2951 -0.8515  0.1554
 5977TIP3    H117895   4.251   5.187   3.549 -0.1114 -0.8317  0.6107
 5977TIP3    H217896   4.384   5.122   3.584 -0.2723 -1.3637  0.2466
 5978TIP3   OH217897   6.981   5.188   2.785 -0.1069  0.1115 -0.3801
 5978TIP3    H117898   7.071   5.200   2.814 -0.3348 -0.4782  0.6212
 5978TIP3    H217899   6.942   5.276   2.793  0.6112  0.5674 -1.7122
 5979TIP3   OH217900   1.619   0.209   0.720  0.0860 -0.1320  0.3093
 5979TIP3    H117901   1.566   0.149   0.667 -0.1721 -0.8856  1.3882
 5979TIP3    H217902   1.667   0.152   0.780  1.4720  0.6043 -0.0538
 5980TIP3   OH217903   4.963   4.353   3.855 -0.1826 -0.1196 -0.0391
 5980TIP3    H117904   5.037   4.413   3.839  0.5797 -1.3478 -1.2997
 5980TIP3    H217905   4.995   4.294   3.923 -0.7600  0.5671  0.8538
 5981TIP3   OH217906   1.314   3.567   0.490  0.3482  0.3979  0.2081
 5981TIP3    H117907   1.294   3.623   0.415 -0.0550 -1.4466 -1.1099
 5981TIP3    H217908   1.230   3.531   0.517  0.8930 -2.0269 -1.0211
 5982TIP3   OH217909   3.595   1.415   0.334  0.4206 -0.3418 -0.2414
 5982TIP3    H117910   3.619   1.470   0.260 -0.1207 -1.6956 -1.4718
 5982TIP3    H217911   3.542   1.471   0.390  0.0785  0.4646 -1.3410
 5983TIP3   OH217912   7.183   4.581   3.399  0.5979  0.4634  0.3836
 5983TIP3    H117913   7.104   4.535   3.426  0.8277 -0.7645 -0.9178
 5983TIP3    H217914   7.169   4.671   3.428 -1.0905  0.1789  0.5683
 5984TIP3   OH217915   6.641   0.381   2.745 -0.2589 -0.0644 -0.3637
 5984TIP3    H117916   6.634   0.328   2.824 -0.2481 -1.2735 -1.1553
 5984TIP3    H217917   6.718   0.436   2.760  0.3207 -0.9768  0.0770
 5985TIP3   OH217918   5.853   4.056   1.811  0.0091  0.1497  0.1506
 5985TIP3    H117919   5.942   4.089   1.798 -0.7468  1.6530 -1.8806
 5985TIP3    H217920   5.826   4.027   1.724 -1.3680 -0.6492  0.8140
 5986TIP3   OH217921   6.042   2.773   5.901  0.8236  0.2769  0.2841
 5986TIP3    H117922   6.112   2.820   5.854  0.9710 -0.1322  0.0971
 5986TIP3    H217923   6.026   2.695   5.849  1.2663 -0.3859  1.1159
 5987TIP3   OH217924   4.619   2.794   0.521 -0.1031 -0.2176  0.6597
 5987TIP3    H117925   4.553   2.840   0.469 -0.8633 -0.1467  1.6676
 5987TIP3    H217926   4.666   2.740   0.458 -1.2491 -0.4172 -0.0458
 5988TIP3   OH217927   0.129   3.042   3.563  0.4014  0.0745  0.0495
 5988TIP3    H117928   0.126   2.964   3.618  1.7179  0.2870  0.4672
 5988TIP3    H217929   0.111   3.011   3.475 -1.8893 -0.2555  0.5783
 5989TIP3   OH217930   3.808   2.791   5.470 -0.3087  0.2458  0.2148
 5989TIP3    H117931   3.737   2.856   5.464 -0.4286  0.0158 -0.9940
 5989TIP3    H217932   3.874   2.822   5.408  0.0797 -0.2603  0.3715
 5990TIP3   OH217933   0.999   2.591   3.137  0.2938 -0.2756 -0.1857
 5990TIP3    H117934   1.046   2.608   3.055  0.3881  1.2553  0.1574
 5990TIP3    H217935   1.008   2.497   3.150  3.6426 -0.0452  0.0494
 5991TIP3   OH217936   2.128   1.154   1.900 -0.7027  0.4244 -0.2008
 5991TIP3    H117937   2.173   1.069   1.898 -2.2121 -0.3960 -1.2678
 5991TIP3    H217938   2.076   1.151   1.980  1.2348  1.4968  1.1968
 5992TIP3   OH217939   1.086   6.144   4.485  0.0540  0.6592 -0.3036
 5992TIP3    H117940   1.083   6.064   4.432  0.4180  1.0892 -0.9829
 5992TIP3    H217941   1.117   6.212   4.425  0.1183  1.2352  0.3654
 5993TIP3   OH217942   3.389   2.548   4.818 -0.6647  0.8778 -0.4390
 5993TIP3    H117943   3.373   2.458   4.792  0.3846  1.0278 -1.6886
 5993TIP3    H217944   3.332   2.600   4.762 -2.0246  0.9895  0.9594
 5994TIP3   OH217945   3.257   3.806   5.272  0.2535 -0.0590 -0.7113
 5994TIP3    H117946   3.232   3.738   5.209 -1.3357  0.9139 -1.1836
 5994TIP3    H217947   3.349   3.824   5.253 -0.0704 -0.1151 -2.4464
 5995TIP3   OH217948   2.435   0.683   2.762 -0.4768  0.8724  0.0546
 5995TIP3    H117949   2.523   0.703   2.732  0.1756 -1.0318  0.5637
 5995TIP3    H217950   2.444   0.669   2.857 -1.1133 -0.3103 -0.0400
 5996TIP3   OH217951   2.575   2.735   2.245 -0.4780  0.2431  0.4236
 5996TIP3    H117952   2.640   2.731   2.174 -1.4819 -0.2821 -0.4936
 5996TIP3    H217953   2.503   2.786   2.209 -2.1035 -2.1218  0.0855
 5997TIP3   OH217954   6.243   4.692   4.304 -0.0498 -0.5102 -0.5660
 5997TIP3    H117955   6.172   4.756   4.305  1.8301  1.7369  1.0396
 5997TIP3    H217956   6.315   4.738   4.260  0.6270 -2.5387 -1.7307
 5998TIP3   OH217957   4.786   2.227   4.635  0.2543  0.7689 -0.1286
 5998TIP3    H117958   4.781   2.145   4.587  0.3379  2.1042 -2.6057
 5998TIP3    H217959   4.848   2.211   4.705  1.9603 -0.6712 -1.8690
 5999TIP3   OH217960   4.556   2.691   1.532  0.1462 -0.8402 -0.3117
 5999TIP3    H117961   4.629   2.732   1.486 -0.0722 -0.9770 -0.7858
 5999TIP3    H217962   4.528   2.756   1.596  0.4615 -0.6514 -0.3658
 6000TIP3   OH217963   3.146   0.308   2.714  0.7419  0.4055  0.3272
 6000TIP3    H117964   3.078   0.259   2.760 -1.0445  1.9148 -0.5629
 6000TIP3    H217965   3.216   0.245   2.699  0.0731 -0.9052  2.3458
 6001TIP3   OH217966   2.488   5.515   0.668  0.3257 -0.2828 -0.3168
 6001TIP3    H117967   2.481   5.439   0.610  1.1683  0.6559 -1.7229
 6001TIP3    H217968   2.579   5.543   0.660  0.4851 -0.1380  1.5406
 6002TIP3   OH217969   0.998   4.422   0.851  0.1447 -0.0556  0.2301
 6002TIP3    H117970   0.961   4.404   0.765 -2.5084 -0.4319  1.3516
 6002TIP3    H217971   1.065   4.488   0.835  0.5483 -0.9849 -2.2371
 6003TIP3   OH217972   2.295   5.176   0.285 -0.0685  0.0039 -0.0940
 6003TIP3    H117973   2.286   5.202   0.194  0.6507  0.2143 -0.1079
 6003TIP3    H217974   2.379   5.131   0.290  0.0188  0.2160  0.5152
 6004TIP3   OH217975   0.675   5.717   5.199 -0.3730  0.3397 -0.2199
 6004TIP3    H117976   0.600   5.660   5.183 -0.6814  0.9816 -1.1580
 6004TIP3    H217977   0.739   5.661   5.243 -1.3154 -0.2710  0.4112
 6005TIP3   OH217978   1.819   6.544   3.556  0.2389  0.0192 -0.2205
 6005TIP3    H117979   1.747   6.506   3.606  0.2201  2.2614  1.6027
 6005TIP3    H217980   1.784   6.627   3.523  1.6920  0.7356 -0.0361
 6006TIP3   OH217981   0.048   1.670   5.121 -0.5124  0.1894  0.5331
 6006TIP3    H117982   0.092   1.742   5.076 -0.6738 -0.0563 -0.0170
 6006TIP3    H217983   0.042   1.600   5.056  1.1912 -0.9713  1.5403
 6007TIP3   OH217984   6.836   2.422   3.662  0.3584  0.2296 -0.1474
 6007TIP3    H117985   6.810   2.451   3.575  1.5334  1.2731 -0.1757
 6007TIP3    H217986   6.790   2.480   3.722  1.0451  0.7806 -0.1419
 6008TIP3   OH217987   5.441   6.357   3.574  0.3378  0.1610  0.0013
 6008TIP3    H117988   5.492   6.391   3.501  1.0924 -0.5175  0.2024
 6008TIP3    H217989   5.365   6.415   3.579  1.6793  1.9765  0.4670
 6009TIP3   OH217990   0.602   4.632   0.410 -0.3645  0.0478  0.1010
 6009TIP3    H117991   0.604   4.727   0.419 -0.5615 -0.0087  0.8040
 6009TIP3    H217992   0.566   4.617   0.323 -1.4819  0.6115  0.4431
 6010TIP3   OH217993   1.354   3.521   4.761  0.6063 -0.7882  0.2153
 6010TIP3    H117994   1.432   3.494   4.809 -0.5469 -2.7710  1.1037
 6010TIP3    H217995   1.339   3.451   4.699 -0.1074 -0.0994 -0.4134
 6011TIP3   OH217996   5.799   2.417   3.531  0.2422  0.7339  0.0143
 6011TIP3    H117997   5.757   2.342   3.573  0.9706 -0.4896 -1.3239
 6011TIP3    H217998   5.726   2.475   3.507 -0.6960 -0.9554 -1.5310
 6012TIP3   OH217999   6.680   1.138   4.723  0.2548  0.2558  0.0792
 6012TIP3    H118000   6.690   1.125   4.818 -3.0377 -1.3928  0.3529
 6012TIP3    H218001   6.641   1.225   4.715 -0.9577 -0.2415  0.4111
 6013TIP3   OH218002   6.876   5.760   0.692 -0.5254  0.2619  0.2967
 6013TIP3    H118003   6.892   5.731   0.782 -0.6359 -0.5712  0.0605
 6013TIP3    H218004   6.932   5.704   0.639  0.8536  1.8989 -0.0548
 6014TIP3   OH218005   2.685   2.962   3.582 -0.0008 -0.1871 -0.0882
 6014TIP3    H118006   2.619   2.977   3.649  2.6025 -1.1851  2.8976
 6014TIP3    H218007   2.649   3.004   3.503 -3.3123  0.8417  1.8015
 6015TIP3   OH218008   4.856   4.540   1.835  0.3007  0.0691  0.6603
 6015TIP3    H118009   4.775   4.571   1.796  0.4420 -0.0268  0.2800
 6015TIP3    H218010   4.924   4.565   1.772  0.3865 -1.2648  0.1793
 6016TIP3   OH218011   3.930   3.879   5.560  0.2528  0.1007 -0.0293
 6016TIP3    H118012   3.885   3.901   5.641  0.4240  0.0161  0.0888
 6016TIP3    H218013   3.882   3.805   5.524  0.7682 -0.5036  0.4987
 6017TIP3   OH218014   4.443   1.035   0.276  0.3120  0.6514 -0.3422
 6017TIP3    H118015   4.530   1.072   0.290  0.7792 -0.4045 -0.4173
 6017TIP3    H218016   4.458   0.956   0.224 -0.6273  0.1224  0.1664
 6018TIP3   OH218017   0.873   0.999   4.224 -0.5991  0.3330 -0.7206
 6018TIP3    H118018   0.888   1.043   4.141 -2.8232 -0.3245 -1.5518
 6018TIP3    H218019   0.852   1.070   4.285  0.9200  0.8071 -0.7057
 6019TIP3   OH218020   5.843   1.591   5.225  0.0969 -0.6366 -0.2627
 6019TIP3    H118021   5.921   1.612   5.174  0.4641  0.9822  0.8831
 6019TIP3    H218022   5.867   1.513   5.276  1.2163  0.2119  0.5514
 6020TIP3   OH218023   6.159   6.355   4.018  0.1014  0.1861  0.0423
 6020TIP3    H118024   6.097   6.284   4.001 -0.9438  0.8264  0.9987
 6020TIP3    H218025   6.162   6.362   4.113  1.7118  0.1452  0.0063
 6021TIP3   OH218026   0.837   5.610   0.603  0.1463 -0.2179  0.5151
 6021TIP3    H118027   0.893   5.683   0.632 -1.6813  1.1436  0.7470
 6021TIP3    H218028   0.871   5.535   0.651  0.1977  1.0796  2.6559
 6022TIP3   OH218029   3.711   1.984   1.547 -0.7793  0.0418 -0.6010
 6022TIP3    H118030   3.765   2.007   1.472  0.8423  2.1013  1.1014
 6022TIP3    H218031   3.769   1.935   1.606 -1.1932  0.8314  0.5110
 6023TIP3   OH218032   2.255   2.610   1.993  0.0881  0.5052 -0.1623
 6023TIP3    H118033   2.210   2.526   2.001  0.7169  0.1572 -0.1374
 6023TIP3    H218034   2.221   2.663   2.064 -0.6455  0.4297 -0.4490
 6024TIP3   OH218035   0.973   1.671   5.772 -0.2708  0.3203 -0.5778
 6024TIP3    H118036   0.993   1.603   5.836 -2.7948  3.1107  3.6955
 6024TIP3    H218037   0.892   1.642   5.731 -2.0948  1.0584  2.2055
 6025TIP3   OH218038   1.403   3.888   0.514 -0.1968 -0.1986 -0.4207
 6025TIP3    H118039   1.401   3.854   0.425  2.1547 -0.1648 -0.5401
 6025TIP3    H218040   1.315   3.871   0.548 -1.0182 -0.5933 -2.5792
 6026TIP3   OH218041   5.935   2.330   5.031  0.2680  0.3933  0.7286
 6026TIP3    H118042   6.016   2.286   5.056 -0.4861 -0.9089  0.9513
 6026TIP3    H218043   5.871   2.259   5.021 -1.3666  1.5423  2.4788
 6027TIP3   OH218044   4.522   5.067   2.643  0.4023  0.1408 -0.1266
 6027TIP3    H118045   4.606   5.108   2.665 -0.4159  1.7128  0.1795
 6027TIP3    H218046   4.510   5.001   2.711  1.6275 -0.4839 -0.4826
 6028TIP3   OH218047   1.102   5.631   4.200  0.3123  0.1920 -0.1298
 6028TIP3    H118048   1.096   5.562   4.134 -1.2267  1.7280 -1.6748
 6028TIP3    H218049   1.140   5.706   4.153  0.3032  0.9492  1.0398
 6029TIP3   OH218050   2.952   4.427   4.998 -0.0820  0.2523 -0.2089
 6029TIP3    H118051   3.025   4.479   4.964  0.6231  0.1919  1.1794
 6029TIP3    H218052   2.939   4.358   4.932 -1.4731  2.4746 -2.4504
 6030TIP3   OH218053   5.221   5.110   3.070  0.1640 -0.1275  0.2039
 6030TIP3    H118054   5.219   5.106   2.975 -0.3530 -0.6461  0.2240
 6030TIP3    H218055   5.171   5.189   3.092 -1.5711 -1.1222  0.0745
 6031TIP3   OH218056   7.076   1.714   1.631 -0.5891 -0.3681  0.1567
 6031TIP3    H118057   7.114   1.745   1.549  1.6186 -0.7960  0.9511
 6031TIP3    H218058   7.047   1.794   1.675  0.1543  0.0741 -0.1327
 6032TIP3   OH218059   4.509   3.581   1.423 -0.4228 -0.0596  0.1411
 6032TIP3    H118060   4.509   3.650   1.490 -0.4682  1.3469 -1.2683
 6032TIP3    H218061   4.598   3.547   1.423 -0.0275  0.9538 -0.0959
 6033TIP3   OH218062   3.334   3.335   2.463  0.0497 -0.1780 -0.3790
 6033TIP3    H118063   3.364   3.302   2.378  0.7848  1.0257 -0.6124
 6033TIP3    H218064   3.290   3.260   2.504  0.1597 -0.9291 -1.5881
 6034TIP3   OH218065   4.967   1.394   2.214 -0.1106 -0.0356 -0.1885
 6034TIP3    H118066   4.990   1.374   2.123 -0.4115  0.9598 -0.4905
 6034TIP3    H218067   4.988   1.314   2.262  0.8745 -0.2839 -0.9938
 6035TIP3   OH218068   3.023   5.659   1.078  0.0362  0.0433 -0.4664
 6035TIP3    H118069   3.022   5.603   1.156  2.0149  1.5053  0.7282
 6035TIP3    H218070   3.000   5.601   1.006 -1.8123 -1.3967  1.1738
 6036TIP3   OH218071   6.871   4.082   0.103  0.1213  0.2162 -0.1742
 6036TIP3    H118072   6.914   4.159   0.140 -0.3550 -0.0377  0.9286
 6036TIP3    H218073   6.783   4.112   0.079  0.2373  0.2337 -0.6009
 6037TIP3   OH218074   0.801   1.669   3.000  1.0274  0.1327  0.0323
 6037TIP3    H118075   0.724   1.618   3.028  1.3358 -1.0024 -1.1227
 6037TIP3    H218076   0.798   1.747   3.055 -0.5377 -0.2354  0.5418
 6038TIP3   OH218077   2.648   4.641   2.735 -0.1463  0.5865 -0.0306
 6038TIP3    H118078   2.634   4.582   2.810  2.8003 -0.1583  0.0649
 6038TIP3    H218079   2.710   4.594   2.679  0.3307  2.5531 -1.2460
 6039TIP3   OH218080   0.656   5.730   5.511 -0.3088 -0.5876  0.4085
 6039TIP3    H118081   0.672   5.720   5.605 -2.7586  0.3199  1.0189
 6039TIP3    H218082   0.623   5.644   5.484 -0.1676 -0.6764  0.5144
 6040TIP3   OH218083   5.330   1.836   2.654  0.3022  0.7823 -0.3081
 6040TIP3    H118084   5.236   1.850   2.664  0.1554 -0.7755  0.9018
 6040TIP3    H218085   5.359   1.804   2.740  1.6206 -0.3432 -1.1261
 6041TIP3   OH218086   6.017   2.699   4.248  0.3503 -0.1190  0.3173
 6041TIP3    H118087   6.075   2.668   4.317  0.6561 -1.2551 -0.4250
 6041TIP3    H218088   5.950   2.631   4.242 -0.1083  0.3554  0.0110
 6042TIP3   OH218089   5.854   6.665   0.060 -0.3054  0.7668 -0.8929
 6042TIP3    H118090   5.788   6.621   0.005 -1.6239 -0.1138  1.2429
 6042TIP3    H218091   5.860   6.609   0.138  1.0323  2.2640  0.1260
 6043TIP3   OH218092   2.025   4.599   0.388  0.5679 -0.1344  0.4273
 6043TIP3    H118093   2.017   4.589   0.482  1.3045 -0.2675  0.4793
 6043TIP3    H218094   2.070   4.520   0.359 -0.6493 -0.6244 -0.1842
 6044TIP3   OH218095   3.883   2.822   1.789 -0.1536 -0.3031  0.6571
 6044TIP3    H118096   3.922   2.899   1.830  1.1265 -1.6653  2.1534
 6044TIP3    H218097   3.853   2.768   1.862  0.0493 -1.7431 -0.2694
 6045TIP3   OH218098   2.846   3.806   1.823  0.1437 -0.2817 -0.1257
 6045TIP3    H118099   2.787   3.828   1.751 -0.3133  1.4360  0.7028
 6045TIP3    H218100   2.931   3.841   1.795  0.0531  0.0343 -0.0154
 6046TIP3   OH218101   0.757   1.851   5.498 -0.3001  0.0206  0.3822
 6046TIP3    H118102   0.698   1.919   5.466 -0.6061  0.1719  1.2504
 6046TIP3    H218103   0.701   1.773   5.506  0.2388 -0.6065 -1.4793
 6047TIP3   OH218104   3.210   0.996   4.972 -0.1584 -0.0204 -0.1947
 6047TIP3    H118105   3.181   0.925   5.030 -2.8118 -0.3343 -1.7142
 6047TIP3    H218106   3.205   1.075   5.026  0.3987 -0.6766  0.8289
 6048TIP3   OH218107   1.205   2.499   4.152  0.9951  0.1798 -0.1890
 6048TIP3    H118108   1.121   2.465   4.182  1.0713  1.6976  1.9212
 6048TIP3    H218109   1.264   2.424   4.154  0.4029 -0.2803  1.2913
 6049TIP3   OH218110   2.174   4.959   1.031 -0.3143 -0.9601  0.0058
 6049TIP3    H118111   2.172   5.050   1.001  0.7899 -0.3329  1.6823
 6049TIP3    H218112   2.211   4.963   1.119  1.3490 -3.1900 -0.4909
 6050TIP3   OH218113   2.777   5.062   5.620 -0.2626  0.1287 -0.3721
 6050TIP3    H118114   2.749   5.049   5.711  2.0415 -0.3758  0.3145
 6050TIP3    H218115   2.766   5.156   5.605 -1.8458  0.0346 -0.0282
 6051TIP3   OH218116   6.856   1.821   5.604  0.2566  0.4266 -0.0526
 6051TIP3    H118117   6.922   1.760   5.570  0.2156 -0.6492  1.6771
 6051TIP3    H218118   6.790   1.826   5.535  0.8389 -0.5911 -0.7107
 6052TIP3   OH218119   6.701   4.354   5.518  0.7082 -0.2393 -0.2464
 6052TIP3    H118120   6.749   4.277   5.552  0.5810  0.2894  1.2006
 6052TIP3    H218121   6.670   4.326   5.432  2.5560 -1.0393 -0.7097
 6053TIP3   OH218122   2.642   4.588   0.903  0.3951  0.0578 -0.4532
 6053TIP3    H118123   2.709   4.528   0.869  1.2140  0.5513  0.2500
 6053TIP3    H218124   2.559   4.542   0.889  0.7608 -0.1059 -2.3377
 6054TIP3   OH218125   5.598   3.553   0.983 -0.1423  0.3598  0.0734
 6054TIP3    H118126   5.639   3.566   0.897  0.8305  2.5217  0.8037
 6054TIP3    H218127   5.632   3.624   1.037  0.1447 -1.5605  2.6002
 6055TIP3   OH218128   6.900   0.193   3.909  0.1021  0.4883 -0.4770
 6055TIP3    H118129   6.897   0.156   3.821 -0.7686  1.7719 -1.0222
 6055TIP3    H218130   6.812   0.180   3.944  0.8404 -1.3743  0.8321
 6056TIP3   OH218131   5.857   6.196   0.076  0.1233  0.2929  0.4119
 6056TIP3    H118132   5.926   6.261   0.068  1.1331 -0.3182  2.9889
 6056TIP3    H218133   5.833   6.198   0.169 -2.8152 -0.0836 -0.2461
 6057TIP3   OH218134   0.850   2.343   2.828 -0.1884  0.6629 -0.0161
 6057TIP3    H118135   0.893   2.266   2.865 -0.0511  0.6942 -0.1097
 6057TIP3    H218136   0.768   2.309   2.791  0.4994  0.3129 -1.2862
 6058TIP3   OH218137   0.305   5.128   2.344 -0.0240 -0.3812 -0.2844
 6058TIP3    H118138   0.332   5.186   2.415  0.7626 -1.5400  0.4104
 6058TIP3    H218139   0.383   5.119   2.289 -0.2022 -0.6139 -0.5021
 6059TIP3   OH218140   3.420   3.658   1.085 -0.1169  0.0358 -0.2161
 6059TIP3    H118141   3.485   3.589   1.098 -1.2549 -1.2814 -1.2174
 6059TIP3    H218142   3.400   3.688   1.174  1.9345  0.6241  0.1136
 6060TIP3   OH218143   6.634   3.866   3.753 -0.9891  0.3956 -0.3201
 6060TIP3    H118144   6.574   3.796   3.725 -0.2007 -0.4965  0.1727
 6060TIP3    H218145   6.701   3.869   3.685 -0.2291 -0.3357  0.3707
 6061TIP3   OH218146   5.637   5.511   5.744 -0.2302 -0.1919 -0.5602
 6061TIP3    H118147   5.699   5.440   5.726 -1.9923 -2.0828  0.4516
 6061TIP3    H218148   5.559   5.490   5.692 -1.2703  0.2760  0.7499
 6062TIP3   OH218149   6.534   1.120   0.991 -0.0616 -0.2294 -0.8151
 6062TIP3    H118150   6.621   1.158   1.004 -0.1012  0.3910 -2.2856
 6062TIP3    H218151   6.482   1.153   1.065  0.6824  0.1630 -0.4538
 6063TIP3   OH218152   2.169   6.704   3.722  0.3283 -0.1207  0.3221
 6063TIP3    H118153   2.170   6.706   3.626  1.5458 -0.2845  0.3075
 6063TIP3    H218154   2.256   6.737   3.747  0.1861 -0.5000  1.3572
 6064TIP3   OH218155   0.278   6.177   2.938 -0.1854 -0.0644  0.0618
 6064TIP3    H118156   0.271   6.232   3.016 -1.8141  1.3950 -1.0454
 6064TIP3    H218157   0.372   6.163   2.928  0.2334  1.7314  0.9409
 6065TIP3   OH218158   2.911   4.985   2.808  0.0231  0.0080  0.6009
 6065TIP3    H118159   2.974   5.020   2.871  0.4950 -1.0780  0.7391
 6065TIP3    H218160   2.826   5.003   2.847  0.2557  0.8087  0.7643
 6066TIP3   OH218161   5.490   1.656   0.871 -0.1603 -0.1846  0.1349
 6066TIP3    H118162   5.487   1.606   0.789  4.4137 -0.0287 -0.3424
 6066TIP3    H218163   5.498   1.589   0.939  0.6007 -0.2177  0.0134
 6067TIP3   OH218164   5.704   2.988   0.984  0.2104  1.1074 -0.0849
 6067TIP3    H118165   5.630   2.945   0.941  0.5514  1.1552 -0.7319
 6067TIP3    H218166   5.703   2.954   1.073  0.3820 -0.1339 -0.5409
 6068TIP3   OH218167   6.565   6.469   5.412 -0.1372 -0.8638  0.0662
 6068TIP3    H118168   6.614   6.524   5.350  0.6680 -0.8375  0.7203
 6068TIP3    H218169   6.625   6.398   5.435 -0.7613 -1.3895  0.1240
 6069TIP3   OH218170   6.640   2.812   1.414  0.3051 -0.3304 -0.2709
 6069TIP3    H118171   6.653   2.893   1.463  0.6487 -0.7728  0.3773
 6069TIP3    H218172   6.669   2.742   1.473  1.7460 -0.8102 -1.4753
 6070TIP3   OH218173   0.870   1.720   3.728 -0.0772  0.3813  0.0273
 6070TIP3    H118174   0.846   1.637   3.770 -1.7649  0.1565 -1.2688
 6070TIP3    H218175   0.950   1.747   3.773  0.0280 -1.4953  1.0874
 6071TIP3   OH218176   4.141   0.520   5.030  0.3920  0.1084 -0.1902
 6071TIP3    H118177   4.217   0.472   4.995 -0.5268 -2.0364  0.5841
 6071TIP3    H218178   4.067   0.461   5.015 -0.3671 -0.1413  3.5820
 6072TIP3   OH218179   2.047   0.859   5.834  0.4984  0.6636 -0.4627
 6072TIP3    H118180   2.113   0.870   5.766  1.4356 -1.3996  0.0057
 6072TIP3    H218181   2.089   0.891   5.914  0.8310 -0.2922 -0.2353
 6073TIP3   OH218182   6.058   3.468   0.317 -0.0526 -0.8966  0.1507
 6073TIP3    H118183   6.034   3.516   0.238  2.1622  0.6475  0.3247
 6073TIP3    H218184   6.127   3.521   0.357 -0.9243 -1.7757  3.0077
 6074TIP3   OH218185   1.106   2.836   3.903  0.6843  0.7657 -0.5944
 6074TIP3    H118186   1.154   2.756   3.926  1.0521  0.7929 -1.2488
 6074TIP3    H218187   1.104   2.887   3.984  0.8758  0.3146 -0.2997
 6075TIP3   OH218188   2.325   4.992   2.672  0.3152 -0.5478 -0.0107
 6075TIP3    H118189   2.360   5.079   2.657 -0.7678 -0.4720 -2.5613
 6075TIP3    H218190   2.402   4.936   2.682  1.0226  0.5354  0.6819
 6076TIP3   OH218191   6.729   1.419   0.209  0.1213  0.2915  1.0379
 6076TIP3    H118192   6.724   1.324   0.195  0.9682  0.4226 -0.3560
 6076TIP3    H218193   6.651   1.454   0.166 -0.7338  0.1754  2.4282
 6077TIP3   OH218194   0.567   4.612   1.618  0.4515  0.3962  0.5300
 6077TIP3    H118195   0.479   4.603   1.655 -0.1890  0.2629 -0.9315
 6077TIP3    H218196   0.564   4.693   1.567  0.5015 -0.6466 -1.2105
 6078TIP3   OH218197   6.781   1.881   0.395 -0.0626 -0.2425 -0.3495
 6078TIP3    H118198   6.709   1.874   0.332  1.2665  2.2959 -2.3750
 6078TIP3    H218199   6.859   1.885   0.341  1.4768 -1.0524  1.6907
 6079TIP3   OH218200   0.021   4.427   5.471  0.0599 -0.4774 -0.6878
 6079TIP3    H118201   0.092   4.364   5.484 -0.7709 -1.4679 -0.8993
 6079TIP3    H218202  -0.023   4.432   5.556  0.5036  0.3111 -0.4905
 6080TIP3   OH218203   5.404   3.564   1.905  0.3467  0.5923 -0.2093
 6080TIP3    H118204   5.335   3.602   1.852  1.6440  0.7239 -1.8971
 6080TIP3    H218205   5.364   3.487   1.945 -0.7586  0.6347 -1.1850
 6081TIP3   OH218206   1.920   1.226   0.364  0.3469 -0.1974  0.2389
 6081TIP3    H118207   1.964   1.144   0.342 -0.1717 -0.5574  0.5221
 6081TIP3    H218208   1.846   1.231   0.304 -0.0803 -0.3304  0.7567
 6082TIP3   OH218209   4.831   4.935   4.065  0.0698  0.3711 -0.4093
 6082TIP3    H118210   4.869   4.996   4.129  1.0021 -0.8323  0.2270
 6082TIP3    H218211   4.905   4.882   4.035 -0.5903  0.0269 -1.5008
 6083TIP3   OH218212   3.585   3.411   2.551 -0.2536 -0.3990 -0.2123
 6083TIP3    H118213   3.512   3.364   2.511 -1.1653  0.1055  0.8029
 6083TIP3    H218214   3.609   3.357   2.627  0.7670 -0.8128 -0.8130
 6084TIP3   OH218215   4.024   5.945   4.776 -0.5548  0.0080 -0.1550
 6084TIP3    H118216   4.072   5.865   4.753  0.0337  0.3079  0.0268
 6084TIP3    H218217   4.020   5.995   4.695 -0.0145  0.2621 -0.0317
 6085TIP3   OH218218   2.863   6.130   2.811 -0.0608 -0.3218 -0.4308
 6085TIP3    H118219   2.805   6.085   2.872 -0.5198  2.2191  1.1836
 6085TIP3    H218220   2.948   6.130   2.853  0.2803 -0.9245 -1.1034
 6086TIP3   OH218221   3.977   3.907   5.234 -0.3262  0.2117 -0.3527
 6086TIP3    H118222   4.063   3.873   5.210 -1.6319 -1.9950 -2.4207
 6086TIP3    H218223   3.944   3.845   5.299 -1.0997 -0.1074 -1.0368
 6087TIP3   OH218224   1.575   1.608   1.750 -0.0162  0.1272  0.6077
 6087TIP3    H118225   1.560   1.697   1.783 -0.0563  0.2724  0.1933
 6087TIP3    H218226   1.654   1.614   1.698 -0.3022  0.0259  0.1605
 6088TIP3   OH218227   4.804   2.545   1.155 -0.1672 -0.3496  0.1347
 6088TIP3    H118228   4.741   2.520   1.222 -0.4603  3.4951  1.5423
 6088TIP3    H218229   4.879   2.578   1.203  0.6445  0.2578 -1.4688
 6089TIP3   OH218230   2.970   6.654   2.629  0.5451 -0.0516 -0.1671
 6089TIP3    H118231   2.921   6.581   2.592  0.9305 -1.3112  1.6470
 6089TIP3    H218232   3.048   6.661   2.575  0.3273 -0.7348 -0.5823
 6090TIP3   OH218233   4.016   5.183   3.325 -0.0813 -0.1636 -0.0395
 6090TIP3    H118234   3.968   5.145   3.251 -1.6532  1.6270  0.0030
 6090TIP3    H218235   3.983   5.136   3.401  0.6032 -1.1100 -0.2922
 6091TIP3   OH218236   3.938   5.299   2.669 -0.1196 -0.5094  0.7589
 6091TIP3    H118237   3.927   5.206   2.690 -1.6981 -0.1407  1.7595
 6091TIP3    H218238   3.901   5.309   2.581  1.5150 -1.0813 -0.0328
 6092TIP3   OH218239   1.834   3.298   0.454 -0.1774  0.4221  0.4440
 6092TIP3    H118240   1.890   3.321   0.380  1.0179 -0.9627  0.8685
 6092TIP3    H218241   1.787   3.220   0.426  0.7135 -0.4623  1.2906
 6093TIP3   OH218242   4.073   1.074   3.317  0.1166  0.2595  0.2430
 6093TIP3    H118243   4.091   1.030   3.233 -1.5004 -0.2494  0.1214
 6093TIP3    H218244   4.066   1.167   3.294  0.6811  0.2482  0.0013
 6094TIP3   OH218245   6.080   5.114   1.695  0.0145 -0.6289 -0.0632
 6094TIP3    H118246   6.030   5.155   1.766  1.5304  0.3353  0.4983
 6094TIP3    H218247   6.145   5.061   1.740  1.6158  0.7456 -0.6918
 6095TIP3   OH218248   1.698   1.969   4.554  0.2624 -0.1571  0.5352
 6095TIP3    H118249   1.687   1.874   4.548  2.7277 -0.4221 -1.6014
 6095TIP3    H218250   1.614   2.005   4.523 -0.0813 -1.6505 -0.3612
 6096TIP3   OH218251   3.797  -0.014   0.478 -0.2833 -1.0699 -0.2137
 6096TIP3    H118252   3.891   0.002   0.485 -0.6949  0.7808  2.3931
 6096TIP3    H218253   3.756   0.070   0.498 -2.4814 -2.5400  2.2132
 6097TIP3   OH218254   3.969   6.369   2.262  0.9563  0.9395  0.0524
 6097TIP3    H118255   4.022   6.317   2.200  0.6200  0.0975  0.4538
 6097TIP3    H218256   3.895   6.313   2.283  0.7277  1.4808  0.7250
 6098TIP3   OH218257   4.394   5.829   0.310  0.0629 -0.0869 -0.9586
 6098TIP3    H118258   4.357   5.755   0.261  0.3280  0.3930 -1.9172
 6098TIP3    H218259   4.373   5.905   0.256  1.0582  0.3689 -0.7236
 6099TIP3   OH218260   3.055   4.577   5.743 -0.1414 -0.0249  0.0450
 6099TIP3    H118261   3.044   4.644   5.810 -0.0710  0.5306 -0.4883
 6099TIP3    H218262   3.109   4.510   5.785 -0.8755 -0.1337  0.8450
 6100TIP3   OH218263   4.920   1.507   4.956 -0.0604  0.0775 -0.0733
 6100TIP3    H118264   4.950   1.432   5.007 -0.0645  2.0044  2.9580
 6100TIP3    H218265   5.001   1.550   4.927  0.0124  0.4485  0.6514
 6101TIP3   OH218266   0.006   4.552   5.027  0.1900 -0.5349  0.4558
 6101TIP3    H118267   0.079   4.516   5.078  1.2973  0.4331 -0.3674
 6101TIP3    H218268   0.031   4.537   4.935 -0.9121 -0.6747  0.1687
 6102TIP3   OH218269   6.328   4.407   3.110 -0.0853  0.2852  0.2797
 6102TIP3    H118270   6.283   4.322   3.112 -0.2662  0.1488 -3.0075
 6102TIP3    H218271   6.272   4.466   3.159  0.5312 -1.5857  3.5492
 6103TIP3   OH218272   5.240   0.155   2.900 -1.0450 -0.1185 -0.4879
 6103TIP3    H118273   5.252   0.248   2.882 -0.4800  0.3725  2.0504
 6103TIP3    H218274   5.173   0.152   2.969  1.1399 -1.2943  1.7444
 6104TIP3   OH218275   4.692   4.589   5.059 -0.2384 -0.3185  0.1428
 6104TIP3    H118276   4.767   4.537   5.089  0.2302  0.2191 -0.0907
 6104TIP3    H218277   4.651   4.620   5.140 -0.1111 -0.4704  0.2666
 6105TIP3   OH218278   2.816   0.680   3.230 -0.2986 -0.6333 -0.8349
 6105TIP3    H118279   2.731   0.717   3.254 -0.0771 -0.3681 -0.4522
 6105TIP3    H218280   2.877   0.718   3.294  0.0997 -0.8446 -1.0921
 6106TIP3   OH218281   1.067   2.386   3.373 -0.5086  0.0952  0.3316
 6106TIP3    H118282   1.052   2.428   3.458  0.9036  1.0437  0.1597
 6106TIP3    H218283   1.060   2.292   3.390 -0.5427  0.2877  1.4283
 6107TIP3   OH218284   2.938   5.216   3.505  0.0710  0.4488 -0.0082
 6107TIP3    H118285   2.993   5.152   3.550 -2.0229  0.0418  2.1692
 6107TIP3    H218286   2.946   5.296   3.557 -0.2323  0.8368 -0.5377
 6108TIP3   OH218287   7.051   3.997   4.967 -0.0012 -0.1067  0.6722
 6108TIP3    H118288   7.120   3.983   5.032  0.6269 -1.9543 -0.3206
 6108TIP3    H218289   7.056   4.090   4.947  0.0856  0.4316  2.8986
 6109TIP3   OH218290   4.275   1.941   3.863 -0.6581 -0.3264 -0.7745
 6109TIP3    H118291   4.304   1.881   3.795 -0.2652  0.9794 -1.7973
 6109TIP3    H218292   4.343   2.008   3.867 -0.5854 -0.4392  1.0362
 6110TIP3   OH218293   4.925   5.544   5.072  0.1024  0.3444  0.1257
 6110TIP3    H118294   4.939   5.475   5.137 -1.8782  0.2416  0.5135
 6110TIP3    H218295   4.901   5.496   4.993 -1.7319  0.5579  0.5209
 6111TIP3   OH218296   2.372   4.463   3.607 -0.0799 -0.0297 -0.0618
 6111TIP3    H118297   2.424   4.444   3.529 -0.4771 -0.7669 -0.1609
 6111TIP3    H218298   2.282   4.470   3.575 -0.0822  0.9692  0.1452
 6112TIP3   OH218299   4.030   3.502   3.940  0.2643  0.3313  0.8024
 6112TIP3    H118300   4.118   3.499   3.905 -0.9611  1.2338 -2.7483
 6112TIP3    H218301   4.012   3.595   3.954 -0.5572  0.2807  0.1799
 6113TIP3   OH218302   5.779   4.632   3.611  0.1035 -0.3721 -0.0215
 6113TIP3    H118303   5.797   4.716   3.652  1.1684  0.1932 -1.5383
 6113TIP3    H218304   5.738   4.654   3.527  0.0568 -1.3736 -0.2870
 6114TIP3   OH218305   7.135   3.891   2.699  0.2209 -0.2727 -0.3685
 6114TIP3    H118306   7.215   3.915   2.745  2.0298 -1.4118 -2.6946
 6114TIP3    H218307   7.127   3.956   2.629 -0.8885 -0.2240 -0.2220
 6115TIP3   OH218308   7.095   0.145   4.272  0.0228  0.4284  0.1745
 6115TIP3    H118309   7.092   0.211   4.342  0.4426 -1.1154  1.7106
 6115TIP3    H218310   7.156   0.079   4.304 -0.5401 -0.8276 -1.2362
 6116TIP3   OH218311   1.915   3.876   1.800 -0.4564 -0.5199  0.0958
 6116TIP3    H118312   1.938   3.968   1.814 -1.8500 -0.1671  0.2108
 6116TIP3    H218313   1.998   3.829   1.811  0.0973  0.6098  1.0695
 6117TIP3   OH218314   3.577   5.266   3.168  0.0005  0.2384  0.2652
 6117TIP3    H118315   3.586   5.172   3.158  0.1974  0.3407 -0.5745
 6117TIP3    H218316   3.578   5.280   3.263  0.8314 -0.5211  0.3845
 6118TIP3   OH218317   3.640   0.740   1.779  0.0291 -0.0861  0.5842
 6118TIP3    H118318   3.626   0.811   1.841  1.0928  0.7139 -0.0396
 6118TIP3    H218319   3.556   0.727   1.737  0.0755  1.6385 -0.1210
 6119TIP3   OH218320   3.331   0.216   5.168  0.6413  0.1454 -0.5833
 6119TIP3    H118321   3.391   0.287   5.147  1.7188 -0.7386 -0.5826
 6119TIP3    H218322   3.387   0.147   5.203 -0.7077  0.3743  2.2690
 6120TIP3   OH218323   2.384   5.370   5.111  0.1017 -0.0089  0.1340
 6120TIP3    H118324   2.474   5.384   5.140  0.1684  0.5403 -0.3348
 6120TIP3    H218325   2.393   5.323   5.028  0.0726  2.4283 -1.3457
 6121TIP3   OH218326   5.508   4.377   4.318 -0.5774  0.2617 -0.6835
 6121TIP3    H118327   5.441   4.443   4.334 -0.3424  0.3343  0.0161
 6121TIP3    H218328   5.583   4.427   4.287 -0.4305  0.3175 -0.2435
 6122TIP3   OH218329   3.236   3.822   1.279  0.5752  0.0105  0.1830
 6122TIP3    H118330   3.294   3.759   1.323 -0.6725 -1.3840 -0.0925
 6122TIP3    H218331   3.216   3.887   1.346  1.3709 -0.2344  0.6737
 6123TIP3   OH218332   5.968   0.460   1.576  0.3417 -0.5588 -0.1096
 6123TIP3    H118333   6.026   0.459   1.500 -0.3960 -0.0544 -0.6973
 6123TIP3    H218334   5.890   0.412   1.548 -0.1064 -0.0132  0.1764
 6124TIP3   OH218335   4.987   2.792   1.666 -0.0269 -0.6611 -0.4011
 6124TIP3    H118336   4.951   2.864   1.718  3.0874  0.0640  0.9724
 6124TIP3    H218337   5.004   2.831   1.580 -0.8646 -0.5695 -0.5391
 6125TIP3   OH218338   5.985   2.302   3.065 -0.7156  0.4781  0.4665
 6125TIP3    H118339   5.919   2.332   3.127 -2.4962  0.7799 -1.4456
 6125TIP3    H218340   5.990   2.207   3.078 -3.2881  0.0679 -0.8064
 6126TIP3   OH218341   5.117   1.944   5.708 -0.4359 -0.0899 -0.1495
 6126TIP3    H118342   5.109   1.970   5.616  0.3886 -1.8165 -0.7524
 6126TIP3    H218343   5.178   2.007   5.746 -1.7973  1.4667 -0.3899
 6127TIP3   OH218344   2.166   1.606   4.766  0.7548 -0.5198  0.2367
 6127TIP3    H118345   2.127   1.529   4.724 -0.3671  0.1969 -0.0674
 6127TIP3    H218346   2.260   1.599   4.746  0.3644 -0.6022 -1.7779
 6128TIP3   OH218347   0.233   0.343   3.371 -0.2558  0.3125 -0.0569
 6128TIP3    H118348   0.218   0.428   3.330 -1.5051  0.6252  0.9769
 6128TIP3    H218349   0.262   0.286   3.299  1.6977  1.8403 -0.5636
 6129TIP3   OH218350   0.712   2.039   2.550 -0.4360 -0.2972 -0.3123
 6129TIP3    H118351   0.649   1.971   2.525  0.2792 -0.7566 -0.9173
 6129TIP3    H218352   0.730   2.022   2.642 -1.6158  0.1917  0.0246
 6130TIP3   OH218353   4.398   6.411   0.456  0.0149 -0.0934 -0.0287
 6130TIP3    H118354   4.330   6.346   0.441  1.0271 -1.6602  1.7171
 6130TIP3    H218355   4.351   6.491   0.478 -1.2927  0.1582 -3.1904
 6131TIP3   OH218356   4.830   0.416   1.225 -0.3513  0.9575 -0.4626
 6131TIP3    H118357   4.833   0.362   1.304  0.5679  0.8773 -0.5388
 6131TIP3    H218358   4.794   0.358   1.158 -0.8909  0.9466 -0.1730
 6132TIP3   OH218359   1.281   5.467   1.189 -0.1880 -0.1184 -0.1171
 6132TIP3    H118360   1.308   5.434   1.275 -0.3503  0.3444  0.1156
 6132TIP3    H218361   1.287   5.562   1.197 -0.5363 -0.0610 -0.5084
 6133TIP3   OH218362   3.317   1.406   4.166  0.1339  0.2716 -0.6486
 6133TIP3    H118363   3.287   1.315   4.168  2.4874 -0.6338  2.9957
 6133TIP3    H218364   3.394   1.404   4.109  0.3329 -0.1286 -0.3771
 6134TIP3   OH218365   2.835   2.358   1.450  0.1239  0.3474  0.4596
 6134TIP3    H118366   2.774   2.338   1.379  0.4603 -2.2820  0.8242
 6134TIP3    H218367   2.782   2.403   1.516 -1.1478 -0.7388  0.2110
 6135TIP3   OH218368   0.353   4.487   2.810  0.3745  0.3661 -0.2546
 6135TIP3    H118369   0.406   4.463   2.885 -1.2996  0.1342  0.9148
 6135TIP3    H218370   0.346   4.406   2.759 -1.3114 -0.4728  1.1932
 6136TIP3   OH218371   6.144   1.839   4.801 -0.8576  0.5529  0.0740
 6136TIP3    H118372   6.199   1.814   4.876 -1.5927 -1.0813  0.1006
 6136TIP3    H218373   6.201   1.895   4.748  0.7343 -0.8078  0.2735
 6137TIP3   OH218374   1.490   3.097   0.552 -0.0223 -0.6113 -0.0185
 6137TIP3    H118375   1.552   3.143   0.609 -2.1130  1.8662  0.4462
 6137TIP3    H218376   1.523   3.113   0.464  2.4070 -3.2079  0.2863
 6138TIP3   OH218377   4.470   3.955   5.229 -0.9293  0.1751 -0.1727
 6138TIP3    H118378   4.459   3.869   5.271 -0.6992 -0.4541 -1.3539
 6138TIP3    H218379   4.405   4.011   5.271 -0.4983 -0.3424  1.2286
 6139TIP3   OH218380   6.445   6.024   0.339 -0.3527 -0.1464 -0.2702
 6139TIP3    H118381   6.398   5.948   0.374  0.2988 -0.5885 -0.3409
 6139TIP3    H218382   6.390   6.054   0.266 -0.2317 -1.0268 -0.7409
 6140TIP3   OH218383   3.285   5.564   2.879 -0.4630 -0.2589 -0.4302
 6140TIP3    H118384   3.219   5.495   2.870 -0.8627 -0.0015  0.4643
 6140TIP3    H218385   3.327   5.547   2.963 -0.7875  0.7807 -0.0458
 6141TIP3   OH218386   6.913   4.507   0.410  0.5156  0.6817 -0.0484
 6141TIP3    H118387   6.940   4.425   0.370  2.7707  1.4419 -0.2183
 6141TIP3    H218388   6.817   4.505   0.407  0.5417 -1.5335 -0.8172
 6142TIP3   OH218389   0.562   4.268   3.696 -0.1499 -0.4794  0.2256
 6142TIP3    H118390   0.615   4.190   3.682  0.4528 -0.1395  0.5827
 6142TIP3    H218391   0.532   4.293   3.609 -0.2330 -1.0287  0.0927
 6143TIP3   OH218392   0.121   0.011   2.787 -0.9776  0.3666  0.1415
 6143TIP3    H118393   0.094   0.094   2.747 -3.0341 -0.1836  0.2308
 6143TIP3    H218394   0.043  -0.018   2.835  0.4634 -0.4264  2.1550
 6144TIP3   OH218395   0.791   6.596   2.094  0.0259 -0.4707  0.7144
 6144TIP3    H118396   0.796   6.616   2.000 -0.7372 -1.2001  0.5062
 6144TIP3    H218397   0.836   6.669   2.136 -0.7304  0.5281 -0.1372
 6145TIP3   OH218398   0.491   3.061   3.114 -0.0782  0.2804 -0.5230
 6145TIP3    H118399   0.501   3.065   3.209 -1.0058 -1.6753 -0.2893
 6145TIP3    H218400   0.525   2.974   3.090 -1.1730  0.1649 -1.7851
 6146TIP3   OH218401   2.745   3.823   5.058  0.1493 -0.3984 -0.0504
 6146TIP3    H118402   2.750   3.807   4.964  1.0649  0.3090 -0.1307
 6146TIP3    H218403   2.671   3.769   5.087  0.2485 -1.1107 -1.0605
 6147TIP3   OH218404   4.598   3.298   1.264  0.3198 -0.0227  0.2573
 6147TIP3    H118405   4.503   3.298   1.270  0.1707  1.7106 -1.1903
 6147TIP3    H218406   4.618   3.230   1.199 -0.1815  1.4530 -1.5174
 6148TIP3   OH218407   1.758   3.963   5.805  0.0854 -0.6783  0.1423
 6148TIP3    H118408   1.736   3.879   5.845  3.3968 -1.3104  0.9080
 6148TIP3    H218409   1.753   4.026   5.877 -1.1332 -0.3987 -0.1567
 6149TIP3   OH218410   2.023   3.009   3.215  0.3722 -0.3740  0.5653
 6149TIP3    H118411   2.035   2.919   3.246  1.0655  0.1145  1.7965
 6149TIP3    H218412   2.099   3.056   3.250 -0.0973  0.7332  0.1187
 6150TIP3   OH218413   3.399   5.074   1.870  0.1592 -0.4214  0.5803
 6150TIP3    H118414   3.399   5.166   1.844  0.9741 -0.3379  0.8305
 6150TIP3    H218415   3.392   5.026   1.787  2.0467 -0.1453  0.2175
 6151TIP3   OH218416   0.424   2.295   0.543  0.4098  0.0693 -0.0828
 6151TIP3    H118417   0.470   2.327   0.620  0.5079 -1.3321  0.4750
 6151TIP3    H218418   0.413   2.201   0.559 -1.4115  0.1185 -0.8478
 6152TIP3   OH218419   3.114   5.095   3.941 -0.2153  0.0428 -0.0289
 6152TIP3    H118420   3.033   5.122   3.984 -0.1601  2.6636 -1.3984
 6152TIP3    H218421   3.087   5.074   3.852  0.6165  1.2713 -0.5933
 6153TIP3   OH218422   2.766   4.569   5.139  0.1941 -0.1084  0.2298
 6153TIP3    H118423   2.821   4.505   5.094 -0.0448  0.9693 -1.6574
 6153TIP3    H218424   2.826   4.614   5.199  1.2572  0.5554 -1.2687
 6154TIP3   OH218425   3.552   2.976   5.625 -0.5961  0.2525  0.3605
 6154TIP3    H118426   3.524   3.005   5.538  0.5831  0.4032  0.0101
 6154TIP3    H218427   3.594   3.053   5.664  1.7611 -0.6353 -0.2275
 6155TIP3   OH218428   6.938   0.348   4.999 -0.1060 -0.1525 -0.3814
 6155TIP3    H118429   6.998   0.414   4.964 -1.1613 -0.3219 -2.7002
 6155TIP3    H218430   6.981   0.264   4.979  0.7018 -0.2256  1.5360
 6156TIP3   OH218431   3.083   2.844   5.591 -0.3306 -0.3324 -0.0881
 6156TIP3    H118432   3.171   2.809   5.605  0.3043  1.0860 -0.3741
 6156TIP3    H218433   3.031   2.768   5.564  0.8080 -1.1858  0.0523
 6157TIP3   OH218434   4.109   5.478   5.616 -0.5848 -0.2092 -0.2048
 6157TIP3    H118435   4.031   5.446   5.661 -0.3057 -1.1533 -0.3576
 6157TIP3    H218436   4.137   5.404   5.561 -0.2241  0.5001 -0.9994
 6158TIP3   OH218437   6.707   4.793   1.510  0.8121  0.1254 -0.1131
 6158TIP3    H118438   6.724   4.887   1.510 -0.6002  0.4126 -0.1273
 6158TIP3    H218439   6.722   4.765   1.600 -1.0180  0.8560  0.4690
 6159TIP3   OH218440   4.249   1.713   5.442 -0.1617  0.8366  0.0467
 6159TIP3    H118441   4.173   1.735   5.496  1.6999  5.0636  1.3238
 6159TIP3    H218442   4.260   1.788   5.384  1.1950 -1.1300 -2.4415
 6160TIP3   OH218443   2.642   4.739   4.621  0.4482  0.2120  0.4355
 6160TIP3    H118444   2.564   4.770   4.667  0.7758 -0.7117  1.6547
 6160TIP3    H218445   2.683   4.677   4.682  2.1586  0.7042 -0.1620
 6161TIP3   OH218446   3.444   0.312   4.777 -0.6421  0.1258  0.0287
 6161TIP3    H118447   3.496   0.286   4.701  0.9385  0.6865  0.8711
 6161TIP3    H218448   3.506   0.309   4.850 -2.0986 -0.3106  1.2902
 6162TIP3   OH218449   5.311   1.033   0.807  0.9294 -0.1124  0.0406
 6162TIP3    H118450   5.245   0.980   0.853  0.9606 -1.0897 -1.0019
 6162TIP3    H218451   5.260   1.104   0.766  0.7518  0.0841  0.5899
 6163TIP3   OH218452   2.536   3.589   0.164 -0.0656 -0.5681 -0.0617
 6163TIP3    H118453   2.624   3.612   0.192  0.2246 -2.1219  0.3710
 6163TIP3    H218454   2.517   3.649   0.091  0.3802  1.4173  1.3710
 6164TIP3   OH218455   0.493   3.322   2.757 -0.0660  0.0172 -0.1707
 6164TIP3    H118456   0.427   3.272   2.806  0.9739 -1.3911 -0.1404
 6164TIP3    H218457   0.453   3.407   2.744 -1.6367 -0.5860  0.4079
 6165TIP3   OH218458   0.841   6.555   0.048 -0.2766  0.2031 -0.3144
 6165TIP3    H118459   0.896   6.625   0.085 -1.1886  0.6169  0.2791
 6165TIP3    H218460   0.849   6.483   0.111 -1.8441  0.9141  0.7718
 6166TIP3   OH218461   6.402   4.469   2.337  0.0245 -0.7115  0.0099
 6166TIP3    H118462   6.372   4.506   2.254  1.0583 -2.1409 -1.0531
 6166TIP3    H218463   6.434   4.544   2.387  0.7506  0.0090 -1.4856
 6167TIP3   OH218464   4.695   0.586   3.638  0.1097  0.2812 -0.3412
 6167TIP3    H118465   4.600   0.582   3.625  0.2935 -0.8348 -1.4162
 6167TIP3    H218466   4.717   0.678   3.624 -0.7299  0.4332 -0.7070
 6168TIP3   OH218467   2.403   0.636   5.647  0.4667  0.1005 -0.2498
 6168TIP3    H118468   2.422   0.662   5.737 -1.7574  1.9052 -0.2185
 6168TIP3    H218469   2.486   0.645   5.600  0.8149  3.0379  0.7838
 6169TIP3   OH218470   4.482   5.477   0.681 -0.0919  0.6407  0.3379
 6169TIP3    H118471   4.494   5.535   0.756 -0.0168  1.1274 -0.0474
 6169TIP3    H218472   4.390   5.451   0.685  0.3441 -0.8844  1.7038
 6170TIP3   OH218473   0.636   5.097   0.403  0.0479  0.1473  0.3820
 6170TIP3    H118474   0.653   5.048   0.483  1.1066 -2.1678 -1.1760
 6170TIP3    H218475   0.647   5.034   0.332 -1.4722  1.9341 -1.6072
 6171TIP3   OH218476   3.688   4.480   0.065  0.0887  0.0178  0.0699
 6171TIP3    H118477   3.635   4.450  -0.008 -0.8234  0.7170  0.4198
 6171TIP3    H218478   3.760   4.527   0.025 -0.2150  0.0978 -0.3883
 6172TIP3   OH218479   6.765   0.445   3.337  0.1252 -0.0293 -0.0714
 6172TIP3    H118480   6.771   0.532   3.377  0.7621  0.1686 -0.5872
 6172TIP3    H218481   6.779   0.461   3.244  1.7409 -0.8554  0.0042
 6173TIP3   OH218482   5.249   0.270   5.778  0.0241 -0.1320  0.0243
 6173TIP3    H118483   5.318   0.285   5.842 -0.2006 -0.9564  0.4698
 6173TIP3    H218484   5.169   0.298   5.821 -0.0307  0.0569 -0.1949
 6174TIP3   OH218485   4.927   3.005   3.564  0.0583 -0.5555  0.6178
 6174TIP3    H118486   4.999   3.053   3.605 -1.4162  1.2094  1.2361
 6174TIP3    H218487   4.952   2.999   3.472  0.8329  0.3712  0.7487
 6175TIP3   OH218488   7.092   2.270   3.347 -0.4449 -0.0860 -0.2002
 6175TIP3    H118489   7.003   2.256   3.378 -0.8421 -0.6864 -1.5714
 6175TIP3    H218490   7.134   2.185   3.355 -0.3392 -0.0758 -0.6397
 6176TIP3   OH218491   3.348   5.893   2.089 -0.0643  0.4900 -0.4984
 6176TIP3    H118492   3.281   5.940   2.138  1.5318  0.3933  1.9025
 6176TIP3    H218493   3.310   5.806   2.074 -0.9592  0.8387 -0.3520
 6177TIP3   OH218494   5.611   6.481   5.300 -0.7334 -0.3220 -0.6761
 6177TIP3    H118495   5.615   6.411   5.365  0.5439  1.1972  0.9873
 6177TIP3    H218496   5.542   6.454   5.240 -1.0999 -2.4125  0.5921
 6178TIP3   OH218497   1.154   5.537   4.448 -0.7337 -0.1100  0.5578
 6178TIP3    H118498   1.122   5.576   4.367 -0.4939 -0.7863  0.1262
 6178TIP3    H218499   1.107   5.453   4.455  1.0924 -1.2642 -0.2433
 6179TIP3   OH218500   4.179   6.357   0.905 -0.0638 -0.0651  0.3889
 6179TIP3    H118501   4.176   6.451   0.923 -1.4611  0.0047 -0.0501
 6179TIP3    H218502   4.242   6.348   0.833  0.2990  0.4932  0.6268
 6180TIP3   OH218503   4.502   4.469   5.578  0.2251 -0.0182 -0.1838
 6180TIP3    H118504   4.469   4.474   5.488 -1.3269 -0.1408  0.3548
 6180TIP3    H218505   4.455   4.538   5.625  0.8797 -0.0781  0.5846
 6181TIP3   OH218506   1.230   6.721   1.145  0.5145 -0.2298 -0.0658
 6181TIP3    H118507   1.230   6.800   1.091  1.3132 -1.7699 -2.5127
 6181TIP3    H218508   1.275   6.746   1.225  0.6533  1.7959 -0.7255
 6182TIP3   OH218509   0.260   6.648   3.320  0.2758 -0.8038 -0.2062
 6182TIP3    H118510   0.230   6.560   3.343 -2.0109  0.3413  1.6402
 6182TIP3    H218511   0.272   6.692   3.405  0.2997  0.9732 -1.0825
 6183TIP3   OH218512   6.086   3.773   4.935  0.3342 -0.1297 -0.6788
 6183TIP3    H118513   6.070   3.678   4.941 -1.4241  0.1253 -0.8290
 6183TIP3    H218514   6.179   3.783   4.955  0.0562 -1.6639  1.7508
 6184TIP3   OH218515   5.788   2.981   3.972 -0.0443  0.1111 -0.1664
 6184TIP3    H118516   5.872   2.961   4.014 -0.6741 -2.0861  0.1791
 6184TIP3    H218517   5.802   2.958   3.880 -0.7010 -1.9328  0.1896
 6185TIP3   OH218518   0.122   5.147   3.959 -0.4808 -0.5634  0.3433
 6185TIP3    H118519   0.145   5.096   4.037 -0.2649 -0.9089  0.0515
 6185TIP3    H218520   0.079   5.225   3.994 -2.3728 -1.7205  0.7439
 6186TIP3   OH218521   2.278   3.519   2.786  0.1712  0.3697 -0.1364
 6186TIP3    H118522   2.191   3.549   2.759  0.6516  1.4039 -0.5521
 6186TIP3    H218523   2.291   3.558   2.873  0.5622  0.9041 -0.4324
 6187TIP3   OH218524   6.526   5.623   1.166  0.3709 -0.3621 -0.1421
 6187TIP3    H118525   6.576   5.704   1.158 -1.3285  0.8129  0.7643
 6187TIP3    H218526   6.506   5.616   1.259 -0.6264 -1.1457 -0.4019
 6188TIP3   OH218527   3.283   2.883   3.132  0.3586 -0.2485 -0.5425
 6188TIP3    H118528   3.238   2.965   3.110  1.6343  0.8000  0.6357
 6188TIP3    H218529   3.219   2.835   3.184  0.2707  0.8724  0.4249
 6189TIP3   OH218530   4.173   2.170   1.600 -0.1342 -0.0380 -0.2314
 6189TIP3    H118531   4.179   2.256   1.641  1.1112 -0.2845  0.1322
 6189TIP3    H218532   4.133   2.187   1.514 -0.2103  0.8512 -0.0261
 6190TIP3   OH218533   4.639   2.721   0.956  0.2618  0.0003 -0.7558
 6190TIP3    H118534   4.670   2.735   1.045 -0.2205  2.1836 -0.8791
 6190TIP3    H218535   4.639   2.626   0.945  1.4098 -0.2720  1.1684
 6191TIP3   OH218536   6.813   6.250   1.444  0.0614  0.0102  0.0635
 6191TIP3    H118537   6.736   6.307   1.443 -0.3021 -0.4698 -0.4568
 6191TIP3    H218538   6.793   6.183   1.510 -1.1373 -1.6176 -1.8193
 6192TIP3   OH218539   1.191   1.533   2.186 -0.0892  0.3163 -0.3983
 6192TIP3    H118540   1.139   1.614   2.191 -1.5596 -0.6069 -0.1728
 6192TIP3    H218541   1.194   1.501   2.276  2.6257  1.3569 -0.0266
 6193TIP3   OH218542   5.735   6.767   2.679 -0.0436 -0.2667 -0.1784
 6193TIP3    H118543   5.702   6.783   2.767  1.7816  1.6133  0.2536
 6193TIP3    H218544   5.690   6.832   2.624  0.8705  0.5047 -0.0594
 6194TIP3   OH218545   0.064   4.927   0.257 -0.0457  0.1416  0.6568
 6194TIP3    H118546  -0.009   4.877   0.219  0.8923 -2.1846  1.6848
 6194TIP3    H218547   0.141   4.873   0.240  1.1250  1.5038  1.4384
 6195TIP3   OH218548   0.991   1.958   5.607  0.0711  0.5432 -0.1071
 6195TIP3    H118549   1.041   1.879   5.630 -0.5277  0.1346 -0.1820
 6195TIP3    H218550   0.907   1.924   5.576  0.1192  1.1785 -0.9537
 6196TIP3   OH218551   5.302   3.102   1.175  0.8150 -0.2828  0.6108
 6196TIP3    H118552   5.250   3.142   1.245 -0.5182  0.3264 -0.6812
 6196TIP3    H218553   5.365   3.171   1.150  1.1944 -0.4488  1.1031
 6197TIP3   OH218554   2.667   3.259   3.030  0.0738 -0.4878 -0.7944
 6197TIP3    H118555   2.620   3.289   2.952  0.8412  0.0386 -1.0600
 6197TIP3    H218556   2.692   3.339   3.075  0.8847 -0.7645 -0.7483
 6198TIP3   OH218557   4.989   4.410   2.430  0.1409 -0.0532  0.5988
 6198TIP3    H118558   5.000   4.339   2.367  1.3689  1.0206 -0.4507
 6198TIP3    H218559   4.928   4.471   2.388 -1.1656 -0.6041  1.6311
 6199TIP3   OH218560   3.072   4.760   0.730 -0.3713  0.3353  0.4445
 6199TIP3    H118561   3.092   4.853   0.735 -0.6231  0.6936 -2.8165
 6199TIP3    H218562   2.981   4.756   0.701  0.2632 -0.7514 -1.6636
 6200TIP3   OH218563   2.361   0.170   1.902 -0.0555  0.4257  0.6621
 6200TIP3    H118564   2.444   0.214   1.886  0.8227  0.0535  3.5435
 6200TIP3    H218565   2.300   0.241   1.924  0.2227  0.5111  1.1645
 6201TIP3   OH218566   0.221   0.278   1.796 -0.1946  0.3043 -0.2936
 6201TIP3    H118567   0.130   0.308   1.787 -0.0673  1.0109  0.5729
 6201TIP3    H218568   0.213   0.185   1.816 -0.7046  0.2376 -0.7899
 6202TIP3   OH218569   0.715   0.610   4.079 -0.1856 -0.0442  0.4308
 6202TIP3    H118570   0.763   0.580   4.001  0.0002 -1.0744  0.9158
 6202TIP3    H218571   0.784   0.637   4.139 -0.2692 -0.3140  0.6496
 6203TIP3   OH218572   7.214   3.973   1.414 -0.3819  0.0586  0.0990
 6203TIP3    H118573   7.192   3.891   1.457 -0.9102  0.1463 -0.0031
 6203TIP3    H218574   7.132   4.022   1.412 -0.1948  0.3596 -0.3361
 6204TIP3   OH218575   2.663   5.811   5.859 -0.1165  0.2796 -0.1082
 6204TIP3    H118576   2.669   5.817   5.763 -0.1313  0.6775 -0.0827
 6204TIP3    H218577   2.754   5.808   5.888 -0.0230 -3.0161 -0.3238
 6205TIP3   OH218578   5.958   1.662   4.604 -0.1730 -0.5165  0.1303
 6205TIP3    H118579   6.026   1.652   4.671  0.8722 -1.5697 -1.0494
 6205TIP3    H218580   5.965   1.584   4.550 -1.0246  0.2721 -1.1866
 6206TIP3   OH218581   5.923   0.260   0.252 -0.0011  0.0475 -0.3868
 6206TIP3    H118582   5.833   0.284   0.275 -0.6400 -2.3286 -0.0813
 6206TIP3    H218583   5.918   0.167   0.230  2.2977 -0.0102 -0.9517
 6207TIP3   OH218584   6.039   5.671   5.904  0.2717 -0.0477  0.6161
 6207TIP3    H118585   6.074   5.581   5.903 -0.2712 -0.2730  1.1094
 6207TIP3    H218586   6.046   5.700   5.813 -0.3187 -0.9008  0.2802
 6208TIP3   OH218587   5.021   5.302   0.991 -1.1192 -1.3230  0.0293
 6208TIP3    H118588   4.935   5.317   0.952 -0.6589 -0.7939 -0.8275
 6208TIP3    H218589   5.082   5.314   0.918 -0.2212 -0.2474  0.9177
 6209TIP3   OH218590   5.303   3.493   0.820  0.3933  0.3649  0.2849
 6209TIP3    H118591   5.277   3.584   0.809 -2.4030 -0.4899 -1.0469
 6209TIP3    H218592   5.221   3.445   0.825  1.7629 -2.2324 -0.4109
 6210TIP3   OH218593   5.992   0.344   5.249  0.2595  0.1669 -0.1836
 6210TIP3    H118594   5.978   0.432   5.212 -0.7184  0.2614  0.3573
 6210TIP3    H218595   5.974   0.285   5.176  0.2722  0.3980 -0.3778
 6211TIP3   OH218596   1.233   6.370   1.372  0.2202 -0.0159  0.1033
 6211TIP3    H118597   1.310   6.387   1.427  0.1893 -0.6908  0.3649
 6211TIP3    H218598   1.190   6.296   1.414  0.4003 -0.7970 -1.0363
 6212TIP3   OH218599   6.304   0.485   0.499 -1.0656  0.0360 -0.1236
 6212TIP3    H118600   6.395   0.458   0.494 -0.9658  0.0400  1.2218
 6212TIP3    H218601   6.262   0.445   0.423 -0.6764 -2.9069  1.0665
 6213TIP3   OH218602   3.479   4.753   1.775 -0.2730  0.2341  0.2572
 6213TIP3    H118603   3.460   4.799   1.694 -0.1167  0.4283  0.3311
 6213TIP3    H218604   3.523   4.817   1.830  0.9524 -0.3226 -0.0490
 6214TIP3   OH218605   6.562   5.863   5.297 -0.5653 -0.0108  0.4378
 6214TIP3    H118606   6.525   5.881   5.383  1.0661 -0.6462  1.3159
 6214TIP3    H218607   6.647   5.907   5.298 -0.0500 -0.9536 -0.4286
 6215TIP3   OH218608   4.637   5.312   0.275 -0.3499 -0.1524 -0.5398
 6215TIP3    H118609   4.577   5.312   0.200  0.3018 -0.1616 -1.0747
 6215TIP3    H218610   4.641   5.403   0.302 -0.1760 -0.0646 -0.8557
 6216TIP3   OH218611   3.888   1.629   3.358  0.1178  0.5883 -0.1496
 6216TIP3    H118612   3.870   1.681   3.436  0.8006 -1.1213  1.1942
 6216TIP3    H218613   3.982   1.610   3.362 -0.0664 -0.5581 -0.7125
 6217TIP3   OH218614   5.610   2.209   4.700  0.0058  0.3302 -0.3839
 6217TIP3    H118615   5.691   2.197   4.652  0.2090  2.9389 -0.8383
 6217TIP3    H218616   5.628   2.174   4.787  1.6469  0.9122 -0.4628
 6218TIP3   OH218617   0.583   5.338   0.496  0.5868 -0.5486  0.2525
 6218TIP3    H118618   0.583   5.245   0.473  0.0949 -0.4572 -0.1129
 6218TIP3    H218619   0.622   5.340   0.584  0.1659 -1.1486  0.4586
 6219TIP3   OH218620   5.720   0.066   2.338 -0.1197 -0.1527 -0.1427
 6219TIP3    H118621   5.786   0.013   2.293 -0.3123  0.7456 -1.5526
 6219TIP3    H218622   5.765   0.148   2.356 -0.5023  0.0477 -0.0909
 6220TIP3   OH218623   6.528   2.566   0.979  0.1730  0.2607  0.0132
 6220TIP3    H118624   6.606   2.611   1.013 -0.5842  1.2086  0.5500
 6220TIP3    H218625   6.456   2.625   0.998 -0.6589 -0.4876 -0.7138
 6221TIP3   OH218626   1.003   6.774   0.108 -0.2766  0.5385  0.0624
 6221TIP3    H118627   1.009   6.767   0.203  1.0210 -1.5101 -0.1131
 6221TIP3    H218628   1.085   6.814   0.081  0.2300 -0.7200 -0.3142
 6222TIP3   OH218629   3.557   1.141   3.928  0.3609  0.7194  0.1047
 6222TIP3    H118630   3.554   1.232   3.957 -0.4957  0.8972 -0.5089
 6222TIP3    H218631   3.486   1.098   3.975  1.7177 -0.0130  1.5686
 6223TIP3   OH218632   0.512   3.673   4.675 -0.3622  0.3017  0.1506
 6223TIP3    H118633   0.605   3.658   4.656 -0.6582 -1.1103 -0.3099
 6223TIP3    H218634   0.512   3.721   4.757  0.7675 -0.5928  0.7082
 6224TIP3   OH218635   2.406   6.481   3.840  0.3541  0.4354 -0.3000
 6224TIP3    H118636   2.421   6.522   3.755 -1.2962  0.1217 -0.7766
 6224TIP3    H218637   2.322   6.438   3.831  0.9685 -1.1193  0.9339
 6225TIP3   OH218638   2.005   4.750   4.726 -0.1588  0.1030 -0.3057
 6225TIP3    H118639   1.926   4.699   4.706 -0.1359  0.8243 -2.4964
 6225TIP3    H218640   2.077   4.689   4.711 -0.2442 -0.3523  1.0164
 6226TIP3   OH218641   2.207   2.392   4.054  0.0167 -0.3237 -0.4081
 6226TIP3    H118642   2.252   2.312   4.028  1.5641  0.9935 -2.0642
 6226TIP3    H218643   2.132   2.398   3.995 -0.8048 -1.1114  0.5157
 6227TIP3   OH218644   5.178   1.527   1.707 -0.1640  0.2707  0.0481
 6227TIP3    H118645   5.196   1.496   1.618 -0.7880  1.4413 -0.5201
 6227TIP3    H218646   5.239   1.600   1.719  0.7603 -0.6446  1.0626
 6228TIP3   OH218647   0.466   5.456   4.327 -0.4887  0.5752  0.0423
 6228TIP3    H118648   0.493   5.519   4.260 -1.7956  1.4201  0.2655
 6228TIP3    H218649   0.397   5.501   4.376  1.2845  0.4796  2.8346
 6229TIP3   OH218650   2.003   4.937   5.397  0.3420  0.9406  0.0202
 6229TIP3    H118651   2.093   4.964   5.381  0.7239 -0.3094 -0.0423
 6229TIP3    H218652   1.982   4.880   5.323 -0.8798  2.0409 -0.5302
 6230TIP3   OH218653   3.342   5.544   4.317 -0.2056  0.7299 -0.0307
 6230TIP3    H118654   3.292   5.541   4.235 -0.6643  0.9526  0.2305
 6230TIP3    H218655   3.287   5.596   4.375  0.1008  0.5397  0.4295
 6231TIP3   OH218656   4.062   5.377   4.767 -0.2695  0.2113 -0.1913
 6231TIP3    H118657   4.012   5.435   4.710  0.6713 -0.2098 -1.4726
 6231TIP3    H218658   4.153   5.391   4.743  0.0419 -1.0332  0.1961
 6232TIP3   OH218659   5.821   6.391   3.769  0.8313 -0.3604  0.4272
 6232TIP3    H118660   5.810   6.302   3.802  0.4866 -0.5253 -0.1216
 6232TIP3    H218661   5.866   6.381   3.686  0.7725 -0.0246  0.3524
 6233TIP3   OH218662   3.079   1.236   0.036  0.6318  0.4990 -0.4855
 6233TIP3    H118663   3.150   1.195   0.084 -0.5177 -1.4245 -0.3119
 6233TIP3    H218664   3.048   1.307   0.093  2.0620  1.0569 -0.3682
 6234TIP3   OH218665   5.210   1.589   0.586 -0.3782  0.2266 -0.5757
 6234TIP3    H118666   5.204   1.495   0.603 -0.2735  0.2751 -0.2618
 6234TIP3    H218667   5.291   1.599   0.534  0.3320  0.2901  0.5115
 6235TIP3   OH218668   0.601   5.874   3.453 -0.3654 -0.6779 -0.0834
 6235TIP3    H118669   0.613   5.966   3.478  2.5359 -1.1141  0.4435
 6235TIP3    H218670   0.586   5.877   3.359  0.0408  0.3230 -0.1310
 6236TIP3   OH218671   3.389   5.619   0.377  0.4461 -1.4499 -0.0214
 6236TIP3    H118672   3.389   5.675   0.300  0.9193  0.4191  1.2685
 6236TIP3    H218673   3.469   5.567   0.369  1.1182 -0.4126 -0.2204
 6237TIP3   OH218674   4.244   6.703   4.853  0.6321  0.2298  0.2368
 6237TIP3    H118675   4.172   6.757   4.886  0.8192  0.6995 -0.0934
 6237TIP3    H218676   4.252   6.632   4.915 -0.5108 -0.1584 -0.0359
 6238TIP3   OH218677   2.510   5.534   5.376  0.0898  0.1384 -0.8212
 6238TIP3    H118678   2.586   5.540   5.434  0.1583 -0.3595 -0.8557
 6238TIP3    H218679   2.487   5.625   5.357 -1.0842  0.3902  1.4540
 6239TIP3   OH218680   1.732   1.234   1.651  0.8167 -0.6951  0.0715
 6239TIP3    H118681   1.729   1.214   1.558 -0.7256  0.7418 -0.2310
 6239TIP3    H218682   1.819   1.272   1.664  0.1399  1.5225 -1.3697
 6240TIP3   OH218683   6.481   5.411   4.584 -0.3349 -0.2911  0.0004
 6240TIP3    H118684   6.391   5.422   4.617  0.0832 -0.0532  1.1234
 6240TIP3    H218685   6.516   5.500   4.581  0.5552 -0.5326  1.7055
 6241TIP3   OH218686   5.483   3.743   2.575 -1.0311  0.1172 -0.5785
 6241TIP3    H118687   5.514   3.766   2.663 -1.3771 -0.1375 -0.3882
 6241TIP3    H218688   5.481   3.648   2.575 -1.9766  0.1332 -0.5327
 6242TIP3   OH218689   0.618   5.569   1.621  0.0196 -0.1413  0.4941
 6242TIP3    H118690   0.588   5.516   1.694  0.6111  0.4411  1.1750
 6242TIP3    H218691   0.663   5.507   1.563 -1.0936 -0.7392  0.2287
 6243TIP3   OH218692   5.779   1.453   4.377 -0.3323 -0.1116  0.1241
 6243TIP3    H118693   5.710   1.517   4.364 -2.2264 -2.2681 -1.1743
 6243TIP3    H218694   5.807   1.429   4.289  0.1664 -1.2166  0.5563
 6244TIP3   OH218695   1.392   6.562   3.543  0.4364  0.0833 -0.0380
 6244TIP3    H118696   1.353   6.633   3.492 -0.9246  0.2988  1.2506
 6244TIP3    H218697   1.424   6.500   3.477 -0.7684  0.6146 -1.1655
 6245TIP3   OH218698   0.662   3.278   2.539  0.3563  0.8788 -0.3334
 6245TIP3    H118699   0.751   3.256   2.568 -0.0214 -3.0679 -1.5333
 6245TIP3    H218700   0.608   3.265   2.617  0.4535 -0.4222 -0.4554
 6246TIP3   OH218701   3.424   3.991   0.082  0.0672  0.0470  0.1276
 6246TIP3    H118702   3.427   3.968  -0.011  0.6258  0.7490 -0.0347
 6246TIP3    H218703   3.389   4.080   0.084  0.0191  0.0200  0.5949
 6247TIP3   OH218704   2.488   3.414   5.029  0.0044 -0.1774 -0.4118
 6247TIP3    H118705   2.504   3.387   5.120 -1.3565  1.0209  0.2232
 6247TIP3    H218706   2.397   3.390   5.013  0.4615 -1.1320 -1.7769
 6248TIP3   OH218707   5.988   2.529   5.738  0.5659 -0.1143  0.2564
 6248TIP3    H118708   5.914   2.511   5.795  0.1351 -0.8817 -0.5296
 6248TIP3    H218709   5.949   2.543   5.651  1.2217  0.8748  0.1037
 6249TIP3   OH218710   0.210   1.913   2.418 -0.2467 -0.0570 -1.2921
 6249TIP3    H118711   0.193   1.864   2.499  0.2896  0.6515 -0.7393
 6249TIP3    H218712   0.167   1.997   2.431 -1.0845 -0.3240 -2.2034
 6250TIP3   OH218713   7.013   0.245   0.392 -0.2286  0.5383 -0.2296
 6250TIP3    H118714   7.017   0.159   0.349 -1.3373 -0.2182  1.0812
 6250TIP3    H218715   7.061   0.232   0.474 -0.4879  1.1590  0.0185
 6251TIP3   OH218716   1.285   5.062   4.519 -0.2570  0.1141 -0.1038
 6251TIP3    H118717   1.333   5.035   4.440  1.1193  0.0988  0.7068
 6251TIP3    H218718   1.239   5.142   4.492  2.3043  1.6535 -0.2694
 6252TIP3   OH218719   0.660   2.839   3.959  0.2776  0.0397  0.2134
 6252TIP3    H118720   0.603   2.832   4.036  0.8159 -0.4455  0.5750
 6252TIP3    H218721   0.600   2.837   3.885 -0.2330  0.2939  0.6083
 6253TIP3   OH218722   1.176   2.832   4.910 -0.1978  0.0703  0.3558
 6253TIP3    H118723   1.229   2.887   4.967  1.4405 -0.4809 -0.5764
 6253TIP3    H218724   1.170   2.748   4.956  0.5212 -0.1466  0.0746
 6254TIP3   OH218725   4.506   0.838   3.462 -0.1410  0.4167 -0.2108
 6254TIP3    H118726   4.541   0.796   3.383  0.8973  0.7068  0.0851
 6254TIP3    H218727   4.583   0.855   3.517 -0.6461  1.8232  0.1013
 6255TIP3   OH218728   0.246   0.986   1.676 -0.2834 -0.5103 -0.1061
 6255TIP3    H118729   0.163   0.968   1.632 -1.1136  0.4342  1.0274
 6255TIP3    H218730   0.287   1.055   1.623 -0.7924 -0.1157  0.0078
 6256TIP3   OH218731   3.135   6.078   3.135 -0.0046  0.1148 -0.3651
 6256TIP3    H118732   3.202   6.077   3.204  0.2705 -0.5618 -0.6365
 6256TIP3    H218733   3.159   6.006   3.077 -0.7563  0.1042 -0.6747
 6257TIP3   OH218734   1.393   6.588   4.310 -0.2607  0.2596  0.1427
 6257TIP3    H118735   1.346   6.596   4.393 -0.8981 -1.0969 -0.0539
 6257TIP3    H218736   1.485   6.590   4.334 -0.4384 -0.1641  0.8869
 6258TIP3   OH218737   0.963   2.423   0.680 -0.3611  0.3414  0.1090
 6258TIP3    H118738   0.951   2.516   0.701  0.2553  0.9229 -1.8477
 6258TIP3    H218739   0.897   2.405   0.613  1.2690  0.1681 -1.5327
 6259TIP3   OH218740   2.702   5.522   3.917 -0.2876 -0.5624 -0.0570
 6259TIP3    H118741   2.771   5.477   3.869  0.6853  0.3994  0.4062
 6259TIP3    H218742   2.677   5.461   3.986 -1.7509 -1.9949 -1.7586
 6260TIP3   OH218743   3.200   1.538   4.541  0.1830 -0.0414  0.2780
 6260TIP3    H118744   3.228   1.570   4.626 -0.3001  1.5024 -0.1138
 6260TIP3    H218745   3.269   1.566   4.480 -1.1315  2.0046 -0.3638
 6261TIP3   OH218746   0.597   6.698   3.623  0.7504  0.5821 -0.0750
 6261TIP3    H118747   0.652   6.671   3.697  0.0023 -2.0268 -0.3673
 6261TIP3    H218748   0.509   6.672   3.649  0.0533  2.1411 -0.7877
 6262TIP3   OH218749   2.727   0.057   3.490  0.3559 -0.4313 -0.2025
 6262TIP3    H118750   2.700   0.142   3.525  0.2315  0.1979 -1.7467
 6262TIP3    H218751   2.763   0.077   3.403  1.8917 -1.7718  0.0888
 6263TIP3   OH218752   6.851   2.213   5.750 -0.0829 -0.4580 -0.2003
 6263TIP3    H118753   6.862   2.128   5.792  0.5849 -0.9437 -1.3039
 6263TIP3    H218754   6.940   2.241   5.729 -0.3884 -0.3687 -1.4864
 6264TIP3   OH218755   5.814   5.440   2.734 -0.2138 -0.2612 -0.2798
 6264TIP3    H118756   5.836   5.348   2.718  0.1050 -0.1744 -0.3600
 6264TIP3    H218757   5.896   5.478   2.767  0.5798  0.7268 -3.1499
 6265TIP3   OH218758   1.230   5.753   0.978 -0.0828 -0.1343 -0.7999
 6265TIP3    H118759   1.163   5.722   1.039  1.3264 -1.1363  0.3215
 6265TIP3    H218760   1.269   5.829   1.023  0.9226 -0.8395 -0.4419
 6266TIP3   OH218761   4.178   2.831   3.664  0.5687 -0.4415 -0.3771
 6266TIP3    H118762   4.090   2.804   3.639  0.1290 -0.0608  0.7074
 6266TIP3    H218763   4.235   2.791   3.598 -0.3186 -1.5288 -0.5111
 6267TIP3   OH218764   2.160   0.314   2.247 -0.1829  0.1859 -0.1956
 6267TIP3    H118765   2.087   0.252   2.241 -0.5624  0.5949  0.1913
 6267TIP3    H218766   2.152   0.353   2.334  0.4148  0.3376 -0.2063
 6268TIP3   OH218767   5.832   6.064   5.608 -0.4862 -0.6635 -0.3846
 6268TIP3    H118768   5.797   5.978   5.633 -2.1537 -0.3241 -1.4104
 6268TIP3    H218769   5.847   6.057   5.514 -0.2691  0.0556 -0.4058
 6269TIP3   OH218770   1.896   0.991   0.749  0.5436 -0.0140 -0.1553
 6269TIP3    H118771   1.985   0.965   0.774 -0.0523 -1.0818  0.9795
 6269TIP3    H218772   1.908   1.060   0.684  2.2263 -1.9710 -2.0363
 6270TIP3   OH218773   4.076   1.162   4.105  0.3972  0.0186  0.2068
 6270TIP3    H118774   4.138   1.175   4.034  0.4369 -1.0286  0.0282
 6270TIP3    H218775   3.994   1.137   4.062  0.5687 -1.1757  0.5177
 6271TIP3   OH218776   7.221   6.279   1.229  0.0048  0.7605  0.1771
 6271TIP3    H118777   7.132   6.244   1.226  0.0226  0.7554 -0.5373
 6271TIP3    H218778   7.210   6.370   1.257 -0.0323  0.1903  2.1543
 6272TIP3   OH218779   3.192   3.087   1.016 -0.4760 -0.5901 -0.5623
 6272TIP3    H118780   3.140   3.099   0.937  0.9369 -0.7290 -1.5540
 6272TIP3    H218781   3.203   3.175   1.052  0.9266 -0.1563 -1.9219
 6273TIP3   OH218782   2.933   4.317   0.072  0.3537 -1.2781  0.2938
 6273TIP3    H118783   3.006   4.366   0.110  0.4574 -0.7027 -0.6134
 6273TIP3    H218784   2.946   4.227   0.102  1.7024 -1.2783 -0.2289
 6274TIP3   OH218785   1.689   3.547   5.489  0.0032 -0.2070 -0.0421
 6274TIP3    H118786   1.664   3.602   5.415 -0.4691 -0.0821  0.2112
 6274TIP3    H218787   1.707   3.461   5.450 -2.5940 -0.8322 -0.0234
 6275TIP3   OH218788   0.938   6.818   0.674  0.4136  0.0230  0.4699
 6275TIP3    H118789   1.031   6.796   0.680  0.3557 -0.5997 -0.5487
 6275TIP3    H218790   0.894   6.733   0.673  0.0091  0.2043 -1.2349
 6276TIP3   OH218791   3.839   5.850   4.200  0.5135 -0.4978 -0.6930
 6276TIP3    H118792   3.831   5.757   4.218  1.5900 -0.5748 -0.5296
 6276TIP3    H218793   3.752   5.886   4.214  0.5849 -1.0789  1.5990
 6277TIP3   OH218794   5.365   0.765   1.310 -0.0425  0.0860  0.0422
 6277TIP3    H118795   5.368   0.836   1.245  2.2525  0.6990  0.7446
 6277TIP3    H218796   5.338   0.809   1.391 -1.3785 -0.3986 -0.1136
 6278TIP3   OH218797   0.448   2.167   2.927  0.3757  0.5694 -0.1424
 6278TIP3    H118798   0.414   2.122   2.850  4.7018 -2.1338 -0.8543
 6278TIP3    H218799   0.442   2.102   2.997 -0.3864  1.7851  0.9745
 6279TIP3   OH218800   2.991   3.602   2.286 -0.8124 -0.1299  0.4432
 6279TIP3    H118801   2.987   3.524   2.231  1.5383 -0.6427  0.8600
 6279TIP3    H218802   2.947   3.577   2.367 -0.8628 -0.7244  0.2348
 6280TIP3   OH218803   5.473   5.807   0.080 -0.2122 -0.6052 -0.0731
 6280TIP3    H118804   5.399   5.863   0.102 -0.2631 -0.8479  0.3724
 6280TIP3    H218805   5.550   5.855   0.110 -0.1359 -0.1270 -0.9737
 6281TIP3   OH218806   4.138   4.910   3.584 -0.0583 -0.2815  0.3005
 6281TIP3    H118807   4.214   4.960   3.553 -0.7838  0.6674  0.0319
 6281TIP3    H218808   4.170   4.867   3.664  0.3486  1.2725  1.0144
 6282TIP3   OH218809   0.677   4.122   3.948  1.0598 -0.0494  0.4288
 6282TIP3    H118810   0.600   4.148   3.898  1.4345 -0.9359 -0.6735
 6282TIP3    H218811   0.684   4.187   4.018 -1.5735 -0.8222  1.5384
 6283TIP3   OH218812   4.702   4.036   1.039  0.7642 -0.3844 -0.0022
 6283TIP3    H118813   4.786   4.018   1.081 -0.0580 -1.0655  1.4314
 6283TIP3    H218814   4.641   3.974   1.079 -0.8376  1.3472  0.3994
 6284TIP3   OH218815   2.602   2.455   0.747  0.0148 -0.1221  0.2347
 6284TIP3    H118816   2.695   2.452   0.768 -0.1213 -0.3277  0.8514
 6284TIP3    H218817   2.562   2.503   0.820 -0.1981  1.1418 -0.6820
 6285TIP3   OH218818   1.506   3.344   5.201  0.7443 -0.4798  0.4145
 6285TIP3    H118819   1.577   3.306   5.149 -0.7429  0.1949 -2.3135
 6285TIP3    H218820   1.515   3.439   5.188  0.4452 -0.2669  1.6141
 6286TIP3   OH218821   0.282   6.653   0.304  0.1724 -0.1743 -0.1398
 6286TIP3    H118822   0.309   6.619   0.388 -2.2824 -1.5981  0.1679
 6286TIP3    H218823   0.345   6.618   0.241  1.4411  0.1009  0.9435
 6287TIP3   OH218824   1.460   1.776   0.388  0.1434  0.4389 -0.1784
 6287TIP3    H118825   1.365   1.786   0.391  0.2245  0.9381  1.2250
 6287TIP3    H218826   1.473   1.690   0.348 -0.9221  0.1077  0.1484
 6288TIP3   OH218827  -0.032   2.910   4.277  0.1209  0.3446  0.3096
 6288TIP3    H118828   0.014   2.832   4.247  0.4050  0.6628 -0.0936
 6288TIP3    H218829   0.034   2.957   4.329  0.1141  0.5766  0.1096
 6289TIP3   OH218830   2.456   4.795   0.330 -0.2081 -0.0163 -0.3802
 6289TIP3    H118831   2.371   4.834   0.314 -1.5029 -1.5142  2.1801
 6289TIP3    H218832   2.507   4.864   0.373 -0.3343  0.6668 -1.3021
 6290TIP3   OH218833   3.706   1.736   4.490  0.6705 -0.1816 -0.2618
 6290TIP3    H118834   3.758   1.781   4.557  1.7597  0.7656 -1.6724
 6290TIP3    H218835   3.632   1.793   4.474 -0.6242 -1.2885  1.3810
 6291TIP3   OH218836   4.985   1.762   2.570  0.0077  0.1254 -0.0886
 6291TIP3    H118837   5.047   1.754   2.497 -0.8864 -0.0257 -0.8650
 6291TIP3    H218838   4.921   1.827   2.540 -1.6993 -1.6036 -0.4689
 6292TIP3   OH218839   6.748   6.592   0.009  0.2060  0.3029 -0.1956
 6292TIP3    H118840   6.826   6.559   0.052  0.2762  1.0513  0.2720
 6292TIP3    H218841   6.754   6.687   0.018 -0.4120  0.4044 -0.7601
 6293TIP3   OH218842   5.914   5.748   4.881  0.4446 -0.5166  0.3907
 6293TIP3    H118843   5.890   5.784   4.796  1.0036  0.4226  0.6208
 6293TIP3    H218844   5.987   5.688   4.862  1.1392  0.3438  0.3070
 6294TIP3   OH218845   1.637   0.662   3.880 -0.3358  0.4030  0.0122
 6294TIP3    H118846   1.668   0.581   3.840 -1.0370 -0.4426  1.1385
 6294TIP3    H218847   1.544   0.648   3.894  0.0398  0.2476  2.8162
 6295TIP3   OH218848   2.260   2.133   0.933  0.1493  0.7688 -0.4070
 6295TIP3    H118849   2.255   2.051   0.983  0.5557  0.9707 -0.0283
 6295TIP3    H218850   2.337   2.178   0.969  0.0567  1.2155 -0.7649
 6296TIP3   OH218851   2.778   4.334   3.493 -0.2794 -0.2934 -0.5719
 6296TIP3    H118852   2.726   4.314   3.415 -1.1366  0.7612 -0.2892
 6296TIP3    H218853   2.715   4.332   3.565  0.3318 -0.3208 -0.0266
 6297TIP3   OH218854   2.600   2.010   4.930  0.6888  0.4894 -0.1610
 6297TIP3    H118855   2.627   2.081   4.871 -0.6003  1.0593 -0.0959
 6297TIP3    H218856   2.559   1.945   4.873 -1.2075  1.3653  0.1445
 6298TIP3   OH218857   6.476   2.523   4.636  0.7904  0.1097  0.4769
 6298TIP3    H118858   6.445   2.613   4.640  0.4894 -0.0260  1.6150
 6298TIP3    H218859   6.473   2.500   4.543 -1.6227  0.4425  0.4140
 6299TIP3   OH218860   2.057   5.505   1.339 -0.1424 -0.7792  0.8056
 6299TIP3    H118861   2.021   5.457   1.264  0.3518 -1.4265  0.9704
 6299TIP3    H218862   2.118   5.443   1.379  2.1885  0.7308 -0.2403
 6300TIP3   OH218863   1.913   3.168   2.035 -0.1714  0.5736  0.4548
 6300TIP3    H118864   1.911   3.144   1.942 -1.5389  0.3167  0.5332
 6300TIP3    H218865   1.968   3.246   2.039 -0.5615  0.9111 -0.6482
 6301TIP3   OH218866   6.745   5.564   0.023 -0.1664 -0.1479  0.3176
 6301TIP3    H118867   6.730   5.577   0.117  0.6573  0.4992  0.3680
 6301TIP3    H218868   6.732   5.650  -0.016  0.9993 -0.0723  0.0557
 6302TIP3   OH218869   4.303   2.729   4.696 -0.1754  0.5767 -0.0607
 6302TIP3    H118870   4.358   2.796   4.655  0.0049  0.6895  0.3634
 6302TIP3    H218871   4.330   2.728   4.788 -1.0954  0.8659  0.2351
 6303TIP3   OH218872   4.547   2.452   0.919 -0.0556 -0.4520 -0.1027
 6303TIP3    H118873   4.495   2.471   0.996  0.9046 -0.2568  0.5120
 6303TIP3    H218874   4.485   2.456   0.846 -0.8380  0.0417  0.5808
 6304TIP3   OH218875   1.797   2.116   1.408 -0.4804 -0.1785  0.1467
 6304TIP3    H118876   1.823   2.158   1.326 -0.6760 -2.2565 -1.0406
 6304TIP3    H218877   1.877   2.113   1.461 -0.5318  1.8866  0.4079
 6305TIP3   OH218878   5.888   4.065   2.960 -0.7332  0.0715  0.2804
 6305TIP3    H118879   5.886   3.970   2.975  0.2147  0.4472  3.9087
 6305TIP3    H218880   5.962   4.078   2.901 -0.4987 -1.4147  0.2076
 6306TIP3   OH218881   7.074   3.041   3.821 -0.0320  0.5593  0.3639
 6306TIP3    H118882   7.153   3.015   3.868 -0.2617 -2.6001 -0.7849
 6306TIP3    H218883   7.008   3.053   3.889  1.0578  1.9632  1.2241
 6307TIP3   OH218884   2.862   0.011   1.656 -0.2181  0.4017  0.2399
 6307TIP3    H118885   2.859  -0.032   1.742 -0.9829 -1.4276 -0.6457
 6307TIP3    H218886   2.837   0.101   1.674 -2.4478 -0.4216  1.6989
 6308TIP3   OH218887   3.607   2.180   1.383  0.4305  0.1007  0.1529
 6308TIP3    H118888   3.600   2.098   1.432  0.1528  0.0019 -0.0468
 6308TIP3    H218889   3.550   2.241   1.429  0.7813  0.2393  0.4106
 6309TIP3   OH218890   0.426   1.003   3.523  0.2978  0.0480  0.3803
 6309TIP3    H118891   0.508   0.971   3.562 -1.5443 -2.6942  2.3981
 6309TIP3    H218892   0.364   1.003   3.595 -2.0789 -0.2746 -1.5397
 6310TIP3   OH218893   3.007   5.987   5.736  0.0709  0.2330  0.6284
 6310TIP3    H118894   3.091   5.969   5.695 -0.6512  0.1075 -0.8506
 6310TIP3    H218895   2.989   6.079   5.716 -1.6525 -0.5592 -2.0507
 6311TIP3   OH218896   3.838   5.632   0.134 -0.6252  1.0680 -0.1650
 6311TIP3    H118897   3.883   5.603   0.213  1.6672 -0.7159 -1.9595
 6311TIP3    H218898   3.870   5.721   0.119  0.0570  0.8863  0.1642
 6312TIP3   OH218899   2.833   6.200   1.878  0.3015 -0.3398  0.0379
 6312TIP3    H118900   2.738   6.205   1.892  0.5379 -0.2093  1.7909
 6312TIP3    H218901   2.844   6.126   1.818 -0.8498 -1.1315  0.7515
 6313TIP3   OH218902   3.017   4.929   3.240 -0.7618  0.3603 -0.0956
 6313TIP3    H118903   2.988   4.842   3.215  2.0203 -0.2184 -1.8056
 6313TIP3    H218904   3.060   4.917   3.325 -0.5815  0.0998 -0.2241
 6314TIP3   OH218905   2.708   1.514   0.658  0.1177  0.3446 -0.5411
 6314TIP3    H118906   2.702   1.607   0.636  1.4435  0.6958  0.4856
 6314TIP3    H218907   2.777   1.509   0.724 -1.0127 -1.1684  0.6031
 6315TIP3   OH218908   3.611   2.188   2.268 -0.4229 -0.1240  0.5008
 6315TIP3    H118909   3.697   2.156   2.243  0.0190  0.6621  0.9512
 6315TIP3    H218910   3.555   2.169   2.193  0.7129  1.5816 -0.8765
 6316TIP3   OH218911   6.735   3.806   4.339  0.4193  0.1819  0.1615
 6316TIP3    H118912   6.697   3.810   4.251  1.1464 -0.5767 -0.1978
 6316TIP3    H218913   6.659   3.792   4.396  0.0473 -0.3861 -0.4509
 6317TIP3   OH218914   1.201   1.671   4.143 -0.0834  0.2932  0.6528
 6317TIP3    H118915   1.255   1.732   4.093  0.1934 -0.9448 -0.6309
 6317TIP3    H218916   1.160   1.725   4.210 -1.4341  2.3042 -1.6170
 6318TIP3   OH218917   5.345   4.304   1.395  0.0265 -0.1137 -0.1191
 6318TIP3    H118918   5.416   4.317   1.458 -0.1136 -1.8575  0.4750
 6318TIP3    H218919   5.388   4.304   1.309  0.5621  0.0525  0.1497
 6319TIP3   OH218920   5.787   2.656   1.502  0.5710  0.2337 -0.4156
 6319TIP3    H118921   5.749   2.587   1.448  0.0927  0.5543 -0.4936
 6319TIP3    H218922   5.716   2.720   1.514 -0.2305 -1.0542  2.7600
 6320TIP3   OH218923   4.519   1.233   3.915  0.5099  0.1362  0.1683
 6320TIP3    H118924   4.531   1.308   3.973  0.7203  0.4133 -0.2320
 6320TIP3    H218925   4.537   1.267   3.828  1.0597 -0.4932  0.0353
 6321TIP3   OH218926   2.139   1.728   5.012 -0.4214 -0.0479 -0.0140
 6321TIP3    H118927   2.158   1.687   4.928 -1.4399  0.9422 -0.7582
 6321TIP3    H218928   2.065   1.679   5.046  0.5919 -1.0752  0.8029
 6322TIP3   OH218929   5.639   6.557   0.784 -0.1925 -0.6488  0.3385
 6322TIP3    H118930   5.713   6.518   0.831 -0.7125 -0.7437  1.1055
 6322TIP3    H218931   5.649   6.652   0.798 -0.4163 -0.6830  0.7771
 6323TIP3   OH218932   4.127   2.572   1.386  0.5027  0.3910 -0.7686
 6323TIP3    H118933   4.097   2.542   1.300  2.1996  0.2475 -1.3657
 6323TIP3    H218934   4.048   2.577   1.439 -0.4614 -0.4956 -2.0458
 6324TIP3   OH218935   6.924   0.521   0.055  0.1383  0.3253 -0.0271
 6324TIP3    H118936   6.926   0.426   0.056  0.1163  0.2234 -2.7928
 6324TIP3    H218937   7.008   0.547   0.094  0.2037 -0.7857  0.6254
 6325TIP3   OH218938   0.162   4.848   3.236  0.2361  0.1048  0.5404
 6325TIP3    H118939   0.068   4.851   3.216  0.1260  1.0304  1.1091
 6325TIP3    H218940   0.173   4.912   3.307  1.6317  1.6509 -0.9691
 6326TIP3   OH218941   2.168   5.610   1.987 -0.3169 -0.7736 -0.1129
 6326TIP3    H118942   2.090   5.657   2.016 -0.7516 -0.1899 -2.1014
 6326TIP3    H218943   2.156   5.520   2.019 -2.6016 -1.1104 -1.6648
 6327TIP3   OH218944   4.036   4.468   0.744 -0.0345 -0.1393  0.6836
 6327TIP3    H118945   4.028   4.482   0.838  2.6336  1.0846  0.8063
 6327TIP3    H218946   4.086   4.386   0.735  0.5985  0.2747  0.3668
 6328TIP3   OH218947   6.050   4.512   3.632 -0.5194 -0.3073  0.1129
 6328TIP3    H118948   6.079   4.457   3.560 -0.4731 -1.6737  1.1402
 6328TIP3    H218949   5.957   4.529   3.614 -0.7619 -1.4482  0.2063
 6329TIP3   OH218950   0.789   0.704   2.682  0.0049  0.4961  0.9790
 6329TIP3    H118951   0.829   0.674   2.764  1.9903 -0.4900 -0.2774
 6329TIP3    H218952   0.769   0.623   2.635 -2.1226  1.0170  0.8850
 6330TIP3   OH218953   2.430   6.263   3.115  0.0545 -0.1096 -0.1597
 6330TIP3    H118954   2.396   6.338   3.164 -1.0950 -0.7023 -0.0070
 6330TIP3    H218955   2.494   6.223   3.174 -0.4255 -0.1083  0.3698
 6331TIP3   OH218956   2.357   1.882   3.803  0.0907  0.7730  0.1693
 6331TIP3    H118957   2.279   1.830   3.785 -0.8800  2.1235  0.2848
 6331TIP3    H218958   2.401   1.836   3.874  0.9591 -1.5519 -1.7340
 6332TIP3   OH218959   3.849   0.068   2.400 -0.0235  0.4952 -0.0948
 6332TIP3    H118960   3.942   0.083   2.383  0.4297 -1.0854  0.8336
 6332TIP3    H218961   3.821   0.144   2.452  1.1674  0.1749  1.0442
 6333TIP3   OH218962   1.779   3.161   1.492  0.3944  0.3570  0.2430
 6333TIP3    H118963   1.764   3.250   1.458  1.5019  1.2338  1.9200
 6333TIP3    H218964   1.849   3.127   1.437  0.5284  0.8414  0.1019
 6334TIP3   OH218965   1.068   3.122   5.211 -0.6047 -0.1493 -0.1242
 6334TIP3    H118966   1.158   3.109   5.182 -0.1171 -0.2069  1.3258
 6334TIP3    H218967   1.017   3.058   5.162 -0.3479  1.7243 -3.0575
 6335TIP3   OH218968   0.698   4.700   5.547 -0.0532  0.1623  0.0890
 6335TIP3    H118969   0.681   4.698   5.641  0.5070 -0.5280  0.1914
 6335TIP3    H218970   0.703   4.793   5.525  1.2143  0.3548  1.0210
 6336TIP3   OH218971   5.242   4.468   1.858 -0.5741  0.1866 -0.4145
 6336TIP3    H118972   5.196   4.387   1.881 -1.5854 -0.0290 -2.8437
 6336TIP3    H218973   5.253   4.514   1.941 -1.0286 -1.8907  0.8709
 6337TIP3   OH218974   2.936   2.622   5.489 -0.0612 -0.3662 -0.0972
 6337TIP3    H118975   2.948   2.558   5.419 -0.2613 -1.8896  1.2012
 6337TIP3    H218976   2.880   2.578   5.553 -0.1820  1.1016  0.8606
 6338TIP3   OH218977   6.879   2.554   2.354 -0.1343  0.6741  0.2118
 6338TIP3    H118978   6.834   2.637   2.371 -0.9213  0.0493  1.2168
 6338TIP3    H218979   6.824   2.487   2.394  0.0761 -0.4427 -1.2859
 6339TIP3   OH218980   4.751   1.456   2.395  0.3457 -0.1887  0.0056
 6339TIP3    H118981   4.703   1.507   2.330  0.1509 -2.1310 -1.4703
 6339TIP3    H218982   4.825   1.418   2.347  0.2672 -1.5750  0.9190
 6340TIP3   OH218983   2.562   1.263   1.405  1.0743 -0.3872  0.2010
 6340TIP3    H118984   2.570   1.308   1.489 -0.7051 -0.1857  0.3015
 6340TIP3    H218985   2.522   1.179   1.426  0.0659 -0.0987 -0.4985
 6341TIP3   OH218986   0.441   0.249   2.676  0.4454  0.4717 -0.2527
 6341TIP3    H118987   0.351   0.280   2.679  0.7282  1.2812  1.0502
 6341TIP3    H218988   0.477   0.286   2.596 -0.3786  0.1196 -0.7954
 6342TIP3   OH218989   2.453   1.254   2.231  0.1270  0.0755  0.2065
 6342TIP3    H118990   2.393   1.281   2.162 -1.9196  1.0018  2.2048
 6342TIP3    H218991   2.508   1.331   2.246  1.2238 -0.4455 -0.9666
 6343TIP3   OH218992   4.198   2.036   1.171  0.5945  0.4087 -0.2754
 6343TIP3    H118993   4.258   2.041   1.096 -0.6191  0.5195 -1.2770
 6343TIP3    H218994   4.114   2.066   1.136  0.3781  2.1675  1.5949
 6344TIP3   OH218995   0.881   1.742   2.559  0.6314 -0.0987 -0.6760
 6344TIP3    H118996   0.789   1.741   2.586  0.8712  1.5242  0.3433
 6344TIP3    H218997   0.930   1.728   2.640  1.3351  3.1426 -0.4142
 6345TIP3   OH218998   5.449   1.033   3.221 -0.5034  0.0467  0.0443
 6345TIP3    H118999   5.470   1.124   3.202  0.6668 -0.5642 -1.7795
 6345TIP3    H219000   5.353   1.032   3.228 -0.4558  1.6247  1.4412
 6346TIP3   OH219001   6.543   4.975   2.319 -0.2293 -0.3837  0.3196
 6346TIP3    H119002   6.610   5.023   2.272 -1.5330  1.4526  0.2392
 6346TIP3    H219003   6.467   4.977   2.261 -0.3189 -2.7702  0.2223
 6347TIP3   OH219004   5.758   0.927   5.842  0.4021  0.0532  0.1766
 6347TIP3    H119005   5.758   1.012   5.798  0.3464 -0.8497 -1.6838
 6347TIP3    H219006   5.687   0.878   5.800  1.6947 -1.5675 -0.2598
 6348TIP3   OH219007   4.372   5.838   5.331  0.3141  0.0138 -0.1556
 6348TIP3    H119008   4.291   5.818   5.285  0.3104  0.0404 -0.1609
 6348TIP3    H219009   4.439   5.785   5.288 -0.0522 -1.6335  1.2064
 6349TIP3   OH219010   1.272   1.117   5.646 -0.1489 -0.5334 -0.3278
 6349TIP3    H119011   1.320   1.085   5.570 -1.5677  1.6648 -2.3007
 6349TIP3    H219012   1.331   1.180   5.687 -0.1647 -0.1519 -0.8852
 6350TIP3   OH219013   4.650   6.389   2.439  0.1144 -0.1849 -0.3250
 6350TIP3    H119014   4.723   6.363   2.495  0.7754  0.2641 -0.9601
 6350TIP3    H219015   4.622   6.473   2.474 -0.1620 -0.3924 -0.0343
 6351TIP3   OH219016   4.167   5.307   3.639 -0.1436  0.3365  0.0232
 6351TIP3    H119017   4.103   5.317   3.710 -1.5378  0.7065 -1.2292
 6351TIP3    H219018   4.179   5.395   3.605  1.2471  0.3072  0.3810
 6352TIP3   OH219019   0.862   3.000   0.365  0.0738  0.1164  0.0428
 6352TIP3    H119020   0.859   2.994   0.460  0.6147  0.7354  0.1105
 6352TIP3    H219021   0.823   2.918   0.334  0.7437 -0.5059  0.7994
 6353TIP3   OH219022   4.080   5.632   1.400 -0.4159  0.1669  0.3782
 6353TIP3    H119023   4.128   5.573   1.342 -1.3033 -1.8567  1.5753
 6353TIP3    H219024   4.147   5.681   1.446  0.3385  0.5812 -1.0997
 6354TIP3   OH219025   3.784   0.846   0.733  0.9289  0.0876  0.0954
 6354TIP3    H119026   3.836   0.838   0.813 -1.2931  1.0118  1.7420
 6354TIP3    H219027   3.718   0.778   0.740 -0.4825  1.3854  0.0630
 6355TIP3   OH219028   6.872   1.857   4.176 -0.1457  0.2281  0.1788
 6355TIP3    H119029   6.881   1.941   4.222 -1.0088 -0.1178  0.9980
 6355TIP3    H219030   6.788   1.863   4.131  0.6084  0.4918 -1.2688
 6356TIP3   OH219031   2.736   1.702   3.207 -0.0940  0.1659  0.0001
 6356TIP3    H119032   2.713   1.791   3.179 -0.4130 -0.5529 -2.1790
 6356TIP3    H219033   2.826   1.690   3.178  0.1042 -0.0631  0.7036
 6357TIP3   OH219034   3.384   5.339   1.888 -0.3096 -0.0028 -0.1135
 6357TIP3    H119035   3.307   5.396   1.889  0.9897  1.8375  1.3209
 6357TIP3    H219036   3.404   5.325   1.980  1.5581  0.2704 -0.4406
 6358TIP3   OH219037   1.885   2.208   4.694 -0.4028 -0.5991  0.0172
 6358TIP3    H119038   1.867   2.129   4.745 -0.2112 -0.1947  0.7345
 6358TIP3    H219039   1.823   2.273   4.728  0.2410 -0.1074  0.2842
 6359TIP3   OH219040   6.326   2.802   0.034 -0.2617 -0.6664  0.1189
 6359TIP3    H119041   6.237   2.768   0.039 -0.5225 -0.5187 -2.3109
 6359TIP3    H219042   6.317   2.886  -0.010  0.7198  1.2891  3.2878
 6360TIP3   OH219043   6.131   5.427   5.815  0.8797 -0.7093  0.0056
 6360TIP3    H119044   6.102   5.444   5.725 -0.1880  0.0445  0.4648
 6360TIP3    H219045   6.163   5.337   5.813 -0.2640 -1.1371 -0.8693
 6361TIP3   OH219046   6.318   2.977   3.699 -0.3392 -0.0739 -0.2982
 6361TIP3    H119047   6.223   2.962   3.695 -0.3837  0.4090 -1.1373
 6361TIP3    H219048   6.356   2.894   3.671 -0.5245 -0.0970 -0.4856
 6362TIP3   OH219049   1.680   2.101   2.502 -0.2230  0.0737 -0.5136
 6362TIP3    H119050   1.724   2.093   2.417  0.9471 -0.6945  0.1277
 6362TIP3    H219051   1.628   2.021   2.510 -1.0536  0.5635 -0.8779
 6363TIP3   OH219052   5.399   0.294   1.695 -0.3820  0.2494  0.8462
 6363TIP3    H119053   5.470   0.272   1.755  0.2720 -1.0352 -0.3326
 6363TIP3    H219054   5.431   0.267   1.609 -2.2053 -0.1645  0.2413
 6364TIP3   OH219055   3.330   5.412   3.623  0.0120 -0.0209  0.1624
 6364TIP3    H119056   3.377   5.475   3.569 -2.2000  1.4898 -0.1188
 6364TIP3    H219057   3.319   5.336   3.566 -0.3406  0.6956 -0.7526
 6365TIP3   OH219058   5.118   1.322   4.996  0.7280 -0.1536  0.2528
 6365TIP3    H119059   5.184   1.254   5.009  1.7972  0.9396  0.7463
 6365TIP3    H219060   5.074   1.297   4.915  0.7340 -1.7021  0.6932
 6366TIP3   OH219061   3.133   0.336   4.048 -0.6628  0.0631  0.0903
 6366TIP3    H119062   3.092   0.300   3.969 -0.2549  1.2311 -0.6804
 6366TIP3    H219063   3.224   0.306   4.043 -0.8375 -0.5527  0.5574
 6367TIP3   OH219064   5.048   5.023   3.571 -0.6437  0.2050  0.5638
 6367TIP3    H119065   4.991   5.072   3.513  0.1318  0.5778  0.0967
 6367TIP3    H219066   5.136   5.055   3.551 -0.1000 -1.4589  0.1636
 6368TIP3   OH219067   6.746   2.666   1.900 -0.2876  0.3333  0.1388
 6368TIP3    H119068   6.803   2.711   1.963  0.2378  1.2579 -0.9601
 6368TIP3    H219069   6.698   2.603   1.953  0.7376  0.5050  1.3381
 6369TIP3   OH219070   4.796   3.170   5.435  0.1709  0.1268  0.1236
 6369TIP3    H119071   4.738   3.149   5.509  0.1588  0.5186  0.2271
 6369TIP3    H219072   4.741   3.164   5.358  0.2697 -0.6459  0.1100
 6370TIP3   OH219073   0.924   1.012   0.468 -0.1983  0.6624  0.2464
 6370TIP3    H119074   1.007   0.996   0.512  0.7247  1.7041 -1.0127
 6370TIP3    H219075   0.942   0.994   0.375 -1.4080  0.8209 -0.0488
 6371TIP3   OH219076   6.906   1.611   2.587 -0.3454 -0.1210  0.0086
 6371TIP3    H119077   6.956   1.580   2.511  0.9375 -1.0487  1.1646
 6371TIP3    H219078   6.922   1.545   2.654 -3.0635 -0.3664  0.5128
 6372TIP3   OH219079   3.489   2.645   0.458  0.1330 -0.0799 -0.0996
 6372TIP3    H119080   3.498   2.740   0.462 -1.0984  0.0189  2.2969
 6372TIP3    H219081   3.451   2.628   0.372  1.8123  1.3949 -1.2034
 6373TIP3   OH219082   5.375   6.642   4.085  0.0255  0.0972 -0.0075
 6373TIP3    H119083   5.299   6.701   4.089  0.1664  0.2139  1.1799
 6373TIP3    H219084   5.425   6.662   4.164 -0.0414 -1.7628  0.5478
 6374TIP3   OH219085   4.213   5.725   4.663  0.7529  0.4904 -0.7219
 6374TIP3    H119086   4.259   5.693   4.740  0.7561  1.1435 -0.4399
 6374TIP3    H219087   4.282   5.748   4.601  0.7134 -1.7233 -1.6455
 6375TIP3   OH219088   1.971   6.573   2.165  0.7400  0.3311  0.4004
 6375TIP3    H119089   2.059   6.610   2.176  0.5113  1.6231 -1.5665
 6375TIP3    H219090   1.925   6.638   2.112 -1.4308 -0.3196  1.3801
 6376TIP3   OH219091   0.220   4.519   1.535  0.7067 -0.0407 -0.7357
 6376TIP3    H119092   0.290   4.581   1.552  0.1793 -0.0808  1.9806
 6376TIP3    H219093   0.139   4.570   1.545  0.2872 -0.9485  0.7697
 6377TIP3   OH219094   2.243   2.879   2.468 -0.1691  0.2160 -0.2221
 6377TIP3    H119095   2.262   2.927   2.549 -0.6583 -0.7406  0.4838
 6377TIP3    H219096   2.220   2.791   2.498  1.9054 -0.8493 -1.5322
 6378TIP3   OH219097   3.768   6.331   1.968 -0.5733  0.7100  0.3058
 6378TIP3    H119098   3.787   6.248   2.010  0.2912  2.2212  3.1745
 6378TIP3    H219099   3.850   6.356   1.925 -0.8708  0.0753 -0.6662
 6379TIP3   OH219100   4.183   2.443   2.609 -0.5814 -0.3169  0.2904
 6379TIP3    H119101   4.183   2.347   2.602  0.2382 -0.2486 -1.1269
 6379TIP3    H219102   4.147   2.461   2.696 -1.2931 -1.8883  0.3595
 6380TIP3   OH219103   4.260   2.536   3.942 -0.4099 -0.3620 -0.2319
 6380TIP3    H119104   4.269   2.441   3.953 -0.1934 -0.3484 -0.2889
 6380TIP3    H219105   4.175   2.547   3.899 -1.7382 -0.3619  2.1827
 6381TIP3   OH219106   4.646   6.210   2.119  0.0113 -0.5508  0.3569
 6381TIP3    H119107   4.691   6.172   2.044 -1.2836  0.2410 -0.8781
 6381TIP3    H219108   4.616   6.134   2.170  2.0490 -1.0896  0.8409
 6382TIP3   OH219109   7.088   0.439   1.136 -0.5502  0.0739 -0.2388
 6382TIP3    H119110   7.073   0.358   1.185  0.3120  1.0433  1.7580
 6382TIP3    H219111   7.171   0.425   1.091  0.1042  0.1514  0.8930
 6383TIP3   OH219112   6.951   3.814   3.872 -0.1611  0.9449  0.0451
 6383TIP3    H119113   6.980   3.892   3.920 -0.1209  2.3607 -2.1185
 6383TIP3    H219114   7.011   3.745   3.899  0.4169  1.9105  1.3135
 6384TIP3   OH219115   1.264   2.172   3.267 -0.1547  0.3152 -0.3630
 6384TIP3    H119116   1.264   2.268   3.272 -3.4591  0.3524  1.3730
 6384TIP3    H219117   1.303   2.143   3.349 -1.8407  0.2722  0.4626
 6385TIP3   OH219118   3.814   0.467   1.391 -0.0045 -0.1048 -0.0286
 6385TIP3    H119119   3.789   0.556   1.417  0.0286 -0.3112  0.7396
 6385TIP3    H219120   3.737   0.414   1.408 -1.2284  0.2663 -3.5919
 6386TIP3   OH219121   4.772   3.519   4.485 -0.4563  0.2508  0.0442
 6386TIP3    H119122   4.779   3.497   4.393 -0.9708  1.9669 -0.4353
 6386TIP3    H219123   4.679   3.540   4.498  0.2097  3.7051  0.0137
 6387TIP3   OH219124   2.126   5.324   5.732  0.0727 -0.4237 -0.0346
 6387TIP3    H119125   2.092   5.400   5.684  0.3205 -1.0507 -1.2312
 6387TIP3    H219126   2.219   5.340   5.741  0.2373 -0.8632 -0.8486
 6388TIP3   OH219127   4.619   1.792   2.402  0.4848 -0.1481 -0.0290
 6388TIP3    H119128   4.700   1.844   2.408 -0.9994  2.3775 -0.1748
 6388TIP3    H219129   4.553   1.855   2.372 -1.9023 -1.6820  1.6429
 6389TIP3   OH219130   7.003   6.232   2.867  0.0810  0.3247  0.3759
 6389TIP3    H119131   7.064   6.240   2.940  0.4379  0.7835  0.0282
 6389TIP3    H219132   7.026   6.303   2.807 -0.4503  0.1827 -0.0094
 6390TIP3   OH219133   1.032   6.723   2.410  1.0598  0.1439  0.0116
 6390TIP3    H119134   0.993   6.645   2.371 -0.1013  1.7860 -2.3650
 6390TIP3    H219135   1.127   6.707   2.404  0.8498 -1.2533  0.0001
 6391TIP3   OH219136   2.240   0.878   1.991 -0.4889  0.1513 -0.4353
 6391TIP3    H119137   2.176   0.927   2.042 -1.4810 -0.7956 -0.7169
 6391TIP3    H219138   2.266   0.806   2.048  1.3216  1.2286  0.1600
 6392TIP3   OH219139   1.664   4.555   4.360  0.2648 -0.2007  0.0604
 6392TIP3    H119140   1.586   4.601   4.391  0.5953  0.1240  0.4276
 6392TIP3    H219141   1.716   4.623   4.318  1.1348 -0.0512  1.3177
 6393TIP3   OH219142   2.655   5.969   4.811 -0.1938 -0.0992  0.0234
 6393TIP3    H119143   2.573   5.953   4.857 -0.4855  1.1763 -0.0051
 6393TIP3    H219144   2.670   6.063   4.821 -0.2105  0.2249 -2.3684
 6394TIP3   OH219145   6.340   2.105   3.908  0.4660 -0.0270  0.0005
 6394TIP3    H119146   6.416   2.049   3.919  0.8932  0.6759  0.7409
 6394TIP3    H219147   6.273   2.048   3.871  1.0496 -0.8873  0.2515
 6395TIP3   OH219148   5.576   2.725   5.212 -0.2185 -0.3647 -0.2210
 6395TIP3    H119149   5.527   2.708   5.132 -0.8700 -1.9934  0.4754
 6395TIP3    H219150   5.534   2.803   5.249 -0.7515 -0.3589 -0.8193
 6396TIP3   OH219151   2.271   1.679   5.432 -0.2797  0.6455 -0.1950
 6396TIP3    H119152   2.304   1.701   5.345  0.4682  1.1251  0.1976
 6396TIP3    H219153   2.254   1.763   5.474 -0.5714  0.4183  0.1543
 6397TIP3   OH219154   6.640   1.641   0.575 -0.5003 -0.2538  0.0249
 6397TIP3    H119155   6.554   1.680   0.559 -0.6306 -1.1777 -1.7252
 6397TIP3    H219156   6.700   1.715   0.576 -1.2712  0.3899  1.1130
 6398TIP3   OH219157   0.333   2.246   3.724 -0.3461  0.0829 -0.0784
 6398TIP3    H119158   0.371   2.262   3.638  1.6432 -0.2233  0.6916
 6398TIP3    H219159   0.342   2.329   3.770 -1.3799  0.2383 -0.1457
 6399TIP3   OH219160   6.874   5.559   1.205  0.2962  0.2450  0.0610
 6399TIP3    H119161   6.857   5.640   1.253  0.2800 -0.0807  0.6223
 6399TIP3    H219162   6.877   5.492   1.273  1.5023 -0.0521 -0.2616
 6400TIP3   OH219163   3.123   5.127   5.285 -0.3212 -0.7165 -0.0757
 6400TIP3    H119164   3.207   5.132   5.239  0.1508  0.8657  0.8859
 6400TIP3    H219165   3.131   5.047   5.338  0.3681 -0.8744 -0.4021
 6401TIP3   OH219166   6.355   1.807   0.855  0.2658 -0.6569 -0.1209
 6401TIP3    H119167   6.361   1.719   0.819 -2.3148 -1.4117  1.0632
 6401TIP3    H219168   6.426   1.811   0.920  1.7974 -1.0126 -1.6929
 6402TIP3   OH219169   0.742   4.231   5.628  0.0283 -0.2220  0.5399
 6402TIP3    H119170   0.675   4.189   5.574 -0.7539  0.0706  1.2540
 6402TIP3    H219171   0.803   4.161   5.650 -0.7191 -0.7819  0.8848
 6403TIP3   OH219172   5.642   3.324   0.288 -0.1493  0.3103 -0.3521
 6403TIP3    H119173   5.596   3.311   0.204 -0.1820  0.9003 -0.4294
 6403TIP3    H219174   5.681   3.239   0.307 -3.0943 -0.9242  0.8178
 6404TIP3   OH219175   6.820   4.018   0.895  0.0601 -0.1665  0.4037
 6404TIP3    H119176   6.745   3.971   0.930 -1.5902  2.3962  0.5609
 6404TIP3    H219177   6.783   4.085   0.838  2.3231  0.3079 -0.6300
 6405TIP3   OH219178   1.713   5.040   2.466 -0.1966  0.0147  0.4061
 6405TIP3    H119179   1.659   5.108   2.424  1.7627  0.4345 -1.6231
 6405TIP3    H219180   1.758   5.086   2.537 -0.3404  0.3845  0.2642
 6406TIP3   OH219181   0.460   0.959   3.255 -0.3847  0.4458 -0.1713
 6406TIP3    H119182   0.488   1.049   3.238  1.0733  0.5154  2.2355
 6406TIP3    H219183   0.447   0.955   3.350 -0.1407 -1.9684 -0.1852
 6407TIP3   OH219184   2.269   4.976   0.637  0.8032 -0.2872  0.0178
 6407TIP3    H119185   2.287   4.883   0.627 -0.6852 -0.4594 -1.5417
 6407TIP3    H219186   2.279   5.012   0.549  2.2633  1.2519  0.7392
 6408TIP3   OH219187   5.793   1.899   5.394  0.3832 -0.5057 -0.0144
 6408TIP3    H119188   5.834   1.985   5.383 -1.7157  0.4605 -0.7456
 6408TIP3    H219189   5.764   1.898   5.485 -0.3983 -0.0453 -0.2517
 6409TIP3   OH219190   1.233   3.348   1.746 -0.7554  0.6176  0.0282
 6409TIP3    H119191   1.270   3.435   1.733  0.6368 -0.2028 -1.8511
 6409TIP3    H219192   1.162   3.342   1.682  0.1127 -0.1353 -0.8832
 6410TIP3   OH219193   5.134   3.512   1.525 -0.1716  0.6470 -0.2195
 6410TIP3    H119194   5.218   3.482   1.559 -0.4366 -0.1118 -0.2060
 6410TIP3    H219195   5.137   3.607   1.533  0.4214  0.5837  0.3993
 6411TIP3   OH219196   6.113   0.538   5.906  0.3662  0.4388  0.1063
 6411TIP3    H119197   6.130   0.501   5.819  0.4635 -0.5004  0.5137
 6411TIP3    H219198   6.048   0.607   5.891  0.3011  0.2067 -0.6957
 6412TIP3   OH219199   2.429   0.164   2.608 -0.5212 -0.0133 -0.1060
 6412TIP3    H119200   2.425   0.255   2.639  0.4273  0.7163 -1.9163
 6412TIP3    H219201   2.338   0.135   2.604 -0.8974  1.1381 -0.2076
 6413TIP3   OH219202   4.769   0.857   3.564 -0.0748 -0.5287  0.6970
 6413TIP3    H119203   4.833   0.869   3.635 -2.2133  0.5559  2.6011
 6413TIP3    H219204   4.818   0.875   3.484  1.9424  0.5583  2.0800
 6414TIP3   OH219205   6.059   6.230   5.679  0.5189  0.0392 -0.6153
 6414TIP3    H119206   6.074   6.209   5.771  1.6897  0.3058 -0.7396
 6414TIP3    H219207   5.977   6.184   5.658  0.2740 -0.0882  0.5273
 6415TIP3   OH219208   0.957   4.573   5.057  0.4932 -0.3345 -0.0373
 6415TIP3    H119209   1.024   4.532   5.002 -0.4961  0.2986 -1.7914
 6415TIP3    H219210   0.916   4.638   5.000 -1.6883 -0.7908  0.9252
 6416TIP3   OH219211   4.737   1.651   4.246  0.0855  0.2470  0.1498
 6416TIP3    H119212   4.786   1.660   4.328  0.3308  1.3193 -0.1014
 6416TIP3    H219213   4.765   1.566   4.211  1.0312  0.3985  0.5042
 6417TIP3   OH219214   4.013   6.255   5.618  0.1853  0.2999 -0.2692
 6417TIP3    H119215   4.028   6.216   5.705  1.8350  0.6902 -0.3421
 6417TIP3    H219216   3.966   6.336   5.636  1.0549  0.6884  0.3414
 6418TIP3   OH219217   3.465   3.979   4.651 -0.0333 -0.2972 -0.1664
 6418TIP3    H119218   3.489   3.887   4.657  0.7753 -0.1106 -0.3751
 6418TIP3    H219219   3.536   4.019   4.601 -1.0148  0.2011 -1.2120
 6419TIP3   OH219220   1.782   6.035   4.514 -0.2320 -0.3212  0.1449
 6419TIP3    H119221   1.814   6.001   4.597  2.3193 -0.6767 -0.8868
 6419TIP3    H219222   1.729   5.965   4.477  0.5628 -1.0878  0.4380
 6420TIP3   OH219223   1.529   4.577   1.516  0.1611  0.0519 -0.3118
 6420TIP3    H119224   1.559   4.513   1.580 -1.8350  0.3329  0.9950
 6420TIP3    H219225   1.564   4.661   1.548  1.5038 -0.1358 -1.1914
 6421TIP3   OH219226   6.799   4.074   0.553 -0.4437 -0.3359  0.2663
 6421TIP3    H119227   6.854   4.029   0.488  0.0292 -0.6554  0.8754
 6421TIP3    H219228   6.732   4.010   0.576 -1.0697  0.0472 -0.4621
 6422TIP3   OH219229   4.476   0.127   2.139  0.1813  0.6877 -0.2804
 6422TIP3    H119230   4.500   0.201   2.083 -0.7936  0.7333 -0.6582
 6422TIP3    H219231   4.550   0.067   2.133  1.6005  2.1919  1.0722
 6423TIP3   OH219232   5.182   5.035   1.088 -0.0506  0.2983  0.1685
 6423TIP3    H119233   5.140   4.952   1.064  1.7238 -0.2835 -1.1894
 6423TIP3    H219234   5.114   5.101   1.074 -1.2821 -0.8404  0.5767
 6424TIP3   OH219235   2.935   2.514   4.135 -0.3617 -0.1721  0.0499
 6424TIP3    H119236   3.012   2.532   4.188 -0.3373  1.1636 -0.3988
 6424TIP3    H219237   2.880   2.459   4.191  1.0878 -1.5462  0.2011
 6425TIP3   OH219238   7.074   0.533   3.205  0.3248 -0.3419 -0.0975
 6425TIP3    H119239   7.087   0.446   3.167  1.3202 -0.3586  0.2421
 6425TIP3    H219240   7.095   0.594   3.135 -0.9674 -0.3518 -0.5252
 6426TIP3   OH219241   5.931   3.777   2.625 -0.1966  0.0631 -0.2960
 6426TIP3    H119242   5.917   3.684   2.610 -1.8600  0.0872  0.8110
 6426TIP3    H219243   5.878   3.821   2.558  1.4863  0.2862 -1.5725
 6427TIP3   OH219244   2.895   5.960   0.352 -0.0387  0.2706  0.3003
 6427TIP3    H119245   2.965   5.906   0.314 -1.5377 -0.5209 -1.5395
 6427TIP3    H219246   2.909   5.956   0.446  2.0144 -0.3468  0.0145
 6428TIP3   OH219247   6.470   2.743   3.796 -0.2002  0.7427  0.3279
 6428TIP3    H119248   6.428   2.784   3.871  2.0964 -0.4054  2.3786
 6428TIP3    H219249   6.552   2.792   3.785 -0.0254  0.2361 -0.7606
 6429TIP3   OH219250   7.020   3.731   1.892 -0.3838 -0.3558  1.0703
 6429TIP3    H119251   6.990   3.765   1.977 -2.1908  1.6713 -0.2692
 6429TIP3    H219252   7.107   3.767   1.881  0.3601 -1.5837  2.5115
 6430TIP3   OH219253   1.005   0.184   4.479 -0.3587  0.7005 -0.3156
 6430TIP3    H119254   1.015   0.257   4.540  0.1766  1.5108 -1.3364
 6430TIP3    H219255   1.094   0.169   4.445 -0.1451 -1.4901  1.0245
 6431TIP3   OH219256   4.545   6.466   4.519 -0.5028 -0.0891  0.5249
 6431TIP3    H119257   4.516   6.390   4.569  0.1630 -0.8508 -0.2124
 6431TIP3    H219258   4.489   6.537   4.549 -0.6323 -0.6889  1.7833
 6432TIP3   OH219259   4.371   4.662   5.723 -0.3127  0.7428 -0.3471
 6432TIP3    H119260   4.328   4.732   5.772 -2.5066  0.2193 -1.3901
 6432TIP3    H219261   4.329   4.582   5.752  0.4195  0.1095 -0.9624
 6433TIP3   OH219262   2.319   4.013   0.181  0.2387 -0.1214 -0.1565
 6433TIP3    H119263   2.315   3.961   0.261  1.6233 -1.0931 -0.6721
 6433TIP3    H219264   2.396   4.069   0.193  0.1115  0.1460 -0.5644
 6434TIP3   OH219265   5.011   6.240   4.309  0.2446  0.5679 -0.0485
 6434TIP3    H119266   4.964   6.209   4.231  0.7885  2.2665 -1.1158
 6434TIP3    H219267   4.943   6.277   4.365  0.1273  2.1693 -1.1694
 6435TIP3   OH219268   6.089   5.989   0.192  0.4175  0.5473  0.2456
 6435TIP3    H119269   6.023   5.991   0.123  1.7234  0.0589 -1.0544
 6435TIP3    H219270   6.085   5.899   0.226  0.7829  0.3452 -0.2276
 6436TIP3   OH219271   0.060   6.726   4.016 -0.4836 -0.1299 -0.5491
 6436TIP3    H119272   0.055   6.680   4.100  1.8044 -1.0601 -0.8782
 6436TIP3    H219273   0.124   6.796   4.031 -2.6301  1.9712 -0.5643
 6437TIP3   OH219274   0.084   0.771   4.112  0.1601  0.0639  0.0957
 6437TIP3    H119275   0.151   0.832   4.082 -0.1426  0.2610 -0.1876
 6437TIP3    H219276   0.001   0.819   4.102 -0.1470 -0.6032 -0.7272
 6438TIP3   OH219277   0.268   0.562   3.182 -0.0204  0.1654  0.3668
 6438TIP3    H119278   0.241   0.653   3.171 -1.8043 -0.6388 -3.4676
 6438TIP3    H219279   0.360   0.561   3.153  0.3254  0.8254  1.3584
 6439TIP3   OH219280   3.310   2.296   2.215 -0.8647  0.2836  0.4753
 6439TIP3    H119281   3.247   2.248   2.270  0.8565 -1.4738  1.0102
 6439TIP3    H219282   3.338   2.233   2.149 -0.9479  1.5933 -0.8686
 6440TIP3   OH219283   5.468   3.690   2.155  0.3634  0.5192  0.0634
 6440TIP3    H119284   5.420   3.663   2.077 -0.8346  1.8773  0.2722
 6440TIP3    H219285   5.541   3.629   2.162  0.3108  0.1701 -1.9294
 6441TIP3   OH219286   2.507   4.662   1.642  0.3870  0.1253  0.0421
 6441TIP3    H119287   2.567   4.599   1.683 -0.5986 -0.7992  0.1070
 6441TIP3    H219288   2.458   4.611   1.578 -0.8460  0.6914  0.5054
 6442TIP3   OH219289   6.987   6.341   0.383 -0.4261 -0.0606  0.0965
 6442TIP3    H119290   6.940   6.275   0.332 -2.5345  1.2793  0.1784
 6442TIP3    H219291   6.970   6.424   0.338 -0.9587  0.9267  1.9959
 6443TIP3   OH219292   5.947   1.965   5.130  0.7018 -0.0685  0.3437
 6443TIP3    H119293   5.876   2.008   5.178 -1.1922 -5.6480  3.3809
 6443TIP3    H219294   6.009   1.937   5.198  1.9168 -1.7869 -1.3581
 6444TIP3   OH219295   7.187   4.556   0.355  0.5910 -0.6950 -0.3178
 6444TIP3    H119296   7.121   4.624   0.340  1.3626  0.2762  0.5024
 6444TIP3    H219297   7.165   4.520   0.441  1.0717 -0.4101 -0.0697
 6445TIP3   OH219298   4.526   1.186   3.111  0.2685  0.1580  0.6562
 6445TIP3    H119299   4.537   1.240   3.032 -0.9255 -0.0177  0.3497
 6445TIP3    H219300   4.441   1.143   3.099  1.2164 -1.8971  0.8333
 6446TIP3   OH219301  -0.016   4.200   3.635  0.0615  0.4047  0.2706
 6446TIP3    H119302   0.005   4.107   3.641  0.3579  0.4113 -0.5089
 6446TIP3    H219303   0.064   4.241   3.601  0.1482  1.0392  1.2065
 6447TIP3   OH219304   2.400   3.870   2.538 -0.0081  0.0753 -0.5777
 6447TIP3    H119305   2.451   3.789   2.542 -0.0325  0.0425 -0.8799
 6447TIP3    H219306   2.316   3.843   2.501  0.0125  0.2530 -0.7540
 6448TIP3   OH219307   4.827   4.822   4.973  0.0684  0.1374  0.1745
 6448TIP3    H119308   4.904   4.777   4.938  0.7610  0.3230  1.4212
 6448TIP3    H219309   4.767   4.752   4.998 -0.9288 -0.0141 -2.2917
 6449TIP3   OH219310   3.762   6.033   3.534  0.0383 -0.1208 -0.5612
 6449TIP3    H119311   3.737   6.113   3.580  0.5595 -0.4836  0.3804
 6449TIP3    H219312   3.738   6.050   3.443 -1.0311  0.6169 -0.1728
 6450TIP3   OH219313   5.895   0.301   3.807  0.2564  0.3527  0.0409
 6450TIP3    H119314   5.938   0.217   3.791  1.1174 -0.1443  3.9146
 6450TIP3    H219315   5.960   0.353   3.854 -2.1529  0.7594  3.2994
 6451TIP3   OH219316   2.524   5.330   1.995  0.1518  0.2567  0.7477
 6451TIP3    H119317   2.578   5.257   2.025 -0.2921 -0.1112  0.6680
 6451TIP3    H219318   2.447   5.327   2.052 -0.9065 -0.7068 -0.6429
 6452TIP3   OH219319   4.726   3.391   1.851 -0.1385 -0.2859 -0.1529
 6452TIP3    H119320   4.708   3.352   1.936  0.0770  3.3233  1.7622
 6452TIP3    H219321   4.812   3.358   1.826  0.0900 -0.8853  1.3529
 6453TIP3   OH219322   3.684   0.488   0.510  0.3428 -0.1825 -0.3700
 6453TIP3    H119323   3.751   0.519   0.572  0.1061 -0.7164  0.1641
 6453TIP3    H219324   3.647   0.410   0.552  0.7459 -1.0453 -1.5723
 6454TIP3   OH219325   5.813   3.078   5.219  0.2196 -0.2089  0.3262
 6454TIP3    H119326   5.841   2.992   5.248 -0.0509  0.1913  1.8372
 6454TIP3    H219327   5.731   3.095   5.266  0.9070  1.3732  1.0351
 6455TIP3   OH219328   3.225   4.496   4.946 -0.1435  0.4743 -0.1881
 6455TIP3    H119329   3.267   4.524   4.864 -1.2411  1.4814 -0.4307
 6455TIP3    H219330   3.268   4.549   5.014  2.4082 -1.9743  0.2727
 6456TIP3   OH219331   1.147   2.510   4.898 -0.1265  0.0929 -0.1087
 6456TIP3    H119332   1.121   2.421   4.878 -0.7774  0.2539  0.0162
 6456TIP3    H219333   1.234   2.519   4.858 -0.2790 -0.4277 -0.5641
 6457TIP3   OH219334   1.421   5.792   3.445  0.6028 -0.3214  0.1604
 6457TIP3    H119335   1.455   5.873   3.407 -2.0250  0.3666 -0.9476
 6457TIP3    H219336   1.359   5.759   3.380 -0.9950 -1.3508  2.0749
 6458TIP3   OH219337   0.872   6.350   3.114 -0.3210  0.5895 -0.0049
 6458TIP3    H119338   0.820   6.365   3.035 -0.0860 -0.4944 -0.3770
 6458TIP3    H219339   0.940   6.417   3.111  0.6616 -0.4244 -1.5917
 6459TIP3   OH219340   4.814   0.214   5.353  0.1577 -0.0755  0.5354
 6459TIP3    H119341   4.736   0.158   5.345 -0.2624  0.6699 -0.7830
 6459TIP3    H219342   4.811   0.245   5.444 -1.1404  0.0170  0.4897
 6460TIP3   OH219343   1.182   3.635   3.310  0.1128  0.1731  0.1453
 6460TIP3    H119344   1.177   3.719   3.356  0.3035 -0.1516  0.7622
 6460TIP3    H219345   1.252   3.588   3.354 -0.6556 -0.7057  0.4461
 6461TIP3   OH219346   0.299   5.833   0.027  0.5661 -0.1746 -0.4059
 6461TIP3    H119347   0.275   5.881  -0.052  1.5457  0.8415 -0.1214
 6461TIP3    H219348   0.395   5.839   0.030  0.7105 -1.9500 -0.2144
 6462TIP3   OH219349   6.763   4.474   2.543  0.0834  0.0452 -0.2801
 6462TIP3    H119350   6.855   4.493   2.563  0.3529 -1.1521 -0.2980
 6462TIP3    H219351   6.734   4.550   2.493  0.8510  0.7723  0.3374
 6463TIP3   OH219352   3.474   6.144   2.036 -0.1828 -0.4779  0.9081
 6463TIP3    H119353   3.487   6.224   1.986  2.1337  0.0892  2.2856
 6463TIP3    H219354   3.393   6.107   2.001 -0.4081  1.5593 -0.9345
 6464TIP3   OH219355   7.070   6.102   2.342 -0.0417  0.0919 -0.6787
 6464TIP3    H119356   7.114   6.158   2.407 -0.2005 -1.4466  0.8456
 6464TIP3    H219357   6.985   6.082   2.381 -0.7818  0.3441 -2.0953
 6465TIP3   OH219358   2.948   5.831   4.944  0.0777  0.3409  0.3351
 6465TIP3    H119359   2.863   5.803   4.977 -0.2098 -0.6056 -1.1424
 6465TIP3    H219360   2.986   5.881   5.017 -1.1430 -0.3889  1.5218
 6466TIP3   OH219361   5.988   2.695   0.544  0.2772 -0.0977  0.3587
 6466TIP3    H119362   5.995   2.655   0.631  0.8508 -1.0838 -0.1343
 6466TIP3    H219363   5.937   2.632   0.493 -1.4506  1.1916  0.3835
 6467TIP3   OH219364   0.769   1.835   0.219 -0.2841 -0.8193 -0.0103
 6467TIP3    H119365   0.746   1.791   0.301 -2.0085  0.6953  0.3949
 6467TIP3    H219366   0.738   1.775   0.151 -1.7290 -0.7042  0.5112
 6468TIP3   OH219367   0.252   5.380   5.571  0.0893 -0.2771 -0.2180
 6468TIP3    H119368   0.307   5.339   5.504 -1.9111 -1.7210 -1.1126
 6468TIP3    H219369   0.313   5.428   5.627  2.0919 -0.8841 -1.7452
 6469TIP3   OH219370   0.020   6.507   0.116  0.7409  0.2933  0.2166
 6469TIP3    H119371   0.042   6.494   0.208 -1.4371  0.3132  0.7851
 6469TIP3    H219372   0.105   6.515   0.072  1.8366 -0.2574  2.1208
 6470TIP3   OH219373   4.976   0.389   4.851 -0.0126  0.6674 -0.3177
 6470TIP3    H119374   4.996   0.321   4.916  0.4764  1.1019 -0.0076
 6470TIP3    H219375   4.881   0.391   4.847 -0.0341  0.1877 -0.0895
 6471TIP3   OH219376   2.457   4.882   4.786  0.5464  0.2295  0.8983
 6471TIP3    H119377   2.412   4.943   4.727 -1.0401 -1.9763 -0.3467
 6471TIP3    H219378   2.395   4.866   4.856  0.8469 -0.1614  1.0762
 6472TIP3   OH219379   7.160   5.057   2.471  0.0125 -0.6336 -0.2844
 6472TIP3    H119380   7.158   5.152   2.463 -1.1130 -0.3581  2.2173
 6472TIP3    H219381   7.089   5.036   2.532  2.2145 -2.7159  1.8505
 6473TIP3   OH219382   3.301   4.267   5.096 -0.3959  0.0197 -0.0659
 6473TIP3    H119383   3.270   4.307   5.014  2.1005 -0.3404 -1.2690
 6473TIP3    H219384   3.232   4.205   5.119 -0.4775 -1.0343 -2.8037
 6474TIP3   OH219385   2.820   2.987   2.391  0.1626  0.4246  0.2452
 6474TIP3    H119386   2.858   2.932   2.323  1.4684  1.4883  0.0567
 6474TIP3    H219387   2.788   2.926   2.457 -0.5671 -0.5989 -1.0229
 6475TIP3   OH219388   2.109   1.718   4.170  0.0503  0.0933  0.5738
 6475TIP3    H119389   2.146   1.755   4.250 -0.7356  1.0215  0.5301
 6475TIP3    H219390   2.162   1.756   4.099 -0.3170  0.5981  0.5669
 6476TIP3   OH219391   7.013   2.145   0.586 -0.6671 -0.0989 -0.6738
 6476TIP3    H119392   6.980   2.197   0.659 -1.9024 -0.6028 -0.8561
 6476TIP3    H219393   6.943   2.147   0.521 -0.0020 -0.5206 -1.4227
 6477TIP3   OH219394   3.528   4.316   3.590  0.4696 -0.0100 -0.3476
 6477TIP3    H119395   3.434   4.329   3.588  0.6455  1.3182 -0.9427
 6477TIP3    H219396   3.548   4.300   3.682 -0.4823 -1.7817 -0.3970
 6478TIP3   OH219397   5.186   2.416   0.103 -0.1806 -0.2013  0.3361
 6478TIP3    H119398   5.133   2.337   0.089 -2.5197  1.3453 -0.0346
 6478TIP3    H219399   5.210   2.413   0.195  0.4646 -1.7344  0.1421
 6479TIP3   OH219400   3.461   1.867   1.926 -0.1620 -0.4592  0.2994
 6479TIP3    H119401   3.424   1.889   1.841  0.2508  0.6709  0.3947
 6479TIP3    H219402   3.389   1.823   1.973 -0.2522 -1.4811 -0.7596
 6480TIP3   OH219403   2.215   6.168   2.342  0.0025 -0.0067 -0.0362
 6480TIP3    H119404   2.274   6.241   2.359  0.9904 -0.9017  0.4748
 6480TIP3    H219405   2.197   6.172   2.248 -0.9609  1.6189  0.1866
 6481TIP3   OH219406   3.174   4.954   1.948 -0.4384  0.0451  0.2732
 6481TIP3    H119407   3.262   4.984   1.924 -0.6384  0.7361  0.3959
 6481TIP3    H219408   3.116   5.024   1.919 -0.7044  0.9513  2.7710
 6482TIP3   OH219409   5.108   4.495   4.210 -0.1701 -0.6965 -0.0252
 6482TIP3    H119410   5.062   4.502   4.294 -3.2858  0.7402 -1.6554
 6482TIP3    H219411   5.198   4.520   4.229 -0.9447  0.3446  2.7381
 6483TIP3   OH219412   0.290   5.702   5.379  0.6218  0.4647 -0.2968
 6483TIP3    H119413   0.211   5.655   5.351 -0.1034  1.9340 -0.8154
 6483TIP3    H219414   0.362   5.644   5.355 -0.2699 -0.8683  0.0856
 6484TIP3   OH219415   1.199   2.208   1.620 -0.3471 -0.1915 -0.7206
 6484TIP3    H119416   1.254   2.178   1.547 -1.8095  0.4947 -2.1750
 6484TIP3    H219417   1.180   2.128   1.670  0.6644 -0.6811 -1.0890
 6485TIP3   OH219418   3.086   2.250   5.745 -0.0252 -0.5612 -0.2491
 6485TIP3    H119419   3.087   2.310   5.820  0.8706 -0.2016 -0.5261
 6485TIP3    H219420   3.013   2.279   5.691 -0.1359 -0.2686  0.0578
 6486TIP3   OH219421   5.166   3.251   4.452  0.2137  0.4246 -0.0868
 6486TIP3    H119422   5.071   3.253   4.458  0.2922  1.1035  1.3006
 6486TIP3    H219423   5.190   3.161   4.474 -0.0175  0.7690  1.6987
 6487TIP3   OH219424   1.281   5.324   4.660 -0.2465 -0.2771  0.2736
 6487TIP3    H119425   1.262   5.230   4.668  0.6996 -0.6004 -0.9018
 6487TIP3    H219426   1.211   5.367   4.708  0.1523 -1.6281  2.1834
 6488TIP3   OH219427   2.180   3.276   5.678 -0.3565  0.1458 -0.3516
 6488TIP3    H119428   2.247   3.337   5.711  0.3356 -0.8280  0.0679
 6488TIP3    H219429   2.198   3.194   5.723 -0.7851 -0.6029 -1.5056
 6489TIP3   OH219430   4.638   6.636   0.654 -0.7029  0.1503  0.0270
 6489TIP3    H119431   4.695   6.685   0.713 -0.8601 -0.9355  1.1130
 6489TIP3    H219432   4.586   6.579   0.711 -1.3384 -0.4557 -1.1042
 6490TIP3   OH219433   4.118   4.859   4.530  0.2648 -0.2457  0.1212
 6490TIP3    H119434   4.028   4.887   4.511 -0.3461 -2.1701 -0.0440
 6490TIP3    H219435   4.110   4.766   4.550  2.0214 -0.1046  1.7384
 6491TIP3   OH219436   0.811   3.899   2.609 -0.1180 -0.6465  0.5596
 6491TIP3    H119437   0.856   3.815   2.615  1.9033  0.3999  0.9583
 6491TIP3    H219438   0.812   3.920   2.515 -0.9109 -1.2031  0.4230
 6492TIP3   OH219439   5.640   3.912   1.957  0.2046 -0.3491 -0.5394
 6492TIP3    H119440   5.570   3.971   1.986 -0.4505 -0.5299 -1.6994
 6492TIP3    H219441   5.705   3.970   1.916  1.3068 -0.0498  1.5073
 6493TIP3   OH219442   3.034   6.035   5.330 -0.4774  0.3978  0.6504
 6493TIP3    H119443   2.948   6.075   5.324 -0.6794 -0.1278 -0.0624
 6493TIP3    H219444   3.083   6.093   5.389 -1.5256  0.3041  1.6567
 6494TIP3   OH219445   4.520   6.285   1.711 -0.1319  0.1894  0.3821
 6494TIP3    H119446   4.615   6.280   1.726 -0.2159 -1.6854  0.5138
 6494TIP3    H219447   4.502   6.379   1.706  1.6355  0.6046  0.9271
 6495TIP3   OH219448   3.325   5.086   5.074 -0.3918 -0.5561  0.5752
 6495TIP3    H119449   3.398   5.047   5.027 -1.4857 -1.6616 -0.2630
 6495TIP3    H219450   3.290   5.152   5.013  0.2916  0.4533  1.2423
 6496TIP3   OH219451   1.120   4.194   4.618 -0.1302  0.6602  0.5984
 6496TIP3    H119452   1.185   4.137   4.578 -2.1046 -0.8967 -0.6162
 6496TIP3    H219453   1.141   4.195   4.711  1.1474 -0.4094  0.3365
 6497TIP3   OH219454   0.828   2.343   5.506  0.4797  0.4152 -0.5474
 6497TIP3    H119455   0.830   2.280   5.434  1.4104  0.2082 -0.3494
 6497TIP3    H219456   0.760   2.311   5.565  0.4643 -0.0086 -0.7969
 6498TIP3   OH219457   0.671   2.052   3.333 -0.3857 -0.4988  0.5500
 6498TIP3    H119458   0.695   2.136   3.371  0.1087 -0.8229  0.9778
 6498TIP3    H219459   0.715   1.987   3.389 -1.7137 -1.0855  0.9422
 6499TIP3   OH219460   1.963   3.963   4.938 -0.2167 -1.1378 -0.6915
 6499TIP3    H119461   2.037   4.013   4.972  0.5663 -2.3523 -0.5457
 6499TIP3    H219462   1.892   4.027   4.931  0.8592  0.0684 -0.9132
 6500TIP3   OH219463   3.029   0.591   3.931  0.1902  0.0568  0.4500
 6500TIP3    H119464   2.971   0.621   3.862 -1.1922 -1.4371  0.9006
 6500TIP3    H219465   3.044   0.499   3.912  1.4337  0.1146  1.0351
 6501TIP3   OH219466   0.935   1.998   1.410 -0.3028  0.0064  0.4341
 6501TIP3    H119467   0.858   1.969   1.458  0.1106 -1.3213  0.3335
 6501TIP3    H219468   1.005   1.999   1.476 -0.1640  0.1346  0.2854
 6502TIP3   OH219469   5.004   3.931   4.490  0.1739 -0.6165 -0.3988
 6502TIP3    H119470   5.012   3.846   4.448 -0.6759 -1.1881  0.5722
 6502TIP3    H219471   4.912   3.954   4.482 -0.1541 -1.0416  1.6733
 6503TIP3   OH219472   4.155   0.611   4.473  0.1268  0.7038  0.3075
 6503TIP3    H119473   4.127   0.661   4.396 -0.0438  0.3009  0.1026
 6503TIP3    H219474   4.146   0.672   4.546 -0.2889  0.9058  0.0920
 6504TIP3   OH219475   5.100   0.526   1.548  0.3402 -0.1394  0.0041
 6504TIP3    H119476   5.063   0.439   1.566  1.2550 -0.8191 -1.2343
 6504TIP3    H219477   5.105   0.530   1.452 -0.6874  1.7263 -0.0084
 6505TIP3   OH219478   5.067   6.300   5.793 -0.3935 -0.7620 -0.3479
 6505TIP3    H119479   5.031   6.222   5.836 -0.4429  0.0290  1.0967
 6505TIP3    H219480   5.156   6.308   5.827 -0.7933  0.4856  0.4901
 6506TIP3   OH219481   6.580   5.237   1.930 -0.3921  0.1333  0.0472
 6506TIP3    H119482   6.498   5.219   1.883  0.9018 -1.2782 -1.7917
 6506TIP3    H219483   6.645   5.182   1.887  1.5304  1.1418  1.5268
 6507TIP3   OH219484   3.938   4.265   5.863 -0.2375  0.0901  0.1071
 6507TIP3    H119485   3.988   4.237   5.786  0.6760 -0.8531  1.0060
 6507TIP3    H219486   3.868   4.319   5.828  0.0586 -0.4547 -1.4026
 6508TIP3   OH219487   5.692   6.342   4.745 -0.4481 -0.0369 -0.2308
 6508TIP3    H119488   5.759   6.401   4.710  0.0401 -0.7152 -0.4709
 6508TIP3    H219489   5.622   6.400   4.776 -0.5296  0.6213 -1.5651
 6509TIP3   OH219490   3.091   0.819   0.160 -0.0496  0.0209 -0.1754
 6509TIP3    H119491   3.001   0.848   0.146 -0.2448  0.4942  1.7824
 6509TIP3    H219492   3.094   0.731   0.122 -0.9403  0.5023 -1.4316
 6510TIP3   OH219493   5.093   4.894   1.468  0.1644  0.2625  0.4021
 6510TIP3    H119494   5.134   4.886   1.555 -0.0464  1.4640  0.6320
 6510TIP3    H219495   5.151   4.952   1.419 -0.9695  1.6057  0.5782
 6511TIP3   OH219496   5.240   0.905   2.938  0.4919 -0.2666 -0.7412
 6511TIP3    H119497   5.307   0.972   2.955  0.0194  0.0522 -0.0648
 6511TIP3    H219498   5.157   0.950   2.957  0.1886 -1.1626  0.1266
 6512TIP3   OH219499   6.964   3.647   4.292  0.0972 -0.1516  0.8477
 6512TIP3    H119500   6.882   3.695   4.283  0.1663 -0.1594  0.1228
 6512TIP3    H219501   7.008   3.688   4.366  0.0056  0.6944  0.4474
 6513TIP3   OH219502   6.931   2.767   4.236  0.1969 -0.0199 -0.2108
 6513TIP3    H119503   6.892   2.790   4.152 -1.5813  2.2317  1.1350
 6513TIP3    H219504   6.995   2.836   4.254 -0.2299  0.1533  0.7518
 6514TIP3   OH219505   2.915   5.106   0.071  0.0012 -0.5509 -0.1413
 6514TIP3    H119506   2.925   5.022   0.028  0.4333  0.3046 -1.8030
 6514TIP3    H219507   2.877   5.085   0.156 -1.5086 -2.2881 -1.1589
 6515TIP3   OH219508   1.510   0.172   3.790  0.1622 -0.3336  0.3575
 6515TIP3    H119509   1.583   0.229   3.766  0.0327 -1.0465 -1.9086
 6515TIP3    H219510   1.482   0.132   3.708 -3.7823  1.0272  0.8155
 6516TIP3   OH219511   2.110   1.922   1.961  0.2256 -0.3876 -0.3226
 6516TIP3    H119512   2.062   2.005   1.953  0.8248 -0.1405 -1.4873
 6516TIP3    H219513   2.184   1.942   2.019 -0.7058 -0.6279  1.0103
 6517TIP3   OH219514   0.277   5.440   5.175  0.1415  0.4193 -0.0904
 6517TIP3    H119515   0.214   5.475   5.112 -1.3924  2.2476  2.2843
 6517TIP3    H219516   0.359   5.485   5.155 -1.0571  3.3332  0.9719
 6518TIP3   OH219517   7.054   1.020   2.922  0.2925 -0.1140 -0.5043
 6518TIP3    H119518   7.107   1.072   2.861 -1.2755  1.1455 -0.8512
 6518TIP3    H219519   6.965   1.026   2.887 -0.8186  1.3548  2.3251
 6519TIP3   OH219520   4.761   3.989   1.517 -0.1390 -0.0852 -0.0499
 6519TIP3    H119521   4.791   3.915   1.464 -1.7919 -0.5986 -0.3264
 6519TIP3    H219522   4.820   3.990   1.592 -0.1119 -1.7231 -0.0166
 6520TIP3   OH219523   1.830   2.834   3.386  0.2133  0.6267 -0.2118
 6520TIP3    H119524   1.810   2.766   3.450 -0.8173  0.0173 -1.1389
 6520TIP3    H219525   1.921   2.818   3.360 -0.0070 -0.3981 -0.4033
 6521TIP3   OH219526   4.203   4.324   2.374  0.4220 -0.5398 -0.2298
 6521TIP3    H119527   4.108   4.316   2.360  0.3512  0.1920 -0.1963
 6521TIP3    H219528   4.211   4.371   2.457  0.8274 -1.3384  0.1996
 6522TIP3   OH219529   5.892   5.596   1.023 -0.1303 -0.2412 -0.4519
 6522TIP3    H119530   5.950   5.576   1.096 -0.7226 -0.1931  0.0459
 6522TIP3    H219531   5.937   5.665   0.974  1.2360 -1.7145 -1.3416
 6523TIP3   OH219532   3.847   5.723   2.193 -0.1121  0.5100  0.0696
 6523TIP3    H119533   3.890   5.739   2.109  1.6901 -0.5517  0.7446
 6523TIP3    H219534   3.800   5.805   2.211  0.4064  1.1751 -1.4086
 6524TIP3   OH219535   6.108   1.426   4.734 -0.1894 -0.2702  0.7023
 6524TIP3    H119536   6.154   1.352   4.774 -1.3891 -1.7225 -0.4655
 6524TIP3    H219537   6.085   1.395   4.646 -2.5805  0.6902  0.9145
 6525TIP3   OH219538   3.804   0.539   1.885 -0.6953 -0.0929  0.5151
 6525TIP3    H119539   3.730   0.599   1.894 -0.1763  1.0861 -2.1158
 6525TIP3    H219540   3.842   0.560   1.800  1.8118 -1.6532  1.1330
 6526TIP3   OH219541   6.098   0.144   3.717  0.0142  0.3142 -0.4488
 6526TIP3    H119542   6.097   0.102   3.632  1.9616  0.9025 -0.8233
 6526TIP3    H219543   6.183   0.188   3.721 -0.5893  1.4439  1.2415
 6527TIP3   OH219544   6.327   4.994   0.481 -0.2664 -0.0602  0.2065
 6527TIP3    H119545   6.367   4.930   0.423  0.3290  0.7568 -0.3105
 6527TIP3    H219546   6.246   5.020   0.436  0.3370  0.7878 -0.4432
 6528TIP3   OH219547   3.252   5.961   5.569  0.4154  0.0395 -0.1632
 6528TIP3    H119548   3.327   5.932   5.517  0.8826  0.2951  0.3598
 6528TIP3    H219549   3.241   6.053   5.545  1.7670  0.6736  1.4963
 6529TIP3   OH219550   1.070   5.748   2.542  0.0548  0.1663 -0.1562
 6529TIP3    H119551   1.023   5.691   2.481  0.4664 -0.5429  0.1865
 6529TIP3    H219552   1.107   5.689   2.607  1.7368  0.6510 -0.6133
 6530TIP3   OH219553   6.345   6.088   2.270  0.8802 -0.3775  0.3702
 6530TIP3    H119554   6.368   5.999   2.244  3.5051 -0.0994  1.5237
 6530TIP3    H219555   6.346   6.137   2.188  0.4946 -1.1618 -0.1228
 6531TIP3   OH219556   3.368   5.871   4.917 -0.0926 -0.0116  0.5634
 6531TIP3    H119557   3.298   5.876   4.982 -0.1722 -0.9113  0.5601
 6531TIP3    H219558   3.402   5.782   4.926 -0.4622 -0.3356 -0.9962
 6532TIP3   OH219559   3.855   5.318   4.157 -0.3223 -0.2487 -0.1119
 6532TIP3    H119560   3.862   5.240   4.213 -1.6300 -1.3785 -1.4376
 6532TIP3    H219561   3.945   5.340   4.136  0.2832  0.6059  2.8590
 6533TIP3   OH219562   4.356   4.107   2.493 -0.6140  0.0246  0.0647
 6533TIP3    H119563   4.375   4.039   2.429 -0.6990 -0.0830  0.1541
 6533TIP3    H219564   4.296   4.166   2.448 -1.0581 -0.3118  0.2045
 6534TIP3   OH219565   1.415   0.789   0.564  0.5101 -0.5892  0.0168
 6534TIP3    H119566   1.494   0.821   0.608 -0.4086  2.4019 -0.2745
 6534TIP3    H219567   1.435   0.795   0.471  0.0335  0.0598 -0.0568
 6535TIP3   OH219568   1.187   3.293   4.239  0.0912 -0.2834 -0.2050
 6535TIP3    H119569   1.241   3.281   4.160  0.0973 -0.1553 -0.2203
 6535TIP3    H219570   1.182   3.206   4.278 -1.3925 -0.7279 -1.3045
 6536TIP3   OH219571   4.488   5.444   3.745  0.0950 -0.6140 -0.1722
 6536TIP3    H119572   4.427   5.421   3.816  2.3384  0.0326  2.0973
 6536TIP3    H219573   4.464   5.533   3.720  0.5022 -0.0952  1.2045
 6537TIP3   OH219574   0.733   4.839   0.898  0.4974  0.1293  0.2569
 6537TIP3    H119575   0.748   4.798   0.813  0.7029  0.9962 -0.1335
 6537TIP3    H219576   0.638   4.851   0.902  0.5003  0.2142  0.0883
 6538TIP3   OH219577   5.528   6.025   2.540  0.1454  0.4248 -0.1037
 6538TIP3    H119578   5.434   6.035   2.553  0.1057  0.3078 -0.2855
 6538TIP3    H219579   5.564   6.015   2.628  0.0358  0.8702 -0.0054
 6539TIP3   OH219580   3.949   0.957   1.587  0.1476 -0.0647  0.3412
 6539TIP3    H119581   3.880   0.984   1.527  0.4860  0.6547  0.2616
 6539TIP3    H219582   4.007   1.033   1.593  1.1116 -0.7491  0.1595
 6540TIP3   OH219583   3.414   0.000   4.802 -0.3078 -0.3755 -0.2914
 6540TIP3    H119584   3.376   0.067   4.859 -1.0368  0.4900 -1.7346
 6540TIP3    H219585   3.488  -0.034   4.851 -1.5929 -0.5179  1.6721
 6541TIP3   OH219586   2.849   0.946   0.209 -0.1207 -0.5746 -0.2709
 6541TIP3    H119587   2.787   0.890   0.256  1.0084 -0.5907  1.2473
 6541TIP3    H219588   2.832   1.034   0.242  0.4762 -0.5388 -0.0598
 6542TIP3   OH219589   4.615   3.268   0.847  0.0850  0.3012 -0.0676
 6542TIP3    H119590   4.560   3.339   0.882 -0.5929 -0.3154  0.1470
 6542TIP3    H219591   4.574   3.246   0.763  0.0582 -0.0970  0.0478
 6543TIP3   OH219592   0.097   2.124   3.698 -0.1107  0.9012  0.0056
 6543TIP3    H119593   0.116   2.057   3.763  0.7232 -1.1439 -2.1923
 6543TIP3    H219594   0.182   2.158   3.673 -0.2272  0.2244 -1.3972
 6544TIP3   OH219595   4.400   6.312   2.366  0.6714  0.3095  0.5766
 6544TIP3    H119596   4.484   6.339   2.404  1.4346 -2.3006  0.9773
 6544TIP3    H219597   4.414   6.221   2.341 -1.8333  0.0346 -0.0819
 6545TIP3   OH219598   5.642   1.256   0.437 -0.1076  0.3527 -0.8445
 6545TIP3    H119599   5.719   1.201   0.423  1.1241  1.8352 -0.2252
 6545TIP3    H219600   5.624   1.295   0.352 -0.8611 -0.8137 -1.2381
 6546TIP3   OH219601   2.839   5.147   4.028  0.7188  0.5777 -0.3442
 6546TIP3    H119602   2.745   5.135   4.017  1.0171 -0.0519 -3.2112
 6546TIP3    H219603   2.857   5.120   4.118 -1.7433  0.1301  0.0814
 6547TIP3   OH219604   0.214   6.106   5.655  0.5457 -0.1357  0.4249
 6547TIP3    H119605   0.165   6.024   5.645 -2.4213  1.2312  2.4676
 6547TIP3    H219606   0.235   6.111   5.748 -1.8240  2.6076  0.9439
 6548TIP3   OH219607   7.040   5.233   1.447  0.4595 -0.1651  0.2012
 6548TIP3    H119608   7.044   5.239   1.543  0.3370 -1.3231  0.2930
 6548TIP3    H219609   7.008   5.319   1.419 -0.9659 -0.2936  1.2940
 6549TIP3   OH219610   6.796   5.276   4.279 -0.0250 -0.5412  0.2688
 6549TIP3    H119611   6.807   5.215   4.206 -0.0273  0.0393 -0.2279
 6549TIP3    H219612   6.704   5.267   4.304 -0.5121  0.5164 -0.9758
 6550TIP3   OH219613   4.931   0.918   1.574 -0.0354 -0.3345  0.3009
 6550TIP3    H119614   5.024   0.895   1.563 -0.0823  0.5936 -3.2017
 6550TIP3    H219615   4.883   0.847   1.531 -0.7358  0.7342 -0.7349
 6551TIP3   OH219616   0.864   0.878   1.364  0.3939 -0.0177  0.1819
 6551TIP3    H119617   0.771   0.861   1.345  0.0424 -1.1999  2.5866
 6551TIP3    H219618   0.893   0.934   1.292 -2.7003  2.0861  0.3749
 6552TIP3   OH219619   3.884   4.732   2.976  0.1017  0.5276  0.1504
 6552TIP3    H119620   3.923   4.722   2.889  0.7732 -0.0569  0.5111
 6552TIP3    H219621   3.801   4.685   2.970  0.5825 -0.3411  0.0913
 6553TIP3   OH219622   5.386   2.286   4.177 -0.8564  0.5606  0.2198
 6553TIP3    H119623   5.399   2.239   4.260  0.2043  0.5183  0.0440
 6553TIP3    H219624   5.391   2.379   4.201 -1.6578  0.5688  0.3684
 6554TIP3   OH219625   6.748   6.432   2.825  0.3501 -0.3474  0.8453
 6554TIP3    H119626   6.830   6.383   2.815  0.2198 -0.4540  0.2608
 6554TIP3    H219627   6.775   6.515   2.865  0.6887 -0.5421  1.0282
 6555TIP3   OH219628   6.338   3.113   0.954  0.3131  0.1335 -0.2080
 6555TIP3    H119629   6.323   3.208   0.950 -0.2503  0.0437 -0.3300
 6555TIP3    H219630   6.431   3.104   0.977 -0.1548  0.7335  2.2126
 6556TIP3   OH219631   0.530   0.085   0.350  0.3777  0.0246 -0.5958
 6556TIP3    H119632   0.597   0.151   0.334  2.5972 -2.1581 -0.8075
 6556TIP3    H219633   0.510   0.093   0.443  1.6411  0.0964 -0.3116
 6557TIP3   OH219634   3.257   4.350   1.119  0.3950 -0.1600  0.1343
 6557TIP3    H119635   3.260   4.390   1.206  0.6388  2.4410 -1.0054
 6557TIP3    H219636   3.182   4.391   1.076  0.3637 -1.3171 -0.9586
 6558TIP3   OH219637   4.568   0.006   3.175 -0.6202 -0.0382  0.0303
 6558TIP3    H119638   4.599  -0.069   3.124  0.6893 -0.7195  1.7295
 6558TIP3    H219639   4.613   0.081   3.137 -1.5221 -0.1393 -1.3334
 6559TIP3   OH219640   1.059   0.951   0.131  0.0057  0.1362 -0.3037
 6559TIP3    H119641   1.108   1.034   0.133  1.2097 -0.5596  1.2448
 6559TIP3    H219642   1.072   0.918   0.042 -0.7054  1.6966 -1.0258
 6560TIP3   OH219643   3.327   6.767   0.128 -0.8705 -0.4010 -0.3839
 6560TIP3    H119644   3.285   6.792   0.211 -2.1949 -1.3286 -0.7277
 6560TIP3    H219645   3.259   6.781   0.062  0.3114  0.7533 -1.4099
 6561TIP3   OH219646   4.216   1.715   1.728  0.0543  0.3390  0.1448
 6561TIP3    H119647   4.257   1.715   1.642 -0.9898  1.0435 -0.3649
 6561TIP3    H219648   4.288   1.729   1.789  0.6987  0.6224 -0.6689
 6562TIP3   OH219649   1.993   4.844   3.635  0.3532  0.3348  0.4531
 6562TIP3    H119650   1.991   4.764   3.687 -2.5079  0.0135  0.0223
 6562TIP3    H219651   2.007   4.814   3.545  0.0790  0.4076  0.3869
 6563TIP3   OH219652   7.067   5.884   5.603  0.0248 -0.2175  0.8250
 6563TIP3    H119653   7.136   5.819   5.613  0.5276  0.1278 -0.2474
 6563TIP3    H219654   6.986   5.837   5.624  0.4588 -0.9473  0.9015
 6564TIP3   OH219655   3.752   4.292   4.629  0.1629 -0.5133 -0.1683
 6564TIP3    H119656   3.686   4.278   4.697 -1.6124  1.7195 -1.3444
 6564TIP3    H219657   3.831   4.249   4.664 -1.2519 -1.2863  2.3046
 6565TIP3   OH219658   3.349   6.766   5.154  0.6470  0.6237  0.0044
 6565TIP3    H119659   3.342   6.686   5.205  0.1751  0.8845  0.3610
 6565TIP3    H219660   3.270   6.815   5.175  1.1330  1.3778  0.1352
 6566TIP3   OH219661   0.941   2.648   4.999 -0.9655 -0.4557 -0.0994
 6566TIP3    H119662   0.989   2.600   4.932 -0.9913 -1.7937  0.8016
 6566TIP3    H219663   0.849   2.637   4.975 -0.9532 -0.4914 -0.1295
 6567TIP3   OH219664   0.652   5.659   5.783  0.4863  0.2055  0.3095
 6567TIP3    H119665   0.722   5.596   5.767 -0.8356 -1.0871 -0.6421
 6567TIP3    H219666   0.628   5.646   5.874  1.1230  0.2896  0.4938
 6568TIP3   OH219667   0.392   0.439   1.593  0.6761  0.0063 -0.1653
 6568TIP3    H119668   0.451   0.372   1.561  1.4741  1.4639 -1.9191
 6568TIP3    H219669   0.306   0.397   1.595  1.3852 -1.4853  0.2905
 6569TIP3   OH219670   1.332   4.822   5.113 -0.2857  0.2070 -0.0645
 6569TIP3    H119671   1.307   4.745   5.165 -0.1554  1.2310  1.5641
 6569TIP3    H219672   1.418   4.800   5.079 -1.1099 -1.2157 -1.4090
 6570TIP3   OH219673   1.065   3.711   2.734 -0.0863  0.4939 -0.8361
 6570TIP3    H119674   1.119   3.660   2.795  0.3217 -0.1087 -1.6856
 6570TIP3    H219675   1.031   3.647   2.672  0.1254  1.1985 -1.6977
 6571TIP3   OH219676   1.641   3.629   4.732  0.1281  0.3302  0.6199
 6571TIP3    H119677   1.616   3.562   4.669  0.7152  0.0815  0.6385
 6571TIP3    H219678   1.708   3.681   4.687  0.7314 -0.0012  1.1117
 6572TIP3   OH219679   4.768   1.752   0.729  0.3869  0.8388  0.1635
 6572TIP3    H119680   4.754   1.845   0.747 -0.9478  0.5631  0.6343
 6572TIP3    H219681   4.782   1.713   0.815  2.3286  0.7745 -0.1186
 6573TIP3   OH219682   0.127   0.530   2.378  0.0645 -0.6216  0.2673
 6573TIP3    H119683   0.137   0.461   2.313 -0.6517 -0.0554 -0.4702
 6573TIP3    H219684   0.117   0.610   2.327 -0.4085 -0.1484  1.0738
 6574TIP3   OH219685   1.529   1.242   4.237 -0.6516  0.1230 -0.8507
 6574TIP3    H119686   1.585   1.262   4.312 -0.5747 -1.5670 -0.4224
 6574TIP3    H219687   1.468   1.316   4.232 -2.1447 -0.7480  2.2868
 6575TIP3   OH219688   6.322   1.498   2.084  0.0714  0.0860 -0.3046
 6575TIP3    H119689   6.251   1.483   2.147 -1.3701  1.4532 -1.5310
 6575TIP3    H219690   6.365   1.578   2.115  0.3644 -0.1182 -0.1835
 6576TIP3   OH219691   0.317   6.033   0.691  0.4721  0.8411  0.4649
 6576TIP3    H119692   0.306   6.069   0.779  0.6768 -0.1478  0.9021
 6576TIP3    H219693   0.396   6.075   0.657  0.3123  1.3322  0.6955
 6577TIP3   OH219694   5.968   3.520   3.670  0.5248 -0.2703  0.1339
 6577TIP3    H119695   6.011   3.538   3.586  1.5200 -0.9530  0.4703
 6577TIP3    H219696   5.975   3.425   3.681  0.7654 -0.1494  1.1635
 6578TIP3   OH219697   4.331   0.897   5.546 -0.3877 -0.5470  0.2054
 6578TIP3    H119698   4.419   0.861   5.534  0.1672  0.3776  1.2484
 6578TIP3    H219699   4.310   0.938   5.462  0.7829  0.4327  0.3447
 6579TIP3   OH219700   1.273   6.670   5.848  0.0224  0.6013 -0.3460
 6579TIP3    H119701   1.190   6.699   5.885  0.8177 -0.7189  2.8266
 6579TIP3    H219702   1.251   6.592   5.797 -0.7474  0.3623  0.3305
 6580TIP3   OH219703   4.106   3.257   5.223  0.2722  0.4210  0.4717
 6580TIP3    H119704   4.149   3.176   5.197  0.8688  1.0394 -0.5575
 6580TIP3    H219705   4.033   3.230   5.279  0.7976 -0.7722  0.6000
 6581TIP3   OH219706   5.137   4.479   1.443 -0.2673 -0.1599 -0.5513
 6581TIP3    H119707   5.076   4.466   1.371 -0.2994 -1.8775 -0.2360
 6581TIP3    H219708   5.201   4.409   1.433 -1.1249 -1.4049  1.9429
 6582TIP3   OH219709   0.416   1.802   3.324 -0.0887 -0.1234  0.5706
 6582TIP3    H119710   0.494   1.756   3.293 -0.1816 -0.4774  0.8555
 6582TIP3    H219711   0.351   1.733   3.336  0.0658 -0.0578  1.9415
 6583TIP3   OH219712   2.061   0.605   0.648 -0.4311  0.2102  0.0602
 6583TIP3    H119713   2.016   0.627   0.567 -0.2415 -1.0876 -0.4308
 6583TIP3    H219714   1.992   0.602   0.714 -0.3123  3.3800  0.4663
 6584TIP3   OH219715   5.161   2.364   3.958 -0.1370  0.1546  0.3277
 6584TIP3    H119716   5.104   2.435   3.927 -0.1720 -0.1947 -0.4277
 6584TIP3    H219717   5.157   2.370   4.053 -0.8158  0.6334  0.2764
 6585TIP3   OH219718   0.427   0.208   2.206  0.1726 -0.0415 -0.3135
 6585TIP3    H119719   0.346   0.259   2.202 -0.5655 -1.0063  1.4593
 6585TIP3    H219720   0.399   0.117   2.201  1.2733 -0.3675 -0.9318
 6586TIP3   OH219721   0.895   2.723   5.682 -0.4222 -0.7337 -0.1366
 6586TIP3    H119722   0.800   2.733   5.692 -0.3368  0.0791 -0.0343
 6586TIP3    H219723   0.927   2.710   5.771 -0.2438  0.9769  0.0834
 6587TIP3   OH219724   3.492   5.234   0.239 -0.2518 -0.2923 -0.1912
 6587TIP3    H119725   3.555   5.176   0.196 -2.8840 -1.9565 -2.0693
 6587TIP3    H219726   3.516   5.322   0.209  2.1683 -0.6342  0.5520
 6588TIP3   OH219727   4.510   4.484   4.268  0.4632  0.1469  0.3080
 6588TIP3    H119728   4.577   4.463   4.334 -0.0922 -1.9690  0.2575
 6588TIP3    H219729   4.558   4.534   4.202  1.8141 -0.5518  0.7051
 6589TIP3   OH219730   1.006   5.748   0.777 -1.2352 -0.0730  0.0901
 6589TIP3    H119731   1.017   5.792   0.861 -1.2137  0.2872 -0.0976
 6589TIP3    H219732   1.092   5.752   0.736 -1.0308 -1.0004  0.4047
 6590TIP3   OH219733   4.765   1.100   1.366  0.2084 -0.4648  0.3429
 6590TIP3    H119734   4.723   1.048   1.297 -1.3684 -0.2179  1.0560
 6590TIP3    H219735   4.785   1.037   1.435  1.9868 -0.7495 -0.3768
 6591TIP3   OH219736   2.713   3.615   4.556 -0.3767  0.5486  0.5055
 6591TIP3    H119737   2.632   3.584   4.596  0.1063 -0.5747  0.6227
 6591TIP3    H219738   2.693   3.705   4.529 -2.5744 -0.5452 -1.9659
 6592TIP3   OH219739   1.621   4.407   2.913 -0.1935  0.0624 -0.3187
 6592TIP3    H119740   1.690   4.377   2.973 -0.2079 -0.6039 -0.6320
 6592TIP3    H219741   1.645   4.369   2.829 -1.6999 -1.3545 -0.1485
 6593TIP3   OH219742   6.689   5.849   1.155  0.4580 -0.1273 -0.5451
 6593TIP3    H119743   6.778   5.880   1.171  0.0298  1.0208 -0.2517
 6593TIP3    H219744   6.674   5.865   1.062  0.6999 -0.7117 -0.6858
 6594TIP3   OH219745   6.909   1.269   1.612  0.5089  0.3845  0.3331
 6594TIP3    H119746   6.827   1.310   1.639 -0.2644  0.4050 -1.8762
 6594TIP3    H219747   6.913   1.188   1.663 -0.0152  1.1919  1.7007
 6595TIP3   OH219748   6.745   5.504   1.615 -0.2943 -0.0656 -0.4571
 6595TIP3    H119749   6.714   5.425   1.572 -0.0089  0.1371 -1.0443
 6595TIP3    H219750   6.834   5.483   1.643 -0.2762 -0.0027 -0.4672
 6596TIP3   OH219751   3.464   3.673   0.043 -0.5255  0.0527 -0.0426
 6596TIP3    H119752   3.475   3.698   0.135  0.3942 -0.4681 -0.0014
 6596TIP3    H219753   3.441   3.581   0.046  1.5839 -0.5477 -0.3772
 6597TIP3   OH219754   3.954   2.807   0.157  0.6242 -0.1379 -0.0606
 6597TIP3    H119755   3.957   2.872   0.086 -0.8130  0.1922  0.1330
 6597TIP3    H219756   4.014   2.738   0.129 -0.2613 -0.2536 -1.8835
 6598TIP3   OH219757   5.240   3.544   2.478 -0.0157 -0.5411  0.2114
 6598TIP3    H119758   5.313   3.492   2.444  1.4782 -0.3438  2.8211
 6598TIP3    H219759   5.270   3.635   2.468 -0.7455 -0.3556 -0.3919
 6599TIP3   OH219760   4.742   2.396   3.884  0.6752 -0.0231 -0.0093
 6599TIP3    H119761   4.814   2.458   3.874 -0.5317  1.2509 -1.2346
 6599TIP3    H219762   4.707   2.385   3.796 -0.3715 -0.9614  0.4951
 6600TIP3   OH219763   3.305   2.476   2.868 -0.4837 -0.1314 -0.0096
 6600TIP3    H119764   3.344   2.563   2.868  1.3690 -0.9240 -0.4563
 6600TIP3    H219765   3.377   2.417   2.890 -1.7544 -1.5518  0.5390
 6601TIP3   OH219766   3.070   5.125   1.246 -0.9451  0.7518 -0.0491
 6601TIP3    H119767   2.989   5.163   1.282 -0.2443 -0.8023  3.6333
 6601TIP3    H219768   3.129   5.200   1.237 -1.6326  1.4114  0.7688
 6602TIP3   OH219769   6.844   2.768   3.968 -0.0653  0.3739  0.1005
 6602TIP3    H119770   6.919   2.716   3.939  0.6405  1.3690  0.0834
 6602TIP3    H219771   6.821   2.821   3.892  1.8772  3.0984  1.2754
 6603TIP3   OH219772   4.909   4.205   2.588 -0.0270 -0.1740  0.2078
 6603TIP3    H119773   4.849   4.241   2.653  1.3281  0.1021  1.3676
 6603TIP3    H219774   4.931   4.278   2.531  0.6167  0.2006  0.9130
 6604TIP3   OH219775   0.758   6.395   4.825 -0.9953  0.2720  0.0027
 6604TIP3    H119776   0.749   6.488   4.843 -2.1407  0.2169 -0.2008
 6604TIP3    H219777   0.838   6.388   4.772 -1.3497  1.2424 -0.6828
 6605TIP3   OH219778   0.033   1.369   3.405  0.1381 -0.4987  0.3245
 6605TIP3    H119779   0.104   1.434   3.411  0.6637 -1.0128 -0.1937
 6605TIP3    H219780  -0.041   1.418   3.370 -0.4705  0.5721  2.8595
 6606TIP3   OH219781   0.144   6.130   4.778  0.5984  0.6277  0.3571
 6606TIP3    H119782   0.133   6.220   4.810 -0.6929  0.3454  0.7602
 6606TIP3    H219783   0.166   6.141   4.685  0.6811  1.3708  0.4523
 6607TIP3   OH219784   1.025   3.880   4.626  0.0874 -0.0286 -0.4593
 6607TIP3    H119785   1.045   3.972   4.611  0.7472 -0.1385 -0.2695
 6607TIP3    H219786   1.110   3.839   4.644 -0.2648 -0.5715 -0.0125
 6608TIP3   OH219787   0.286   1.137   0.656  0.0396 -0.2512 -0.3504
 6608TIP3    H119788   0.279   1.042   0.650  1.8746 -0.3777 -1.3130
 6608TIP3    H219789   0.203   1.169   0.622 -0.2722 -1.5127 -0.8496
 6609TIP3   OH219790   2.932   4.472   4.703 -0.4495  0.4460 -0.3179
 6609TIP3    H119791   2.893   4.390   4.674 -2.0901  0.5564  1.3507
 6609TIP3    H219792   3.005   4.487   4.643 -0.0139 -2.2707 -0.5944
 6610TIP3   OH219793   3.467   2.103   5.391  0.0884 -0.0331 -0.2857
 6610TIP3    H119794   3.539   2.131   5.447 -0.8308  0.2061  0.8277
 6610TIP3    H219795   3.391   2.101   5.449 -1.0864  1.0125 -1.6949
 6611TIP3   OH219796   5.626   1.426   3.928  0.3643 -0.1596  0.7295
 6611TIP3    H119797   5.681   1.470   3.993 -1.0269 -0.1294  1.9515
 6611TIP3    H219798   5.560   1.491   3.905 -0.1705 -0.7497  0.5843
 6612TIP3   OH219799   2.189   5.700   5.366 -0.2909 -0.1729 -0.3109
 6612TIP3    H119800   2.102   5.729   5.339 -1.1023 -2.3733 -0.2480
 6612TIP3    H219801   2.218   5.642   5.296  0.4040 -0.7513  0.4340
 6613TIP3   OH219802   3.943   4.638   5.131  0.5302 -0.4530 -0.1285
 6613TIP3    H119803   3.929   4.545   5.113 -1.9169 -0.2098  0.1519
 6613TIP3    H219804   3.949   4.643   5.226 -1.8975 -0.1265  0.0766
 6614TIP3   OH219805   5.272   4.387   5.001 -0.2420  0.0428 -0.1921
 6614TIP3    H119806   5.261   4.447   5.075 -1.3906 -1.1328  0.6512
 6614TIP3    H219807   5.254   4.440   4.924 -1.1949  0.7994  0.5201
 6615TIP3   OH219808   6.620   5.339   0.418 -0.4833  0.1456 -0.3561
 6615TIP3    H119809   6.685   5.299   0.361 -0.5044 -0.5171  0.0780
 6615TIP3    H219810   6.565   5.390   0.359  0.0054  0.1605 -0.8144
 6616TIP3   OH219811   5.486   0.122   4.052 -0.2345  1.2551  0.0177
 6616TIP3    H119812   5.574   0.105   4.021 -0.0768  0.6768  0.7512
 6616TIP3    H219813   5.463   0.207   4.014  0.4070  1.1417 -0.6467
 6617TIP3   OH219814   1.209   3.604   1.597 -0.1723 -0.1398  0.3470
 6617TIP3    H119815   1.271   3.544   1.554 -0.0520 -0.3914  0.8595
 6617TIP3    H219816   1.258   3.685   1.609 -0.4508  0.1940 -0.6800
 6618TIP3   OH219817   2.137   5.942   4.157 -0.5418  0.5738  0.2069
 6618TIP3    H119818   2.069   5.899   4.209  0.1026  0.7209  1.1831
 6618TIP3    H219819   2.100   5.945   4.068 -0.5730 -2.1499  0.0274
 6619TIP3   OH219820   1.987   5.780   5.181 -0.5027 -0.5280 -0.2269
 6619TIP3    H119821   2.015   5.691   5.160  0.0176 -0.4635  0.1577
 6619TIP3    H219822   2.053   5.836   5.139  0.2281 -0.3832  1.0732
 6620TIP3   OH219823   2.794   2.121   0.741 -0.0470 -0.2095 -0.0404
 6620TIP3    H119824   2.833   2.034   0.731 -0.7766 -0.6235  0.5503
 6620TIP3    H219825   2.709   2.115   0.698  0.5298  0.6946 -1.3506
 6621TIP3   OH219826   2.954   3.887   0.847  0.2679  0.0581  0.3832
 6621TIP3    H119827   3.040   3.869   0.885  1.5389 -0.7281 -2.5572
 6621TIP3    H219828   2.967   3.965   0.793 -1.6294  1.5664  1.9375
 6622TIP3   OH219829   2.471   6.756   3.315 -0.7369 -0.0369 -0.7079
 6622TIP3    H119830   2.542   6.801   3.361 -0.3462 -2.0313  0.7570
 6622TIP3    H219831   2.398   6.818   3.317 -0.0767  0.7367  0.7781
 6623TIP3   OH219832   6.672   5.875   4.790  0.3492 -0.2973 -0.2498
 6623TIP3    H119833   6.724   5.821   4.849  1.5817  0.5870 -0.5014
 6623TIP3    H219834   6.646   5.950   4.843  2.0620  0.8593 -0.9789
 6624TIP3   OH219835   4.171   1.651   3.346  0.4289 -0.0877  0.7347
 6624TIP3    H119836   4.150   1.656   3.252 -0.4089 -0.4693  0.8938
 6624TIP3    H219837   4.253   1.602   3.350  1.4371  1.4864  0.0864
 6625TIP3   OH219838   3.159   1.697   0.435  0.0864  0.0470 -0.2564
 6625TIP3    H119839   3.071   1.727   0.412  0.8550  2.9822  0.1753
 6625TIP3    H219840   3.215   1.730   0.364  1.0573 -0.3208  0.3126
 6626TIP3   OH219841   0.561   5.836   1.259  0.1688 -0.7874  0.3094
 6626TIP3    H119842   0.495   5.827   1.328  0.4352 -1.8978  0.4392
 6626TIP3    H219843   0.644   5.831   1.305  0.3457 -1.2919 -0.0619
 6627TIP3   OH219844   4.819   1.972   1.793 -0.3130 -0.1743 -0.2875
 6627TIP3    H119845   4.895   1.915   1.787  0.6169  0.9801  0.1403
 6627TIP3    H219846   4.839   2.045   1.734 -1.0355  0.2007 -0.0830
 6628TIP3   OH219847   4.236   1.460   0.091 -0.4082  0.0821 -0.3239
 6628TIP3    H119848   4.221   1.411   0.010  0.3222  0.4265 -0.6772
 6628TIP3    H219849   4.245   1.551   0.062  0.9797  0.0689 -0.0082
 6629TIP3   OH219850   4.026   0.199   1.708 -0.1333  0.4222 -0.6457
 6629TIP3    H119851   4.051   0.258   1.780  1.2895 -0.7234 -0.1609
 6629TIP3    H219852   3.946   0.157   1.740  0.4957 -0.0922  0.3039
 6630TIP3   OH219853   6.704   6.189   1.887 -0.1496 -0.4347 -0.6836
 6630TIP3    H119854   6.702   6.223   1.977  0.7607  1.5501 -1.3325
 6630TIP3    H219855   6.656   6.107   1.890  0.1208 -0.5617  1.6806
 6631TIP3   OH219856   2.019   5.467   3.681  0.0690 -0.5218  0.2689
 6631TIP3    H119857   1.952   5.418   3.634  0.1985  0.2660 -0.7849
 6631TIP3    H219858   2.000   5.559   3.661  0.2020 -0.1706  1.6809
 6632TIP3   OH219859   2.557   1.939   4.643 -0.3132 -0.1081 -0.5895
 6632TIP3    H119860   2.471   1.920   4.682 -1.3153  2.7898 -1.1438
 6632TIP3    H219861   2.572   1.866   4.583 -0.6892 -2.4886  2.0061
 6633TIP3   OH219862   5.522   2.750   3.259 -0.1279  0.2239  0.2852
 6633TIP3    H119863   5.566   2.734   3.176  0.9217  1.4070  0.5703
 6633TIP3    H219864   5.551   2.679   3.316  0.8546  0.5691  0.2421
 6634TIP3   OH219865   3.766   6.016   2.508 -0.1534 -0.0635  0.3789
 6634TIP3    H119866   3.800   5.963   2.580  1.3139  0.0077 -0.2154
 6634TIP3    H219867   3.677   5.984   2.493  0.6081 -2.1891  0.2043
 6635TIP3   OH219868   7.209   4.753   5.618 -0.0412  0.9249  0.2627
 6635TIP3    H119869   7.140   4.746   5.684  0.5674 -0.5939  0.7825
 6635TIP3    H219870   7.169   4.726   5.536 -0.0392 -0.1660  0.6036
 6636TIP3   OH219871   4.196   0.098   3.230 -0.2332  0.4818 -1.0004
 6636TIP3    H119872   4.187   0.176   3.176  0.8796  2.0105  0.8794
 6636TIP3    H219873   4.272   0.116   3.286 -2.9832  0.4882  3.2043
 6637TIP3   OH219874   0.517   3.699   0.173  0.2226  1.0980  0.2022
 6637TIP3    H119875   0.498   3.611   0.204 -1.2525  1.2010 -0.3394
 6637TIP3    H219876   0.591   3.728   0.227  2.5124 -1.4186 -1.3537
 6638TIP3   OH219877   4.158   4.740   1.055  0.7640 -0.1928 -0.1988
 6638TIP3    H119878   4.193   4.652   1.065  0.1470 -0.3425  0.8849
 6638TIP3    H219879   4.222   4.796   1.099 -0.1025 -0.4277  1.4720
 6639TIP3   OH219880   1.310   4.564   2.047  0.1589 -0.0272  0.6798
 6639TIP3    H119881   1.228   4.541   2.003 -0.1823  0.5824  0.9825
 6639TIP3    H219882   1.371   4.581   1.976  0.0999 -0.7378  0.4526
 6640TIP3   OH219883   3.625   2.562   3.998 -0.4468 -0.2273  0.4546
 6640TIP3    H119884   3.619   2.611   3.916 -3.0273  0.1791  0.7989
 6640TIP3    H219885   3.719   2.549   4.011  0.0894  0.6609 -1.9718
 6641TIP3   OH219886   3.052   0.500   0.591 -0.1042 -0.0630 -0.6313
 6641TIP3    H119887   3.084   0.559   0.522  0.1717 -1.6319 -1.9055
 6641TIP3    H219888   2.966   0.536   0.615 -1.2471 -0.6542 -3.4142
 6642TIP3   OH219889   0.076   2.483   4.073 -0.3819 -0.1795  0.0179
 6642TIP3    H119890  -0.006   2.501   4.028 -0.6573  0.7195  0.8520
 6642TIP3    H219891   0.055   2.416   4.138 -0.7705  0.9915  1.1253
 6643TIP3   OH219892   6.493   5.924   4.285  0.7176  0.1856  0.3813
 6643TIP3    H119893   6.522   5.992   4.346  0.7868  0.3089  0.2098
 6643TIP3    H219894   6.406   5.951   4.258  1.9110  1.8910 -2.1242
 6644TIP3   OH219895   4.590   2.169   3.139 -1.0074 -0.2518  0.3907
 6644TIP3    H119896   4.617   2.240   3.080 -2.5107 -0.0344 -0.0935
 6644TIP3    H219897   4.514   2.205   3.185 -0.1334 -0.5865  2.1829
 6645TIP3   OH219898   5.282   6.270   1.371  1.0894 -0.4562  0.6641
 6645TIP3    H119899   5.281   6.262   1.467 -1.2330 -0.5327  0.6968
 6645TIP3    H219900   5.236   6.192   1.340  1.4451 -0.2232 -0.4952
 6646TIP3   OH219901   5.808   2.551   2.024  0.1471 -0.1849 -0.0521
 6646TIP3    H119902   5.810   2.646   2.033  0.8353 -0.2773  0.9214
 6646TIP3    H219903   5.818   2.535   1.930  0.9943  0.6854 -0.1221
 6647TIP3   OH219904   7.152   4.830   3.571 -0.3378  0.2455 -0.0647
 6647TIP3    H119905   7.224   4.893   3.567  0.9953 -1.1968  0.1834
 6647TIP3    H219906   7.135   4.819   3.664  0.0640 -0.4431 -0.0715
 6648TIP3   OH219907   4.490   6.640   0.905  0.3683  0.3984  0.0065
 6648TIP3    H119908   4.533   6.703   0.963 -0.5194 -0.0202  1.1629
 6648TIP3    H219909   4.529   6.555   0.928 -0.1187  0.2046  0.1314
 6649TIP3   OH219910   0.084   0.273  -0.012  0.6404  0.3291 -0.3580
 6649TIP3    H119911   0.165   0.231   0.016 -0.5068 -1.4085  0.5684
 6649TIP3    H219912   0.073   0.347   0.047  1.4386  0.4561 -0.3595
 6650TIP3   OH219913   4.124   1.679   3.072 -0.1415  0.2227  0.1309
 6650TIP3    H119914   4.043   1.729   3.059 -0.5426 -0.4456  0.0016
 6650TIP3    H219915   4.193   1.735   3.037 -0.8556 -0.3062 -2.2978
 6651TIP3   OH219916   6.441   0.786   0.126  0.4621 -0.1847 -0.4633
 6651TIP3    H119917   6.444   0.787   0.221 -1.7279  1.0050 -0.3432
 6651TIP3    H219918   6.463   0.876   0.100 -1.4809  0.2056 -0.8984
 6652TIP3   OH219919   1.930   5.136   5.616 -0.2945  0.2571 -0.2722
 6652TIP3    H119920   1.951   5.107   5.528 -0.3016  0.3821 -0.3148
 6652TIP3    H219921   2.008   5.182   5.646 -0.3034  0.2411 -0.2237
 6653TIP3   OH219922   5.637   6.038   1.982  0.0010 -0.7949 -0.2296
 6653TIP3    H119923   5.585   5.966   2.017 -2.2826  1.1734  0.7171
 6653TIP3    H219924   5.630   6.029   1.887  0.4719 -2.2773 -0.1440
 6654TIP3   OH219925   4.777   5.135   3.842  0.3403 -0.1465 -0.0382
 6654TIP3    H119926   4.824   5.104   3.919 -0.9461  0.0726  0.8627
 6654TIP3    H219927   4.840   5.191   3.796  1.2782 -0.6713  0.5719
 6655TIP3   OH219928   4.023   1.783   1.396  0.2957  0.0252  0.6828
 6655TIP3    H119929   4.018   1.875   1.371  0.1111 -0.3009 -0.5802
 6655TIP3    H219930   3.998   1.781   1.488 -0.9391  1.0907  0.3965
 6656TIP3   OH219931   5.623   3.310   5.676  0.4690 -0.0473 -0.2755
 6656TIP3    H119932   5.629   3.289   5.770  2.2143  1.2052 -0.0551
 6656TIP3    H219933   5.647   3.402   5.671 -2.2795  0.6740 -1.7036
 6657TIP3   OH219934   2.560   4.359   5.161 -0.4457 -0.0967 -0.4526
 6657TIP3    H119935   2.616   4.431   5.131 -1.7493  1.2998  0.2925
 6657TIP3    H219936   2.596   4.334   5.246 -1.0288  0.9357  0.1188
 6658TIP3   OH219937   2.684   5.631   4.928 -0.4141 -0.7867 -0.3404
 6658TIP3    H119938   2.709   5.652   4.838 -0.2104  1.1962  0.1245
 6658TIP3    H219939   2.707   5.539   4.939  1.1541 -0.6204 -1.7968
 6659TIP3   OH219940   3.876   1.134   4.920 -0.0575  0.1137  0.3426
 6659TIP3    H119941   3.897   1.212   4.971 -0.1865 -1.0176  2.1915
 6659TIP3    H219942   3.820   1.082   4.977  1.7292 -2.3009  0.0242
 6660TIP3   OH219943   1.340   6.697   3.183  0.8726 -0.7486 -0.3183
 6660TIP3    H119944   1.431   6.692   3.212  0.8225  1.0378  0.2465
 6660TIP3    H219945   1.335   6.778   3.132  0.2143 -2.2221 -2.7788
 6661TIP3   OH219946   3.890   1.111   0.961  0.3707  0.0252 -0.1878
 6661TIP3    H119947   3.907   1.191   0.910 -0.2486 -0.1085 -0.6208
 6661TIP3    H219948   3.973   1.063   0.958  0.6400  0.4797 -0.2313
 6662TIP3   OH219949   0.970   2.948   4.169 -0.0070  0.5646  0.5165
 6662TIP3    H119950   0.878   2.955   4.193  0.1286 -0.7336  1.5732
 6662TIP3    H219951   1.000   2.869   4.215  1.3642  0.3728 -0.6554
 6663TIP3   OH219952   0.578   4.132   2.877 -0.1248  0.0668  0.5777
 6663TIP3    H119953   0.581   4.038   2.894  1.0515  0.3168  1.9057
 6663TIP3    H219954   0.654   4.167   2.923 -0.0267  1.5596 -0.6647
 6664TIP3   OH219955   1.434   5.418   2.568  0.0944  0.2031  0.5568
 6664TIP3    H119956   1.340   5.429   2.576  0.0207  1.3247 -1.2866
 6664TIP3    H219957   1.451   5.327   2.593 -1.6595 -0.4375 -0.4651
 6665TIP3   OH219958   5.033   1.691   1.140 -0.1600  0.4052  0.1523
 6665TIP3    H119959   4.960   1.724   1.088  0.2659  1.1583  0.0052
 6665TIP3    H219960   5.060   1.611   1.096  0.5132  1.2912 -1.1061
 6666TIP3   OH219961   1.201   1.755   0.309 -0.3872 -0.5369  0.0341
 6666TIP3    H119962   1.135   1.814   0.345  0.7473  2.1333 -1.8408
 6666TIP3    H219963   1.163   1.723   0.227  0.4300  0.8883 -0.9737
 6667TIP3   OH219964   2.974   3.981   4.795 -0.5765 -0.3567  0.0443
 6667TIP3    H119965   2.931   3.902   4.761 -2.1971 -0.2543  1.6722
 6667TIP3    H219966   3.005   3.956   4.882 -1.7566  0.9321  0.8917
 6668TIP3   OH219967   4.604   1.351   5.396 -0.5124 -0.6341  0.5153
 6668TIP3    H119968   4.618   1.445   5.381 -1.9000 -0.4805 -0.0430
 6668TIP3    H219969   4.639   1.335   5.483 -0.9818  0.5812  0.9518
 6669TIP3   OH219970   6.401   4.396   5.118 -0.4545  0.1724  0.0166
 6669TIP3    H119971   6.411   4.402   5.023  0.2999  0.9805  0.1412
 6669TIP3    H219972   6.374   4.483   5.146  3.2312  1.1453  0.9745
 6670TIP3   OH219973   4.758   3.183   0.492  0.2296  0.3728  0.3341
 6670TIP3    H119974   4.693   3.120   0.523  0.8908 -0.0234  0.9334
 6670TIP3    H219975   4.707   3.248   0.443 -0.6102  0.0725  0.7969
 6671TIP3   OH219976   6.194   1.087   0.582  0.2442 -0.5165  0.3307
 6671TIP3    H119977   6.130   1.094   0.652 -1.1785 -1.9106 -0.7339
 6671TIP3    H219978   6.180   0.999   0.546  0.1643  0.4971 -2.3644
 6672TIP3   OH219979   2.733   5.114   5.016  0.1330  0.5314 -0.4126
 6672TIP3    H119980   2.781   5.092   5.096  0.5599  0.0845 -0.7879
 6672TIP3    H219981   2.710   5.206   5.028 -0.8958  0.1486  0.7714
 6673TIP3   OH219982   6.768   5.933   3.476 -0.3061 -0.2155  0.1372
 6673TIP3    H119983   6.764   5.945   3.571 -0.1252  0.7252  0.0342
 6673TIP3    H219984   6.816   5.851   3.464  0.4608  0.1169  0.8409
 6674TIP3   OH219985   3.281   2.486   0.568 -0.3129 -0.0055  0.3051
 6674TIP3    H119986   3.344   2.559   0.562  0.5235 -0.8124 -1.9745
 6674TIP3    H219987   3.199   2.522   0.534 -0.7138  0.6333  1.8823
 6675TIP3   OH219988   0.397   2.039   3.903 -0.3649  0.0356  0.8592
 6675TIP3    H119989   0.319   1.985   3.899  0.3542 -0.9777 -0.0398
 6675TIP3    H219990   0.372   2.121   3.860 -0.3164 -1.1197 -1.5096
 6676TIP3   OH219991   0.789   0.432   4.578  0.0958  0.3376  0.1633
 6676TIP3    H119992   0.725   0.501   4.560 -0.3042  0.4678  1.9418
 6676TIP3    H219993   0.823   0.453   4.665  0.0586 -1.6442  0.7031
 6677TIP3   OH219994   4.346   4.192   2.759 -0.1743 -0.3455  0.3338
 6677TIP3    H119995   4.382   4.135   2.691 -2.9298  1.1919 -2.7092
 6677TIP3    H219996   4.273   4.142   2.795  0.9114 -0.9100  1.8465
 6678TIP3   OH219997   4.584   0.077   5.371 -0.2372  0.5142 -0.1939
 6678TIP3    H119998   4.517   0.145   5.383 -0.3394  0.2041  1.2852
 6678TIP3    H219999   4.567   0.016   5.443  0.4809 -0.5541 -0.9139
 6679TIP3   OH220000   2.786   3.164   2.109  0.7250 -0.5999 -0.3124
 6679TIP3    H120001   2.823   3.239   2.156  0.9679 -1.3487  0.7516
 6679TIP3    H220002   2.762   3.103   2.179  0.9627 -1.7003 -1.1709
 6680TIP3   OH220003   3.226   2.826   1.133  0.3995 -0.0919 -0.0389
 6680TIP3    H120004   3.280   2.819   1.211  2.7134  0.0743 -1.5329
 6680TIP3    H220005   3.241   2.915   1.101 -0.4247 -0.1906 -0.7376
 6681TIP3   OH220006   5.323   5.784   5.027 -0.2165  0.3092  0.4093
 6681TIP3    H120007   5.305   5.693   5.049 -1.7778  0.3689 -0.4530
 6681TIP3    H220008   5.344   5.826   5.110  1.6072 -1.0303  0.6820
 6682TIP3   OH220009   6.206   5.614   1.872 -0.5087  0.9447  0.0729
 6682TIP3    H120010   6.275   5.632   1.936 -0.9172  1.3127  0.4190
 6682TIP3    H220011   6.192   5.520   1.878 -1.5807  1.1534  1.6391
 6683TIP3   OH220012   7.184   4.659   1.509  0.1924 -0.0036 -0.2923
 6683TIP3    H120013   7.242   4.715   1.457 -0.4178  1.8387  0.9233
 6683TIP3    H220014   7.096   4.686   1.485 -0.1083 -0.0227  0.7510
 6684TIP3   OH220015   6.440   5.014   3.784  0.2146  0.3741 -0.0335
 6684TIP3    H120016   6.531   4.990   3.766  0.2167  0.7985 -0.6320
 6684TIP3    H220017   6.436   5.108   3.764 -0.2958  0.4151  0.2357
 6685TIP3   OH220018   2.176   4.563   1.754 -0.2740  0.1188  0.1059
 6685TIP3    H120019   2.235   4.532   1.685 -0.8888 -1.3069  0.1763
 6685TIP3    H220020   2.089   4.539   1.723 -0.8616  2.2708 -0.0338
 6686TIP3   OH220021   4.256   2.462   4.761  0.2219  0.5157 -0.1898
 6686TIP3    H120022   4.254   2.550   4.723 -0.3481  0.0584 -1.2496
 6686TIP3    H220023   4.345   2.431   4.743  0.9866  1.4668  1.6511
 6687TIP3   OH220024   5.740   6.704   2.354 -0.0497 -0.2820  0.1985
 6687TIP3    H120025   5.726   6.611   2.373  0.8679 -0.9046 -1.9148
 6687TIP3    H220026   5.660   6.746   2.385 -0.3612 -1.7088  1.4807
 6688TIP3   OH220027   0.579   2.750   5.487 -0.3859 -0.5111  0.1324
 6688TIP3    H120028   0.555   2.676   5.432 -1.0290  0.0733 -0.3901
 6688TIP3    H220029   0.569   2.717   5.577  0.5150 -1.4151 -0.0854
 6689TIP3   OH220030   0.433   1.751   3.993 -0.1090 -0.2031  0.2007
 6689TIP3    H120031   0.442   1.769   4.087  1.9570 -0.1497  0.0364
 6689TIP3    H220032   0.460   1.833   3.951 -0.9832 -0.2404 -0.4527
 6690TIP3   OH220033   7.105   5.209   1.959  0.2073 -0.0904  0.1525
 6690TIP3    H120034   7.112   5.286   2.015 -0.8108  0.1556 -0.0493
 6690TIP3    H220035   7.120   5.135   2.018 -2.3354  0.0694  1.1163
 6691TIP3   OH220036   4.043   2.137   4.107 -0.2101 -0.6016 -0.1242
 6691TIP3    H120037   4.132   2.167   4.086 -0.7365  1.4085  0.3298
 6691TIP3    H220038   3.992   2.157   4.029 -0.5082 -0.6922  0.0466
 6692TIP3   OH220039   2.850   6.446   3.023 -0.5374 -0.0985 -0.2926
 6692TIP3    H120040   2.810   6.519   3.070 -1.6491 -1.2611  0.6781
 6692TIP3    H220041   2.926   6.483   2.980 -0.8846  1.5527  0.4412
 6693TIP3   OH220042   3.768   0.707   1.488  0.4843 -0.3922 -0.3928
 6693TIP3    H120043   3.737   0.719   1.578  1.9991 -0.9986  0.2417
 6693TIP3    H220044   3.759   0.793   1.448 -1.8837 -0.4990 -0.2547
 6694TIP3   OH220045   1.273   1.553   0.575 -0.1467  0.1753  0.7538
 6694TIP3    H120046   1.349   1.517   0.530 -0.8140  0.0745 -0.3415
 6694TIP3    H220047   1.302   1.637   0.610  1.2682 -1.0906  2.8313
 6695TIP3   OH220048   4.913   5.234   4.671  0.0438  0.2921  0.4993
 6695TIP3    H120049   4.981   5.180   4.711  1.1816  1.1460 -0.1890
 6695TIP3    H220050   4.896   5.192   4.586 -2.5090 -1.6317  1.8480
 6696TIP3   OH220051   1.164   0.841   5.403 -0.1604  0.2493  0.6396
 6696TIP3    H120052   1.249   0.883   5.418  0.1728  0.1205 -0.7459
 6696TIP3    H220053   1.143   0.863   5.313 -2.0915  1.1143  1.2542
 6697TIP3   OH220054   4.779   0.468   3.150 -0.1740 -0.3467 -0.3427
 6697TIP3    H120055   4.731   0.549   3.135  1.6168  0.8897  0.2510
 6697TIP3    H220056   4.798   0.469   3.244 -0.0569 -1.4399 -0.3395
 6698TIP3   OH220057   2.474   6.596   2.246 -0.3789  0.0112  0.1874
 6698TIP3    H120058   2.563   6.633   2.248 -0.2882 -0.1844 -0.2715
 6698TIP3    H220059   2.420   6.661   2.291  0.1213 -0.1976  1.1155
 6699TIP3   OH220060   0.404   3.579   5.536 -0.0341  0.0503  0.4356
 6699TIP3    H120061   0.310   3.598   5.537 -0.2160 -0.8324  1.9309
 6699TIP3    H220062   0.414   3.510   5.470 -0.3126  0.6367 -0.2381
 6700TIP3   OH220063   1.934   6.560   5.290  0.1543 -0.0921 -0.3041
 6700TIP3    H120064   2.023   6.547   5.257  0.1619  1.1004 -0.7914
 6700TIP3    H220065   1.888   6.603   5.218 -0.5827  0.0601  0.2497
 6701TIP3   OH220066   6.532   6.796   3.425 -0.3691 -0.2380 -0.2598
 6701TIP3    H120067   6.577   6.714   3.445  0.1258 -0.1143 -0.8209
 6701TIP3    H220068   6.471   6.773   3.355 -0.2443 -0.1353 -0.4041
 6702TIP3   OH220069   6.342   0.574   1.661  0.3715 -0.1744  0.1261
 6702TIP3    H120070   6.305   0.486   1.660  1.8948 -0.8827  1.5249
 6702TIP3    H220071   6.315   0.613   1.578 -1.3186 -1.5209 -0.0030
 6703TIP3   OH220072   2.322   3.602   3.049  0.7829 -0.2367 -0.1646
 6703TIP3    H120073   2.320   3.530   3.112 -1.2316 -1.0934 -1.1240
 6703TIP3    H220074   2.401   3.651   3.072  2.4722 -2.9462  0.3011
 6704TIP3   OH220075   0.416   5.835   5.660  0.7749 -0.6355  0.3618
 6704TIP3    H120076   0.477   5.823   5.733  1.6051 -2.3051 -0.5500
 6704TIP3    H220077   0.467   5.812   5.582  0.1991  2.0350 -0.8969
 6705TIP3   OH220078   6.258   4.950   5.307 -0.0514 -0.6780  0.4707
 6705TIP3    H120079   6.187   4.996   5.262  0.2972  0.3139  0.9041
 6705TIP3    H220080   6.217   4.911   5.384 -0.2975 -0.8588  0.2477
 6706TIP3   OH220081   1.913   2.952   2.225 -0.4521 -0.6995  0.0070
 6706TIP3    H120082   1.908   2.985   2.314  2.2893  0.2901 -0.1042
 6706TIP3    H220083   1.880   3.023   2.170 -1.3901 -1.0049  0.1611
 6707TIP3   OH220084   4.810   5.020   2.969 -0.5870  0.2536  0.2355
 6707TIP3    H120085   4.752   5.074   2.916 -0.5376  0.2762  0.2046
 6707TIP3    H220086   4.877   4.988   2.908  0.1624  1.2459  0.5130
 6708TIP3   OH220087   2.572   2.630   0.542  0.3290  0.1747  0.6362
 6708TIP3    H120088   2.616   2.564   0.595  0.0850 -0.3235  0.2292
 6708TIP3    H220089   2.503   2.664   0.599 -0.8279 -1.3332  0.2302
 6709TIP3   OH220090   0.759   5.051   3.961  0.3281 -0.2339  0.3235
 6709TIP3    H120091   0.670   5.073   3.990  0.4122 -1.0602  1.2712
 6709TIP3    H220092   0.761   4.955   3.960  1.5401 -0.2462  1.4136
 6710TIP3   OH220093   5.066   6.003   2.974  0.0762  0.1549 -0.8884
 6710TIP3    H120094   5.037   6.013   3.065  0.6975  1.0807 -0.7711
 6710TIP3    H220095   5.022   5.924   2.943 -1.5540  0.8062 -0.3462
 6711TIP3   OH220096   4.383   0.312   1.065  0.0977 -0.3964 -0.0208
 6711TIP3    H120097   4.325   0.387   1.050  0.1992 -0.0962  1.0335
 6711TIP3    H220098   4.448   0.318   0.995  0.9241  1.3197  0.8474
 6712TIP3   OH220099   1.920   2.703   5.827  0.2968  0.0378  0.4430
 6712TIP3    H120100   1.881   2.790   5.817 -3.0347 -1.1576  1.5634
 6712TIP3    H220101   1.934   2.694   5.921  1.8489 -0.1876  0.2009
 6713TIP3   OH220102   0.722   5.986   5.224  0.1173  0.1981 -0.4374
 6713TIP3    H120103   0.693   5.905   5.182  1.6299 -0.1941 -0.7967
 6713TIP3    H220104   0.662   6.053   5.192 -0.8810 -0.6946 -0.4886
 6714TIP3   OH220105   1.508   1.504   2.931 -0.0919 -0.2331  0.4673
 6714TIP3    H120106   1.479   1.425   2.887 -2.6361  0.5441  0.5732
 6714TIP3    H220107   1.550   1.474   3.011 -0.8520 -1.4719  0.4144
 6715TIP3   OH220108   3.915   0.953   5.786  0.3553  0.1674  0.7149
 6715TIP3    H120109   3.882   0.967   5.697  0.1130  1.5966  1.0034
 6715TIP3    H220110   3.967   1.031   5.805 -0.4500  0.3938  2.1938
 6716TIP3   OH220111   7.055   4.600   3.111  0.4014 -0.2335 -0.4226
 6716TIP3    H120112   6.973   4.613   3.159  0.6680 -1.5253  0.4108
 6716TIP3    H220113   7.091   4.689   3.104  0.0591  0.0881  1.2561
 6717TIP3   OH220114   6.855   4.405   0.815 -0.8158  1.0356 -0.6879
 6717TIP3    H120115   6.824   4.405   0.724  0.2867  1.2964 -1.0825
 6717TIP3    H220116   6.795   4.347   0.861 -1.3446  0.8369 -1.6038
 6718TIP3   OH220117   3.221   6.741   0.920 -0.2137  0.0447  0.1573
 6718TIP3    H120118   3.261   6.722   1.004  0.3229  0.0128 -0.0992
 6718TIP3    H220119   3.295   6.742   0.858 -0.7208 -0.9044 -0.4767
 6719TIP3   OH220120   6.691   2.408   2.493  0.1257  0.7893 -0.1271
 6719TIP3    H120121   6.597   2.426   2.489 -0.3171 -1.1146  0.7019
 6719TIP3    H220122   6.710   2.400   2.587  0.8657 -0.0490 -0.3409
 6720TIP3   OH220123   4.722   1.167   0.353  0.4306 -0.2064 -0.0140
 6720TIP3    H120124   4.694   1.219   0.429 -0.6186 -1.8973  0.8308
 6720TIP3    H220125   4.767   1.230   0.297 -1.8797  1.9360  0.3047
 6721TIP3   OH220126   3.530   1.232   4.431 -0.2414 -0.9116 -0.3284
 6721TIP3    H120127   3.482   1.270   4.505  0.6945 -2.4381  1.1452
 6721TIP3    H220128   3.463   1.214   4.365 -1.2054 -0.1047  0.4076
 6722TIP3   OH220129   2.894   1.040   3.801  0.2353 -0.3074 -0.9640
 6722TIP3    H120130   2.845   0.984   3.860 -0.1030 -1.5637 -2.3920
 6722TIP3    H220131   2.845   1.122   3.799 -1.2199 -1.1529 -1.4944
 6723TIP3   OH220132   6.712   0.271   1.772  0.1082 -0.1131 -0.1685
 6723TIP3    H120133   6.620   0.247   1.768 -0.1454  0.9339 -1.2109
 6723TIP3    H220134   6.723   0.313   1.857 -1.1629  2.6346 -1.2323
 6724TIP3   OH220135   4.667   6.329   3.795 -0.5139 -0.2756  0.9397
 6724TIP3    H120136   4.634   6.254   3.746 -1.2260  0.4597  0.2781
 6724TIP3    H220137   4.622   6.323   3.880 -0.1279 -0.9129  1.1104
 6725TIP3   OH220138   0.566   2.629   5.750 -0.6976 -0.6478 -0.4622
 6725TIP3    H120139   0.585   2.536   5.733 -0.8287 -0.9877  1.0713
 6725TIP3    H220140   0.489   2.627   5.808  0.8507  0.2643  1.7785
 6726TIP3   OH220141   4.726   5.991   5.776 -0.2138  0.7590  0.4897
 6726TIP3    H120142   4.711   5.989   5.682  0.5802 -1.4869  0.3288
 6726TIP3    H220143   4.656   5.938   5.813  1.7375 -1.9633  0.6386
 6727TIP3   OH220144   2.569   6.082   0.768 -0.0050  0.1911 -0.2865
 6727TIP3    H120145   2.617   6.099   0.850  0.7813 -0.9237 -0.5005
 6727TIP3    H220146   2.636   6.085   0.700 -0.4315 -0.2552 -0.7306
 6728TIP3   OH220147   6.169   4.012   4.115 -0.1582 -0.0761 -0.2023
 6728TIP3    H120148   6.151   3.923   4.144 -0.1720  0.4064  1.3646
 6728TIP3    H220149   6.131   4.068   4.183  0.0852  1.1221 -1.0145
 6729TIP3   OH220150   2.857   1.614   5.179 -0.3162  0.1875 -0.1717
 6729TIP3    H120151   2.838   1.564   5.100 -2.5249  2.5030 -1.2453
 6729TIP3    H220152   2.904   1.692   5.148  0.8103  0.0495  1.1115
 6730TIP3   OH220153   7.120   4.398   2.846 -0.7719 -0.0908  0.3475
 6730TIP3    H120154   7.131   4.478   2.898 -0.1336  0.2274 -0.2624
 6730TIP3    H220155   7.189   4.339   2.877 -1.8388 -0.7894  1.4719
 6731TIP3   OH220156   3.585   1.066   2.768 -0.2427 -0.0577 -1.3141
 6731TIP3    H120157   3.625   0.979   2.768 -0.0874 -0.0272  0.9607
 6731TIP3    H220158   3.659   1.126   2.771 -0.3591  0.0526  0.1648
 6732TIP3   OH220159   4.331   4.321   0.911 -0.1433 -0.0063  0.0824
 6732TIP3    H120160   4.425   4.313   0.894  0.1117 -0.2877  1.5221
 6732TIP3    H220161   4.290   4.275   0.837  0.7932  1.0572 -1.1409
 6733TIP3   OH220162   5.014   3.630   3.155 -0.1448 -0.1325  0.1816
 6733TIP3    H120163   4.956   3.556   3.139 -1.3611  0.8691 -0.3188
 6733TIP3    H220164   5.080   3.598   3.217 -0.5061 -1.6647 -0.2052
 6734TIP3   OH220165   5.718   0.626   3.468  0.4253 -0.1973  0.2195
 6734TIP3    H120166   5.744   0.540   3.433 -1.1345 -0.0345 -1.4848
 6734TIP3    H220167   5.635   0.645   3.424  0.4633  1.9371  0.9959
 6735TIP3   OH220168   1.172   3.467   4.945  0.1710 -0.3615 -0.0210
 6735TIP3    H120169   1.220   3.493   4.866 -1.3114  0.8263 -0.5764
 6735TIP3    H220170   1.220   3.507   5.017  1.5746 -1.5071 -0.2689
 6736TIP3   OH220171   1.418   5.641   2.741 -0.0313 -0.0148 -0.0197
 6736TIP3    H120172   1.461   5.581   2.680  0.4800  0.9184 -0.6007
 6736TIP3    H220173   1.333   5.601   2.757  0.5631 -1.2519  0.1598
 6737TIP3   OH220174   0.953   0.013   0.840 -0.7459 -0.5276 -0.1293
 6737TIP3    H120175   1.035   0.056   0.818  0.7501 -2.9316  0.4440
 6737TIP3    H220176   0.956   0.002   0.935 -1.6108 -0.8907 -0.1270
 6738TIP3   OH220177   0.665   1.949   4.658 -0.2952 -0.6079  0.0717
 6738TIP3    H120178   0.628   1.949   4.746 -0.3231  0.7664  0.0711
 6738TIP3    H220179   0.756   1.975   4.670 -0.0898 -1.1780 -0.2281
 6739TIP3   OH220180   0.060   4.195   5.266 -0.2127 -0.4334  0.5942
 6739TIP3    H120181   0.093   4.189   5.355  1.1685 -0.2139  0.1275
 6739TIP3    H220182   0.081   4.284   5.239 -3.3272  0.5452  1.0245
 6740TIP3   OH220183   1.733   1.631   3.393  0.1379  0.3612  0.6356
 6740TIP3    H120184   1.746   1.654   3.301 -0.8563 -0.1704  0.3455
 6740TIP3    H220185   1.678   1.702   3.428 -1.8311 -0.8269  0.0772
 6741TIP3   OH220186   1.060   6.727   0.390  0.4764 -0.2760  0.2494
 6741TIP3    H120187   1.045   6.675   0.469 -2.1914  1.1480  0.7948
 6741TIP3    H220188   1.092   6.811   0.423 -2.1017  0.8829  0.1054
 6742TIP3   OH220189   3.661   0.319   0.725 -0.6101  0.2880 -0.1834
 6742TIP3    H120190   3.710   0.237   0.729  1.1356  1.2522 -0.8009
 6742TIP3    H220191   3.716   0.383   0.771 -2.7768  0.7827  1.9615
 6743TIP3   OH220192   7.013   0.215   1.319  0.3196  0.3738 -0.0251
 6743TIP3    H120193   6.967   0.206   1.402  0.3210  2.8425  0.3089
 6743TIP3    H220194   7.080   0.147   1.321  0.2619  0.3410  1.9522
 6744TIP3   OH220195   0.599   4.832   4.505 -0.2128 -0.3728  0.6168
 6744TIP3    H120196   0.576   4.765   4.569 -0.9084  0.9504  1.8325
 6744TIP3    H220197   0.645   4.899   4.557 -0.7237  0.7032 -0.2743
 6745TIP3   OH220198   0.948   1.525   4.063 -0.3710 -0.0304 -0.2487
 6745TIP3    H120199   0.894   1.526   4.142 -0.1086 -1.4396 -0.0238
 6745TIP3    H220200   1.036   1.549   4.093 -0.0445 -1.5558  0.1060
 6746TIP3   OH220201   2.606   2.823   4.111  0.4494  0.4970 -0.1230
 6746TIP3    H120202   2.584   2.908   4.148  1.0452 -0.1725  1.9096
 6746TIP3    H220203   2.591   2.761   4.183  0.9571 -0.9892 -1.2484
 6747TIP3   OH220204   5.648   2.854   2.951 -0.0144  0.6575 -0.4330
 6747TIP3    H120205   5.676   2.786   3.013 -0.8343  0.9821  0.3113
 6747TIP3    H220206   5.687   2.935   2.986 -1.2974  1.0077  0.2538
 6748TIP3   OH220207   7.130   6.064   5.393 -0.2537 -0.1607  0.1545
 6748TIP3    H120208   7.215   6.048   5.352 -0.7811  1.1088 -1.5236
 6748TIP3    H220209   7.128   6.003   5.467  1.4743 -1.2805 -0.6531
 6749TIP3   OH220210   5.723   1.798   2.434  0.1766  0.2973  0.3550
 6749TIP3    H120211   5.752   1.831   2.519  0.5068 -3.0962  1.7242
 6749TIP3    H220212   5.657   1.733   2.455 -0.9645  0.5292 -2.1546
 6750TIP3   OH220213   0.641   5.059   3.351  0.4580 -0.1690  0.2924
 6750TIP3    H120214   0.647   5.153   3.337  0.7386 -0.1363  0.6194
 6750TIP3    H220215   0.595   5.050   3.435  1.1476 -0.3038  0.6586
 6751TIP3   OH220216   5.442   3.305   5.071  0.4514  0.0476  0.1981
 6751TIP3    H120217   5.487   3.376   5.024 -2.5757  2.0579 -0.0074
 6751TIP3    H220218   5.383   3.351   5.131 -0.2468 -2.3965  1.4910
 6752TIP3   OH220219   6.318   4.190   3.603 -0.1817  0.7164 -0.5136
 6752TIP3    H120220   6.339   4.113   3.657 -0.5141 -0.0950 -1.5188
 6752TIP3    H220221   6.371   4.260   3.641 -0.9489  0.3628  1.3295
 6753TIP3   OH220222   0.659   1.429   3.386  0.6057  0.0035 -0.6661
 6753TIP3    H120223   0.629   1.455   3.474  0.8614  1.3567 -0.9530
 6753TIP3    H220224   0.703   1.345   3.399 -1.2936 -0.9401  0.1363
 6754TIP3   OH220225   0.200   0.596   2.793  0.2092  0.0920  0.0737
 6754TIP3    H120226   0.220   0.654   2.867 -0.2898  0.9089 -0.4249
 6754TIP3    H220227   0.268   0.615   2.728  1.6869 -1.8430  0.9469
 6755TIP3   OH220228   5.050   3.425   3.857  0.4985 -0.2794 -0.8120
 6755TIP3    H120229   4.994   3.407   3.781 -2.1588 -1.6358  1.2853
 6755TIP3    H220230   5.049   3.520   3.865 -1.5216 -0.2540 -0.8924
 6756TIP3   OH220231   6.714   4.246   3.449 -1.0192 -0.2318  0.1570
 6756TIP3    H120232   6.711   4.245   3.353  1.7079  1.1632 -0.0510
 6756TIP3    H220233   6.650   4.313   3.474  1.0630  2.4299 -1.0555
 6757TIP3   OH220234   6.067   1.791   5.450 -0.0096 -0.2577  0.0310
 6757TIP3    H120235   6.134   1.805   5.517 -0.7182  0.1828  0.6750
 6757TIP3    H220236   5.986   1.825   5.490 -0.5508 -0.4761 -0.8474
 6758TIP3   OH220237   1.145   2.770   2.934 -0.1853 -0.2141 -0.2289
 6758TIP3    H120238   1.128   2.833   3.005 -0.0557  0.7436 -1.0289
 6758TIP3    H220239   1.158   2.825   2.857 -0.7627 -1.2676 -1.0910
 6759TIP3   OH220240   4.507   5.723   4.103 -0.2994 -0.0733  0.0653
 6759TIP3    H120241   4.420   5.700   4.070 -0.8871  2.1884 -0.1572
 6759TIP3    H220242   4.534   5.648   4.155 -3.4391  0.0273  2.1317
 6760TIP3   OH220243   5.258   4.328   2.844 -0.3340  0.0909 -0.1696
 6760TIP3    H120244   5.318   4.269   2.797  0.3952 -1.5004  2.5204
 6760TIP3    H220245   5.187   4.271   2.874 -1.4037  1.2857 -0.3689
 6761TIP3   OH220246   2.937   2.888   3.693  0.1511 -0.2696 -0.6339
 6761TIP3    H120247   2.870   2.915   3.629  0.9371  2.4937 -0.4340
 6761TIP3    H220248   2.891   2.885   3.777  0.1972  1.6191 -0.4975
 6762TIP3   OH220249   4.119   2.740   2.473  0.5240 -0.5705  0.1267
 6762TIP3    H120250   4.143   2.824   2.512 -0.4548  0.0514 -0.5589
 6762TIP3    H220251   4.158   2.742   2.386  0.8740 -1.0263  0.2688
 6763TIP3   OH220252   1.338   3.163   0.170  0.7662  0.1030  0.0025
 6763TIP3    H120253   1.366   3.087   0.120  0.2516 -0.2434  0.2358
 6763TIP3    H220254   1.243   3.155   0.176  0.6256  1.1097 -0.5358
 6764TIP3   OH220255   1.351   4.485   1.124  0.0558  0.1382  0.1292
 6764TIP3    H120256   1.344   4.580   1.124  0.9672  0.2680 -2.1177
 6764TIP3    H220257   1.288   4.456   1.190 -0.1188  2.2858  0.9820
 6765TIP3   OH220258   0.089   0.389   0.551 -0.0333  0.4409  0.1764
 6765TIP3    H120259   0.156   0.403   0.484  0.9910  1.7928  1.4020
 6765TIP3    H220260   0.075   0.294   0.552 -1.8409  0.5112 -3.5025
 6766TIP3   OH220261   2.842   5.622   4.636 -0.4612  0.1956  0.3663
 6766TIP3    H120262   2.797   5.540   4.617  0.8073 -1.0659  2.4097
 6766TIP3    H220263   2.920   5.596   4.686  0.7169  2.5444 -0.1007
 6767TIP3   OH220264   6.012   6.219   1.615  0.0240  0.0924  0.0677
 6767TIP3    H120265   5.933   6.211   1.669 -0.4947 -0.7539 -0.7835
 6767TIP3    H220266   6.084   6.198   1.674 -0.5974 -1.6276  0.2567
 6768TIP3   OH220267   0.319   3.372   3.926 -0.3167 -0.1522 -0.1638
 6768TIP3    H120268   0.241   3.427   3.934 -1.2947 -1.3243 -1.2196
 6768TIP3    H220269   0.290   3.297   3.874  1.5859 -0.5137 -0.7703
 6769TIP3   OH220270   6.423   1.865   5.032  0.5884 -0.3108  0.0424
 6769TIP3    H120271   6.494   1.930   5.032  0.9045 -0.5578  2.4000
 6769TIP3    H220272   6.350   1.909   5.074 -0.8510  0.0382 -2.6439
 6770TIP3   OH220273   4.869   0.639   0.958  0.3189 -0.4636 -0.5521
 6770TIP3    H120274   4.932   0.584   1.004  0.2393 -0.8313 -0.8727
 6770TIP3    H220275   4.836   0.584   0.887 -1.7839 -0.9740  0.7140
 6771TIP3   OH220276   4.455   4.101   4.497 -0.6281 -0.3875 -0.0902
 6771TIP3    H120277   4.422   4.107   4.587 -0.1111 -1.6544  0.2044
 6771TIP3    H220278   4.424   4.181   4.455 -1.3257 -0.0220  1.0669
 6772TIP3   OH220279   0.162   4.511   2.023 -0.1417 -0.3068  0.2853
 6772TIP3    H120280   0.190   4.426   2.058 -2.1576 -1.7529 -1.4179
 6772TIP3    H220281   0.122   4.556   2.098  1.6125 -0.4770  1.3887
 6773TIP3   OH220282   5.650   3.277   2.081 -0.3918 -0.1122 -0.2426
 6773TIP3    H120283   5.666   3.279   1.986 -1.8264  1.6725 -0.5064
 6773TIP3    H220284   5.670   3.366   2.110 -1.6931 -0.1374  0.8016
 6774TIP3   OH220285   4.961   5.759   0.845 -0.0362 -0.0154  0.4554
 6774TIP3    H120286   5.030   5.778   0.782 -1.2817  3.9422 -0.0075
 6774TIP3    H220287   4.893   5.715   0.793 -0.2525  1.4575 -0.5776
 6775TIP3   OH220288   6.851   1.195   1.980 -0.0577 -0.0483  0.3172
 6775TIP3    H120289   6.912   1.133   2.019  1.6673 -0.0962 -2.2488
 6775TIP3    H220290   6.835   1.259   2.050  1.0556 -1.3090  1.8046
 6776TIP3   OH220291   4.468   1.757   0.882  0.0225  0.5616  0.0373
 6776TIP3    H120292   4.403   1.698   0.920  0.2138 -1.1235 -2.0569
 6776TIP3    H220293   4.511   1.797   0.957  0.6498 -2.8356  1.6689
 6777TIP3   OH220294   3.921   0.818   0.979  0.0599  0.3330  0.0160
 6777TIP3    H120295   3.928   0.738   1.031 -1.7798  1.8081  2.8087
 6777TIP3    H220296   4.011   0.846   0.965  0.6767 -1.0924  0.9045
 6778TIP3   OH220297   6.474   3.005   2.472  0.2823  0.2635  0.2720
 6778TIP3    H120298   6.480   2.927   2.527 -1.1785 -0.4383 -0.5314
 6778TIP3    H220299   6.431   2.975   2.392 -1.3478  2.1084  0.3947
 6779TIP3   OH220300   5.637   6.017   5.200  0.3075  0.0148  0.5928
 6779TIP3    H120301   5.550   6.040   5.233  0.2198 -0.4179  0.6575
 6779TIP3    H220302   5.638   6.052   5.111 -0.5637 -1.4637 -0.0370
 6780TIP3   OH220303   6.271   6.175   1.718  0.4902  0.1223  0.2207
 6780TIP3    H120304   6.324   6.096   1.709  1.0494  0.6216 -1.0481
 6780TIP3    H220305   6.315   6.240   1.663 -3.0620 -0.2471 -3.5331
 6781TIP3   OH220306   2.637   1.632   2.638 -0.1598 -0.1544 -0.2938
 6781TIP3    H120307   2.732   1.635   2.627 -0.0475 -0.2579  0.5535
 6781TIP3    H220308   2.625   1.607   2.729 -1.0086 -0.4486 -0.4822
 6782TIP3   OH220309   0.510   5.080   4.059 -0.2614 -0.1854 -0.0725
 6782TIP3    H120310   0.483   5.123   4.141  1.7003 -0.8808  1.0088
 6782TIP3    H220311   0.536   4.992   4.086  1.2204 -0.1577 -1.2972
 6783TIP3   OH220312   0.965   3.291   4.813 -0.1134 -0.6406  0.0367
 6783TIP3    H120313   1.031   3.357   4.832 -0.1777 -0.3643 -0.6785
 6783TIP3    H220314   1.009   3.226   4.759 -0.1580 -0.9847  0.4059
 6784TIP3   OH220315   6.415   0.577   4.337  0.3401  0.4269 -0.0351
 6784TIP3    H120316   6.350   0.551   4.272 -0.7529  1.3701  0.6424
 6784TIP3    H220317   6.485   0.619   4.286  0.1517 -0.0635 -0.7113
 6785TIP3   OH220318   0.430   2.041   2.313 -0.2227  0.2611  0.5259
 6785TIP3    H120319   0.361   1.995   2.361  0.1653 -0.7648  0.1380
 6785TIP3    H220320   0.480   1.971   2.271 -0.0500  1.0809 -0.6887
 6786TIP3   OH220321   2.841   0.578   1.845  0.3796  0.5158  0.4976
 6786TIP3    H120322   2.899   0.537   1.909 -0.0928 -0.0195  0.5915
 6786TIP3    H220323   2.851   0.525   1.766 -1.4753 -0.8399  1.1110
 6787TIP3   OH220324   2.343   4.171   5.720  0.5374  0.0827 -0.2474
 6787TIP3    H120325   2.379   4.083   5.706  1.0386  0.1883  0.2954
 6787TIP3    H220326   2.407   4.213   5.777  0.0363  0.6257 -0.0808
 6788TIP3   OH220327   1.763   4.369   2.049 -0.0591 -0.0556  0.0692
 6788TIP3    H120328   1.750   4.309   1.975  1.3830 -1.1102  0.6342
 6788TIP3    H220329   1.720   4.326   2.123  0.3045 -0.0143  0.3066
 6789TIP3   OH220330   4.796   3.501   5.165  0.1947  0.0406 -0.1999
 6789TIP3    H120331   4.849   3.426   5.191  0.5676 -0.5514 -2.4238
 6789TIP3    H220332   4.852   3.577   5.179  0.3495 -0.2225  0.6842
 6790TIP3   OH220333   2.730   5.886   4.250 -0.0202 -0.1758  0.1458
 6790TIP3    H120334   2.708   5.937   4.172  0.9681  1.2276  0.7360
 6790TIP3    H220335   2.742   5.797   4.218 -0.7855  0.1526 -1.1035
 6791TIP3   OH220336   5.890   1.020   0.924 -0.5156  0.0073  0.4287
 6791TIP3    H120337   5.907   0.993   1.014 -0.7403 -1.1810  0.1432
 6791TIP3    H220338   5.853   0.942   0.883 -2.6790  1.2241 -0.0761
 6792TIP3   OH220339   6.881   1.954   5.851  0.2345 -0.0355  0.9025
 6792TIP3    H120340   6.883   1.914   5.765 -1.2237  1.5532  0.0587
 6792TIP3    H220341   6.968   1.940   5.887  0.7985 -0.9203 -0.7381
 6793TIP3   OH220342   6.159   6.725   4.934 -0.4912 -0.2872 -0.0713
 6793TIP3    H120343   6.173   6.744   4.841  0.7459 -0.8795 -0.0264
 6793TIP3    H220344   6.244   6.696   4.965 -0.3473  1.7943  1.7310
 6794TIP3   OH220345   1.798   0.897   0.994 -0.0164 -0.5597  1.1305
 6794TIP3    H120346   1.825   0.919   0.905 -0.8815 -0.3043  0.9178
 6794TIP3    H220347   1.875   0.857   1.034 -0.0390 -2.0169 -0.2018
 6795TIP3   OH220348   6.645   2.457   4.833 -0.4206  0.3958 -0.3445
 6795TIP3    H120349   6.572   2.471   4.772 -0.4152  1.0311 -0.2090
 6795TIP3    H220350   6.628   2.517   4.905  0.5948  1.0422 -0.6265
 6796TIP3   OH220351   0.415   5.665   5.100 -0.1977 -0.2672 -0.4013
 6796TIP3    H120352   0.388   5.746   5.144 -0.4381 -0.1128 -0.8240
 6796TIP3    H220353   0.432   5.692   5.009  2.4154 -0.1431  0.0473
 6797TIP3   OH220354   2.936   5.417   4.896 -0.6205  0.1716 -0.7120
 6797TIP3    H120355   2.954   5.386   4.984  0.0315 -0.3939 -1.0292
 6797TIP3    H220356   2.906   5.339   4.849 -0.4748  0.3598 -1.1204
 6798TIP3   OH220357   7.194   2.354   5.232  0.0620 -0.1097  0.4225
 6798TIP3    H120358   7.266   2.405   5.197  0.4675 -0.2290  1.0547
 6798TIP3    H220359   7.130   2.350   5.161  0.9661 -0.5689 -0.3886
 6799TIP3   OH220360   3.929   2.980   1.433 -0.0120  0.6043  0.2252
 6799TIP3    H120361   3.978   3.028   1.500  1.0069 -2.0836  1.5469
 6799TIP3    H220362   3.862   2.932   1.482  0.3810 -0.9766 -0.7191
 6800TIP3   OH220363   2.310   2.224   5.470  0.5037 -0.2145  0.0873
 6800TIP3    H120364   2.386   2.278   5.490 -0.0347  0.5206  0.1944
 6800TIP3    H220365   2.237   2.286   5.466 -0.1236 -0.9334  0.1872
 6801TIP3   OH220366   3.094   2.993   2.054  0.4152  0.2042  0.0973
 6801TIP3    H120367   3.149   3.049   2.109  0.5317  1.1642 -0.9658
 6801TIP3    H220368   3.092   3.037   1.969  1.1237 -1.7874 -1.0268
 6802TIP3   OH220369   1.162   5.469   2.625  0.2090  0.3348  0.2541
 6802TIP3    H120370   1.142   5.431   2.711 -0.3701 -1.3599 -0.5791
 6802TIP3    H220371   1.083   5.454   2.574  0.3856  1.7274 -0.4797
 6803TIP3   OH220372   0.199   6.137   0.945  0.6329 -0.2352 -0.0655
 6803TIP3    H120373   0.120   6.158   0.896  1.1392  1.4364 -0.2097
 6803TIP3    H220374   0.257   6.212   0.932  1.7167 -0.8079  1.1632
 6804TIP3   OH220375   5.327   5.574   4.802  0.1715 -0.2531  0.6001
 6804TIP3    H120376   5.313   5.542   4.891 -0.2378  0.0824  0.6608
 6804TIP3    H220377   5.383   5.651   4.813 -1.9598  1.3609  0.8433
 6805TIP3   OH220378   3.503   2.035   0.820  0.2804 -0.0203  0.3365
 6805TIP3    H120379   3.555   2.084   0.883 -1.3560  0.3549  1.4544
 6805TIP3    H220380   3.412   2.050   0.846 -0.3612 -1.8935 -0.6016
 6806TIP3   OH220381   6.600   0.489   0.787 -0.3839 -0.5451 -0.4024
 6806TIP3    H120382   6.529   0.553   0.781  0.2594  0.7852  3.4813
 6806TIP3    H220383   6.625   0.490   0.879  2.1275 -3.8162 -0.8823
 6807TIP3   OH220384   1.235   0.046   5.742 -0.0144  0.5676 -0.2422
 6807TIP3    H120385   1.223   0.041   5.837  0.7165  0.4779 -0.1523
 6807TIP3    H220386   1.159   0.096   5.711 -0.6112  0.0214  0.3105
 6808TIP3   OH220387   0.330   4.367   5.686 -0.1074 -0.0547  0.4690
 6808TIP3    H120388   0.344   4.455   5.651  1.7930 -0.1180  0.9743
 6808TIP3    H220389   0.391   4.360   5.759  2.4165 -2.9380 -1.6581
 6809TIP3   OH220390   6.474   2.113   1.090  0.4648  0.1136 -0.1733
 6809TIP3    H120391   6.461   2.137   0.998  0.6449  1.8938  0.2410
 6809TIP3    H220392   6.525   2.185   1.127 -1.1207  0.3097  1.7636
 6810TIP3   OH220393   1.465   5.011   1.073  0.2759  0.2296 -0.1041
 6810TIP3    H120394   1.536   4.949   1.090  0.7962  0.4986 -1.2382
 6810TIP3    H220395   1.508   5.087   1.034 -0.5354  0.7508 -0.0078
 6811TIP3   OH220396   4.675   1.739   5.346  0.5676  0.1672 -0.2742
 6811TIP3    H120397   4.702   1.738   5.438 -0.3663 -1.7340  0.0425
 6811TIP3    H220398   4.719   1.815   5.309  1.5896  0.5405  1.5546
 6812TIP3   OH220399   2.317   0.747   3.875 -0.4525  0.0262 -0.0472
 6812TIP3    H120400   2.236   0.761   3.825 -0.8216  0.9491  0.7856
 6812TIP3    H220401   2.334   0.653   3.865 -0.3521  0.2015 -2.1304
 6813TIP3   OH220402   5.705   2.111   1.802  0.4679  0.0862 -0.0845
 6813TIP3    H120403   5.708   2.132   1.895 -0.9576 -1.8044  0.4310
 6813TIP3    H220404   5.681   2.194   1.760 -0.8571  0.5147  1.4299
 6814TIP3   OH220405   2.252   1.273   4.954 -0.2785 -0.9735 -0.2866
 6814TIP3    H120406   2.230   1.182   4.976  3.3871 -1.7642  0.8531
 6814TIP3    H220407   2.251   1.319   5.038  0.2066 -0.5527 -0.5087
 6815TIP3   OH220408   6.273   3.550   0.538 -0.4814 -0.6305 -0.0703
 6815TIP3    H120409   6.244   3.627   0.489 -0.1905 -0.0986  0.5600
 6815TIP3    H220410   6.267   3.578   0.630  2.0755 -0.4298  0.1072
 6816TIP3   OH220411   6.184   2.540   0.308 -0.5419 -0.0968 -0.1466
 6816TIP3    H120412   6.202   2.616   0.364 -0.1831  0.6420 -1.2468
 6816TIP3    H220413   6.091   2.550   0.285 -1.2233 -1.3776  1.7123
 6817TIP3   OH220414   0.004   4.257   4.329 -0.2628 -0.1204  0.5626
 6817TIP3    H120415   0.082   4.249   4.384  0.8534  0.2807 -0.9039
 6817TIP3    H220416   0.022   4.202   4.253 -1.2480  0.3024  0.0061
 6818TIP3   OH220417   0.724   0.803   5.724 -0.0171  0.0557  0.2768
 6818TIP3    H120418   0.652   0.862   5.746 -0.2544 -0.3984  0.7189
 6818TIP3    H220419   0.789   0.819   5.793 -0.4243 -0.7823  0.8707
 6819TIP3   OH220420   7.001   6.432   5.055  0.1783 -0.5770  0.3423
 6819TIP3    H120421   7.087   6.395   5.078  0.4786  0.5109  1.0349
 6819TIP3    H220422   6.939   6.383   5.110  0.1684 -2.2255 -1.0459
 6820TIP3   OH220423   5.551   0.958   4.992  0.2079 -0.2280 -0.0476
 6820TIP3    H120424   5.473   0.921   4.952  0.0331  0.0979 -0.0126
 6820TIP3    H220425   5.555   0.920   5.079  0.4704 -0.7755 -0.2891
 6821TIP3   OH220426   3.248   1.856   2.304  0.0792  0.0129  0.1459
 6821TIP3    H120427   3.267   1.859   2.210  0.6105  1.9620  0.2673
 6821TIP3    H220428   3.334   1.852   2.346 -0.0914  0.5296  0.5594
 6822TIP3   OH220429   1.697   4.796   2.834 -0.4576 -0.1221 -0.0062
 6822TIP3    H120430   1.708   4.733   2.905 -0.1427 -0.2719 -0.1849
 6822TIP3    H220431   1.779   4.846   2.834 -0.1867 -0.5452 -0.6737
 6823TIP3   OH220432   3.910   4.263   2.376 -0.7203 -0.2068 -0.5102
 6823TIP3    H120433   3.868   4.196   2.322 -0.1777 -0.4069 -0.6950
 6823TIP3    H220434   3.845   4.333   2.383 -0.5127  0.1894 -2.1207
 6824TIP3   OH220435   2.216   5.349   1.490 -0.0126 -0.4450 -0.1588
 6824TIP3    H120436   2.206   5.255   1.476  0.2215 -0.7316  1.4140
 6824TIP3    H220437   2.259   5.356   1.575  2.4019  1.0355 -1.3996
 6825TIP3   OH220438   4.835   4.368   4.861 -0.2133 -0.4324  0.0039
 6825TIP3    H120439   4.762   4.307   4.858 -0.5502 -0.0352  0.1097
 6825TIP3    H220440   4.894   4.331   4.928  0.0953 -1.1974 -0.6609
 6826TIP3   OH220441   3.190   6.168   1.637 -0.2399 -0.0907 -1.0927
 6826TIP3    H120442   3.264   6.222   1.608  0.1368 -0.3378 -0.6075
 6826TIP3    H220443   3.187   6.181   1.732  0.4886 -1.6774 -0.8123
 6827TIP3   OH220444   3.910   0.474   0.364  0.2541  0.1625 -0.5011
 6827TIP3    H120445   3.851   0.539   0.403 -0.3602  0.2131 -1.4998
 6827TIP3    H220446   3.978   0.462   0.431 -1.1710 -0.3372  0.9398
 6828TIP3   OH220447   2.719   0.367   4.958  0.0261 -0.2838 -0.4023
 6828TIP3    H120448   2.754   0.442   5.008  1.1417 -0.8237 -0.3510
 6828TIP3    H220449   2.792   0.306   4.952 -0.7237 -1.1521 -0.9013
 6829TIP3   OH220450   5.133   6.433   0.105 -0.6573  0.1292 -0.0172
 6829TIP3    H120451   5.202   6.418   0.040 -1.6152 -1.7103 -0.6535
 6829TIP3    H220452   5.147   6.524   0.133  0.0305  0.8706 -2.5023
 6830TIP3   OH220453   1.606   2.213   1.603 -0.3926  0.2646  0.9392
 6830TIP3    H120454   1.609   2.307   1.585  1.7295  1.1638  4.7757
 6830TIP3    H220455   1.665   2.174   1.538  0.6277  1.9672  0.7951
 6831TIP3   OH220456   2.954   3.625   5.249 -0.3150  0.0819  0.4996
 6831TIP3    H120457   2.983   3.572   5.175  1.2641  2.3570 -0.6155
 6831TIP3    H220458   2.858   3.622   5.245 -0.2788  0.4812 -1.9170
 6832TIP3   OH220459   5.908   3.829   5.172  0.1917  0.1151 -0.7555
 6832TIP3    H120460   5.968   3.831   5.247 -0.2190 -3.0064 -0.1951
 6832TIP3    H220461   5.966   3.818   5.096  0.5389  2.0929 -0.8198
 6833TIP3   OH220462   3.943   6.724   3.969 -0.6245 -0.0263 -0.3119
 6833TIP3    H120463   3.997   6.696   4.042 -0.6669  0.3722 -0.1252
 6833TIP3    H220464   3.863   6.758   4.009  0.4412  2.8061 -0.3175
 6834TIP3   OH220465   5.097   4.160   4.321  0.1173  0.3611  0.3351
 6834TIP3    H120466   5.119   4.216   4.396  0.5583 -0.5650  0.9191
 6834TIP3    H220467   5.073   4.076   4.361  0.1418 -0.0782 -0.5580
 6835TIP3   OH220468   2.373   2.785   1.484 -0.1598 -0.3957 -0.7416
 6835TIP3    H120469   2.296   2.787   1.541  0.3196 -0.3403 -0.0866
 6835TIP3    H220470   2.406   2.695   1.491  0.2923 -0.2026 -0.4054
 6836TIP3   OH220471   7.055   6.385   1.537 -0.3153  0.2230  0.0093
 6836TIP3    H120472   6.982   6.329   1.511  1.3566 -1.3550 -1.4885
 6836TIP3    H220473   7.119   6.326   1.576  0.1521  1.5965  1.4371
 6837TIP3   OH220474   4.167   4.912   2.300 -0.0621 -0.9657 -0.2855
 6837TIP3    H120475   4.165   4.932   2.393 -0.0880 -1.7094 -0.1177
 6837TIP3    H220476   4.257   4.887   2.282  0.0500 -0.3850 -0.5639
 6838TIP3   OH220477   1.946   1.426   1.988 -0.3101  0.1266  0.3476
 6838TIP3    H120478   1.998   1.505   1.973  1.8820 -0.7575  2.7108
 6838TIP3    H220479   1.975   1.366   1.919 -0.0644  0.4998  0.1183
 6839TIP3   OH220480   0.994   2.993   3.497 -0.4104  0.2457 -0.3645
 6839TIP3    H120481   1.001   2.912   3.447 -2.9737 -1.1789  1.3733
 6839TIP3    H220482   1.078   3.001   3.542 -0.1881 -1.6050 -0.3847
 6840TIP3   OH220483   6.518   1.709   3.011  0.3999  0.5565 -0.1215
 6840TIP3    H120484   6.593   1.757   2.976  0.0547  1.5210  0.4213
 6840TIP3    H220485   6.520   1.726   3.105  0.2878 -0.5386  0.0903
 6841TIP3   OH220486   6.952   3.050   1.984 -0.3216 -0.0780  0.3870
 6841TIP3    H120487   7.015   3.032   2.054 -0.3653 -1.3830  0.1137
 6841TIP3    H220488   7.006   3.072   1.908 -0.2647  4.0019  1.3808
 6842TIP3   OH220489   3.026   4.910   5.666 -0.3365  0.3194 -0.3233
 6842TIP3    H120490   2.945   4.960   5.657 -0.0457  0.5325 -2.0267
 6842TIP3    H220491   3.011   4.855   5.743 -2.0929  0.3541 -0.5986
 6843TIP3   OH220492   1.078   5.231   4.388 -0.3779 -0.2762 -0.4666
 6843TIP3    H120493   1.004   5.260   4.441 -0.5884 -3.0021  0.8713
 6843TIP3    H220494   1.045   5.231   4.298 -1.2398  0.7103 -0.1648
 6844TIP3   OH220495   1.555   5.901   5.551  0.4879 -0.1713  0.4823
 6844TIP3    H120496   1.484   5.963   5.531  2.1016  1.7206  0.2112
 6844TIP3    H220497   1.536   5.825   5.497 -1.1960  0.3761  0.2372
 6845TIP3   OH220498   5.873   0.736   1.245  0.0960 -0.4757 -0.1359
 6845TIP3    H120499   5.916   0.651   1.251 -0.8984 -1.2429 -2.5692
 6845TIP3    H220500   5.780   0.716   1.251 -0.1166  0.7698  1.5920
 6846TIP3   OH220501   5.481   3.317   0.735  0.5398 -0.1732  0.0745
 6846TIP3    H120502   5.459   3.240   0.789 -1.7874  0.1088 -0.4055
 6846TIP3    H220503   5.441   3.391   0.781  2.8302  0.8529  0.5760
 6847TIP3   OH220504   6.399   2.078   3.034 -0.1590 -0.0141  0.2790
 6847TIP3    H120505   6.418   2.165   2.999  1.1973 -0.4442 -0.1140
 6847TIP3    H220506   6.472   2.059   3.093 -1.8363  0.2176  2.5523
 6848TIP3   OH220507   3.659   2.646   3.320  0.1430 -0.2288  0.1235
 6848TIP3    H120508   3.733   2.693   3.281  0.3777 -1.5223 -1.0648
 6848TIP3    H220509   3.696   2.563   3.349 -0.7682 -0.7521 -0.1888
 6849TIP3   OH220510   1.186   5.996   2.547 -0.2213 -0.6186  0.2093
 6849TIP3    H120511   1.183   6.002   2.642  0.5555 -1.9085  0.3436
 6849TIP3    H220512   1.128   5.923   2.525 -1.2198  0.3315 -0.4097
 6850TIP3   OH220513   2.109   3.831   0.473  0.4565  0.1120 -0.1198
 6850TIP3    H120514   2.146   3.744   0.489  0.4053  0.3361  1.3855
 6850TIP3    H220515   2.177   3.892   0.502 -1.0215  0.5340  2.8534
 6851TIP3   OH220516   6.174   1.615   0.601 -0.0648 -0.2398 -0.1495
 6851TIP3    H120517   6.082   1.640   0.594  0.1570  0.8215  0.5075
 6851TIP3    H220518   6.217   1.661   0.529  0.2737  0.9646  0.7963
 6852TIP3   OH220519   5.513   3.462   0.514 -0.0568  0.4193 -0.4815
 6852TIP3    H120520   5.546   3.409   0.442 -2.0854  1.4051 -2.2417
 6852TIP3    H220521   5.489   3.398   0.582  1.6033 -0.5423 -0.7521
 6853TIP3   OH220522   2.627   5.847   1.484  0.3137  0.1716  0.6705
 6853TIP3    H120523   2.571   5.823   1.410 -1.9936 -1.2667  2.7146
 6853TIP3    H220524   2.713   5.812   1.460  0.5731  2.6115 -2.6689
 6854TIP3   OH220525   5.051   3.329   5.752  0.0337 -0.9534 -0.2352
 6854TIP3    H120526   5.074   3.382   5.829 -0.3271 -1.2881  0.1083
 6854TIP3    H220527   5.006   3.390   5.694  0.8268 -0.5492 -0.4502
 6855TIP3   OH220528   6.399   6.380   2.173 -0.1768 -0.1281 -0.2089
 6855TIP3    H120529   6.322   6.339   2.211  0.6943 -1.9186 -0.2983
 6855TIP3    H220530   6.397   6.355   2.080  0.3996 -0.0083 -0.2584
 6856TIP3   OH220531   1.076   0.105   3.821  0.3531 -0.5808  0.2557
 6856TIP3    H120532   1.047   0.017   3.845 -1.9904 -0.2180 -0.9577
 6856TIP3    H220533   1.121   0.093   3.737  0.0798 -0.6387  0.1163
 6857TIP3   OH220534   6.670   1.294   3.718 -0.6425  0.7614 -0.1607
 6857TIP3    H120535   6.624   1.370   3.683 -2.0730 -0.0661 -0.1709
 6857TIP3    H220536   6.715   1.256   3.642 -3.6091 -0.9393 -1.2479
 6858TIP3   OH220537   1.773   6.732   1.984 -0.5320 -0.2950  0.2199
 6858TIP3    H120538   1.780   6.747   1.890 -1.3771  0.7699  0.3090
 6858TIP3    H220539   1.726   6.808   2.017  0.8721  0.0020  1.7003
 6859TIP3   OH220540   4.760   1.942   4.589  0.1195  0.3148  0.1555
 6859TIP3    H120541   4.824   1.895   4.643  0.3004  0.4353  0.0443
 6859TIP3    H220542   4.678   1.895   4.603  0.0283  0.7128  1.0258
 6860TIP3   OH220543   6.515   3.894   4.674 -0.3138  0.2910  0.5187
 6860TIP3    H120544   6.465   3.824   4.632 -0.4542  0.9720 -0.4806
 6860TIP3    H220545   6.528   3.959   4.605  1.0341  0.6171  1.0416
 6861TIP3   OH220546   0.455   3.044   4.341  0.3903 -0.0451 -0.0404
 6861TIP3    H120547   0.491   3.120   4.295  0.3187  0.0383  0.0429
 6861TIP3    H220548   0.413   3.080   4.419  0.4246 -0.1772  0.0400
 6862TIP3   OH220549   5.008   2.676   3.603 -0.3730 -0.1177 -0.3674
 6862TIP3    H120550   5.008   2.653   3.510  0.5171 -0.4187 -0.2987
 6862TIP3    H220551   4.977   2.767   3.605 -2.2848 -0.7192 -0.7774
 6863TIP3   OH220552   3.512   6.379   2.343 -0.5308 -0.0160 -0.2507
 6863TIP3    H120553   3.446   6.328   2.390 -0.9257 -1.7273 -2.4829
 6863TIP3    H220554   3.466   6.409   2.264  0.1136  2.6917  0.2866
 6864TIP3   OH220555   2.636   1.002   1.917 -0.6723 -0.0655  0.3229
 6864TIP3    H120556   2.549   0.968   1.897 -0.3041  0.2416 -2.0938
 6864TIP3    H220557   2.630   1.096   1.899  0.1208 -0.0205  0.2639
 6865TIP3   OH220558   3.556   6.761   5.337  0.3837  0.2608 -0.5526
 6865TIP3    H120559   3.539   6.823   5.409  0.4068  0.2283 -0.5186
 6865TIP3    H220560   3.497   6.788   5.267  0.4684  0.3856 -0.5758
 6866TIP3   OH220561   4.064   5.889   5.607  0.4604  0.0547  0.3921
 6866TIP3    H120562   4.030   5.847   5.686 -2.6194 -0.3196 -0.9854
 6866TIP3    H220563   4.098   5.816   5.555 -0.6794 -0.2012 -0.0354
 6867TIP3   OH220564   5.252   1.567   4.037  0.6868  0.3438 -0.2185
 6867TIP3    H120565   5.224   1.542   4.126 -3.5113 -0.3051 -1.4834
 6867TIP3    H220566   5.237   1.489   3.985 -1.4791  1.9752 -2.2397
 6868TIP3   OH220567   5.769   6.086   4.912  0.3509  0.0893 -0.3351
 6868TIP3    H120568   5.837   6.140   4.953 -1.8513  0.6260  3.0215
 6868TIP3    H220569   5.718   6.147   4.859  1.5691 -0.0433 -1.7130
 6869TIP3   OH220570   1.102   3.065   0.225 -0.2052  0.2079  0.5663
 6869TIP3    H120571   1.038   3.071   0.296  0.0708 -0.0754  0.8386
 6869TIP3    H220572   1.110   2.972   0.207 -2.1167  0.3605 -1.5162
 6870TIP3   OH220573   3.799   6.015   5.457  0.0931 -0.0635 -0.3364
 6870TIP3    H120574   3.804   5.935   5.509 -0.8729  1.3066  2.0393
 6870TIP3    H220575   3.751   5.990   5.378  0.5357 -1.9759 -0.0400
 6871TIP3   OH220576   0.614   5.434   1.047 -0.3570  0.1200 -0.3760
 6871TIP3    H120577   0.681   5.380   1.088  1.3146  2.2891 -0.0998
 6871TIP3    H220578   0.663   5.498   0.995 -2.2950  0.2969 -2.1059
 6872TIP3   OH220579   5.283   6.237   1.644 -0.7460  0.4378 -0.0218
 6872TIP3    H120580   5.352   6.298   1.672 -0.7847 -0.4933  2.2930
 6872TIP3    H220581   5.284   6.167   1.710 -0.8851 -1.9800 -2.3851
 6873TIP3   OH220582   5.339   2.764   2.369 -0.0232  0.6625  0.2734
 6873TIP3    H120583   5.340   2.846   2.418 -4.1339  0.5305  0.8752
 6873TIP3    H220584   5.247   2.740   2.362  0.7920 -2.5559 -2.2568
 6874TIP3   OH220585   1.563   3.156   0.987 -0.4418 -0.8677  0.2326
 6874TIP3    H120586   1.533   3.247   0.979  0.6069 -0.4926  0.4425
 6874TIP3    H220587   1.615   3.140   0.908 -0.0050 -1.0349  0.5488
 6875TIP3   OH220588   4.348   6.374   3.119  0.3382 -0.0495  0.0206
 6875TIP3    H120589   4.438   6.349   3.098 -0.0976 -2.0555  0.3297
 6875TIP3    H220590   4.295   6.305   3.080 -1.0041  0.5734  0.6967
 6876TIP3   OH220591   6.932   5.680   3.650  0.1467 -0.5890 -0.1348
 6876TIP3    H120592   6.964   5.682   3.740  1.1409 -0.2633 -0.4824
 6876TIP3    H220593   6.968   5.598   3.614 -0.5287 -0.8881 -0.1436
 6877TIP3   OH220594   4.952   3.805   1.409 -0.8621  0.7614  0.4352
 6877TIP3    H120595   5.011   3.816   1.483  0.7298  0.5886 -0.7368
 6877TIP3    H220596   4.935   3.711   1.406  2.1367  0.1251 -1.5229
 6878TIP3   OH220597   5.821   6.331   4.112  0.0480 -0.9530 -0.6138
 6878TIP3    H120598   5.866   6.253   4.079 -1.0363 -1.9704  0.1826
 6878TIP3    H220599   5.819   6.319   4.207  1.5349  1.0232 -0.2778
 6879TIP3   OH220600   5.695   4.867   1.854  0.4120 -0.4781  0.2258
 6879TIP3    H120601   5.672   4.947   1.807 -1.4376 -0.5399  0.9459
 6879TIP3    H220602   5.722   4.806   1.785 -0.6558 -0.0545 -0.5945
 6880TIP3   OH220603   0.374   5.262   3.385  0.4297  0.0020 -0.0205
 6880TIP3    H120604   0.385   5.217   3.301  1.2961  0.4006 -0.1391
 6880TIP3    H220605   0.444   5.226   3.440 -1.1813 -1.5387  1.1321
 6881TIP3   OH220606   3.075   3.185   2.358 -0.2849  0.5585 -0.2178
 6881TIP3    H120607   3.019   3.119   2.399 -0.0605  0.6675  0.2752
 6881TIP3    H220608   3.163   3.147   2.361 -0.3685  0.2775 -1.2272
 6882TIP3   OH220609   4.090   5.113   1.478  0.3581  0.0017  0.2804
 6882TIP3    H120610   4.113   5.137   1.568  0.0547 -1.4795  0.7813
 6882TIP3    H220611   4.039   5.033   1.487 -1.3824  0.8785 -1.0874
 6883TIP3   OH220612   6.842   6.218   0.200 -0.3376  0.0819  0.6920
 6883TIP3    H120613   6.784   6.252   0.132 -1.3778 -0.7026  1.1545
 6883TIP3    H220614   6.863   6.129   0.171 -1.4546 -0.5593  1.7701
 6884TIP3   OH220615   4.014   3.674   0.206 -0.5152 -0.0935 -0.4398
 6884TIP3    H120616   3.976   3.616   0.273 -0.1428 -0.4261 -0.5146
 6884TIP3    H220617   3.958   3.752   0.207 -1.3811 -0.6876 -0.7378
 6885TIP3   OH220618   1.429   3.813   5.682 -0.0820 -0.4899 -0.1211
 6885TIP3    H120619   1.461   3.838   5.768 -1.8674 -2.8471  1.3510
 6885TIP3    H220620   1.441   3.718   5.678  0.9059 -0.3571 -2.9449
 6886TIP3   OH220621   6.132   4.548   0.139 -0.2447 -0.0745  0.5015
 6886TIP3    H120622   6.114   4.536   0.046 -1.1595 -0.7335  0.7480
 6886TIP3    H220623   6.097   4.634   0.159 -1.0446 -0.3800  0.4596
 6887TIP3   OH220624   5.405   1.253   3.479  0.6546 -0.3252  0.2013
 6887TIP3    H120625   5.441   1.340   3.495  1.0693 -0.1007 -1.6360
 6887TIP3    H220626   5.387   1.252   3.385 -0.3646 -1.8599  0.3757
 6888TIP3   OH220627   1.896   5.430   2.543 -0.2544  0.7578 -0.7112
 6888TIP3    H120628   1.931   5.417   2.455 -0.6437  1.9740 -1.0556
 6888TIP3    H220629   1.967   5.473   2.591 -0.5688  1.4171 -0.8412
 6889TIP3   OH220630   5.836   5.696   4.306  0.4362  0.6378 -0.5910
 6889TIP3    H120631   5.923   5.684   4.344  0.5413  2.8537  0.0152
 6889TIP3    H220632   5.850   5.752   4.229 -0.2103 -0.8947 -1.8822
 6890TIP3   OH220633   1.006   1.738   1.796  0.9909  0.2827  0.3511
 6890TIP3    H120634   0.940   1.807   1.786  1.2461  0.4640 -0.1362
 6890TIP3    H220635   0.972   1.682   1.866 -0.3428 -0.3698 -0.7589
 6891TIP3   OH220636   5.221   6.802   1.202 -0.7279  0.2575 -0.7429
 6891TIP3    H120637   5.174   6.721   1.224  1.1010 -0.4058  0.9766
 6891TIP3    H220638   5.288   6.774   1.139 -0.2019  0.4491 -0.2752
 6892TIP3   OH220639   6.032   6.556   2.249 -0.0913 -0.5272  0.3111
 6892TIP3    H120640   6.047   6.464   2.271  0.2591  0.0720  2.7948
 6892TIP3    H220641   6.117   6.586   2.216  0.7443 -0.3612  2.4472
 6893TIP3   OH220642   0.087   0.591   5.749  0.1091  0.0652 -0.0647
 6893TIP3    H120643   0.129   0.676   5.761  3.7456 -1.5418 -0.1218
 6893TIP3    H220644   0.018   0.608   5.684  2.1023  2.6162 -1.7324
 6894TIP3   OH220645   5.525   3.033   2.700  0.1674 -0.1782  0.1971
 6894TIP3    H120646   5.465   2.996   2.634 -0.0185  0.8828 -0.2539
 6894TIP3    H220647   5.580   2.959   2.726  0.5472 -0.5314 -1.4920
 6895TIP3   OH220648   3.507   0.423   4.226  0.2776 -0.5796  0.0677
 6895TIP3    H120649   3.463   0.361   4.169  0.8932 -0.5970 -0.4020
 6895TIP3    H220650   3.437   0.477   4.262 -0.3235 -1.8781  0.9093
 6896TIP3   OH220651   3.933   0.157   3.437 -0.1803  0.2535  0.7178
 6896TIP3    H120652   3.891   0.119   3.360  0.1892  0.6456  0.3230
 6896TIP3    H220653   3.866   0.151   3.506 -0.1519 -1.0696  0.6567
 6897TIP3   OH220654   6.131   2.397   0.050 -0.2487  0.8337 -0.5400
 6897TIP3    H120655   6.098   2.308   0.044  1.4833  0.0446  0.6342
 6897TIP3    H220656   6.108   2.426   0.138  0.3710  1.0151 -0.4278
 6898TIP3   OH220657   2.418   3.469   2.040 -0.7138  0.8014 -0.0747
 6898TIP3    H120658   2.335   3.475   2.086 -0.5607  0.0053  0.3050
 6898TIP3    H220659   2.478   3.522   2.092 -0.2074 -1.1526  1.4179
 6899TIP3   OH220660   6.200   6.560   1.391  0.1996  0.0262  0.2727
 6899TIP3    H120661   6.130   6.494   1.397 -0.4409  0.6486 -0.1436
 6899TIP3    H220662   6.180   6.621   1.462  0.4522  0.0944  0.2841
 6900TIP3   OH220663   1.254   2.213   0.897  0.2435 -0.2532  0.0940
 6900TIP3    H120664   1.243   2.143   0.963 -1.1566  0.3014  0.4927
 6900TIP3    H220665   1.260   2.293   0.949 -0.0930  0.1098 -0.4253
 6901TIP3   OH220666   5.651   1.091   1.699 -0.1026 -0.1595  0.9464
 6901TIP3    H120667   5.720   1.139   1.746  0.1575 -1.0779  1.5203
 6901TIP3    H220668   5.570   1.131   1.729  0.0920 -0.3423  1.7270
 6902TIP3   OH220669   6.795   1.083   4.371 -0.1018 -0.2978 -0.1448
 6902TIP3    H120670   6.786   1.065   4.278  1.4129  1.5715 -0.7193
 6902TIP3    H220671   6.873   1.138   4.378 -0.6761  0.3670  2.1358
 6903TIP3   OH220672   5.967   3.697   1.511 -0.0502 -0.1732  0.5356
 6903TIP3    H120673   5.961   3.790   1.486  0.5472 -0.0116  0.9664
 6903TIP3    H220674   6.060   3.683   1.529 -0.1309 -0.8739  0.4377
 6904TIP3   OH220675   0.597   1.419   0.592  0.4700  0.0564  0.1903
 6904TIP3    H120676   0.657   1.417   0.667 -0.4935 -1.6476  0.9667
 6904TIP3    H220677   0.597   1.329   0.559 -2.4622 -0.3083  0.9243
 6905TIP3   OH220678   4.069   3.557   2.381  0.2573  0.0436 -0.0728
 6905TIP3    H120679   4.012   3.506   2.439 -1.3458  0.3155 -1.3449
 6905TIP3    H220680   4.090   3.636   2.431 -0.9905  0.2091  0.2140
 6906TIP3   OH220681   5.925   3.267   2.476  0.2707 -0.0446  0.1277
 6906TIP3    H120682   6.009   3.305   2.448  0.0209  0.2362 -0.2367
 6906TIP3    H220683   5.896   3.215   2.401  0.4321 -0.6710  0.4920
 6907TIP3   OH220684   4.210   0.845   2.436 -0.1827  0.3656 -0.4024
 6907TIP3    H120685   4.124   0.803   2.440  0.9039 -2.4468 -2.5046
 6907TIP3    H220686   4.257   0.811   2.512 -0.5138  0.7873 -0.0137
 6908TIP3   OH220687   5.857   2.242   4.595  0.1178 -0.5840 -0.5081
 6908TIP3    H120688   5.917   2.303   4.638  0.5013 -0.3755 -1.3251
 6908TIP3    H220689   5.914   2.181   4.548 -0.2820 -1.1744 -0.2428
 6909TIP3   OH220690   5.110   5.912   4.985 -0.4332 -0.0011  0.3297
 6909TIP3    H120691   5.189   5.857   4.990  0.0300  0.6905  0.6689
 6909TIP3    H220692   5.117   5.955   4.900  0.4931  1.4399  1.1004
 6910TIP3   OH220693   5.478   5.989   0.713 -0.0751  0.2371 -0.5474
 6910TIP3    H120694   5.531   5.910   0.705  0.6042  0.8464 -3.1280
 6910TIP3    H220695   5.437   6.000   0.627 -0.1515  2.6773 -0.2883
 6911TIP3   OH220696   0.476   2.698   3.441 -0.3385 -0.5594  0.4644
 6911TIP3    H120697   0.459   2.745   3.523  3.6138 -1.2414  1.9180
 6911TIP3    H220698   0.401   2.641   3.429 -2.5336  1.8564  1.8028
 6912TIP3   OH220699   5.706   0.424   5.084 -0.0970  0.0182  0.1061
 6912TIP3    H120700   5.638   0.426   5.016  0.1916 -1.1447 -0.2382
 6912TIP3    H220701   5.781   0.469   5.045  0.1920 -0.9584 -0.5105
 6913TIP3   OH220702   3.336   2.820   3.949  0.5481  0.0755 -0.3962
 6913TIP3    H120703   3.254   2.772   3.956  0.9251 -0.3861  1.1318
 6913TIP3    H220704   3.330   2.887   4.017  1.4609  0.0062 -0.2416
 6914TIP3   OH220705   1.303   5.381   3.770 -0.0961  0.7308 -0.7106
 6914TIP3    H120706   1.283   5.310   3.709  1.0640  0.7919 -1.1845
 6914TIP3    H220707   1.248   5.454   3.741  0.5665  0.8162 -1.8062
 6915TIP3   OH220708   2.041   5.092   0.143 -0.8552  0.6809 -0.0930
 6915TIP3    H120709   2.056   5.179   0.179  2.1048  0.1479  0.1562
 6915TIP3    H220710   2.003   5.109   0.056 -0.0689  2.2192 -0.1717
 6916TIP3   OH220711   3.975   0.633   1.166  0.4082 -0.1564  0.0770
 6916TIP3    H120712   3.992   0.539   1.157  0.8660 -0.0877  0.1755
 6916TIP3    H220713   4.061   0.671   1.184  0.3355  0.3661 -0.6341
 6917TIP3   OH220714   2.042   3.434   2.057 -0.2207  0.0921  0.0602
 6917TIP3    H120715   2.063   3.464   1.968  2.0004  0.7557  0.7308
 6917TIP3    H220716   2.003   3.510   2.099 -1.4362 -0.2746 -0.3619
 6918TIP3   OH220717   7.043   5.111   5.894  0.0189 -0.4118 -0.2050
 6918TIP3    H120718   7.130   5.134   5.861 -0.9570  1.7053 -1.5864
 6918TIP3    H220719   7.004   5.060   5.824  0.2743 -1.7835  0.6184
 6919TIP3   OH220720   4.089   5.350   0.481 -0.6677 -0.0740  0.5749
 6919TIP3    H120721   4.037   5.280   0.521  2.3333 -1.9981  1.4679
 6919TIP3    H220722   4.146   5.381   0.551  1.1587  0.1007 -0.9114
 6920TIP3   OH220723   2.672   1.946   3.068 -0.5297  0.4733  0.1406
 6920TIP3    H120724   2.676   1.922   2.975 -0.8869 -0.6406  0.3990
 6920TIP3    H220725   2.707   2.035   3.071 -0.9714  0.7091 -1.1245
 6921TIP3   OH220726   0.895   6.593   5.399  0.1807  0.1809 -0.2561
 6921TIP3    H120727   0.801   6.599   5.414  0.3533  0.3273  0.8394
 6921TIP3    H220728   0.904   6.534   5.324 -0.6815 -2.3965  1.5195
 6922TIP3   OH220729   6.572   5.710   5.802  0.2590  0.4636  0.0496
 6922TIP3    H120730   6.511   5.710   5.876 -1.4326  0.2855 -1.2834
 6922TIP3    H220731   6.604   5.620   5.797 -1.7049 -0.2405 -1.0132
 6923TIP3   OH220732   6.610   4.560   2.806  0.0392 -0.6731 -0.1392
 6923TIP3    H120733   6.592   4.548   2.899  2.3937 -2.5272  0.1492
 6923TIP3    H220734   6.693   4.516   2.791  1.2455  2.0899 -2.5554
 6924TIP3   OH220735   5.406   3.405   1.100  0.0382  0.2223 -0.3936
 6924TIP3    H120736   5.486   3.352   1.104  0.1155  0.3708  0.1267
 6924TIP3    H220737   5.425   3.471   1.034 -0.2933 -0.7751 -1.5080
 6925TIP3   OH220738   4.044   3.211   3.789 -0.3275 -0.4215  0.2316
 6925TIP3    H120739   4.017   3.269   3.861 -3.1538 -3.0727  1.5912
 6925TIP3    H220740   4.047   3.268   3.712  0.8169  2.1675  2.0408
 6926TIP3   OH220741   0.578   0.582   2.837  0.2850 -0.2287 -0.4235
 6926TIP3    H120742   0.638   0.652   2.812 -0.2306  0.1186 -0.7139
 6926TIP3    H220743   0.499   0.598   2.785 -1.0967  0.9024  1.8439
 6927TIP3   OH220744   3.009   0.577   3.443  0.1034 -0.2444 -0.4919
 6927TIP3    H120745   2.949   0.521   3.492  2.7860 -2.0934  0.8632
 6927TIP3    H220746   3.056   0.627   3.509  1.0158  0.1656 -1.4123
 6928TIP3   OH220747   4.289   6.173   5.876 -0.2550 -0.4022  0.0217
 6928TIP3    H120748   4.218   6.136   5.824 -0.2424 -0.4283  0.0226
 6928TIP3    H220749   4.312   6.255   5.831  0.2350 -0.7788 -0.4309
 6929TIP3   OH220750   1.598   5.122   3.672  0.2723  0.2689 -0.1256
 6929TIP3    H120751   1.690   5.097   3.674 -0.1326 -1.3520  0.9031
 6929TIP3    H220752   1.562   5.088   3.754 -1.0443  1.7264 -0.0502
 6930TIP3   OH220753   4.566   3.171   4.173  0.0335 -0.0527  0.2630
 6930TIP3    H120754   4.615   3.091   4.153  0.4660  0.1663  0.4201
 6930TIP3    H220755   4.589   3.231   4.101  0.1629  0.1216  0.4482
 6931TIP3   OH220756   2.524   2.913   5.843  0.1588 -0.5676  0.0490
 6931TIP3    H120757   2.580   2.972   5.894 -1.5598  0.0736  1.2969
 6931TIP3    H220758   2.577   2.834   5.833  1.3219  0.0272  1.1126
 6932TIP3   OH220759   0.668   1.753   0.719  0.0319 -0.3486 -0.7766
 6932TIP3    H120760   0.691   1.745   0.812 -0.1955  0.2715 -0.6611
 6932TIP3    H220761   0.699   1.841   0.694 -3.0135  0.9509 -0.3538
 6933TIP3   OH220762   2.440   0.679   2.186  0.5831  0.8030  0.2410
 6933TIP3    H120763   2.492   0.759   2.180  0.2217  1.1395  1.3829
 6933TIP3    H220764   2.404   0.680   2.275 -1.1237  0.4367 -0.4079
 6934TIP3   OH220765   0.993   3.777   0.315 -0.0955 -0.6159  0.5996
 6934TIP3    H120766   1.040   3.754   0.235 -0.9364  1.6654 -0.6387
 6934TIP3    H220767   0.951   3.695   0.343  0.2038 -1.4666 -1.2877
 6935TIP3   OH220768   6.220   1.324   0.431 -0.1628  0.6743  0.1591
 6935TIP3    H120769   6.295   1.356   0.481  0.9638 -0.6334 -0.6452
 6935TIP3    H220770   6.187   1.251   0.482 -0.3253  0.6720  0.0507
 6936TIP3   OH220771   0.182   1.334   1.340 -0.4367 -1.1144 -0.7114
 6936TIP3    H120772   0.191   1.240   1.356  1.1915 -0.9583 -0.4792
 6936TIP3    H220773   0.147   1.369   1.422 -0.5040 -1.4472 -0.5969
 6937TIP3   OH220774   3.199   5.675   3.208 -0.1089 -0.0677  0.2357
 6937TIP3    H120775   3.277   5.631   3.242  1.2223  2.7462  1.1489
 6937TIP3    H220776   3.129   5.651   3.269  1.1930  1.1067  2.3102
 6938TIP3   OH220777   6.628   2.795   5.305 -0.0763 -0.5766  0.1850
 6938TIP3    H120778   6.547   2.748   5.285 -1.0775  0.1987  2.1059
 6938TIP3    H220779   6.643   2.851   5.229 -2.6148  0.8741  0.6208
 6939TIP3   OH220780   4.195   4.410   1.425 -0.0989  0.2986 -0.3254
 6939TIP3    H120781   4.202   4.478   1.492 -2.7370 -0.2057  0.5721
 6939TIP3    H220782   4.173   4.458   1.345 -0.2395  0.6459 -0.0803
 6940TIP3   OH220783   1.821   1.295   5.460 -0.5279 -0.0382  0.3402
 6940TIP3    H120784   1.832   1.351   5.536 -0.2925 -1.4207  1.3613
 6940TIP3    H220785   1.751   1.337   5.409 -1.1281  0.5824  1.6320
 6941TIP3   OH220786   6.443   3.870   5.398 -0.0681 -0.1680  0.1466
 6941TIP3    H120787   6.481   3.783   5.405  0.1587 -0.2570 -1.8491
 6941TIP3    H220788   6.484   3.909   5.321 -1.0980  1.2279  0.2601
 6942TIP3   OH220789   7.228   2.607   3.632  0.2134 -0.3070  0.5285
 6942TIP3    H120790   7.161   2.638   3.571  1.7442 -0.8352 -1.5578
 6942TIP3    H220791   7.214   2.512   3.635  2.4792 -0.8602 -2.2094
 6943TIP3   OH220792   0.929   0.540   0.718 -0.2722  0.0570  0.0310
 6943TIP3    H120793   0.867   0.504   0.655 -0.3574 -0.2200  0.2740
 6943TIP3    H220794   1.012   0.543   0.670  0.1303 -2.0061  0.4855
 6944TIP3   OH220795   6.177   1.752   2.622 -0.2570 -0.9375  0.0597
 6944TIP3    H120796   6.150   1.663   2.645 -0.2864 -1.0557 -0.4283
 6944TIP3    H220797   6.233   1.780   2.695 -0.3999 -1.2850  0.3034
 6945TIP3   OH220798   0.735   4.183   0.880 -0.0865  0.1822 -0.5501
 6945TIP3    H120799   0.793   4.259   0.888  0.3760 -0.1917 -0.1993
 6945TIP3    H220800   0.721   4.155   0.970 -2.3008  1.3239 -0.4743
 6946TIP3   OH220801   5.614   4.262   1.424  0.1662 -0.0637 -0.2572
 6946TIP3    H120802   5.582   4.222   1.505  2.6661  1.3841  1.5916
 6946TIP3    H220803   5.635   4.352   1.449  1.2022  0.3734 -2.4948
 6947TIP3   OH220804   3.890   0.353   5.023 -0.1998  0.4361  0.2768
 6947TIP3    H120805   3.889   0.275   5.078  2.3775 -0.0486 -0.2285
 6947TIP3    H220806   3.847   0.326   4.942  1.5553 -0.8470 -0.2809
 6948TIP3   OH220807   1.738   5.321   3.195 -0.2837  0.4816 -0.1935
 6948TIP3    H120808   1.765   5.385   3.261 -1.4864  0.5694  0.2444
 6948TIP3    H220809   1.700   5.249   3.245 -0.4732  0.1882 -0.7516
 6949TIP3   OH220810   0.190   0.127   0.547  0.3111  0.1817 -0.3007
 6949TIP3    H120811   0.166   0.066   0.617 -0.1038  1.2770  0.5375
 6949TIP3    H220812   0.280   0.152   0.566  0.2498  0.3644 -0.2526
 6950TIP3   OH220813   5.242   4.468   4.749  0.3929 -0.1576  0.0937
 6950TIP3    H120814   5.314   4.405   4.733  0.4307 -0.0295 -0.2450
 6950TIP3    H220815   5.169   4.433   4.698  0.1208 -0.4489  0.6736
 6951TIP3   OH220816   6.733   2.738   4.428  0.8803  0.7447 -0.0718
 6951TIP3    H120817   6.754   2.660   4.479 -0.2358  1.7922  2.1357
 6951TIP3    H220818   6.800   2.741   4.359  0.5608 -2.4646 -0.6709
 6952TIP3   OH220819   1.346   0.124   3.992 -0.4633  0.4182  0.1516
 6952TIP3    H120820   1.398   0.125   3.911  0.0722 -0.0849  0.4789
 6952TIP3    H220821   1.387   0.057   4.046 -2.0348 -0.6508  0.0684
 6953TIP3   OH220822   6.749   1.283   3.998  0.2041 -0.1859  0.0421
 6953TIP3    H120823   6.781   1.356   4.050 -0.7679 -1.5038  2.6261
 6953TIP3    H220824   6.781   1.301   3.909  2.2360  1.9637  1.1223
 6954TIP3   OH220825   4.018   4.133   4.587  0.4216 -0.7558  0.3825
 6954TIP3    H120826   4.043   4.041   4.588  0.4082 -0.7750 -0.5371
 6954TIP3    H220827   3.994   4.153   4.678  0.6173 -1.6007  0.6197
 6955TIP3   OH220828   7.055   4.310   4.959 -0.5673  0.9417 -0.0010
 6955TIP3    H120829   7.103   4.380   5.004 -1.1346 -0.1561  2.4637
 6955TIP3    H220830   6.963   4.333   4.970 -0.7625 -0.1683  0.8740
 6956TIP3   OH220831   1.206   6.433   4.536 -0.2596 -0.0375  0.0823
 6956TIP3    H120832   1.293   6.444   4.575 -0.5850  1.5456  0.4272
 6956TIP3    H220833   1.174   6.522   4.523 -2.2926 -0.5826  0.9904
 6957TIP3   OH220834   3.531   3.392   5.605  0.1272  0.3850 -0.1116
 6957TIP3    H120835   3.610   3.339   5.596 -1.3443 -2.1609  1.0674
 6957TIP3    H220836   3.547   3.445   5.683  0.4030 -0.6782  0.5742
 6958TIP3   OH220837   5.227   0.625   3.370 -0.4511  0.3245  0.6659
 6958TIP3    H120838   5.145   0.646   3.414  0.2703  1.2506  1.6361
 6958TIP3    H220839   5.230   0.684   3.294 -0.1995  1.0542  1.2351
 6959TIP3   OH220840   7.171   1.756   1.344  0.9405  0.2657  0.0691
 6959TIP3    H120841   7.177   1.674   1.295  1.3836  0.9004 -0.9668
 6959TIP3    H220842   7.262   1.786   1.351  0.7388  0.9008  0.0246
 6960TIP3   OH220843   1.647   3.729   0.569 -0.2096  0.1299  0.0073
 6960TIP3    H120844   1.573   3.790   0.568 -1.9680 -1.8797 -0.2566
 6960TIP3    H220845   1.624   3.663   0.503  1.8518 -0.5806 -0.0838
 6961TIP3   OH220846   5.831   6.553   2.081  0.5316 -0.1342 -0.5447
 6961TIP3    H120847   5.892   6.535   2.010  1.5650  1.2527 -0.0488
 6961TIP3    H220848   5.886   6.567   2.158 -0.5164 -0.6907  0.3454
 6962TIP3   OH220849   3.396   1.071   5.492 -0.3779 -0.0497 -0.4672
 6962TIP3    H120850   3.317   1.030   5.528 -1.1471  0.3131 -1.6879
 6962TIP3    H220851   3.369   1.160   5.472  0.1367 -0.1396 -1.5860
 6963TIP3   OH220852   0.234   1.091   3.714  0.1662 -0.6396  0.3463
 6963TIP3    H120853   0.190   1.073   3.797  0.4005 -0.5058  0.5002
 6963TIP3    H220854   0.192   1.170   3.681  0.8584 -0.0231  0.9049
 6964TIP3   OH220855   4.277   0.281   2.821  0.1550 -0.5026  0.1635
 6964TIP3    H120856   4.319   0.196   2.806  0.8072 -0.1493 -0.0964
 6964TIP3    H220857   4.201   0.280   2.763  0.2911 -0.8167 -0.0176
 6965TIP3   OH220858   2.449   4.467   5.869  0.1000  0.0384  0.1153
 6965TIP3    H120859   2.509   4.541   5.866  0.7262 -0.4819 -2.6404
 6965TIP3    H220860   2.362   4.506   5.858  0.4430  0.4135 -1.6004
 6966TIP3   OH220861   1.794   5.409   1.860 -0.4874  0.3378  0.8728
 6966TIP3    H120862   1.786   5.362   1.943 -0.8947 -2.7763 -0.7880
 6966TIP3    H220863   1.886   5.397   1.834 -1.3353 -2.7882 -1.2017
 6967TIP3   OH220864   4.791   3.611   0.070  0.1701 -0.2988 -0.2966
 6967TIP3    H120865   4.785   3.581  -0.021 -0.8740  0.5075 -0.5003
 6967TIP3    H220866   4.734   3.688   0.075  0.2785 -0.2749  1.0189
 6968TIP3   OH220867   1.952   4.826   3.356  0.3277  0.6643 -0.2676
 6968TIP3    H120868   1.957   4.920   3.373 -1.3077  0.7790 -0.3072
 6968TIP3    H220869   1.867   4.813   3.314  0.4010 -0.8757 -0.0121
 6969TIP3   OH220870   3.175   3.869   3.929  0.3329  0.0730  0.5999
 6969TIP3    H120871   3.236   3.803   3.964 -1.1520 -1.9933 -0.4922
 6969TIP3    H220872   3.101   3.867   3.990 -0.6421 -0.8659 -0.5574
 6970TIP3   OH220873   1.254   3.778   4.718 -0.7418 -0.2296 -0.0984
 6970TIP3    H120874   1.302   3.696   4.730  1.4395  0.7073 -1.8228
 6970TIP3    H220875   1.225   3.802   4.806 -0.8042 -2.4323  0.5391
 6971TIP3   OH220876   7.099   2.249   5.604 -0.1354 -0.4548 -0.1517
 6971TIP3    H120877   7.151   2.178   5.567  0.7931 -0.1133  0.4698
 6971TIP3    H220878   7.048   2.282   5.530  0.0522 -1.2129 -0.6298
 6972TIP3   OH220879   4.895   3.261   4.546 -0.0636 -0.1214  0.2452
 6972TIP3    H120880   4.831   3.235   4.480 -0.1510 -0.6919  0.5512
 6972TIP3    H220881   4.903   3.356   4.536 -0.4613 -0.1384 -0.2379
 6973TIP3   OH220882   5.036   2.293   1.348  0.3361  0.0466 -0.0980
 6973TIP3    H120883   4.959   2.258   1.303  0.5387  0.9322 -1.1735
 6973TIP3    H220884   5.101   2.222   1.344 -0.7742 -1.2180  1.9573
 6974TIP3   OH220885   3.300   2.943   1.673 -0.4671 -0.2284 -0.1896
 6974TIP3    H120886   3.271   2.900   1.753  2.5017 -0.9607  0.6236
 6974TIP3    H220887   3.357   3.014   1.703 -1.9070  1.6541 -1.6335
 6975TIP3   OH220888   6.291   2.436   5.076 -0.3681  0.2329 -0.1101
 6975TIP3    H120889   6.235   2.414   5.150 -0.1355  1.6138  0.5149
 6975TIP3    H220890   6.277   2.366   5.012 -3.0011  0.6631 -0.0906
 6976TIP3   OH220891   5.114   3.769   1.655  0.0084  0.2341 -0.0318
 6976TIP3    H120892   5.185   3.784   1.718  1.7723  2.7308 -2.3659
 6976TIP3    H220893   5.042   3.824   1.687  0.3470  0.3274  0.5884
 6977TIP3   OH220894   6.122   5.291   4.596 -0.2594  0.0878 -0.4513
 6977TIP3    H120895   6.197   5.263   4.543  1.3397 -1.6852  2.4522
 6977TIP3    H220896   6.115   5.385   4.582  0.4594 -0.1952 -3.1886
 6978TIP3   OH220897   1.140   2.253   4.371 -0.6324  0.3011 -0.3829
 6978TIP3    H120898   1.152   2.215   4.284 -0.9135 -1.3439  0.2634
 6978TIP3    H220899   1.047   2.244   4.389 -0.0422 -4.0604  2.0027
 6979TIP3   OH220900   4.669   2.864   2.956  0.0176  0.2475  0.2500
 6979TIP3    H120901   4.667   2.925   2.882  2.4146 -1.3121 -1.2229
 6979TIP3    H220902   4.751   2.817   2.946 -2.3317 -4.4120  0.2831
 6980TIP3   OH220903   0.919   3.667   2.243 -0.5518  0.3416  0.1211
 6980TIP3    H120904   0.879   3.580   2.237 -2.2940  1.1132 -0.2471
 6980TIP3    H220905   0.931   3.694   2.152 -0.7062  0.7643  0.2226
 6981TIP3   OH220906   6.183   1.079   5.676 -0.5576  0.0133 -0.2703
 6981TIP3    H120907   6.172   1.016   5.748 -1.5850  0.3280 -0.1325
 6981TIP3    H220908   6.229   1.030   5.608 -0.8294 -0.7120  0.0621
 6982TIP3   OH220909   5.149   4.177   5.263 -0.5206 -0.6774 -0.3733
 6982TIP3    H120910   5.162   4.266   5.296 -0.4004 -0.5065 -0.8674
 6982TIP3    H220911   5.237   4.148   5.238 -0.6404 -0.6969 -0.7884
 6983TIP3   OH220912   5.111   6.761   5.877  0.5163 -0.3345  0.1345
 6983TIP3    H120913   5.072   6.715   5.803 -1.4770 -1.8086  1.9800
 6983TIP3    H220914   5.173   6.698   5.914  0.4114 -0.1829  0.5758
 6984TIP3   OH220915   1.309   2.014   1.416  0.2999 -0.0026  0.4390
 6984TIP3    H120916   1.269   1.931   1.390 -0.2679  0.3837  0.0461
 6984TIP3    H220917   1.391   1.990   1.458 -0.2671 -0.8131  1.1154
 6985TIP3   OH220918   4.836   6.337   2.632 -0.4016  0.2679  0.5811
 6985TIP3    H120919   4.813   6.302   2.718 -0.9407 -1.4387 -0.2136
 6985TIP3    H220920   4.924   6.373   2.644  0.0713 -1.1000  1.5476
 6986TIP3   OH220921   6.246   4.484   0.973  0.2016 -0.7057  0.4305
 6986TIP3    H120922   6.205   4.546   1.033  0.2626 -0.8053  0.5754
 6986TIP3    H220923   6.247   4.530   0.889  0.0371 -0.6007  0.4859
 6987TIP3   OH220924   2.602   5.111   4.701 -0.4462 -0.0236 -0.3263
 6987TIP3    H120925   2.592   5.078   4.611 -0.5462  0.4306 -0.4866
 6987TIP3    H220926   2.685   5.074   4.731 -0.1375  0.2713 -0.8062
 6988TIP3   OH220927   2.613   2.695   2.531 -0.5127  0.4708  0.0543
 6988TIP3    H120928   2.616   2.716   2.437  0.5560  0.6626  0.1179
 6988TIP3    H220929   2.522   2.710   2.556 -1.1719 -1.0760 -1.2801
 6989TIP3   OH220930   2.702   6.594   0.194 -0.2290  0.2882  0.4479
 6989TIP3    H120931   2.753   6.592   0.113 -2.4555 -0.8888 -1.0323
 6989TIP3    H220932   2.709   6.684   0.224  3.7082 -0.0626  1.0985
 6990TIP3   OH220933   4.649   3.288   3.953 -0.1727  0.8109 -0.0847
 6990TIP3    H120934   4.586   3.273   3.882 -1.4848  1.4858  0.8912
 6990TIP3    H220935   4.706   3.357   3.921 -0.4736  0.8007 -0.6542
 6991TIP3   OH220936   3.404   4.053   1.672  0.0183 -0.2943 -0.2704
 6991TIP3    H120937   3.461   4.116   1.629 -1.4991 -0.5143 -2.7841
 6991TIP3    H220938   3.395   4.086   1.762  2.4816  0.7722 -0.3451
 6992TIP3   OH220939   0.210   4.781   3.810  0.5517  0.2075  0.2056
 6992TIP3    H120940   0.242   4.865   3.844 -0.9118  1.1118 -0.4961
 6992TIP3    H220941   0.281   4.719   3.826  1.2534  1.3309  1.7537
 6993TIP3   OH220942   4.441   1.154   5.652 -0.7326  0.3268  0.1607
 6993TIP3    H120943   4.363   1.138   5.600 -0.2835 -1.3144 -0.0615
 6993TIP3    H220944   4.469   1.068   5.682  0.0358  1.0460  1.6607
 6994TIP3   OH220945   5.712   1.531   1.057  0.2117  0.3178  0.0638
 6994TIP3    H120946   5.702   1.445   1.017  1.6222  0.3302 -0.3804
 6994TIP3    H220947   5.780   1.518   1.123 -1.0229  0.6379  1.4537
 6995TIP3   OH220948   3.224   5.728   2.333 -0.5332 -0.4005 -0.6303
 6995TIP3    H120949   3.256   5.668   2.265 -3.2942 -1.2686 -1.2705
 6995TIP3    H220950   3.200   5.671   2.405 -1.7794  0.0731 -0.6573
 6996TIP3   OH220951   4.824   0.844   2.402 -0.3407 -0.2453  0.1127
 6996TIP3    H120952   4.885   0.787   2.449  1.3282  0.9092 -0.5370
 6996TIP3    H220953   4.771   0.884   2.471  0.4764 -0.3449  0.8227
 6997TIP3   OH220954   4.852   4.750   1.473 -0.3644 -0.2329 -0.1684
 6997TIP3    H120955   4.937   4.790   1.455 -0.8519  1.3114  0.7933
 6997TIP3    H220956   4.811   4.808   1.537 -2.1194 -0.9857 -0.5496
 6998TIP3   OH220957   0.175   6.298   0.641  0.3188  0.1231  0.9115
 6998TIP3    H120958   0.267   6.283   0.621  0.5606  0.8308  1.4044
 6998TIP3    H220959   0.146   6.360   0.575  0.3197  0.2253  1.0053
 6999TIP3   OH220960   5.656   3.645   1.833 -0.6008  0.1026  0.2328
 6999TIP3    H120961   5.645   3.737   1.859  1.3901  0.0269  1.5443
 6999TIP3    H220962   5.568   3.608   1.841 -1.1161  1.4805  1.4023
 7000TIP3   OH220963   5.899   0.246   2.500 -0.0138 -0.2240  0.3810
 7000TIP3    H120964   5.814   0.226   2.539 -0.2615  0.9446  0.4541
 7000TIP3    H220965   5.932   0.320   2.549 -0.7971  1.9907 -2.1685
 7001TIP3   OH220966   2.515   2.686   4.386 -0.3765  0.4061 -0.4262
 7001TIP3    H120967   2.580   2.641   4.440  0.9776  0.6300 -1.7869
 7001TIP3    H220968   2.518   2.777   4.416 -1.3505  0.1045  0.6731
 7002TIP3   OH220969   3.801   4.680   2.394  0.5797  0.6750  0.2681
 7002TIP3    H120970   3.756   4.762   2.413 -2.5215 -1.0793  1.1144
 7002TIP3    H220971   3.810   4.637   2.479  2.3773  0.1450 -0.1320
 7003TIP3   OH220972   1.399   1.396   1.698 -0.1560  0.3487 -0.0769
 7003TIP3    H120973   1.468   1.459   1.677 -0.7398  0.8477 -0.5174
 7003TIP3    H220974   1.348   1.438   1.767 -0.5134  0.3324 -0.3316
 7004TIP3   OH220975   5.082   2.350   3.365  0.2020  0.0502  0.7818
 7004TIP3    H120976   5.067   2.334   3.271  2.5028 -0.5952  0.4720
 7004TIP3    H220977   5.082   2.263   3.404 -0.4134  0.2979  1.3480
 7005TIP3   OH220978   1.586   3.569   4.218  0.3755  1.1047  0.3855
 7005TIP3    H120979   1.669   3.535   4.253 -0.2755 -1.5249 -0.3845
 7005TIP3    H220980   1.604   3.583   4.125 -0.2991 -0.6620 -0.0546
 7006TIP3   OH220981   0.416   6.545   4.565 -0.1030  0.1648  0.0913
 7006TIP3    H120982   0.365   6.513   4.640 -0.9143  0.0155 -0.5136
 7006TIP3    H220983   0.450   6.630   4.593 -0.5518  0.1915  0.5657
 7007TIP3   OH220984   0.206   5.649   2.680  0.4450  0.0865 -0.9070
 7007TIP3    H120985   0.191   5.737   2.714  1.0377  0.3019 -1.2049
 7007TIP3    H220986   0.209   5.594   2.758  3.9399  0.8592 -0.3389
 7008TIP3   OH220987   4.458   5.932   1.854 -0.2748  0.0908 -0.0367
 7008TIP3    H120988   4.465   5.945   1.760  1.3760  1.1311  0.1815
 7008TIP3    H220989   4.548   5.940   1.886 -0.9166  0.7063  1.7373
 7009TIP3   OH220990   4.237   2.409   5.820 -0.3619  0.1277 -0.1037
 7009TIP3    H120991   4.261   2.448   5.904  1.3703  0.2170 -0.6117
 7009TIP3    H220992   4.143   2.424   5.813 -0.0938  2.4772  0.6048
 7010TIP3   OH220993   0.906   5.485   0.378  0.1809 -0.8528 -0.2815
 7010TIP3    H120994   0.819   5.456   0.404  0.1866 -1.0354 -0.4671
 7010TIP3    H220995   0.923   5.562   0.433 -0.8003  0.2473 -1.4379
 7011TIP3   OH220996   0.091   6.644   5.825  0.1509  0.3649  0.0380
 7011TIP3    H120997   0.162   6.647   5.761 -0.3957  1.6795 -0.5578
 7011TIP3    H220998   0.014   6.675   5.776 -1.0355 -1.7557  0.4254
 7012TIP3   OH220999   5.355   5.264   0.533 -0.1424  0.2637  0.0684
 7012TIP3    H121000   5.395   5.336   0.581 -1.0484  0.0459  1.1928
 7012TIP3    H221001   5.262   5.287   0.528 -0.6166 -1.2137  1.2589
 7013TIP3   OH221002   2.354   5.877   0.085  0.0261 -0.1479  0.1693
 7013TIP3    H121003   2.428   5.822   0.109 -1.1398 -1.5643  0.6474
 7013TIP3    H221004   2.374   5.962   0.125  1.2207 -0.5979  0.5770
 7014TIP3   OH221005   5.887   0.677   3.811  0.7561 -0.4852  0.0751
 7014TIP3    H121006   5.905   0.627   3.890  1.0647  0.0922  0.3718
 7014TIP3    H221007   5.926   0.763   3.827 -1.8275  0.6872  0.5713
 7015TIP3   OH221008   7.003   4.251   5.484  0.6516  0.3630 -0.2569
 7015TIP3    H121009   7.024   4.342   5.504 -0.2140  0.3218  0.9680
 7015TIP3    H221010   7.045   4.202   5.555  4.0359 -0.5753 -2.6690
 7016TIP3   OH221011   5.176   4.410   0.532  0.1142 -0.3475 -0.0719
 7016TIP3    H121012   5.133   4.438   0.613  0.9997  0.5102  0.1282
 7016TIP3    H221013   5.200   4.491   0.488 -0.0466 -0.8089 -1.0373
 7017TIP3   OH221014   5.733   6.182   3.512  0.0186  0.6096 -0.2657
 7017TIP3    H121015   5.674   6.153   3.441 -0.2510  0.0075  0.1923
 7017TIP3    H221016   5.674   6.196   3.586  0.3616  0.7727 -0.0281
 7018TIP3   OH221017   3.225   3.167   1.383 -0.4655 -0.4574 -0.2903
 7018TIP3    H121018   3.151   3.107   1.381 -0.0961 -1.0239  1.3587
 7018TIP3    H221019   3.203   3.234   1.319 -1.1914 -1.9899 -1.7185
 7019TIP3   OH221020   0.849   0.854   3.866  0.0311  0.2730 -0.1073
 7019TIP3    H121021   0.771   0.880   3.916 -0.4896  1.0795 -1.2779
 7019TIP3    H221022   0.855   0.760   3.878 -0.7395  0.2970  0.5624
 7020TIP3   OH221023   2.840   0.258   1.214  0.5209 -0.4651  0.1416
 7020TIP3    H121024   2.810   0.305   1.136  1.0667 -0.2690  0.0437
 7020TIP3    H221025   2.790   0.296   1.286  0.7743  0.0959  0.0287
 7021TIP3   OH221026   3.547   2.644   2.624  0.5179  0.7285  0.5670
 7021TIP3    H121027   3.492   2.693   2.684 -0.7436  1.5290 -1.1378
 7021TIP3    H221028   3.488   2.580   2.584  1.7374 -1.0212  1.4468
 7022TIP3   OH221029   1.458   0.889   0.246  0.2726 -0.5018 -0.3448
 7022TIP3    H121030   1.374   0.846   0.256 -0.0863 -0.3943 -2.4389
 7022TIP3    H221031   1.472   0.892   0.152  2.5008 -0.2576 -0.0518
 7023TIP3   OH221032   4.038   3.455   1.719 -0.0552  0.5313  0.6135
 7023TIP3    H121033   4.092   3.533   1.730 -0.4912  0.7571  1.2299
 7023TIP3    H221034   3.995   3.467   1.634 -0.0906  0.9460  0.6878
 7024TIP3   OH221035   1.088   0.794   2.478 -0.1955  0.0982  0.3385
 7024TIP3    H121036   1.029   0.718   2.476  0.0661 -0.1213 -1.3570
 7024TIP3    H221037   1.105   0.813   2.385  0.5815  1.5862  0.7481
 7025TIP3   OH221038   4.969   3.175   1.626 -0.1806 -0.4623 -0.0616
 7025TIP3    H121039   4.997   3.260   1.659  1.0071 -0.8778  0.0465
 7025TIP3    H221040   4.884   3.192   1.587 -1.2207  0.2541  2.3205
 7026TIP3   OH221041   3.087   2.620   0.437  0.3591 -0.4568 -0.5999
 7026TIP3    H121042   3.111   2.699   0.486 -0.3939  0.2339 -1.3097
 7026TIP3    H221043   3.087   2.647   0.345  2.0313 -1.8091 -1.0477
 7027TIP3   OH221044   2.239   5.293   4.276  0.1345 -0.1882  0.5844
 7027TIP3    H121045   2.190   5.375   4.276 -0.7998 -0.7392  0.6954
 7027TIP3    H221046   2.280   5.289   4.190 -1.4683 -0.5783 -0.1825
 7028TIP3   OH221047   5.590   1.348   0.190  0.3796  0.0486 -0.4623
 7028TIP3    H121048   5.499   1.366   0.213  0.7165  0.8319  0.3348
 7028TIP3    H221049   5.599   1.382   0.101  0.5314  2.4016  0.3747
 7029TIP3   OH221050   6.230   3.310   3.394 -0.4300 -0.5996  0.1266
 7029TIP3    H121051   6.246   3.322   3.301  0.9992  1.2780  0.5682
 7029TIP3    H221052   6.267   3.224   3.414  1.2683 -0.0892 -0.6466
 7030TIP3   OH221053   0.508   6.383   3.378 -0.0655  0.0825  0.8551
 7030TIP3    H121054   0.413   6.381   3.389 -0.3644 -0.2098 -1.2624
 7030TIP3    H221055   0.532   6.475   3.391 -1.1509  0.8242 -1.6018
 7031TIP3   OH221056   1.637   0.419   3.734  0.6235  0.6550 -0.1075
 7031TIP3    H121057   1.561   0.406   3.677 -0.0697  0.7068  0.7850
 7031TIP3    H221058   1.711   0.387   3.683 -0.0582  0.1975 -0.8265
 7032TIP3   OH221059   6.915   4.978   4.651  0.0838  0.3799 -0.1786
 7032TIP3    H121060   6.980   4.946   4.714 -2.0342 -1.7700  1.1175
 7032TIP3    H221061   6.951   4.954   4.565  1.0636 -0.6656  0.4957
 7033TIP3   OH221062   2.709   4.349   3.209  0.0058  0.3081 -0.0566
 7033TIP3    H121063   2.664   4.355   3.125 -0.0362 -0.7123 -0.1188
 7033TIP3    H221064   2.800   4.373   3.190  0.0471 -0.1434 -0.4407
 7034TIP3   OH221065   5.964   2.559   0.768 -0.0557  0.3552 -0.2905
 7034TIP3    H121066   6.010   2.476   0.750 -0.8705  0.2618 -2.1904
 7034TIP3    H221067   5.921   2.545   0.852  0.2914 -0.9464 -0.3054
 7035TIP3   OH221068   2.605   2.779   4.844  0.2513  0.0793  0.6932
 7035TIP3    H121069   2.553   2.728   4.907 -2.0097  1.4375  0.0406
 7035TIP3    H221070   2.672   2.821   4.898 -0.4641 -0.2930  1.9228
 7036TIP3   OH221071   0.293   1.574   1.336 -0.5977  0.3408 -0.2060
 7036TIP3    H121072   0.263   1.486   1.311 -0.5499  0.4532 -0.6623
 7036TIP3    H221073   0.308   1.618   1.253 -0.7435  0.8254  0.0245
 7037TIP3   OH221074   2.025   0.847   1.124  0.3115  0.1479 -0.1755
 7037TIP3    H121075   2.039   0.757   1.152 -1.8842 -0.7064 -1.5857
 7037TIP3    H221076   2.105   0.870   1.076  0.9427 -0.9876  0.3173
 7038TIP3   OH221077   5.773   4.951   3.984  0.0446 -0.0658 -0.1572
 7038TIP3    H121078   5.742   5.038   3.958  0.3719  0.2682  0.5393
 7038TIP3    H221079   5.861   4.967   4.019  2.1746 -1.2793 -4.3097
 7039TIP3   OH221080   2.024   1.615   2.654 -0.1673 -0.1898 -0.4011
 7039TIP3    H121081   2.074   1.631   2.734 -0.2561  0.4073 -0.4594
 7039TIP3    H221082   1.953   1.558   2.682  0.3778 -0.8069 -0.2598
 7040TIP3   OH221083   5.390   3.398   4.476 -0.1074  0.2981 -0.1860
 7040TIP3    H121084   5.444   3.392   4.398  0.0389 -0.1965 -0.0510
 7040TIP3    H221085   5.322   3.331   4.463  0.6799 -0.7129  0.6867
 7041TIP3   OH221086   2.572   1.300   3.178 -0.0784  0.3436  0.2585
 7041TIP3    H121087   2.489   1.332   3.143 -0.5714 -1.5187 -0.4081
 7041TIP3    H221088   2.615   1.257   3.104  1.1301  0.5980  0.7787
 7042TIP3   OH221089   0.051   4.067   4.100 -0.2945  0.4702 -0.5813
 7042TIP3    H121090   0.073   4.020   4.181 -1.1551 -0.5009 -0.8953
 7042TIP3    H221091   0.068   4.004   4.030 -0.4877  0.9749 -1.0919
 7043TIP3   OH221092   5.288   5.022   2.754  0.4891  0.5026 -0.0496
 7043TIP3    H121093   5.369   5.011   2.805  0.7584 -0.6081 -0.6867
 7043TIP3    H221094   5.313   5.078   2.681  0.3945  1.1191  0.3891
 7044TIP3   OH221095   4.271   1.413   0.731  0.2489  0.1646  0.1663
 7044TIP3    H121096   4.217   1.449   0.660 -1.2964 -1.5409  0.3941
 7044TIP3    H221097   4.208   1.374   0.791  1.6983 -1.1841  0.8850
 7045TIP3   OH221098   5.862   3.760   0.288 -0.3869  0.0191  0.1522
 7045TIP3    H121099   5.837   3.702   0.360  0.1494 -0.0713  0.2632
 7045TIP3    H221100   5.905   3.702   0.225 -0.2118  0.2257  0.0835
 7046TIP3   OH221101   0.986   3.494   4.241  0.2697  0.4753 -0.0198
 7046TIP3    H121102   0.965   3.453   4.157 -1.1152  0.3174  0.3846
 7046TIP3    H221103   1.065   3.447   4.271  0.7123  0.4561 -1.1544
 7047TIP3   OH221104   3.083   0.339   5.319  0.1155 -0.1206 -0.3085
 7047TIP3    H121105   3.143   0.270   5.290  0.3307  0.0181 -0.1994
 7047TIP3    H221106   2.996   0.303   5.303  0.2094 -0.8253  0.6681
 7048TIP3   OH221107   5.279   3.482   5.540  0.0566  0.3955  0.1575
 7048TIP3    H121108   5.326   3.466   5.458 -0.5556 -1.2980  0.0979
 7048TIP3    H221109   5.226   3.404   5.552 -0.3566  0.9098  1.8452
 7049TIP3   OH221110   5.569   6.502   2.967 -0.1830 -0.0697  0.2126
 7049TIP3    H121111   5.562   6.449   3.046 -1.7738  0.8765  0.7437
 7049TIP3    H221112   5.485   6.490   2.922 -0.9455  2.5375  0.7473
 7050TIP3   OH221113   2.644   3.765   2.805 -0.0535  0.1272 -0.0815
 7050TIP3    H121114   2.605   3.720   2.730  0.2184  0.9273 -0.7189
 7050TIP3    H221115   2.719   3.711   2.830  0.4649  0.3829 -1.0431
 7051TIP3   OH221116   5.250   4.655   5.168 -0.2961  0.1438  0.1959
 7051TIP3    H121117   5.345   4.640   5.163 -0.4190 -0.2382 -1.5536
 7051TIP3    H221118   5.234   4.727   5.108 -1.3061 -0.8645 -0.7842
 7052TIP3   OH221119   6.611   4.498   3.533 -0.2264  0.0706  0.4008
 7052TIP3    H121120   6.534   4.533   3.579 -0.2705  1.5767 -0.7403
 7052TIP3    H221121   6.594   4.514   3.441  0.4822 -1.6401 -0.0724
 7053TIP3   OH221122   6.652   2.742   2.329 -0.4192  0.3475 -0.1334
 7053TIP3    H121123   6.695   2.812   2.281  0.3160  0.0213  0.0290
 7053TIP3    H221124   6.571   2.725   2.281 -0.9022  1.6898  0.1579
 7054TIP3   OH221125   6.566   4.677   5.794  0.6880 -0.2494 -0.2263
 7054TIP3    H121126   6.481   4.634   5.798  0.5137  0.0207 -0.8626
 7054TIP3    H221127   6.573   4.708   5.703  0.9829  0.6935  0.1070
 7055TIP3   OH221128   3.534   3.733   1.734 -0.0750 -0.3324 -0.6104
 7055TIP3    H121129   3.480   3.782   1.795 -1.3791 -0.6105 -1.5115
 7055TIP3    H221130   3.561   3.798   1.668 -1.9993 -0.8150 -1.9363
 7056TIP3   OH221131   6.171   3.913   2.867 -0.4196 -0.8497 -0.0499
 7056TIP3    H121132   6.152   4.005   2.886  0.0070 -0.7224 -0.2143
 7056TIP3    H221133   6.243   3.891   2.927  0.8951 -0.4611 -1.4050
 7057TIP3   OH221134   5.996   1.732   1.915 -0.9642 -0.2679 -0.0671
 7057TIP3    H121135   6.049   1.759   1.990 -0.7387 -0.0332 -0.3070
 7057TIP3    H221136   5.906   1.730   1.948 -1.1071  1.5880 -0.2455
 7058TIP3   OH221137   2.637   5.807   0.206 -0.2484 -0.1018 -0.5137
 7058TIP3    H121138   2.580   5.751   0.258 -1.1390  1.6603  0.5106
 7058TIP3    H221139   2.710   5.829   0.265  1.7975 -2.6005 -1.9106
 7059TIP3   OH221140   0.389   4.298   1.638 -0.1918 -0.2104  0.8765
 7059TIP3    H121141   0.359   4.212   1.608  1.0902  0.0952 -1.4731
 7059TIP3    H221142   0.339   4.361   1.587  2.2899  0.3218 -1.1252
 7060TIP3   OH221143   5.840   2.654   3.108 -0.2679  0.0117 -0.2713
 7060TIP3    H121144   5.827   2.575   3.160 -0.0533  0.7596  0.9675
 7060TIP3    H221145   5.906   2.703   3.157 -0.7167  1.1533 -0.7925
 7061TIP3   OH221146   0.785   4.190   3.050 -0.1451  0.0075  0.2224
 7061TIP3    H121147   0.795   4.284   3.069  0.0046 -0.1449  0.9422
 7061TIP3    H221148   0.791   4.148   3.136  0.5778 -0.7302 -0.1752
 7062TIP3   OH221149   1.562   2.124   4.248 -0.2385  0.0533 -0.5733
 7062TIP3    H121150   1.622   2.197   4.260  0.6348 -0.7093 -0.1490
 7062TIP3    H221151   1.615   2.056   4.206 -1.2766 -0.0195 -1.8403
 7063TIP3   OH221152   4.427   2.720   2.909 -0.4863 -0.3383  0.5992
 7063TIP3    H121153   4.454   2.683   2.825  0.1833 -1.0647  1.1215
 7063TIP3    H221154   4.505   2.764   2.942 -1.7081  3.2124 -0.8294
 7064TIP3   OH221155   5.508   5.456   0.709 -0.2857  0.7054  0.3489
 7064TIP3    H121156   5.567   5.416   0.774  0.1920  0.6985 -0.0892
 7064TIP3    H221157   5.564   5.476   0.635 -0.8060  0.8654 -0.0028
 7065TIP3   OH221158   1.645   3.478   3.365 -0.1257 -0.0844 -0.3391
 7065TIP3    H121159   1.671   3.560   3.406  0.6609  0.1005 -1.1747
 7065TIP3    H221160   1.595   3.504   3.287 -0.6800 -0.4120 -0.0984
 7066TIP3   OH221161   0.084   3.722   1.542 -0.1652  0.2254  0.1969
 7066TIP3    H121162   0.121   3.720   1.453  0.6861  0.8407  0.5154
 7066TIP3    H221163   0.161   3.726   1.599 -0.7142  1.4384  0.8898
 7067TIP3   OH221164   5.482   4.568   3.631  0.2043 -0.3569 -0.3041
 7067TIP3    H121165   5.439   4.483   3.641  1.0876 -0.6941  0.7822
 7067TIP3    H221166   5.574   4.547   3.613  0.5181  0.3643  0.4027
 7068TIP3   OH221167   3.804   1.694   5.041 -0.2483  0.0416 -0.0890
 7068TIP3    H121168   3.728   1.668   5.094 -0.2818 -0.2477 -0.2776
 7068TIP3    H221169   3.796   1.642   4.961  0.2060 -0.0585 -0.0677
 7069TIP3   OH221170   5.363   4.588   0.708  0.2061  0.7423 -0.1750
 7069TIP3    H121171   5.391   4.508   0.753 -0.7150  0.9790  0.8617
 7069TIP3    H221172   5.270   4.595   0.728 -0.2354  0.8686 -2.1542
 7070TIP3   OH221173   0.156   1.328   0.017 -0.3857  0.0012  0.4744
 7070TIP3    H121174   0.245   1.355  -0.003 -0.0768 -1.3634 -0.1365
 7070TIP3    H221175   0.102   1.404  -0.003  0.2288 -0.2978 -2.9176
 7071TIP3   OH221176   6.328   1.481   1.593  0.0895 -0.2703 -0.9391
 7071TIP3    H121177   6.292   1.528   1.669  3.4275 -0.8090  1.1688
 7071TIP3    H221178   6.253   1.432   1.559 -1.7792  0.6245  1.4967
 7072TIP3   OH221179   5.058   2.573   0.556  0.4524  0.1439 -0.4138
 7072TIP3    H121180   5.006   2.558   0.635  2.1782  0.5383  0.8684
 7072TIP3    H221181   5.012   2.643   0.510  0.6304  1.6026  1.4871
 7073TIP3   OH221182   5.960   3.067   1.935 -0.9212 -0.4889 -0.2151
 7073TIP3    H121183   5.947   3.161   1.944 -1.0252 -0.4399 -0.8296
 7073TIP3    H221184   6.042   3.058   1.887 -0.4544 -0.7330  0.6190
 7074TIP3   OH221185   1.664   5.304   1.318 -0.3347  0.2897 -0.2084
 7074TIP3    H121186   1.756   5.303   1.292 -0.2392  0.0007  0.1314
 7074TIP3    H221187   1.644   5.397   1.330 -0.8157  0.5829 -2.7522
 7075TIP3   OH221188   4.103   1.502   0.525 -0.2509 -0.5636 -0.7735
 7075TIP3    H121189   4.165   1.572   0.506 -1.1534  1.5422  3.0955
 7075TIP3    H221190   4.017   1.545   0.527 -0.7415 -1.3746  2.5439
 7076TIP3   OH221191   5.553   5.202   1.878  0.3380 -0.9979 -0.1964
 7076TIP3    H121192   5.585   5.182   1.790 -0.2315  3.2624 -1.5832
 7076TIP3    H221193   5.631   5.229   1.926  0.3212 -1.0225 -0.1555
 7077TIP3   OH221194   5.735   2.211   5.707 -0.1890 -0.3882  0.0938
 7077TIP3    H121195   5.770   2.167   5.785  0.1389  2.0218  1.4062
 7077TIP3    H221196   5.720   2.301   5.735  2.8517  1.4942 -3.3884
 7078TIP3   OH221197   6.989   1.038   3.767 -0.5096 -0.1324 -0.4270
 7078TIP3    H121198   7.005   0.953   3.809  1.2508 -0.2081 -1.1833
 7078TIP3    H221199   7.019   1.027   3.677  1.7282  1.8363 -0.0360
 7079TIP3   OH221200   5.370   2.158   1.856 -0.1528  0.0375 -0.0245
 7079TIP3    H121201   5.444   2.212   1.885  0.4470 -0.1469 -1.1256
 7079TIP3    H221202   5.294   2.215   1.865  0.2764  0.6002  0.1213
 7080TIP3   OH221203   6.024   4.255   2.405  0.1727  0.5911  0.0746
 7080TIP3    H121204   5.936   4.281   2.432  0.0432  0.4583 -0.2137
 7080TIP3    H221205   6.083   4.305   2.462 -0.0693  1.3386 -0.3220
 7081TIP3   OH221206   4.373   3.872   1.194 -0.3934 -0.0753 -0.3068
 7081TIP3    H121207   4.385   3.955   1.240 -1.4784  0.3940 -0.8328
 7081TIP3    H221208   4.287   3.879   1.153  0.4962 -0.4711 -2.3847
 7082TIP3   OH221209   0.477   3.599   0.852  0.3774  0.4043  0.0454
 7082TIP3    H121210   0.498   3.639   0.768  1.5814 -0.2305  0.0048
 7082TIP3    H221211   0.562   3.565   0.883 -0.4857 -1.6962  0.2626
 7083TIP3   OH221212   4.557   2.417   3.674  0.2339 -0.4239  0.1734
 7083TIP3    H121213   4.587   2.461   3.595 -1.8566 -0.0747 -0.4852
 7083TIP3    H221214   4.564   2.484   3.743  2.0998 -0.7453  0.3236
 7084TIP3   OH221215   0.111   4.857   1.347  0.1461 -0.2651 -0.1036
 7084TIP3    H121216   0.136   4.822   1.262 -0.3013 -0.4937 -0.1421
 7084TIP3    H221217   0.056   4.932   1.327  1.1956  0.5556 -0.0224
 7085TIP3   OH221218   6.959   0.116   3.643  0.2866  0.1586 -0.4168
 7085TIP3    H121219   6.988   0.199   3.604  1.4473 -0.5999 -1.2150
 7085TIP3    H221220   6.919   0.068   3.570 -0.3607  0.0058  0.0354
 7086TIP3   OH221221   2.829   3.706   4.801  0.6462  0.2284 -0.4794
 7086TIP3    H121222   2.865   3.629   4.845  0.8368  0.4174 -0.3015
 7086TIP3    H221223   2.812   3.677   4.711  2.2961  0.4475 -0.8828
 7087TIP3   OH221224   0.484   6.098   1.648 -0.0433 -0.1650  0.5401
 7087TIP3    H121225   0.525   6.011   1.644 -0.3693 -0.2703 -1.9020
 7087TIP3    H221226   0.535   6.145   1.715  1.0239 -1.7756  0.9243
 7088TIP3   OH221227   5.757   6.167   4.546 -0.4661  0.0478  0.1568
 7088TIP3    H121228   5.707   6.218   4.609 -0.0392  1.3106 -0.4834
 7088TIP3    H221229   5.790   6.232   4.483  0.4781 -0.9599 -0.4375
 7089TIP3   OH221230   2.135   0.208   5.770 -0.1051  0.2153 -0.3674
 7089TIP3    H121231   2.199   0.256   5.717  1.2713 -0.2171  0.8493
 7089TIP3    H221232   2.063   0.270   5.781  0.2403  0.8504 -1.4617
 7090TIP3   OH221233   1.194   4.081   4.123 -0.1456  0.2243 -0.2677
 7090TIP3    H121234   1.274   4.061   4.172 -0.3853 -0.8687 -0.3051
 7090TIP3    H221235   1.126   4.029   4.166 -0.7497  0.7787 -0.5384
 7091TIP3   OH221236   5.002   3.731   4.304 -0.5988 -0.1814 -0.5491
 7091TIP3    H121237   4.960   3.647   4.289 -0.3685 -0.3317 -0.3627
 7091TIP3    H221238   5.094   3.717   4.281 -0.6601  0.1594 -1.0111
 7092TIP3   OH221239   1.070   4.153   0.647 -0.5394 -0.1768 -0.1478
 7092TIP3    H121240   1.104   4.140   0.736  0.4360 -1.9921 -0.7504
 7092TIP3    H221241   1.132   4.214   0.607  0.2342 -1.0123 -0.2410
 7093TIP3   OH221242   6.344   6.122   1.984  0.1069 -0.1212 -0.5348
 7093TIP3    H121243   6.297   6.048   1.944 -1.5665  0.0394  0.9954
 7093TIP3    H221244   6.348   6.188   1.914 -0.7380 -0.6740 -1.1257
 7094TIP3   OH221245   3.165   6.311   5.088 -0.1469 -0.0174  0.1010
 7094TIP3    H121246   3.215   6.309   5.169  1.5962  0.2987 -0.9164
 7094TIP3    H221247   3.227   6.342   5.022 -1.3739 -0.7009 -1.4494
 7095TIP3   OH221248   2.486   1.863   0.268  0.5614  0.4742 -0.2915
 7095TIP3    H121249   2.416   1.911   0.312 -0.6907  2.1346 -3.7615
 7095TIP3    H221250   2.544   1.931   0.234  0.8054 -0.5815 -2.1388
 7096TIP3   OH221251   4.863   2.788   5.731  0.4603 -0.3517 -0.0099
 7096TIP3    H121252   4.882   2.837   5.651 -1.3495 -0.0581 -0.2938
 7096TIP3    H221253   4.804   2.845   5.781 -0.1061 -1.4096  0.5592
 7097TIP3   OH221254   3.696   3.004   5.330  0.1190  0.2737  0.0776
 7097TIP3    H121255   3.753   2.979   5.258  1.9519  0.9630  1.2053
 7097TIP3    H221256   3.717   3.097   5.345 -0.0648  0.0938  1.5907
 7098TIP3   OH221257   6.653   5.132   3.617 -0.2356 -0.4833  0.1304
 7098TIP3    H121258   6.707   5.056   3.639 -2.0754 -1.7284  0.5335
 7098TIP3    H221259   6.634   5.122   3.524  0.7069  0.3164 -0.1742
 7099TIP3   OH221260   4.272   4.677   4.270  0.5149 -0.0767  0.0975
 7099TIP3    H121261   4.316   4.760   4.252  0.5434 -0.2544 -0.7125
 7099TIP3    H221262   4.343   4.614   4.277  0.5480  0.1019  1.5692
 7100TIP3   OH221263   4.820   4.665   0.529 -0.0917  0.3105 -0.4335
 7100TIP3    H121264   4.739   4.711   0.549 -0.3274  0.1453 -0.9893
 7100TIP3    H221265   4.872   4.672   0.609 -0.2672  1.2432 -0.3823
 7101TIP3   OH221266   5.800   4.908   4.696  0.0354 -0.0605  0.9216
 7101TIP3    H121267   5.851   4.837   4.733 -1.2408 -0.3443  2.2417
 7101TIP3    H221268   5.756   4.948   4.771 -0.3321  1.2497  0.0435
 7102TIP3   OH221269   3.905   4.999   3.811 -0.2482 -0.8967 -0.1761
 7102TIP3    H121270   3.975   5.062   3.830 -0.1893 -1.2089  0.7076
 7102TIP3    H221271   3.829   5.034   3.857 -0.3483 -1.2049 -0.1106
 7103TIP3   OH221272   0.103   2.048   3.201 -0.3213 -0.0034  0.3608
 7103TIP3    H121273   0.132   1.962   3.171 -1.3847 -0.2620  0.0346
 7103TIP3    H221274   0.107   2.043   3.296  0.3812 -0.1389  0.3271
 7104TIP3   OH221275   3.515   5.923   4.442 -0.3176  0.7685 -0.5141
 7104TIP3    H121276   3.481   5.858   4.504  0.0669  0.5861 -0.4895
 7104TIP3    H221277   3.524   5.875   4.359 -1.9983  1.3238 -1.0464
 7105TIP3   OH221278   3.994   1.552   1.732  0.0252  0.2000 -0.5011
 7105TIP3    H121279   3.996   1.558   1.828  0.5383  0.8591 -0.5375
 7105TIP3    H221280   4.079   1.588   1.705  0.3943 -1.1263 -1.1567
 7106TIP3   OH221281   5.800   3.521   0.436 -0.9311 -0.2509 -0.5861
 7106TIP3    H121282   5.882   3.502   0.391 -0.9355 -0.7596 -0.3911
 7106TIP3    H221283   5.735   3.467   0.390 -0.9096 -0.8927  0.1188
 7107TIP3   OH221284   5.493   2.191   0.933  0.0578 -0.1895 -0.6502
 7107TIP3    H121285   5.492   2.101   0.967 -0.3728 -0.8822 -2.3439
 7107TIP3    H221286   5.408   2.200   0.889  1.1315  0.0465 -2.8227
 7108TIP3   OH221287   1.432   2.540   4.339  0.1509 -0.3564  0.5912
 7108TIP3    H121288   1.429   2.484   4.262 -1.1967  0.7749 -0.2266
 7108TIP3    H221289   1.499   2.500   4.395 -1.0368 -3.0602  0.2652
 7109TIP3   OH221290   3.143   2.317   0.945 -0.0349 -0.2841 -0.1174
 7109TIP3    H121291   3.147   2.404   0.905 -0.6350 -0.3616 -0.3599
 7109TIP3    H221292   3.181   2.329   1.032 -1.2270  0.5070  0.3173
 7110TIP3   OH221293   6.311   6.246   3.553 -0.5321 -0.1233 -0.9477
 7110TIP3    H121294   6.399   6.211   3.538 -0.8756 -0.6814 -1.6955
 7110TIP3    H221295   6.306   6.258   3.648 -0.3036 -1.8624 -0.6781
 7111TIP3   OH221296   2.883   4.191   5.673  0.3946  0.1408  0.2958
 7111TIP3    H121297   2.824   4.231   5.610  1.6000 -2.0507 -2.4402
 7111TIP3    H221298   2.968   4.231   5.656  0.5570  0.1979  1.2009
 7112TIP3   OH221299   4.527   0.208   0.836 -0.2745 -0.3184  0.4872
 7112TIP3    H121300   4.540   0.129   0.887  0.8894 -1.8245 -1.9532
 7112TIP3    H221301   4.459   0.185   0.772 -2.2661  1.7422  1.6998
 7113TIP3   OH221302   1.202   3.294   3.366 -0.2157 -0.3271  0.8072
 7113TIP3    H121303   1.191   3.257   3.278 -0.8889  2.6955 -0.4878
 7113TIP3    H221304   1.294   3.276   3.388  0.1169 -0.6609 -0.7370
 7114TIP3   OH221305   6.199   2.678   3.084  0.0480  0.4259  0.1430
 7114TIP3    H121306   6.158   2.592   3.080  0.0270  0.4938 -2.4615
 7114TIP3    H221307   6.273   2.666   3.145 -0.7615 -1.0355  0.8837
 7115TIP3   OH221308   2.817   4.781   0.672  0.6615 -0.0403 -0.1297
 7115TIP3    H121309   2.785   4.772   0.582 -1.9976 -0.7976  0.8097
 7115TIP3    H221310   2.773   4.711   0.720  0.4211  1.5849  2.1653
 7116TIP3   OH221311   3.548   6.152   5.875  0.7217  0.0162  0.5185
 7116TIP3    H121312   3.512   6.193   5.954 -2.1466  2.0431 -1.6310
 7116TIP3    H221313   3.580   6.226   5.823  0.6651 -1.0581 -1.1007
 7117TIP3   OH221314   5.388   5.246   0.255 -0.1331  0.0895  0.5172
 7117TIP3    H121315   5.393   5.236   0.350  0.8110  0.1987  0.4918
 7117TIP3    H221316   5.318   5.309   0.241  1.1454  1.7728  1.2723
 7118TIP3   OH221317   4.751   4.599   2.623  0.5551  0.2924 -0.1401
 7118TIP3    H121318   4.819   4.607   2.556 -0.2788  1.9638 -0.8512
 7118TIP3    H221319   4.693   4.673   2.607 -0.3580  0.0246  1.6842
 7119TIP3   OH221320   5.127   1.683   4.909 -0.3496 -0.2749  0.0209
 7119TIP3    H121321   5.127   1.757   4.971 -0.9230 -0.8733  0.7489
 7119TIP3    H221322   5.220   1.664   4.896 -0.2139 -1.1050  1.8880
 7120TIP3   OH221323   0.932   4.012   4.267  0.3519  0.1507  0.3714
 7120TIP3    H121324   0.984   3.936   4.243 -0.0407 -0.9747  2.7170
 7120TIP3    H221325   0.842   3.983   4.257  0.1517  1.2018 -1.1309
 7121TIP3   OH221326   1.525   0.923   1.933  0.3066 -0.3500 -0.6025
 7121TIP3    H121327   1.443   0.914   1.886  1.4738 -0.2225 -2.7741
 7121TIP3    H221328   1.551   1.014   1.920  0.7665 -0.3592  0.1542
 7122TIP3   OH221329   0.509   0.724   4.973 -0.0453 -0.5109  0.1335
 7122TIP3    H121330   0.563   0.762   5.042 -1.6084 -0.7813  1.5755
 7122TIP3    H221331   0.566   0.722   4.896  2.1526 -1.3402  1.6921
 7123TIP3   OH221332   6.773   0.071   5.524 -0.1736  0.0396  0.0811
 7123TIP3    H121333   6.861   0.042   5.501  0.1597  0.5753  0.6803
 7123TIP3    H221334   6.730   0.086   5.439  0.7134  0.9897 -0.2157
 7124TIP3   OH221335   2.008   1.810   1.701 -0.6549 -0.0776  0.2869
 7124TIP3    H121336   2.081   1.794   1.641 -1.9392 -2.3200 -0.8249
 7124TIP3    H221337   2.044   1.794   1.788  0.9502  2.0619  0.0774
 7125TIP3   OH221338   6.251   4.138   5.162 -0.2511 -0.0679 -0.4719
 7125TIP3    H121339   6.316   4.072   5.188 -0.8011 -1.0757 -1.6130
 7125TIP3    H221340   6.303   4.217   5.146  0.2324  0.4474  2.8219
 7126TIP3   OH221341   3.907   6.493   5.742 -0.2378 -0.0736  0.4595
 7126TIP3    H121342   3.858   6.574   5.751  0.3661  0.6554 -2.1265
 7126TIP3    H221343   3.954   6.502   5.659  1.2685 -2.3242  0.9807
 7127TIP3   OH221344   1.064   5.442   2.880 -0.0696 -0.1793 -0.4901
 7127TIP3    H121345   0.997   5.508   2.898  2.7318  2.6482  0.6534
 7127TIP3    H221346   1.132   5.458   2.946  1.0357 -4.0049 -0.4637
 7128TIP3   OH221347   4.002   6.366   3.525  0.3807  0.4884  0.0726
 7128TIP3    H121348   3.984   6.412   3.608  2.2239  0.8992  0.2765
 7128TIP3    H221349   4.019   6.436   3.463  1.3229  0.1306 -0.0797
 7129TIP3   OH221350   2.160   0.388   3.440  0.2964  0.6177 -0.1756
 7129TIP3    H121351   2.137   0.353   3.526  1.0143  0.9614  0.1659
 7129TIP3    H221352   2.255   0.397   3.442  0.6131 -1.5901 -1.8604
 7130TIP3   OH221353   6.147   5.717   4.316 -0.3740  0.1732 -0.0424
 7130TIP3    H121354   6.190   5.802   4.304 -1.5858  0.8307  0.0591
 7130TIP3    H221355   6.090   5.708   4.240 -1.0074 -0.0698  0.4495
 7131TIP3   OH221356   5.468   3.442   4.215 -0.4198 -0.2762  0.0705
 7131TIP3    H121357   5.502   3.497   4.143 -0.7921  0.0707  0.1564
 7131TIP3    H221358   5.409   3.380   4.172 -1.0399  0.2632  0.1372
 7132TIP3   OH221359   0.073   2.613   0.286 -0.3168 -0.0280  0.0427
 7132TIP3    H121360   0.071   2.540   0.348 -1.7395 -0.0200  0.0368
 7132TIP3    H221361   0.166   2.631   0.274  0.1709 -2.6269 -0.8631
 7133TIP3   OH221362   1.155   0.539   2.018  0.1536 -0.1604 -0.1986
 7133TIP3    H121363   1.161   0.497   1.932 -0.5488 -0.8103  0.0638
 7133TIP3    H221364   1.104   0.479   2.071  1.2534 -0.1529  0.9318
 7134TIP3   OH221365   3.371   0.102   3.539  0.1757  0.2838 -0.0956
 7134TIP3    H121366   3.376   0.197   3.551 -2.1412  0.3326  1.1570
 7134TIP3    H221367   3.296   0.089   3.480 -1.6299 -0.8039  2.2560
 7135TIP3   OH221368   2.574   5.098   4.056  0.1995  0.4665  0.1837
 7135TIP3    H121369   2.588   5.007   4.082  2.1594  0.6459 -0.1137
 7135TIP3    H221370   2.509   5.093   3.985 -1.9958 -0.3800  2.1319
 7136TIP3   OH221371   2.701   3.372   4.285  0.0899 -0.1872  0.5299
 7136TIP3    H121372   2.758   3.300   4.256  0.5044  1.0106 -1.8424
 7136TIP3    H221373   2.760   3.446   4.297 -0.2803 -0.2138  3.2995
 7137TIP3   OH221374   3.949   4.347   1.506 -0.2483 -0.3694 -0.1066
 7137TIP3    H121375   3.905   4.358   1.422  0.9236  0.3661 -0.6453
 7137TIP3    H221376   4.037   4.318   1.485  0.2195  0.3007  0.8291
 7138TIP3   OH221377   4.538   4.322   2.948  0.3971  0.4284  0.2577
 7138TIP3    H121378   4.492   4.290   2.870 -1.3983  1.1846  0.9402
 7138TIP3    H221379   4.506   4.266   3.019  2.7635 -0.9065  0.3675
 7139TIP3   OH221380   4.068   0.188   5.744  0.2866  0.1293 -0.0724
 7139TIP3    H121381   4.116   0.216   5.822  0.5652 -1.5834  0.4202
 7139TIP3    H221382   4.127   0.127   5.700 -0.8177 -0.7955 -0.3164
 7140TIP3   OH221383   6.982   4.299   0.227 -0.3631 -0.1020  0.1344
 7140TIP3    H121384   7.072   4.269   0.236 -0.5255 -0.9334 -0.8611
 7140TIP3    H221385   6.984   4.364   0.158 -0.5195 -0.0811  0.1484
 7141TIP3   OH221386   5.230   3.737   3.596 -0.4978 -0.9988  0.2391
 7141TIP3    H121387   5.279   3.794   3.537 -0.3610 -1.6259 -0.2657
 7141TIP3    H221388   5.262   3.761   3.683 -1.1032  0.3113  0.1191
 7142TIP3   OH221389   4.039   0.526   3.058  0.2963 -0.1298  0.0898
 7142TIP3    H121390   4.112   0.464   3.049 -1.0696 -1.5978 -1.5682
 7142TIP3    H221391   3.985   0.510   2.981 -2.1284  0.4781  1.5704
 7143TIP3   OH221392   1.421   2.018   5.851  0.0946  0.1591 -0.0814
 7143TIP3    H121393   1.423   2.107   5.886  2.9854  1.0666 -2.1770
 7143TIP3    H221394   1.478   1.968   5.909 -0.0762  0.1072  0.0439
 7144TIP3   OH221395   1.356   5.495   5.616 -0.3510  0.3732  0.0584
 7144TIP3    H121396   1.412   5.457   5.548 -0.3152  2.8945 -1.4257
 7144TIP3    H221397   1.267   5.485   5.582 -0.7088 -1.6423  1.4083
 7145TIP3   OH221398   0.102   2.694   5.206 -0.2648 -0.0573 -0.1113
 7145TIP3    H121399   0.028   2.748   5.236 -2.2385 -2.8279  0.4206
 7145TIP3    H221400   0.100   2.702   5.111  0.5674  2.0499  0.0011
 7146TIP3   OH221401   4.564   4.860   3.134  0.5215  0.4599  0.0964
 7146TIP3    H121402   4.561   4.832   3.225  4.1093 -1.9226 -0.3243
 7146TIP3    H221403   4.605   4.946   3.136 -1.1639  1.2869  0.7692
 7147TIP3   OH221404   6.086   3.210   3.963 -0.0958  0.3664  0.2178
 7147TIP3    H121405   6.047   3.134   4.007  0.0084  0.9979  1.4138
 7147TIP3    H221406   6.163   3.231   4.015  0.3816  0.7608 -0.6252
 7148TIP3   OH221407   3.309   5.688   0.109 -0.1526 -0.2467 -0.0664
 7148TIP3    H121408   3.319   5.770   0.060  0.1692 -0.7352 -0.8316
 7148TIP3    H221409   3.303   5.620   0.042 -0.9991 -0.7988  0.5529
 7149TIP3   OH221410   0.498   2.398   0.774 -0.4006 -0.0195  0.3453
 7149TIP3    H121411   0.494   2.471   0.836 -0.2424 -1.4185  2.0773
 7149TIP3    H221412   0.533   2.325   0.825 -0.0795 -1.1985 -1.4616
 7150TIP3   OH221413   1.054   6.268   3.363 -0.0634  0.6621 -0.5888
 7150TIP3    H121414   1.123   6.214   3.403 -0.3847  0.5498 -0.1826
 7150TIP3    H221415   1.075   6.267   3.269  0.6671  0.8857 -0.4388
 7151TIP3   OH221416   6.859   2.755   2.705  0.3264  0.6375  0.3097
 7151TIP3    H121417   6.888   2.789   2.620 -0.9159  1.7809  0.2997
 7151TIP3    H221418   6.939   2.730   2.750  1.1891  2.0965 -0.3553
 7152TIP3   OH221419   2.819   3.574   0.680 -0.7194  0.0437 -0.3481
 7152TIP3    H121420   2.810   3.619   0.764 -1.4892  0.5112 -0.6666
 7152TIP3    H221421   2.775   3.490   0.692  1.1336 -0.8956  0.3982
 7153TIP3   OH221422   5.331   0.860   2.125  0.0726 -0.0008 -0.0545
 7153TIP3    H121423   5.254   0.836   2.073  0.0894 -2.1895  0.7932
 7153TIP3    H221424   5.297   0.883   2.211  0.2951 -0.2962  0.1178
 7154TIP3   OH221425   2.657   4.179   4.146 -0.3159 -0.2611 -0.0233
 7154TIP3    H121426   2.651   4.134   4.230 -0.3556  1.3891  0.9010
 7154TIP3    H221427   2.660   4.109   4.081  0.4286 -1.5883  1.3896
 7155TIP3   OH221428   0.440   3.278   1.361  0.7039 -0.5468 -0.2964
 7155TIP3    H121429   0.348   3.261   1.339  0.9733 -0.6128 -1.4610
 7155TIP3    H221430   0.483   3.194   1.350  1.2806 -0.0762 -1.9118
 7156TIP3   OH221431   6.395   2.752   0.384 -0.2618 -0.1144  0.2267
 7156TIP3    H121432   6.359   2.832   0.346  0.1101  0.1048  0.3409
 7156TIP3    H221433   6.379   2.685   0.317  0.5507  0.3024 -0.4005
 7157TIP3   OH221434   2.064   4.494   2.737  0.2669  0.4813  0.1734
 7157TIP3    H121435   1.970   4.483   2.722  0.0209  1.5243  0.8221
 7157TIP3    H221436   2.074   4.587   2.755  1.5448  0.5091 -0.6052
 7158TIP3   OH221437   2.747   2.530   1.681  0.4712 -0.2508 -0.2618
 7158TIP3    H121438   2.839   2.554   1.688  0.9602 -2.2768  1.1981
 7158TIP3    H221439   2.714   2.535   1.771 -0.1463 -1.9569 -0.3525
 7159TIP3   OH221440   3.664   1.275   3.149  0.1994 -0.0821 -0.1488
 7159TIP3    H121441   3.641   1.203   3.208  1.5664 -1.1216 -0.8327
 7159TIP3    H221442   3.605   1.265   3.075 -0.2432  0.0861  0.1722
 7160TIP3   OH221443   1.435   0.403   3.547 -0.0948  0.2855  0.2287
 7160TIP3    H121444   1.346   0.405   3.583  0.0001  0.4575  0.4588
 7160TIP3    H221445   1.426   0.356   3.464 -0.5957  1.2798 -0.3033
 7161TIP3   OH221446   3.423   4.396   3.206 -0.1813  0.4137 -0.3779
 7161TIP3    H121447   3.424   4.305   3.238  0.8571  1.0305  1.5384
 7161TIP3    H221448   3.333   4.425   3.221 -0.4629 -0.2117 -0.7853
 7162TIP3   OH221449   3.476   5.229   0.515  0.6600  0.1611  0.1238
 7162TIP3    H121450   3.418   5.301   0.541 -0.3319 -0.9099  0.9977
 7162TIP3    H221451   3.470   5.227   0.420 -2.5298 -1.2489  0.2228
 7163TIP3   OH221452   2.625   1.843   4.379  0.4750  0.7108 -0.1117
 7163TIP3    H121453   2.636   1.815   4.288 -2.8672 -1.4664 -0.0581
 7163TIP3    H221454   2.578   1.926   4.373 -0.7902  0.0059 -0.4817
 7164TIP3   OH221455   0.679   0.951   2.041 -0.2034 -0.2108 -0.5175
 7164TIP3    H121456   0.739   0.908   1.980 -0.8786 -0.4701 -1.0108
 7164TIP3    H221457   0.647   0.881   2.097 -1.2668 -0.3553 -1.2900
 7165TIP3   OH221458   4.082   4.703   0.099 -0.2716 -0.2087 -0.2183
 7165TIP3    H121459   4.032   4.727   0.177  0.3587  1.4968 -0.2920
 7165TIP3    H221460   4.137   4.779   0.082 -0.5662 -0.4299 -2.4865
 7166TIP3   OH221461   4.039   0.426   3.951 -0.0154 -0.1109 -0.2810
 7166TIP3    H121462   4.109   0.485   3.927 -0.8535 -0.1083 -3.0109
 7166TIP3    H221463   4.057   0.346   3.902  0.5342 -1.8653  2.5376
 7167TIP3   OH221464   6.850   0.390   5.571  0.0603  0.2252  0.5854
 7167TIP3    H121465   6.894   0.344   5.500  2.0180  3.4461 -0.4515
 7167TIP3    H221466   6.852   0.327   5.644 -0.1748 -2.4030 -1.5107
 7168TIP3   OH221467   4.867   0.322   5.600  0.2437 -0.2525  0.0395
 7168TIP3    H121468   4.882   0.304   5.693 -1.0707 -0.4938  0.2145
 7168TIP3    H221469   4.821   0.406   5.599  1.3060  0.3587 -0.4839
 7169TIP3   OH221470   5.924   1.274   0.031  0.6981  0.5921 -0.4603
 7169TIP3    H121471   5.983   1.220  -0.022 -0.8771  1.5710 -3.4374
 7169TIP3    H221472   5.856   1.213   0.060  0.5391  0.4064 -1.2157
 7170TIP3   OH221473   2.478   4.933   2.243  0.4954  0.6334 -0.4665
 7170TIP3    H121474   2.387   4.936   2.272  0.7480  0.1895  0.4181
 7170TIP3    H221475   2.528   4.963   2.320  1.0818  1.0539 -1.0029
 7171TIP3   OH221476   2.066   3.306   1.268  0.0541 -0.3461  0.1902
 7171TIP3    H121477   2.084   3.253   1.346 -0.4343 -1.6067 -0.5363
 7171TIP3    H221478   2.020   3.383   1.302  0.0795 -0.7518  1.1754
 7172TIP3   OH221479   5.468   5.966   1.396 -0.5177  0.0561 -0.6691
 7172TIP3    H121480   5.507   6.024   1.461  1.0607 -0.2880 -1.2413
 7172TIP3    H221481   5.374   5.976   1.407 -0.3859 -1.1493  2.6964
 7173TIP3   OH221482   5.977   6.656   2.517  0.2397  0.3156 -0.3890
 7173TIP3    H121483   5.903   6.715   2.531  0.5836  0.8689 -0.8424
 7173TIP3    H221484   5.975   6.638   2.423 -0.3183 -1.0178 -0.1436
 7174TIP3   OH221485   5.183   0.432   5.039  0.2617 -0.6526  0.5416
 7174TIP3    H121486   5.232   0.450   4.958 -0.3143 -0.4383  0.2357
 7174TIP3    H221487   5.152   0.343   5.028 -2.0745  0.2317 -0.6914
 7175TIP3   OH221488   4.670   1.368   4.988 -0.1123 -0.1264  0.1764
 7175TIP3    H121489   4.620   1.439   5.029 -0.2027 -0.1968  0.1883
 7175TIP3    H221490   4.748   1.411   4.952 -0.1368 -0.0310  0.2384
 7176TIP3   OH221491   5.159   4.238   0.304 -0.3795  0.2793  0.3973
 7176TIP3    H121492   5.093   4.235   0.236  0.1761 -0.8887 -0.1136
 7176TIP3    H221493   5.126   4.301   0.368 -2.5277 -1.0912  0.7204
 7177TIP3   OH221494   0.533   6.090   2.930 -0.1433 -0.8869 -0.1486
 7177TIP3    H121495   0.574   6.172   2.901 -3.9687  1.0020 -0.8809
 7177TIP3    H221496   0.515   6.042   2.850 -1.0542 -0.7319 -0.0544
 7178TIP3   OH221497   4.549   5.122   2.303 -0.2523 -0.1367  0.6678
 7178TIP3    H121498   4.631   5.114   2.352 -0.0425  1.0162  0.5233
 7178TIP3    H221499   4.497   5.184   2.354 -0.4295  0.3017 -0.0356
 7179TIP3   OH221500   2.662   3.506   1.179  0.4813 -0.8362 -0.0974
 7179TIP3    H121501   2.736   3.527   1.236 -1.3677  1.3756  1.6745
 7179TIP3    H221502   2.587   3.500   1.238 -1.2231 -0.3274 -2.0824
 7180TIP3   OH221503   3.603   5.641   2.080  0.0724 -0.1160  0.0571
 7180TIP3    H121504   3.511   5.624   2.099  0.0644  0.1017  0.2115
 7180TIP3    H221505   3.620   5.727   2.119  0.1318  0.1998 -0.6483
 7181TIP3   OH221506   5.722   0.304   2.000  0.4186  0.0616 -0.4504
 7181TIP3    H121507   5.761   0.354   2.072 -0.1693  0.6530 -0.5265
 7181TIP3    H221508   5.668   0.368   1.953 -2.7323 -1.2094  1.1527
 7182TIP3   OH221509   4.798   1.424   5.607 -0.0970 -0.3935  0.1433
 7182TIP3    H121510   4.843   1.340   5.597  2.2449  0.5606  1.9478
 7182TIP3    H221511   4.810   1.448   5.698 -0.9385  1.8057 -0.2551
 7183TIP3   OH221512   0.359   2.720   0.833 -0.1275 -0.2951  0.8225
 7183TIP3    H121513   0.377   2.657   0.902 -1.1811 -2.5839 -0.8626
 7183TIP3    H221514   0.266   2.743   0.845 -0.5027 -1.2145 -0.1672
 7184TIP3   OH221515   1.494   0.511   4.447 -0.6006 -0.4471 -0.3269
 7184TIP3    H121516   1.503   0.601   4.416  1.7908 -0.3413  0.4667
 7184TIP3    H221517   1.422   0.515   4.510  0.4061  1.2676  0.7945
 7185TIP3   OH221518   6.694   3.841   4.019 -0.0639  0.1481  1.0267
 7185TIP3    H121519   6.717   3.824   3.928 -0.8932  1.0843  0.6273
 7185TIP3    H221520   6.627   3.775   4.039 -0.1828  0.2082  0.8285
 7186TIP3   OH221521   1.102   4.799   2.083 -0.6528  0.0385  0.9673
 7186TIP3    H121522   1.138   4.768   2.166  0.4312  1.8784  1.2397
 7186TIP3    H221523   1.179   4.815   2.028 -1.2359  0.7762  0.3361
 7187TIP3   OH221524   4.035   1.956   5.356 -0.3301  0.1184 -0.5114
 7187TIP3    H121525   4.066   1.914   5.275  0.2159 -1.0521  0.2746
 7187TIP3    H221526   4.112   2.001   5.390 -0.2210 -0.4372 -0.0081
 7188TIP3   OH221527   4.152   0.953   2.044  0.1196 -0.2332 -0.0280
 7188TIP3    H121528   4.181   0.868   2.076 -1.7210 -1.0984 -0.5320
 7188TIP3    H221529   4.118   0.935   1.957 -1.7228  0.7168  0.4522
 7189TIP3   OH221530   3.531   3.382   1.150 -0.5186 -0.4756  0.0304
 7189TIP3    H121531   3.551   3.339   1.233  0.3211  0.2679  0.2205
 7189TIP3    H221532   3.435   3.376   1.143 -0.6313 -0.2834  1.1959
 7190TIP3   OH221533   6.159   2.291   1.075 -0.1088 -0.2431 -0.4209
 7190TIP3    H121534   6.182   2.336   0.993  1.5282  0.5294  0.4152
 7190TIP3    H221535   6.189   2.201   1.062  1.5627  0.2351 -0.1592
 7191TIP3   OH221536   4.803   1.421   3.432  0.4390 -0.2691 -0.3008
 7191TIP3    H121537   4.767   1.479   3.500  2.4690 -0.0828  0.6803
 7191TIP3    H221538   4.772   1.334   3.457 -0.1362 -0.0003 -0.0487
 7192TIP3   OH221539   3.816   4.494   3.937 -0.5065  0.1349 -0.0866
 7192TIP3    H121540   3.859   4.569   3.897 -0.5157  0.0379 -0.2800
 7192TIP3    H221541   3.877   4.464   4.004  0.5287 -1.0443 -1.4765
 7193TIP3   OH221542   5.744   6.439   2.370  0.1501  0.2476 -0.2038
 7193TIP3    H121543   5.758   6.346   2.388  2.2906  0.3937 -0.8137
 7193TIP3    H221544   5.726   6.443   2.276 -1.1728  0.3585  0.0413
 7194TIP3   OH221545   1.032   0.301   2.433  0.0849 -0.4584 -0.1275
 7194TIP3    H121546   1.049   0.283   2.340  0.3248 -1.6470  0.1360
 7194TIP3    H221547   1.115   0.337   2.466  0.4081 -1.2248 -0.0871
 7195TIP3   OH221548   6.648   0.229   5.210 -0.6710  0.2142 -0.1515
 7195TIP3    H121549   6.600   0.224   5.293  1.8095 -0.6700  1.3014
 7195TIP3    H221550   6.717   0.293   5.226  0.9322 -1.2552 -0.9271
 7196TIP3   OH221551   3.607   6.416   1.094 -0.1775  0.0192 -0.1317
 7196TIP3    H121552   3.560   6.337   1.068  0.8848 -0.6597 -0.0450
 7196TIP3    H221553   3.699   6.398   1.073  0.0640  1.3232 -0.3349
 7197TIP3   OH221554   3.649   4.712   5.055 -0.0499 -0.4929 -0.0840
 7197TIP3    H121555   3.638   4.634   5.000  0.6140 -0.9338  0.4010
 7197TIP3    H221556   3.730   4.697   5.103  0.6999  1.0010 -0.8046
 7198TIP3   OH221557   2.614   1.767   0.570  0.2926  0.0918  0.4221
 7198TIP3    H121558   2.550   1.837   0.558  2.1427  2.1988  1.8958
 7198TIP3    H221559   2.598   1.707   0.498 -1.0435  2.3228 -1.2783
 7199TIP3   OH221560   2.981   3.096   5.842 -0.0584  0.0069  0.2821
 7199TIP3    H121561   3.060   3.146   5.864  0.3837 -0.2390 -0.6638
 7199TIP3    H221562   2.944   3.142   5.767 -0.9006  0.1948  0.8070
 7200TIP3   OH221563   2.150   1.437   1.493  0.4027  0.1975  0.1261
 7200TIP3    H121564   2.178   1.525   1.517  1.0094  0.0530 -0.0356
 7200TIP3    H221565   2.201   1.416   1.414  3.3043 -1.8178  2.3170
 7201TIP3   OH221566   5.000   1.214   5.390  0.3282  0.0604 -0.2032
 7201TIP3    H121567   5.095   1.207   5.401  0.4895 -2.3885 -2.3393
 7201TIP3    H221568   4.964   1.154   5.456  0.1559  1.4892  1.0646
 7202TIP3   OH221569   1.984   3.978   3.854 -0.4859  0.2537  0.9148
 7202TIP3    H121570   1.943   3.983   3.767  0.6120  0.9176  0.4221
 7202TIP3    H221571   1.910   3.975   3.914 -1.2963 -1.3222 -0.0753
 7203TIP3   OH221572   0.143   4.842   1.873 -0.0481  0.6348  0.0701
 7203TIP3    H121573   0.174   4.920   1.827 -2.5729  1.5838 -0.1636
 7203TIP3    H221574   0.101   4.789   1.805 -1.2040  0.6466  0.7431
 7204TIP3   OH221575   4.484   4.568   3.039 -0.2659  0.0312  0.4543
 7204TIP3    H121576   4.570   4.611   3.048 -0.1474  0.2123 -1.3036
 7204TIP3    H221577   4.505   4.477   3.019 -0.4389  0.3246 -1.1663
 7205TIP3   OH221578   1.723   4.095   5.035 -0.3424 -0.1889  0.5901
 7205TIP3    H121579   1.658   4.029   5.011  0.4057 -0.1632 -1.7629
 7205TIP3    H221580   1.674   4.176   5.040 -0.5396 -0.1276 -1.4036
 7206TIP3   OH221581   2.915   6.229   5.689 -0.0043 -0.1185  0.3501
 7206TIP3    H121582   2.870   6.299   5.737 -0.1491 -0.1848  0.3128
 7206TIP3    H221583   2.853   6.204   5.621  0.3998  0.3065 -0.1753
 7207TIP3   OH221584   0.215   3.248   1.690 -0.1333 -0.5048  0.2162
 7207TIP3    H121585   0.303   3.214   1.674 -0.9716 -2.6784 -0.1469
 7207TIP3    H221586   0.178   3.260   1.603  0.4226  2.3537  0.2900
 7208TIP3   OH221587   7.098   6.053   0.243 -0.2128 -0.1267 -0.2173
 7208TIP3    H121588   7.027   6.021   0.298  0.6343 -0.9151  0.4704
 7208TIP3    H221589   7.131   5.976   0.199 -0.3469  0.3756 -1.2175
 7209TIP3   OH221590   6.546   1.206   5.783 -0.0530  0.2686  0.3368
 7209TIP3    H121591   6.570   1.198   5.875  1.4813 -1.5949 -0.1756
 7209TIP3    H221592   6.538   1.116   5.752  0.8580  0.8356 -1.6976
 7210TIP3   OH221593   6.883   5.958   3.736  0.1906 -0.2646 -0.2401
 7210TIP3    H121594   6.908   5.873   3.699 -0.7238 -0.5644 -0.1913
 7210TIP3    H221595   6.921   5.958   3.823  0.0626 -0.6969 -0.1797
 7211TIP3   OH221596   6.217   5.028   3.126 -0.2280  0.0893  0.2144
 7211TIP3    H121597   6.178   4.941   3.119 -3.4206  1.4940 -1.6977
 7211TIP3    H221598   6.262   5.040   3.042  0.4541  0.1939  0.5904
 7212TIP3   OH221599   6.821   0.565   2.269 -0.1034 -0.5905 -0.4328
 7212TIP3    H121600   6.729   0.591   2.275  0.6562  2.0200  2.1164
 7212TIP3    H221601   6.832   0.499   2.338  0.0269 -0.5673 -0.4310
 7213TIP3   OH221602   3.528   2.337   0.347  0.3337  0.2939  0.2552
 7213TIP3    H121603   3.483   2.253   0.357  0.3058  0.3409  0.5131
 7213TIP3    H221604   3.458   2.402   0.347  0.2358  0.2356 -1.1780
 7214TIP3   OH221605   2.892   0.277   4.351 -0.2857 -0.1353  0.1631
 7214TIP3    H121606   2.904   0.346   4.416 -1.2493 -0.7025  0.9794
 7214TIP3    H221607   2.977   0.233   4.347  0.1933  0.7653 -0.0069
 7215TIP3   OH221608   1.705   4.972   5.693  0.1585  0.4594 -0.2996
 7215TIP3    H121609   1.786   5.006   5.655 -0.4111  2.3375  0.0398
 7215TIP3    H221610   1.636   5.020   5.647 -0.6873  0.0143  0.4891
 7216TIP3   OH221611   6.344   6.736   1.561 -0.1924 -0.1324 -0.3588
 7216TIP3    H121612   6.419   6.713   1.617 -0.1132 -2.2243 -1.2292
 7216TIP3    H221613   6.358   6.685   1.481  0.0935  3.2620 -2.6984
 7217TIP3   OH221614   6.767   3.747   0.711  0.7056 -0.1329 -0.0853
 7217TIP3    H121615   6.821   3.735   0.632 -0.4898 -0.4512 -0.8718
 7217TIP3    H221616   6.688   3.791   0.680 -0.4467 -1.5992  0.6826
 7218TIP3   OH221617   4.930   3.329   3.628  0.3742  0.0326  0.2202
 7218TIP3    H121618   4.875   3.251   3.635  0.3911 -0.1195 -1.1799
 7218TIP3    H221619   4.932   3.349   3.535  0.8152  1.3978  0.5022
 7219TIP3   OH221620   1.905   6.273   1.346 -0.3022  0.0706  0.3346
 7219TIP3    H121621   1.970   6.250   1.413  0.3703 -1.7807 -0.8922
 7219TIP3    H221622   1.947   6.342   1.294  1.1907 -1.8094 -1.0810
 7220TIP3   OH221623   5.853   4.296   1.124 -0.0756  0.0852 -0.0764
 7220TIP3    H121624   5.887   4.326   1.208 -0.7831  0.1349  0.2013
 7220TIP3    H221625   5.915   4.229   1.095  1.7900  2.0259 -0.8937
 7221TIP3   OH221626   2.022   1.109   4.719 -0.5843  0.0578  0.3296
 7221TIP3    H121627   2.089   1.174   4.697  0.0420 -1.4350 -2.7235
 7221TIP3    H221628   1.991   1.076   4.634 -1.5593 -2.9115  1.6888
 7222TIP3   OH221629   6.736   5.114   2.139 -0.3160 -0.3106  0.8627
 7222TIP3    H121630   6.809   5.068   2.098 -0.0771  0.4902  0.3577
 7222TIP3    H221631   6.696   5.165   2.068 -0.8032 -0.0370  1.3211
 7223TIP3   OH221632   5.399   0.998   4.174 -0.2736 -0.9227  0.2289
 7223TIP3    H121633   5.403   1.093   4.158  0.3991 -0.7848  1.1619
 7223TIP3    H221634   5.406   0.989   4.268  0.3859 -1.9453  0.0917
 7224TIP3   OH221635   2.190   6.378   4.687 -0.0817  0.3199 -0.1406
 7224TIP3    H121636   2.269   6.367   4.635  1.0676  2.8802  0.8895
 7224TIP3    H221637   2.146   6.453   4.648 -0.9258  0.2089  0.5608
 7225TIP3   OH221638   6.097   2.924   4.500 -0.1445  0.3001 -0.4561
 7225TIP3    H121639   6.126   2.862   4.566  0.2694  1.5825  0.6241
 7225TIP3    H221640   6.088   3.007   4.547 -0.4594  1.1194 -1.8795
 7226TIP3   OH221641   2.049   0.584   1.133  0.2361  0.5810 -0.2489
 7226TIP3    H121642   2.012   0.616   1.050  0.5439  1.4489 -0.0601
 7226TIP3    H221643   2.130   0.540   1.108 -1.2820 -2.1826 -0.7875
 7227TIP3   OH221644   6.500   4.828   4.269 -0.7166  0.0467  0.2892
 7227TIP3    H121645   6.490   4.919   4.242 -0.5138 -0.2237 -0.7182
 7227TIP3    H221646   6.562   4.832   4.342  1.2185  0.4928 -1.3177
 7228TIP3   OH221647   6.295   2.995   2.270  0.0137  0.4482  0.6075
 7228TIP3    H121648   6.267   3.085   2.257 -1.1276  0.3448  2.1619
 7228TIP3    H221649   6.250   2.946   2.200 -0.1241  0.9297  0.3511
 7229TIP3   OH221650   2.618   1.169   5.036 -0.2769  0.6215  0.6469
 7229TIP3    H121651   2.565   1.093   5.011 -0.1512 -0.1045  2.4935
 7229TIP3    H221652   2.699   1.132   5.070 -0.4580  1.5475  2.1378
 7230TIP3   OH221653   4.017   4.924   5.113  0.6605  0.2581 -0.8066
 7230TIP3    H121654   4.072   4.856   5.073 -0.0973 -1.2619  0.6158
 7230TIP3    H221655   3.929   4.905   5.081  0.2340 -0.2785  0.6282
 7231TIP3   OH221656   6.512   4.488   1.142  0.4035 -0.3382 -0.1611
 7231TIP3    H121657   6.479   4.531   1.221  0.7388  1.1747 -0.8215
 7231TIP3    H221658   6.438   4.490   1.081  0.4648 -0.5919 -0.2450
 7232TIP3   OH221659   1.990   1.072   1.296  0.3771  0.1228  0.0845
 7232TIP3    H121660   2.032   1.016   1.362  0.3558  0.8602  0.7293
 7232TIP3    H221661   1.989   1.018   1.216 -1.5232 -1.6401  1.1786
 7233TIP3   OH221662   1.492   6.474   5.451  0.4651  0.1234 -0.0381
 7233TIP3    H121663   1.543   6.395   5.434  0.5727  0.0582  0.5574
 7233TIP3    H221664   1.483   6.477   5.546  1.0308  1.1770  0.0067
 7234TIP3   OH221665   0.606   6.103   0.724  0.4650 -0.1708  0.1215
 7234TIP3    H121666   0.560   6.183   0.751  0.0060 -0.3580 -0.1007
 7234TIP3    H221667   0.692   6.134   0.695  0.2009  0.2777 -0.2007
 7235TIP3   OH221668   3.227   5.447   0.583 -0.0246 -0.4372  0.8163
 7235TIP3    H121669   3.247   5.511   0.514  2.4703 -1.7363  0.2093
 7235TIP3    H221670   3.226   5.499   0.664  0.5522  0.5813  0.1925
 7236TIP3   OH221671   0.262   4.059   0.744 -0.0379 -0.4659 -0.2002
 7236TIP3    H121672   0.344   4.047   0.792  0.9364  1.3247 -1.2702
 7236TIP3    H221673   0.201   4.095   0.809  0.2266 -1.1579  0.4439
 7237TIP3   OH221674   3.508   6.540   5.526 -0.0319  0.1488 -0.0187
 7237TIP3    H121675   3.541   6.450   5.525 -2.0041 -0.6312 -0.4458
 7237TIP3    H221676   3.534   6.576   5.442  1.7689  0.4162  0.6058
 7238TIP3   OH221677   0.325   3.855   4.163  0.1347 -0.7133 -0.4158
 7238TIP3    H121678   0.244   3.879   4.208 -1.8119 -3.6420 -2.0520
 7238TIP3    H221679   0.358   3.779   4.210  0.2075 -1.4046 -1.5289
 7239TIP3   OH221680   4.897   6.406   5.375 -0.0070  0.0501  0.2829
 7239TIP3    H121681   4.928   6.467   5.308 -2.3568 -1.3110 -2.2459
 7239TIP3    H221682   4.977   6.368   5.411  1.4300  2.8787  0.3266
 7240TIP3   OH221683   3.631   0.712   4.004  0.3092  0.5788 -0.5963
 7240TIP3    H121684   3.725   0.701   3.994  0.5013  0.3246  1.1976
 7240TIP3    H221685   3.597   0.707   3.915  1.9837  0.6837 -1.2740
 7241TIP3   OH221686   3.514   4.278   0.691  0.2335  0.0675  0.0796
 7241TIP3    H121687   3.436   4.289   0.746 -0.8175  0.3242 -1.4010
 7241TIP3    H221688   3.579   4.337   0.729 -0.7465  0.8790  0.5434
 7242TIP3   OH221689   6.613   0.381   0.228  0.9581 -0.3306  0.4668
 7242TIP3    H121690   6.651   0.467   0.214 -0.0286  0.1756  0.7733
 7242TIP3    H221691   6.597   0.377   0.323 -2.4189  0.6968  0.0740
 7243TIP3   OH221692   6.015   1.510   3.737  0.0534 -0.8905  0.6616
 7243TIP3    H121693   6.009   1.516   3.832 -1.9307  1.5196  0.4725
 7243TIP3    H221694   5.974   1.426   3.715 -1.3146 -0.5695  1.8547
 7244TIP3   OH221695   4.591   1.377   5.785 -0.3772  0.0426 -0.1570
 7244TIP3    H121696   4.566   1.319   5.713  1.3743  0.5692 -1.2394
 7244TIP3    H221697   4.664   1.333   5.827  1.5879  1.8048 -1.5559
 7245TIP3   OH221698   0.854   3.301   0.991 -0.1997 -0.4203 -0.5041
 7245TIP3    H121699   0.855   3.304   1.087 -0.5255  0.6792 -0.5196
 7245TIP3    H221700   0.794   3.229   0.970  1.1269 -1.7608  0.0933
 7246TIP3   OH221701   3.467   2.243   4.565  0.3256 -0.1507 -0.3082
 7246TIP3    H121702   3.396   2.199   4.519  0.1274  0.2307 -0.3645
 7246TIP3    H221703   3.443   2.335   4.565 -0.1120 -0.2476  1.3302
 7247TIP3   OH221704   2.271   1.241   2.481 -0.0418 -0.2256 -0.1689
 7247TIP3    H121705   2.332   1.246   2.408 -1.8159  1.5767 -1.6803
 7247TIP3    H221706   2.282   1.325   2.527 -2.1077  0.7016 -1.2169
 7248TIP3   OH221707   3.746   3.031   0.396 -0.1876  0.0179  0.1269
 7248TIP3    H121708   3.816   3.076   0.443  0.3263  0.1730 -0.7736
 7248TIP3    H221709   3.775   2.940   0.391 -0.4220 -0.0755  0.4386
 7249TIP3   OH221710   1.971   0.715   3.628 -0.0922  0.4834  0.5551
 7249TIP3    H121711   2.014   0.780   3.684  2.8642  0.0030 -0.9656
 7249TIP3    H221712   1.936   0.765   3.555  0.5960  0.6035  0.2947
 7250TIP3   OH221713   6.833   2.990   1.162  0.2390  0.1715 -0.4841
 7250TIP3    H121714   6.770   3.045   1.208  1.5922  0.4335  1.1301
 7250TIP3    H221715   6.825   2.904   1.205  0.4965  0.0257 -0.7255
 7251TIP3   OH221716   5.043   0.225   1.540 -0.0619 -0.0285  0.3478
 7251TIP3    H121717   5.091   0.167   1.481 -1.8288 -1.6247  0.4261
 7251TIP3    H221718   5.061   0.190   1.627 -0.0084  0.4088  0.5142
 7252TIP3   OH221719   2.052   4.284   1.185  0.4220  0.4947  0.4252
 7252TIP3    H121720   2.006   4.200   1.187  2.7571 -0.8602  2.6791
 7252TIP3    H221721   1.988   4.347   1.218 -1.8464  0.0203 -2.6232
 7253TIP3   OH221722   5.907   5.491   4.085 -0.2437 -0.1222  0.0762
 7253TIP3    H121723   6.002   5.480   4.081 -0.1101  0.5090  1.2492
 7253TIP3    H221724   5.884   5.472   4.176 -0.7851  3.0017  0.6922
 7254TIP3   OH221725   5.011   3.288   3.355  0.7093  0.5853 -0.0142
 7254TIP3    H121726   5.005   3.193   3.350  1.5506  0.3604  2.2922
 7254TIP3    H221727   5.086   3.310   3.298  1.7496 -0.3497  0.9445
 7255TIP3   OH221728   2.485   5.330   4.379 -0.9876 -0.3338  0.2382
 7255TIP3    H121729   2.487   5.419   4.413 -0.2397 -0.0142 -0.5917
 7255TIP3    H221730   2.392   5.307   4.374 -1.1944  0.4880  0.2421
 7256TIP3   OH221731   2.200   2.178   3.752  0.0584 -0.0443  0.5751
 7256TIP3    H121732   2.253   2.189   3.831 -0.3416  0.7551  0.7393
 7256TIP3    H221733   2.245   2.109   3.702  0.1693 -0.7451  1.6116
 7257TIP3   OH221734   3.495   4.894   5.591  0.1409 -0.3379  0.0251
 7257TIP3    H121735   3.548   4.836   5.536 -0.1604  1.4072 -2.2675
 7257TIP3    H221736   3.451   4.835   5.652  2.1143 -2.1678 -0.1927
 7258TIP3   OH221737   2.841   0.946   2.106 -0.2441  0.3447  0.3329
 7258TIP3    H121738   2.777   0.985   2.046 -1.0777 -1.6483 -0.1544
 7258TIP3    H221739   2.842   1.005   2.181  0.9974  3.0483 -1.6409
 7259TIP3   OH221740   3.345   4.335   0.431 -0.6907  0.0219 -0.1534
 7259TIP3    H121741   3.417   4.330   0.494 -1.4345  3.3788  1.1623
 7259TIP3    H221742   3.379   4.389   0.360 -1.0027 -0.8074 -0.9480
 7260TIP3   OH221743   2.365   1.802   5.180  0.0879 -0.6197 -0.2794
 7260TIP3    H121744   2.300   1.871   5.178 -0.0924 -0.7594  0.6692
 7260TIP3    H221745   2.342   1.745   5.106 -0.0220  0.0786 -0.7905
 7261TIP3   OH221746   7.174   3.721   0.283  0.2539 -0.1265 -0.6901
 7261TIP3    H121747   7.103   3.755   0.228 -0.7079 -0.8290  0.0685
 7261TIP3    H221748   7.198   3.638   0.242  0.9953  0.3442 -1.2272
 7262TIP3   OH221749   2.435   4.341   4.098  0.3672 -0.6378  0.4700
 7262TIP3    H121750   2.514   4.292   4.120  0.9867 -0.3339 -0.9948
 7262TIP3    H221751   2.454   4.382   4.014 -0.3809  1.5875  1.3227
 7263TIP3   OH221752   4.751   1.535   1.658 -0.0325 -0.2433 -0.1912
 7263TIP3    H121753   4.749   1.474   1.584  1.9633 -0.4144 -0.1546
 7263TIP3    H221754   4.739   1.622   1.618 -1.7719 -0.5412 -0.3666
 7264TIP3   OH221755   6.524   0.311   4.086  0.0066  0.0024 -0.0341
 7264TIP3    H121756   6.591   0.319   4.154  0.1514 -0.2414 -0.1481
 7264TIP3    H221757   6.447   0.278   4.132  0.0505  0.0078  0.0444
 7265TIP3   OH221758   6.414   1.072   0.273 -0.3993 -0.7881 -0.9776
 7265TIP3    H121759   6.349   1.142   0.262 -0.4787 -0.7042 -0.0475
 7265TIP3    H221760   6.376   1.014   0.338  0.3712 -0.8405 -0.5564
 7266TIP3   OH221761   6.175   3.674   2.274 -0.3921 -0.3921 -0.4059
 7266TIP3    H121762   6.259   3.718   2.289 -0.2225 -0.5690 -0.8208
 7266TIP3    H221763   6.110   3.744   2.279 -0.1996 -0.2203 -0.2881
 7267TIP3   OH221764   4.228   0.106   4.314  0.3230  0.5906 -0.0389
 7267TIP3    H121765   4.287   0.147   4.377  0.4928  0.3512 -0.0430
 7267TIP3    H221766   4.285   0.073   4.245  0.1066  1.2788 -0.5707
 7268TIP3   OH221767   5.405   0.961   1.130 -0.1589 -0.6964 -0.1835
 7268TIP3    H121768   5.492   0.996   1.152 -0.2148 -0.0828 -0.9022
 7268TIP3    H221769   5.398   0.973   1.036 -0.0422 -3.0065 -0.5420
 7269TIP3   OH221770   2.108   1.481   4.052 -0.2275 -0.5611  0.6659
 7269TIP3    H121771   2.125   1.575   4.048  2.0011 -0.9256 -0.0916
 7269TIP3    H221772   2.160   1.452   4.128 -1.3008 -1.1221  1.1984
 7270TIP3   OH221773   3.329   1.221   0.959 -0.4291 -0.1837  0.0586
 7270TIP3    H121774   3.243   1.179   0.958 -1.1546  0.7214  4.2916
 7270TIP3    H221775   3.382   1.168   1.018  1.0114  0.8159 -0.2701
 7271TIP3   OH221776   3.639   5.100   5.413  0.2705  0.6716  0.6664
 7271TIP3    H121777   3.679   5.168   5.468 -0.2719 -0.7600  2.9895
 7271TIP3    H221778   3.580   5.053   5.473 -1.3292 -0.2320 -1.4949
 7272TIP3   OH221779   4.404   3.360   4.265  0.0754  0.1894  0.7542
 7272TIP3    H121780   4.314   3.330   4.256  0.1791 -0.0788  0.5847
 7272TIP3    H221781   4.457   3.284   4.239  0.3354  0.6656 -0.1694
 7273TIP3   OH221782   1.046   0.015   4.818 -0.2652 -0.4223 -0.6567
 7273TIP3    H121783   0.979   0.076   4.848  1.6357  0.6023  1.8290
 7273TIP3    H221784   1.078   0.052   4.735 -0.5646  0.8314 -0.2312
 7274TIP3   OH221785   2.686   4.966   2.437 -0.0426  0.1224  0.0632
 7274TIP3    H121786   2.665   4.958   2.530 -1.4290  0.6229 -0.1752
 7274TIP3    H221787   2.743   4.892   2.419 -1.2263 -1.0472  0.9333
 7275TIP3   OH221788   6.729   5.900   2.156  0.2219  0.0425 -0.0817
 7275TIP3    H121789   6.748   5.808   2.175 -0.0193 -0.2235 -1.0976
 7275TIP3    H221790   6.675   5.897   2.078 -2.1265  0.8854  1.4057
 7276TIP3   OH221791   1.986   0.653   2.536 -0.1975  0.4281 -0.4540
 7276TIP3    H121792   1.908   0.708   2.531  0.4950  1.7796  1.9576
 7276TIP3    H221793   2.051   0.708   2.581  1.6735 -1.1715 -1.0562
 7277TIP3   OH221794   3.921   0.421   5.749  0.2644  0.1317 -0.0578
 7277TIP3    H121795   3.992   0.482   5.732 -0.1997  0.1889 -2.1895
 7277TIP3    H221796   3.958   0.335   5.727 -0.6119  0.2968 -2.5874
 7278TIP3   OH221797   1.381   2.850   0.687 -0.1091 -0.4843  0.8434
 7278TIP3    H121798   1.419   2.927   0.644 -2.1945 -0.0339 -0.3775
 7278TIP3    H221799   1.366   2.878   0.778  1.3850 -0.3172  1.0559
 7279TIP3   OH221800   1.013   2.010   0.850  0.2861 -0.1285  0.0298
 7279TIP3    H121801   1.082   1.962   0.805 -1.4974 -2.4904 -0.3888
 7279TIP3    H221802   1.017   1.978   0.940  0.0338  0.0627  0.1102
 7280TIP3   OH221803   3.907   2.574   4.041 -0.2087 -0.3145  0.2146
 7280TIP3    H121804   3.970   2.563   4.112 -0.1104 -0.2613  0.1367
 7280TIP3    H221805   3.961   2.584   3.962 -0.3263 -1.1354  0.0220
 7281TIP3   OH221806   7.218   5.490   5.033  0.4170  0.2473 -0.0587
 7281TIP3    H121807   7.168   5.409   5.036 -2.3431  1.8102  2.4225
 7281TIP3    H221808   7.201   5.526   4.946 -1.8648  0.0743  0.2530
 7282TIP3   OH221809   1.765   3.247   2.536  0.1496 -0.3409 -0.1121
 7282TIP3    H121810   1.762   3.160   2.496  0.7423  0.5742 -2.3143
 7282TIP3    H221811   1.709   3.301   2.481 -0.3001  0.6777  1.2756
 7283TIP3   OH221812   0.342   4.581   3.928  0.3064 -0.2410 -0.2656
 7283TIP3    H121813   0.429   4.541   3.922  0.4598  0.3079 -2.7752
 7283TIP3    H221814   0.354   4.657   3.985  2.1333  1.2671 -2.4865
 7284TIP3   OH221815   0.316   0.266   5.793  0.8704  0.4132 -0.5178
 7284TIP3    H121816   0.222   0.285   5.799  0.9376  0.5973 -0.0379
 7284TIP3    H221817   0.322   0.171   5.807  0.7240  0.3355 -0.9422
 7285TIP3   OH221818   1.255   6.408   5.694 -0.5656 -0.0370 -0.5423
 7285TIP3    H121819   1.203   6.353   5.753  0.0067 -0.0149 -0.0146
 7285TIP3    H221820   1.208   6.404   5.611 -1.2765 -0.2262 -0.1434
 7286TIP3   OH221821   4.698   6.741   4.034  0.0397  0.5682  0.4796
 7286TIP3    H121822   4.678   6.687   4.110  1.1955 -0.3173  0.1834
 7286TIP3    H221823   4.662   6.693   3.959  0.3354  0.6172  0.3032
 7287TIP3   OH221824   5.086   5.849   5.525 -0.1178  0.6362  0.3112
 7287TIP3    H121825   5.046   5.930   5.491 -1.3309  0.2908  0.8545
 7287TIP3    H221826   5.153   5.880   5.587 -0.2705  1.2257  0.1900
 7288TIP3   OH221827   7.203   1.574   0.036  0.7038 -0.1495  0.2473
 7288TIP3    H121828   7.194   1.547  -0.055  1.0545 -1.2933  0.5308
 7288TIP3    H221829   7.119   1.552   0.076  0.7144 -0.0814  0.3064
 7289TIP3   OH221830   5.309   5.492   5.075  0.4637 -0.4373  0.1234
 7289TIP3    H121831   5.358   5.410   5.066  1.2343 -0.2515  2.1371
 7289TIP3    H221832   5.228   5.468   5.119 -0.8945 -0.5767 -2.2793
 7290TIP3   OH221833   4.761   5.586   4.031 -0.9243 -0.3871  0.9676
 7290TIP3    H121834   4.790   5.677   4.020 -0.2908 -0.7402 -0.5828
 7290TIP3    H221835   4.670   5.587   4.004 -0.8997 -0.2167  0.8855
 7291TIP3   OH221836   0.610   0.361   3.774  0.1279 -0.1305 -0.2564
 7291TIP3    H121837   0.657   0.300   3.718  0.0145 -1.0012  0.5783
 7291TIP3    H221838   0.538   0.393   3.720  0.6375 -0.1285 -0.9538
 7292TIP3   OH221839   6.062   4.221   4.809 -0.3752  0.3360 -0.2307
 7292TIP3    H121840   6.049   4.294   4.748 -2.1553  0.1248 -0.1536
 7292TIP3    H221841   6.127   4.166   4.766 -2.3076 -0.3324 -2.5358
 7293TIP3   OH221842   0.702   2.534   0.551 -0.1634  0.4249 -0.0288
 7293TIP3    H121843   0.606   2.538   0.546 -0.0844  1.4284 -1.3449
 7293TIP3    H221844   0.722   2.551   0.643 -1.2490  0.1248  0.2780
 7294TIP3   OH221845   1.010   5.734   4.748  0.7039 -0.6573  0.1818
 7294TIP3    H121846   0.917   5.726   4.770  0.8171  0.1661  1.0190
 7294TIP3    H221847   1.011   5.778   4.663  0.2843 -3.0498 -1.1643
 7295TIP3   OH221848   2.449   6.437   2.027 -0.5963 -0.6321 -0.2482
 7295TIP3    H121849   2.489   6.500   1.967 -1.0009 -0.6924 -0.5864
 7295TIP3    H221850   2.459   6.477   2.113 -1.2713  0.1421 -0.5102
 7296TIP3   OH221851   1.265   2.213   3.898 -0.5639  0.0064  0.8014
 7296TIP3    H121852   1.232   2.261   3.823  2.0836  1.7133  0.5883
 7296TIP3    H221853   1.339   2.163   3.865 -0.8280 -1.1537  1.8447
 7297TIP3   OH221854   3.180   1.743   4.255  0.3743 -0.2925  0.3754
 7297TIP3    H121855   3.154   1.758   4.164  0.2203 -0.1389  0.4442
 7297TIP3    H221856   3.100   1.713   4.297  0.5543 -0.7959  0.3592
 7298TIP3   OH221857   4.601   2.295   0.593  0.2786 -0.4431 -0.5047
 7298TIP3    H121858   4.561   2.279   0.508 -1.7250  2.0900 -0.1414
 7298TIP3    H221859   4.532   2.334   0.646  2.2523  0.8284  1.3260
 7299TIP3   OH221860   6.533   6.238   0.822  0.1642  0.1719 -0.1632
 7299TIP3    H121861   6.545   6.198   0.735  0.9410  0.1135 -0.0351
 7299TIP3    H221862   6.438   6.241   0.834  0.0504  0.1142 -0.9867
 7300TIP3   OH221863   4.445   4.840   1.381 -0.4310 -0.4122  0.3192
 7300TIP3    H121864   4.379   4.886   1.329 -0.8159  1.2986  2.1909
 7300TIP3    H221865   4.421   4.857   1.472  3.4376  1.8579  1.1890
 7301TIP3   OH221866   6.746   6.781   4.479 -0.2970  0.1977  0.6776
 7301TIP3    H121867   6.684   6.840   4.521 -1.3038 -1.1718  1.1948
 7301TIP3    H221868   6.699   6.748   4.403  0.7813  1.1166 -0.4261
 7302TIP3   OH221869   5.866   4.197   2.035 -0.5818 -0.3069 -0.0560
 7302TIP3    H121870   5.932   4.148   2.083 -0.1689 -0.6943 -1.0011
 7302TIP3    H221871   5.854   4.148   1.953 -0.3700  0.9957 -0.8923
 7303TIP3   OH221872   6.574   2.278   3.665 -0.2866 -0.4261 -0.4019
 7303TIP3    H121873   6.582   2.354   3.723  1.5985  0.7848 -2.1472
 7303TIP3    H221874   6.480   2.274   3.644 -0.4880  1.1591  0.0709
 7304TIP3   OH221875   3.195   0.902   2.673  0.0657  0.0457  0.0891
 7304TIP3    H121876   3.213   0.822   2.722  1.1594  0.5096  0.4928
 7304TIP3    H221877   3.196   0.972   2.739  0.2052  0.5122 -0.3956
 7305TIP3   OH221878   5.724   3.219   4.955  0.1696  0.4301 -0.5415
 7305TIP3    H121879   5.640   3.265   4.944 -1.2385 -2.1288 -1.2485
 7305TIP3    H221880   5.750   3.238   5.045 -1.8330  0.3100  0.1157
 7306TIP3   OH221881   3.848   0.110   0.820  0.0483  0.1822  0.3259
 7306TIP3    H121882   3.761   0.106   0.861 -0.0746  1.9263  0.3179
 7306TIP3    H221883   3.905   0.144   0.890  0.3882  0.5893 -0.1468
 7307TIP3   OH221884   5.258   2.417   3.575  0.2625 -0.0591  0.0621
 7307TIP3    H121885   5.182   2.396   3.521  0.3701 -0.1319 -0.0616
 7307TIP3    H221886   5.330   2.426   3.512  0.2471  0.5409  0.1189
 7308TIP3   OH221887   4.536   2.708   1.245 -0.0616 -0.2335  0.5051
 7308TIP3    H121888   4.471   2.764   1.287  0.9484  1.6445 -0.3101
 7308TIP3    H221889   4.605   2.698   1.310  0.8106  1.4298 -0.1128
 7309TIP3   OH221890   7.074   1.208   2.533 -0.0991 -0.3923  0.0907
 7309TIP3    H121891   7.039   1.280   2.482  2.8989  1.1379 -0.0372
 7309TIP3    H221892   7.119   1.152   2.469 -0.1853 -0.9520  0.5033
 7310TIP3   OH221893   1.321   0.647   5.245  0.2392  0.5092  0.0155
 7310TIP3    H121894   1.365   0.641   5.330  1.3031  0.6054 -0.5091
 7310TIP3    H221895   1.392   0.653   5.182 -0.5423  0.6320 -0.8758
 7311TIP3   OH221896   7.169   2.944   5.248  0.3998 -0.3422  0.7980
 7311TIP3    H121897   7.159   2.941   5.153 -1.3341 -1.7658  0.9785
 7311TIP3    H221898   7.233   3.014   5.263  1.8788 -1.1104 -1.4686
 7312TIP3   OH221899   0.581   3.484   3.706  0.6544  0.1724  0.6010
 7312TIP3    H121900   0.552   3.509   3.794  2.0759  0.2701  1.0828
 7312TIP3    H221901   0.634   3.405   3.720  0.4611 -0.1170 -0.2401
 7313TIP3   OH221902   3.829   2.411   3.438  0.0046  0.2230 -0.1090
 7313TIP3    H121903   3.762   2.394   3.504 -1.3280 -0.4721 -1.5737
 7313TIP3    H221904   3.911   2.385   3.480 -0.5203  1.5858  1.9105
 7314TIP3   OH221905   2.827   2.443   0.374  0.4684 -0.4638 -0.0728
 7314TIP3    H121906   2.805   2.356   0.408 -2.7929  0.3833  0.3217
 7314TIP3    H221907   2.859   2.491   0.450  0.2458 -0.7262  0.1904
 7315TIP3   OH221908   4.834   4.228   4.210  0.5092 -0.2084 -0.1522
 7315TIP3    H121909   4.782   4.236   4.130 -0.7667  0.8159  0.7342
 7315TIP3    H221910   4.924   4.236   4.181  0.1055 -0.5045 -1.5641
 7316TIP3   OH221911   2.809   0.007   4.318 -0.1804  0.7455  0.4692
 7316TIP3    H121912   2.821   0.101   4.332  1.1127  0.7595 -0.5624
 7316TIP3    H221913   2.865  -0.035   4.383 -0.2609  0.6916  0.5049
 7317TIP3   OH221914   5.592   3.740   2.835 -0.1574 -0.0220  0.2987
 7317TIP3    H121915   5.686   3.723   2.827  0.2447  2.1474  0.0208
 7317TIP3    H221916   5.586   3.822   2.883 -1.8216  0.9960 -1.5097
 7318TIP3   OH221917   1.996   3.249   2.997  0.0871  0.2802  0.2618
 7318TIP3    H121918   1.966   3.243   2.907 -1.8108  0.3703  0.8298
 7318TIP3    H221919   2.091   3.253   2.991  0.0211 -0.1478 -1.6936
 7319TIP3   OH221920   0.105   5.360   4.351 -0.3847 -0.2445  0.3189
 7319TIP3    H121921   0.078   5.311   4.429  0.1415 -0.9412  0.0695
 7319TIP3    H221922   0.170   5.422   4.382  0.0624 -0.7439  0.3821
 7320TIP3   OH221923   2.461   0.187   5.687 -0.2811  0.7392 -0.3864
 7320TIP3    H121924   2.518   0.118   5.655 -0.2405  0.4049  0.3856
 7320TIP3    H221925   2.519   0.263   5.697  0.5504 -0.1583  2.4076
 7321TIP3   OH221926   0.629   0.054   5.749 -0.1720 -0.1032 -0.1178
 7321TIP3    H121927   0.590   0.140   5.768 -0.0512  0.0316 -0.4903
 7321TIP3    H221928   0.570   0.015   5.684 -0.6493 -0.6181  0.6042
 7322TIP3   OH221929   3.504   5.590   3.507  0.3707 -0.2230  0.5787
 7322TIP3    H121930   3.565   5.642   3.455  0.2509 -0.9820 -0.3551
 7322TIP3    H221931   3.504   5.632   3.593  1.9018  0.0248  0.4838
 7323TIP3   OH221932   4.065   0.703   1.466  0.4779  0.4391 -0.1243
 7323TIP3    H121933   3.986   0.676   1.421  0.3436  2.5277 -1.2593
 7323TIP3    H221934   4.044   0.789   1.504  1.4523 -0.0397  1.6469
 7324TIP3   OH221935   2.987   4.085   3.196  0.0594 -0.5768 -0.1835
 7324TIP3    H121936   2.985   4.155   3.131  1.6235 -1.5342 -1.3227
 7324TIP3    H221937   2.989   4.131   3.281 -2.3874  0.6957 -0.7008
 7325TIP3   OH221938   5.107   6.042   4.047 -0.4711 -0.1744 -0.1949
 7325TIP3    H121939   5.016   6.072   4.054 -0.1585  0.6698  0.5659
 7325TIP3    H221940   5.105   5.950   4.073 -1.0374 -0.0111  0.3691
 7326TIP3   OH221941   7.175   5.615   4.153 -0.5051  0.0635 -0.3725
 7326TIP3    H121942   7.142   5.591   4.240  0.9522 -2.0297 -0.3282
 7326TIP3    H221943   7.246   5.676   4.170 -1.3952  1.0888 -0.2297
 7327TIP3   OH221944   4.236   4.152   3.657  0.2183  0.4095 -0.2228
 7327TIP3    H121945   4.244   4.128   3.749  1.0616  0.7588 -0.1936
 7327TIP3    H221946   4.217   4.070   3.612  0.1285  0.1850  0.2202
 7328TIP3   OH221947   1.401   3.104   2.332 -0.0469 -0.1215 -0.2769
 7328TIP3    H121948   1.464   3.037   2.307 -0.5070 -1.5573  2.1756
 7328TIP3    H221949   1.354   3.124   2.250  1.8374 -0.8340 -1.6072
 7329TIP3   OH221950   2.128   0.415   5.185  0.4396 -0.3572 -0.4054
 7329TIP3    H121951   2.179   0.409   5.266  2.8283  1.8595 -1.6326
 7329TIP3    H221952   2.162   0.345   5.130 -0.5567 -1.2799  0.1000
 7330TIP3   OH221953   0.952   6.177   5.416 -0.1061 -0.2930 -0.0392
 7330TIP3    H121954   0.982   6.100   5.367 -1.5661 -1.6032  1.0260
 7330TIP3    H221955   0.955   6.149   5.508  1.3692  1.6793  0.5731
 7331TIP3   OH221956   1.555   5.692   5.383  0.3816  0.2627  0.0021
 7331TIP3    H121957   1.619   5.650   5.440  1.3338  0.9029 -0.5659
 7331TIP3    H221958   1.608   5.746   5.324 -0.3770 -1.7158 -2.6669
 7332TIP3   OH221959   2.266   5.788   4.855 -0.2329 -0.5378 -0.0266
 7332TIP3    H121960   2.356   5.814   4.875  0.0616  0.0164 -1.9275
 7332TIP3    H221961   2.253   5.707   4.904  1.1168 -0.3672  0.6656
 7333TIP3   OH221962   6.746   4.914   0.553 -0.2163 -0.7873  0.4733
 7333TIP3    H121963   6.655   4.884   0.561 -0.3076 -0.8389 -0.6861
 7333TIP3    H221964   6.757   4.975   0.626 -1.6334  0.3252 -0.1992
 7334TIP3   OH221965   5.167   0.798   0.075  0.8191 -0.1030  0.2290
 7334TIP3    H121966   5.225   0.761   0.008  0.6220 -2.6701  1.3519
 7334TIP3    H221967   5.210   0.777   0.158 -1.6523 -2.2506  1.1185
 7335TIP3   OH221968   1.940   6.079   3.741 -0.6604 -0.4083  0.0751
 7335TIP3    H121969   1.936   6.134   3.820 -0.1175  0.4150 -0.4584
 7335TIP3    H221970   1.848   6.070   3.714 -1.1019 -2.4084  1.9158
 7336TIP3   OH221971   1.871   4.090   1.221 -0.0793 -0.1426 -0.3949
 7336TIP3    H121972   1.783   4.100   1.185  0.3470 -0.1235 -1.4854
 7336TIP3    H221973   1.898   4.002   1.195  0.5840  0.2090 -0.9580
 7337TIP3   OH221974   7.112   5.028   1.287  0.0623 -0.4318 -0.0010
 7337TIP3    H121975   7.040   5.008   1.227  0.5596  1.2369 -1.2281
 7337TIP3    H221976   7.081   5.103   1.338  0.4491 -0.5108  0.3563
 7338TIP3   OH221977   4.217   3.810   5.545 -0.3752 -0.4577 -0.2361
 7338TIP3    H121978   4.226   3.717   5.524 -1.4054 -1.3186  2.6038
 7338TIP3    H221979   4.123   3.823   5.557 -0.3609  1.2537 -1.5768
 7339TIP3   OH221980   6.739   3.349   4.575 -0.6213  0.0376  0.0421
 7339TIP3    H121981   6.786   3.274   4.612 -0.9709  0.6805  1.9451
 7339TIP3    H221982   6.647   3.321   4.575 -0.5254 -0.3310 -1.3760
 7340TIP3   OH221983   2.947   5.615   5.318  0.1755  0.4171  0.1071
 7340TIP3    H121984   3.035   5.652   5.306  1.0900 -1.3993  0.6796
 7340TIP3    H221985   2.891   5.665   5.259  1.4912  1.9847  0.1259
 7341TIP3   OH221986   0.188   0.388   3.848 -0.1071  0.2790 -0.0902
 7341TIP3    H121987   0.186   0.476   3.887 -0.4373  0.4365 -0.4527
 7341TIP3    H221988   0.247   0.396   3.774 -1.6088  0.7011 -1.2809
 7342TIP3   OH221989   3.767   5.447   5.063 -1.0385  0.2477  0.0709
 7342TIP3    H121990   3.769   5.426   4.970  0.8950 -0.1397  0.1621
 7342TIP3    H221991   3.718   5.375   5.103  1.5134 -1.7653 -0.2018
 7343TIP3   OH221992   3.716   2.927   1.590 -0.0552  0.1646 -0.8348
 7343TIP3    H121993   3.669   2.857   1.545 -0.8632  0.5960 -0.6831
 7343TIP3    H221994   3.755   2.884   1.666  0.0131 -0.2520 -1.1009
 7344TIP3   OH221995   5.067   4.596   5.813 -0.2641  0.0044 -0.0753
 7344TIP3    H121996   5.098   4.660   5.878  0.5414  2.5639 -2.7509
 7344TIP3    H221997   5.132   4.526   5.816  0.6952  0.8845  0.7612
 7345TIP3   OH221998   0.015   1.458   2.117 -0.2013 -0.4165  0.1201
 7345TIP3    H121999   0.056   1.540   2.146 -0.4653 -0.5458  0.8669
 7345TIP3    H222000  -0.027   1.481   2.034  0.4201 -0.0021 -0.0883
 7346TIP3   OH222001   1.899   1.028   4.957  0.2556  0.1983 -0.3195
 7346TIP3    H122002   1.936   1.080   5.028  0.9367  1.2190 -1.3744
 7346TIP3    H222003   1.951   1.052   4.880 -1.1863  0.0083 -1.4010
 7347TIP3   OH222004   1.485   0.363   1.067  0.0425  0.1908  0.0236
 7347TIP3    H122005   1.574   0.399   1.061  0.7179 -0.8364  2.4666
 7347TIP3    H222006   1.446   0.409   1.141 -1.4749  0.5645 -0.9738
 7348TIP3   OH222007   2.892   3.720   5.817  0.8545 -0.0230 -0.4180
 7348TIP3    H122008   2.897   3.789   5.751  0.6580  0.1609 -0.2400
 7348TIP3    H222009   2.956   3.745   5.884 -0.8913  1.2738  0.8586
 7349TIP3   OH222010   6.592   3.203   3.164 -0.0552  0.3236 -0.0088
 7349TIP3    H122011   6.499   3.207   3.140 -0.2334  1.4570  0.7918
 7349TIP3    H222012   6.638   3.186   3.082 -0.7334  2.7406 -0.9669
 7350TIP3   OH222013   1.486   6.806   3.683  0.6234 -0.3112 -0.2667
 7350TIP3    H122014   1.499   6.765   3.768  1.4529 -1.2107 -0.8056
 7350TIP3    H222015   1.473   6.733   3.622  1.6857  0.2213 -1.1748
 7351TIP3   OH222016   4.034   5.502   2.140 -0.6227  0.1221 -0.0835
 7351TIP3    H122017   4.012   5.585   2.183 -1.1101 -0.7208  1.4001
 7351TIP3    H222018   3.966   5.492   2.073 -1.6081  0.1242  0.8753
 7352TIP3   OH222019   2.233   3.291   0.356 -0.1751 -0.0588  0.3009
 7352TIP3    H122020   2.283   3.215   0.325 -0.2567 -0.2223  0.5599
 7352TIP3    H222021   2.156   3.294   0.299  0.9448  1.2225 -1.2345
 7353TIP3   OH222022   6.053   4.761   1.326 -0.0455  0.3676  0.7723
 7353TIP3    H122023   6.110   4.819   1.376 -0.4351  0.2378  1.3911
 7353TIP3    H222024   6.014   4.704   1.393  0.6872 -0.9255  0.1380
 7354TIP3   OH222025   2.695   4.562   4.824  0.5720  0.1591 -0.1869
 7354TIP3    H122026   2.769   4.510   4.794  0.1838  0.8133 -2.4732
 7354TIP3    H222027   2.720   4.591   4.912  1.4705 -2.4843  0.5425
 7355TIP3   OH222028   4.955   3.830   0.145  0.3216  0.1464 -0.4457
 7355TIP3    H122029   4.874   3.871   0.115 -1.1668 -0.9256  1.7717
 7355TIP3    H222030   4.933   3.737   0.152  1.5392 -0.0925  0.7326
 7356TIP3   OH222031   0.277   4.218   1.190  0.5119 -0.1643 -0.5873
 7356TIP3    H122032   0.302   4.127   1.179  1.0986 -0.3522  1.7469
 7356TIP3    H222033   0.351   4.268   1.156  0.7172 -0.5788 -0.7525
 7357TIP3   OH222034   4.686   0.206   3.046  0.4178  0.0524 -0.0089
 7357TIP3    H122035   4.695   0.211   2.951 -0.0281 -0.3424 -0.0747
 7357TIP3    H222036   4.712   0.293   3.077 -0.5014  0.5476 -0.5799
 7358TIP3   OH222037   1.017   4.243   5.269  0.0605 -0.1699 -0.0486
 7358TIP3    H122038   0.979   4.179   5.329 -0.0198  0.2751  0.3821
 7358TIP3    H222039   1.088   4.196   5.226  0.4589 -0.3496  0.7748
 7359TIP3   OH222040   4.414   1.567   4.254 -0.3308  0.2134  0.0585
 7359TIP3    H122041   4.349   1.611   4.198 -0.0800  1.7916  0.9597
 7359TIP3    H222042   4.496   1.613   4.236  0.1936 -0.6298  0.2200
 7360TIP3   OH222043   6.316   4.458   4.670  0.5613  0.1964 -0.0275
 7360TIP3    H122044   6.339   4.494   4.755 -0.0409  2.0503 -0.6119
 7360TIP3    H222045   6.221   4.443   4.675  0.6297 -0.3368 -0.1637
 7361TIP3   OH222046   3.786   2.879   0.777  0.0731  0.1467 -0.9290
 7361TIP3    H122047   3.861   2.820   0.784 -0.8990 -0.9953  0.5299
 7361TIP3    H222048   3.816   2.949   0.718  2.5236  0.1454  0.1820
 7362TIP3   OH222049   1.211   1.417   1.913  0.7223 -0.0325 -0.9742
 7362TIP3    H122050   1.146   1.347   1.912 -1.9495  2.2513 -0.4231
 7362TIP3    H222051   1.217   1.443   2.005 -1.1325  2.7271 -1.5063
 7363TIP3   OH222052   7.089   1.808   4.738  0.5050  0.2077  0.2736
 7363TIP3    H122053   7.163   1.761   4.777  0.2206 -1.2349 -0.8481
 7363TIP3    H222054   7.016   1.790   4.797  0.3197 -1.1024 -0.3142
 7364TIP3   OH222055   0.677   1.977   1.518  0.0098  0.3713 -0.3809
 7364TIP3    H122056   0.693   2.058   1.567 -0.3276 -0.6028  1.4125
 7364TIP3    H222057   0.583   1.963   1.525  0.3898 -1.6819  1.9139
 7365TIP3   OH222058   5.441   5.173   2.114  0.2737 -0.2856  0.0434
 7365TIP3    H122059   5.355   5.133   2.117  0.3647 -0.4282  2.1914
 7365TIP3    H222060   5.464   5.174   2.021 -1.4509 -1.4700 -0.4398
 7366TIP3   OH222061   4.144   2.876   4.194  0.2622  0.0097 -0.0080
 7366TIP3    H122062   4.171   2.874   4.102  1.1885  1.6217  0.1955
 7366TIP3    H222063   4.147   2.784   4.222 -1.4190 -0.6957 -1.9321
 7367TIP3   OH222064   3.594   5.121   3.614 -0.8074  0.3702 -0.6251
 7367TIP3    H122065   3.568   5.040   3.570  0.1080 -0.2912  0.0099
 7367TIP3    H222066   3.592   5.099   3.707 -0.3737  1.0241 -0.4544
 7368TIP3   OH222067   6.107   0.031   3.257 -0.3295  0.1228 -0.1582
 7368TIP3    H122068   6.154  -0.008   3.183 -2.1963  0.4058 -1.5819
 7368TIP3    H222069   6.172   0.038   3.326  0.7527 -3.0790 -0.6816
 7369TIP3   OH222070   6.402   3.803   5.722 -0.0808  0.7996  0.4515
 7369TIP3    H122071   6.359   3.857   5.656  0.9064  0.7242 -0.2744
 7369TIP3    H222072   6.379   3.844   5.806 -3.0409 -0.2649  0.2729
 7370TIP3   OH222073   5.863   5.628   0.202 -0.0511 -0.0908 -0.0116
 7370TIP3    H122074   5.892   5.707   0.158 -0.4400 -0.4870 -1.0202
 7370TIP3    H222075   5.780   5.606   0.159  0.0358 -1.0166  0.2674
 7371TIP3   OH222076   1.690   2.446   0.519 -0.0726  0.0003  0.3466
 7371TIP3    H122077   1.625   2.495   0.569  0.5100 -0.5683  1.7097
 7371TIP3    H222078   1.686   2.357   0.556  0.6592 -0.3320 -0.3518
 7372TIP3   OH222079   4.744   1.995   5.284 -0.1240 -0.2605 -0.2448
 7372TIP3    H122080   4.663   2.040   5.259  0.3088  1.9939  1.9352
 7372TIP3    H222081   4.801   2.003   5.208 -1.1927  0.0427 -1.0376
 7373TIP3   OH222082   4.007   4.374   2.121  0.0858  0.3702 -0.3479
 7373TIP3    H122083   4.007   4.468   2.141 -0.3257  0.4616 -0.7619
 7373TIP3    H222084   3.928   4.341   2.162  0.6937  0.0251  0.5743
 7374TIP3   OH222085   0.497   4.556   3.200  0.2648 -0.0878 -0.1252
 7374TIP3    H122086   0.467   4.489   3.138 -0.5528  0.3595 -0.2340
 7374TIP3    H222087   0.422   4.567   3.259  1.5373 -1.5758  1.8868
 7375TIP3   OH222088   4.606   1.272   2.057  0.6724 -0.5082 -0.3287
 7375TIP3    H122089   4.604   1.321   2.140 -1.0205 -1.4819  0.2534
 7375TIP3    H222090   4.684   1.304   2.013  1.6435  0.0360  1.6514
 7376TIP3   OH222091   3.894   3.207   5.424  0.0646 -0.5084  0.3591
 7376TIP3    H122092   3.884   3.144   5.494 -0.7184  0.5432  1.2238
 7376TIP3    H222093   3.816   3.262   5.429  1.7165  1.9718  1.1381
 7377TIP3   OH222094   0.235   4.832   5.752  0.2387 -0.2139 -0.4614
 7377TIP3    H122095   0.170   4.807   5.686  1.0284 -0.9741 -0.9644
 7377TIP3    H222096   0.186   4.889   5.813 -1.0246 -1.1612 -0.5458
 7378TIP3   OH222097   0.477   3.996   0.867  0.5395  0.0531  0.0884
 7378TIP3    H122098   0.549   4.054   0.841  0.1332  0.3586 -0.3568
 7378TIP3    H222099   0.512   3.948   0.943 -0.1301  2.9917  2.4388
 7379TIP3   OH222100   0.617   0.019   2.989 -0.0310  0.0508  0.1690
 7379TIP3    H122101   0.701  -0.024   3.001  0.6303  1.1771 -0.3206
 7379TIP3    H222102   0.622   0.058   2.902 -2.1248 -2.2015 -1.1017
 7380TIP3   OH222103   2.790   0.263   0.807  0.6516  0.3343 -0.4120
 7380TIP3    H122104   2.716   0.308   0.766  0.5845 -0.1939 -0.8838
 7380TIP3    H222105   2.852   0.248   0.735  1.7827  1.8628  0.1812
 7381TIP3   OH222106   5.623   2.287   4.004 -0.8051 -0.1682  0.3067
 7381TIP3    H122107   5.529   2.290   4.025 -0.8499 -0.6265  0.1885
 7381TIP3    H222108   5.627   2.238   3.922 -0.3676 -1.1832  0.9138
 7382TIP3   OH222109   0.438   4.127   5.395 -0.0584 -0.4407  0.5632
 7382TIP3    H122110   0.516   4.076   5.418  0.8139 -0.0736 -1.4032
 7382TIP3    H222111   0.470   4.217   5.390 -0.1734 -0.4835 -1.9214
 7383TIP3   OH222112   2.063   4.069   0.256 -0.0905 -0.2928 -0.2834
 7383TIP3    H122113   2.131   4.042   0.194 -0.9102 -1.5852 -0.6597
 7383TIP3    H222114   2.111   4.098   0.334  1.0385  2.5420 -1.8702
 7384TIP3   OH222115   3.176   1.222   2.442 -0.9071  0.4151 -0.0006
 7384TIP3    H122116   3.271   1.213   2.442 -0.7850  0.5298 -3.1433
 7384TIP3    H222117   3.158   1.290   2.508  1.3260  1.3773 -0.2842
 7385TIP3   OH222118   3.772   0.532   4.219  0.6443  0.4009  0.4982
 7385TIP3    H122119   3.681   0.503   4.222  1.2954 -1.7692  0.9042
 7385TIP3    H222120   3.782   0.570   4.132 -1.0811  2.3821  1.0815
 7386TIP3   OH222121   6.012   5.304   3.098 -0.1104  0.3343 -0.3058
 7386TIP3    H122122   6.103   5.273   3.093  0.1072  1.1275 -1.8262
 7386TIP3    H222123   6.020   5.397   3.121 -0.5526  0.3277 -0.1224
 7387TIP3   OH222124   1.952   0.090   0.062  0.0044 -0.4389  0.2535
 7387TIP3    H122125   2.027   0.067   0.117  1.6155 -1.3982 -2.1673
 7387TIP3    H222126   1.988   0.145  -0.006 -1.7641  0.0988 -0.3053
 7388TIP3   OH222127   0.970   3.783   5.240  0.9014  0.1881 -0.1652
 7388TIP3    H122128   1.052   3.775   5.288  0.9787  0.2625 -0.2844
 7388TIP3    H222129   0.991   3.755   5.151  1.2698  2.0040 -0.6827
 7389TIP3   OH222130   3.604   1.896   0.218  0.2637  1.1147 -0.5190
 7389TIP3    H122131   3.602   1.938   0.132 -0.0655  2.7664  0.2540
 7389TIP3    H222132   3.670   1.945   0.267  0.2436  0.3770  0.2613
 7390TIP3   OH222133   2.227   1.127   3.288 -0.0231 -0.2767 -0.2962
 7390TIP3    H122134   2.317   1.115   3.318 -0.2747 -0.9905  0.1898
 7390TIP3    H222135   2.182   1.169   3.361 -1.2295 -4.1073  1.4571
 7391TIP3   OH222136   3.362   6.406   1.328  0.2218 -0.0399  0.3590
 7391TIP3    H122137   3.382   6.313   1.338 -0.0830 -0.0047  1.5271
 7391TIP3    H222138   3.367   6.441   1.417  0.9550  1.1997 -0.1351
 7392TIP3   OH222139   0.159   2.737   4.155 -0.2324 -0.1788  0.1210
 7392TIP3    H122140   0.253   2.739   4.171  0.0456 -1.3933 -1.1579
 7392TIP3    H222141   0.136   2.644   4.153 -1.3373  0.0787 -0.2340
 7393TIP3   OH222142   4.842   5.723   5.407 -0.9065 -0.0883  0.0015
 7393TIP3    H122143   4.837   5.681   5.493  1.6236 -2.1955 -0.7257
 7393TIP3    H222144   4.918   5.780   5.412  0.2240 -1.4019 -1.2067
 7394TIP3   OH222145   0.757   4.370   4.059 -0.2060 -0.0169  0.6213
 7394TIP3    H122146   0.767   4.407   4.147 -1.0849 -0.5445  0.9523
 7394TIP3    H222147   0.840   4.325   4.042 -0.5763 -1.2069  1.8093
 7395TIP3   OH222148   1.715   0.150   3.047 -0.1636 -0.5382 -0.5220
 7395TIP3    H122149   1.808   0.166   3.062 -0.0110 -1.0096 -0.9253
 7395TIP3    H222150   1.713   0.072   2.991 -0.8216 -0.9864  0.1144
 7396TIP3   OH222151   4.070   4.789   3.232  0.4043 -0.3980  0.1042
 7396TIP3    H122152   4.137   4.732   3.194  1.4709  1.0202 -0.2468
 7396TIP3    H222153   3.993   4.778   3.177  0.9641 -0.6488 -0.6358
 7397TIP3   OH222154   0.208   4.218   5.498  0.0122  0.1905  0.7481
 7397TIP3    H122155   0.236   4.275   5.570 -0.7261  0.6422  0.6847
 7397TIP3    H222156   0.290   4.186   5.460  0.4785  1.8305  0.2850
 7398TIP3   OH222157   1.198   5.820   4.032  0.3602  0.0872  0.4956
 7398TIP3    H122158   1.277   5.874   4.036 -0.4030  1.2738  0.0684
 7398TIP3    H222159   1.131   5.879   3.997 -0.5133 -1.1398  0.0535
 7399TIP3   OH222160   2.785   5.586   1.990 -0.1651 -0.3825 -0.2225
 7399TIP3    H122161   2.802   5.546   1.905 -0.0451  1.2366 -0.9904
 7399TIP3    H222162   2.715   5.649   1.973 -1.1085 -1.0045  1.1785
 7400TIP3   OH222163   2.077   0.220   1.519  0.0536  0.6718  0.2141
 7400TIP3    H122164   2.116   0.266   1.444 -1.0645 -0.7667 -1.3418
 7400TIP3    H222165   2.076   0.284   1.589  1.3565  2.0279 -0.9357
 7401TIP3   OH222166   6.400   3.256   1.225 -0.5482 -0.4476  0.0485
 7401TIP3    H122167   6.360   3.256   1.138  0.2600 -0.8919 -0.3429
 7401TIP3    H222168   6.375   3.171   1.263  0.2730 -0.8708 -0.3301
 7402TIP3   OH222169   2.831   2.906   2.713  0.1885 -0.8744 -0.1276
 7402TIP3    H122170   2.748   2.952   2.697 -0.8228 -2.5613  0.0104
 7402TIP3    H222171   2.806   2.815   2.724  1.8777 -1.1942  1.7387
 7403TIP3   OH222172   0.278   5.144   0.412 -0.1001  0.2599 -0.5272
 7403TIP3    H122173   0.340   5.199   0.364 -0.2747  0.6796 -0.2791
 7403TIP3    H222174   0.208   5.127   0.348  0.4418 -0.5302 -0.9271
 7404TIP3   OH222175   3.444   4.535   4.713  0.5113  0.4813  0.0173
 7404TIP3    H122176   3.394   4.463   4.673  0.4429 -0.0402  1.0157
 7404TIP3    H222177   3.388   4.612   4.701 -0.1592  0.0579  0.3864
 7405TIP3   OH222178   5.081   2.491   2.449  0.0066  0.2664  0.1802
 7405TIP3    H122179   5.160   2.513   2.500 -0.8156 -2.4831  2.9898
 7405TIP3    H222180   5.009   2.530   2.499 -0.7184 -1.1777  0.3185
 7406TIP3   OH222181   3.476   4.639   2.761 -0.1752  0.1116 -0.0586
 7406TIP3    H122182   3.467   4.545   2.777 -0.2733  0.2283  0.6267
 7406TIP3    H222183   3.461   4.649   2.667 -0.2534 -0.5467 -0.1224
 7407TIP3   OH222184   3.375   2.750   5.706  0.4715  0.0777 -0.0331
 7407TIP3    H122185   3.427   2.827   5.681 -1.1849  1.3211  0.2160
 7407TIP3    H222186   3.379   2.748   5.802 -1.0146  0.9799  0.0634
 7408TIP3   OH222187   3.394   0.209   4.074  0.1166  0.1852  0.2104
 7408TIP3    H122188   3.397   0.160   3.992 -0.8288 -0.0692  0.3151
 7408TIP3    H222189   3.448   0.158   4.135 -0.2087 -0.2961  0.0950
 7409TIP3   OH222190   5.465   1.515   0.473  0.1468  0.0121  0.1799
 7409TIP3    H122191   5.512   1.435   0.499  1.5488  0.0386 -1.9829
 7409TIP3    H222192   5.410   1.487   0.400  0.6184  0.9978 -0.5686
 7410TIP3   OH222193   5.860   0.559   4.445 -0.2772  0.3850 -0.4814
 7410TIP3    H122194   5.868   0.604   4.361 -2.6664 -1.0402 -1.5724
 7410TIP3    H222195   5.820   0.625   4.503  0.0362  0.9179 -0.8549
 7411TIP3   OH222196   2.060   5.318   0.288  0.1399  0.0818  0.0500
 7411TIP3    H122197   2.104   5.264   0.354 -1.7425 -0.2561  1.1064
 7411TIP3    H222198   2.116   5.395   0.278  2.1666 -1.3677 -0.4529
 7412TIP3   OH222199   5.634   1.745   3.532 -0.1868 -0.4411 -0.0417
 7412TIP3    H122200   5.719   1.704   3.515 -0.4387  0.0197 -2.9906
 7412TIP3    H222201   5.655   1.834   3.558  0.2515 -1.2707  2.7366
 7413TIP3   OH222202   3.136   3.141   2.787 -0.0976 -0.5686 -0.5533
 7413TIP3    H122203   3.083   3.153   2.866  1.3977 -0.8288  0.5438
 7413TIP3    H222204   3.177   3.226   2.772  1.3988 -1.0778  0.3514
 7414TIP3   OH222205   0.657   5.980   3.836  0.0780  0.0207 -0.1648
 7414TIP3    H122206   0.747   5.993   3.807  0.2984 -0.2991  0.3624
 7414TIP3    H222207   0.615   6.065   3.823  0.6412  0.3611  0.2201
 7415TIP3   OH222208   4.930   1.660   3.775 -0.3320  0.5391 -0.2870
 7415TIP3    H122209   4.898   1.711   3.850 -0.2031  0.4722 -0.1860
 7415TIP3    H222210   4.963   1.579   3.814  0.4780  0.8479 -0.3260
 7416TIP3   OH222211   5.338   1.043   4.464 -0.3416 -0.2743  0.3349
 7416TIP3    H122212   5.247   1.056   4.437 -0.3954 -1.4862 -0.1377
 7416TIP3    H222213   5.345   1.086   4.549 -0.6372  2.1594 -0.8050
 7417TIP3   OH222214   6.007   5.288   3.471  0.1127  0.0566  0.3083
 7417TIP3    H122215   5.947   5.215   3.461 -1.9364  1.2489  2.8276
 7417TIP3    H222216   5.951   5.366   3.468  1.7768  1.3348  0.9543
 7418TIP3   OH222217   2.153   4.186   4.185 -0.0285  0.6988  0.3767
 7418TIP3    H122218   2.234   4.238   4.183 -0.5330  1.7290  2.7193
 7418TIP3    H222219   2.164   4.129   4.261 -0.8498 -0.3309 -0.2576
 7419TIP3   OH222220   4.284   0.697   1.910  0.1592  0.2218  0.0318
 7419TIP3    H122221   4.201   0.715   1.865 -0.4009  1.2327  1.3777
 7419TIP3    H222222   4.343   0.765   1.878  0.5612 -0.6480 -1.1137
 7420TIP3   OH222223   0.659   3.170   3.922  0.0759 -0.1009  0.0471
 7420TIP3    H122224   0.665   3.078   3.948 -1.6771 -0.7204 -1.5064
 7420TIP3    H222225   0.716   3.176   3.845 -0.5976 -0.1474 -0.4599
 7421TIP3   OH222226   1.567   0.575   0.325  0.3008 -0.6604 -0.0365
 7421TIP3    H122227   1.570   0.556   0.419 -0.4574 -2.1018 -0.2732
 7421TIP3    H222228   1.481   0.543   0.297 -0.1936  1.3135 -0.9132
 7422TIP3   OH222229   4.145   2.902   1.652 -0.1643 -0.4337 -0.5326
 7422TIP3    H122230   4.154   2.935   1.741 -1.3858 -0.1991 -0.4778
 7422TIP3    H222231   4.184   2.814   1.655 -1.2564 -0.9102  0.5472
 7423TIP3   OH222232   4.774   6.442   4.094  0.7094  0.2447  0.0085
 7423TIP3    H122233   4.733   6.492   4.024  1.7500 -0.6367 -1.2862
 7423TIP3    H222234   4.867   6.464   4.088  0.8621 -0.1389  0.8653
 7424TIP3   OH222235   1.385   6.768   1.386  0.2307  0.3820  0.3786
 7424TIP3    H122236   1.386   6.712   1.463 -0.4720  0.9877  0.8309
 7424TIP3    H222237   1.478   6.790   1.372  0.4976 -0.7245  0.3002
 7425TIP3   OH222238   3.258   2.052   5.558  0.7027  0.3147  0.1618
 7425TIP3    H122239   3.193   1.987   5.531  0.2608  0.6894  0.3050
 7425TIP3    H222240   3.305   2.011   5.630 -0.2239  0.5075  0.8973
 7426TIP3   OH222241   0.401   0.286   0.596 -0.2202 -0.7378 -0.1771
 7426TIP3    H122242   0.477   0.230   0.611 -0.5795 -1.2135 -0.1134
 7426TIP3    H222243   0.391   0.335   0.678 -1.1007 -2.0383  0.5374
 7427TIP3   OH222244   4.915   0.241   5.112 -0.3082  0.1452  0.5034
 7427TIP3    H122245   5.006   0.219   5.130 -0.0314 -1.1859 -2.0449
 7427TIP3    H222246   4.872   0.240   5.197  1.2592 -3.0986  1.4094
 7428TIP3   OH222247   5.568   1.358   4.863  0.0232 -0.0344  0.2935
 7428TIP3    H122248   5.609   1.422   4.921  2.7606 -2.4735  1.2642
 7428TIP3    H222249   5.631   1.347   4.792 -2.0176  0.8191 -1.7821
 7429TIP3   OH222250   5.485   0.422   4.869 -0.1700  0.4797  0.3214
 7429TIP3    H122251   5.561   0.472   4.840 -1.1318  0.9998 -1.4166
 7429TIP3    H222252   5.520   0.334   4.885  1.0660  1.0725  1.0430
 7430TIP3   OH222253   3.322   3.616   3.878 -0.0642  0.0787  0.0216
 7430TIP3    H122254   3.254   3.564   3.834  0.2277  0.1755 -0.5481
 7430TIP3    H222255   3.350   3.679   3.812  2.4173 -1.5852 -0.6643
 7431TIP3   OH222256   2.107   0.602   3.068  0.1154  0.2884 -0.3259
 7431TIP3    H122257   2.200   0.580   3.067 -0.0046 -0.2204 -0.4744
 7431TIP3    H222258   2.074   0.563   3.149  0.2491  1.4183  0.3001
 7432TIP3   OH222259   4.821   6.528   4.671  0.0458  0.3791  0.6713
 7432TIP3    H122260   4.798   6.506   4.762  0.3567  0.7904  0.8521
 7432TIP3    H222261   4.743   6.571   4.636 -0.3285 -0.4014  0.5210
 7433TIP3   OH222262   0.920   1.359   1.030 -0.1320  0.1939 -0.0495
 7433TIP3    H122263   0.972   1.395   1.102 -0.1918  2.2143 -0.9321
 7433TIP3    H222264   0.839   1.331   1.071  0.2625  0.2967  0.8338
 7434TIP3   OH222265   3.714   2.534   3.018 -0.1508 -0.3844  0.2458
 7434TIP3    H122266   3.780   2.486   3.067 -0.8902 -1.4448  0.2310
 7434TIP3    H222267   3.644   2.471   3.003 -0.5482  0.3094 -0.9752
 7435TIP3   OH222268   4.471   6.354   5.014  0.1728 -0.3626 -0.8897
 7435TIP3    H122269   4.489   6.381   4.924 -1.0130 -0.3709 -1.1421
 7435TIP3    H222270   4.439   6.264   5.006  0.7335 -0.6155 -0.3814
 7436TIP3   OH222271   6.563   0.741   5.192  0.2520  0.2373  0.1015
 7436TIP3    H122272   6.577   0.827   5.153  1.3538  0.0345  0.0083
 7436TIP3    H222273   6.471   0.721   5.174  0.1541  1.1151 -0.4322
 7437TIP3   OH222274   3.950   4.214   4.338  0.3503 -0.2599 -0.0593
 7437TIP3    H122275   3.937   4.126   4.303 -1.0292  0.1113 -0.5730
 7437TIP3    H222276   3.959   4.202   4.432  0.0878 -0.9467 -0.1172
 7438TIP3   OH222277   6.176   0.187   5.420 -0.1392  0.1353 -0.0732
 7438TIP3    H122278   6.090   0.156   5.448 -0.1764  1.5275  1.5752
 7438TIP3    H222279   6.157   0.260   5.361 -0.0535 -0.9642 -1.5061
 7439TIP3   OH222280   3.365   3.017   3.420  0.1181  0.1066  0.4461
 7439TIP3    H122281   3.300   2.997   3.488  0.3891 -1.5871  0.2415
 7439TIP3    H222282   3.408   3.097   3.451 -1.6108  0.9254  0.8993
 7440TIP3   OH222283   2.515   0.392   5.303  0.4031 -0.1168 -0.0100
 7440TIP3    H122284   2.433   0.386   5.353 -0.1638  1.5311 -0.6759
 7440TIP3    H222285   2.516   0.312   5.250 -1.0227  0.0281 -0.3146
 7441TIP3   OH222286   3.217   5.767   1.435 -0.8672  0.0453  0.5545
 7441TIP3    H122287   3.221   5.763   1.531 -1.5250  0.2537  0.5924
 7441TIP3    H222288   3.155   5.837   1.417  1.0009  1.6390 -0.0394
 7442TIP3   OH222289   1.726   3.329   1.243 -0.1291  0.5267  0.3550
 7442TIP3    H122290   1.731   3.405   1.186 -1.1014  0.4601  0.1634
 7442TIP3    H222291   1.764   3.258   1.192  0.0337  0.7107  0.2207
 7443TIP3   OH222292   5.579   5.123   4.379  0.4424 -0.2178 -0.1186
 7443TIP3    H122293   5.523   5.052   4.410 -0.7585  0.9109  0.3703
 7443TIP3    H222294   5.533   5.160   4.304  0.3225  0.9790  0.5248
 7444TIP3   OH222295   0.617   2.755   4.587 -0.1023 -0.3073 -0.6761
 7444TIP3    H122296   0.672   2.833   4.598  0.0483 -0.5685  0.5298
 7444TIP3    H222297   0.646   2.718   4.504 -0.9341  1.5003 -1.8264
 7445TIP3   OH222298   5.784   1.295   1.471  0.2158 -0.0767 -1.1017
 7445TIP3    H122299   5.839   1.229   1.512 -0.4868  0.5663  1.0278
 7445TIP3    H222300   5.796   1.282   1.377  1.1772 -2.2805 -0.7322
 7446TIP3   OH222301   1.831   2.030   0.025  0.0822 -0.7361  0.0248
 7446TIP3    H122302   1.738   2.051   0.040 -0.5739 -2.4811 -1.2947
 7446TIP3    H222303   1.869   2.113  -0.003 -0.6436  0.4356  2.2253
 7447TIP3   OH222304   5.216   2.865   5.864 -0.5275 -0.3561  1.0829
 7447TIP3    H122305   5.139   2.830   5.910 -1.9346  0.4077 -0.5877
 7447TIP3    H222306   5.194   2.956   5.845 -0.3114 -0.7800 -1.6094
 7448TIP3   OH222307   4.852   3.450   2.221 -0.3608  0.1906  0.3244
 7448TIP3    H122308   4.813   3.528   2.260  0.1964  1.2723 -1.1471
 7448TIP3    H222309   4.808   3.442   2.136  0.6104 -0.2235 -0.1550
 7449TIP3   OH222310   4.302   0.716   5.160  0.2377 -0.0416  1.1595
 7449TIP3    H122311   4.248   0.657   5.108  0.2136  0.2467  0.8541
 7449TIP3    H222312   4.286   0.803   5.122  2.2447 -0.1605 -0.0975
 7450TIP3   OH222313   2.350   3.447   1.282 -0.3158 -0.0494 -0.4851
 7450TIP3    H122314   2.321   3.405   1.201 -2.5113  1.0252 -0.3362
 7450TIP3    H222315   2.329   3.384   1.350  0.4628 -0.4734 -0.6223
 7451TIP3   OH222316   5.689   3.357   1.817  0.0962  0.1451 -0.7550
 7451TIP3    H122317   5.707   3.444   1.780  3.4032  0.0802  0.4035
 7451TIP3    H222318   5.710   3.296   1.747  0.1034  0.2096 -0.8089
 7452TIP3   OH222319   4.763   2.553   0.671  0.3389  0.4658  0.3182
 7452TIP3    H122320   4.681   2.508   0.655  0.7616 -0.2974  0.2354
 7452TIP3    H222321   4.747   2.644   0.646 -0.5063  0.3450  0.4140
 7453TIP3   OH222322   0.719   4.575   1.084  0.1271 -0.1065  0.4421
 7453TIP3    H122323   0.805   4.598   1.048  0.2112  0.2641  0.8757
 7453TIP3    H222324   0.664   4.651   1.065  0.4932  0.6208  2.1822
 7454TIP3   OH222325   1.846   5.598   4.066 -0.0993 -0.1468 -0.1446
 7454TIP3    H122326   1.819   5.592   3.974  1.2074 -0.0133 -0.5529
 7454TIP3    H222327   1.790   5.535   4.112  0.2798 -1.3568 -1.2855
 7455TIP3   OH222328   0.375   1.449   2.159  0.0857  0.7143  0.0861
 7455TIP3    H122329   0.342   1.494   2.080  0.2155 -0.7305 -0.8339
 7455TIP3    H222330   0.412   1.367   2.126  0.5979  0.2982  1.6153
 7456TIP3   OH222331   4.501   2.903   0.301 -0.0611  0.1887 -0.0562
 7456TIP3    H122332   4.410   2.874   0.291  0.0746 -0.3039  0.1418
 7456TIP3    H222333   4.518   2.952   0.220 -1.0741  1.8654  0.6909
 7457TIP3   OH222334   1.513   4.169   1.720  0.1393 -0.5473 -0.0542
 7457TIP3    H122335   1.577   4.230   1.685 -0.0965 -1.0173 -1.3597
 7457TIP3    H222336   1.565   4.107   1.772  0.5468 -0.0491  0.1393
 7458TIP3   OH222337   7.025   3.503   5.191 -0.3438 -0.4095 -0.3131
 7458TIP3    H122338   6.960   3.488   5.122 -0.9694  0.1363  0.1520
 7458TIP3    H222339   7.021   3.423   5.244 -1.5195  0.1068  0.4165
 7459TIP3   OH222340   2.360   1.524   2.043 -0.1292 -0.3916  0.4685
 7459TIP3    H122341   2.397   1.547   2.129  0.4579  2.9003 -0.5332
 7459TIP3    H222342   2.433   1.536   1.982 -1.1551 -0.2778 -0.7790
 7460TIP3   OH222343   7.006   3.390   3.998 -0.1503 -0.4297  0.0969
 7460TIP3    H122344   7.048   3.471   3.969 -0.4137 -0.3037  0.0708
 7460TIP3    H222345   7.032   3.325   3.933  1.7611 -0.8625  1.1934
 7461TIP3   OH222346   5.664   5.838   5.646 -0.1271  0.8908  0.0879
 7461TIP3    H122347   5.656   5.749   5.680  2.1419  0.7099  0.2973
 7461TIP3    H222348   5.586   5.883   5.679  0.2208 -0.2086  2.6193
 7462TIP3   OH222349   1.061   3.581   4.510  0.1883  0.4109  0.0579
 7462TIP3    H122350   1.016   3.618   4.586 -2.1270 -0.5341 -0.7618
 7462TIP3    H222351   0.992   3.566   4.445  1.2947 -2.9759 -0.5846
 7463TIP3   OH222352   4.064   4.649   3.471  0.3091 -0.2634  0.1413
 7463TIP3    H122353   4.107   4.723   3.514 -1.3277  0.7634  0.0868
 7463TIP3    H222354   4.070   4.668   3.378 -1.6717  0.7791  0.1724
 7464TIP3   OH222355   5.183   0.951   3.438 -0.1650  0.0922 -0.6748
 7464TIP3    H122356   5.161   1.000   3.360 -2.2375  1.1482  0.4891
 7464TIP3    H222357   5.117   0.882   3.443 -0.6404  0.5955  0.5789
 7465TIP3   OH222358   4.765   0.477   0.755 -0.0550 -0.3624  0.3735
 7465TIP3    H122359   4.782   0.548   0.693  2.1151 -1.7880 -0.7732
 7465TIP3    H222360   4.675   0.450   0.736  0.1193  0.1029 -1.2803
 7466TIP3   OH222361   6.525   6.573   4.413  0.1950  0.4159  0.3920
 7466TIP3    H122362   6.526   6.616   4.498 -0.6872  0.6094  0.3164
 7466TIP3    H222363   6.436   6.587   4.380  0.0805 -0.8976  0.0838
 7467TIP3   OH222364   4.475   5.684   2.532 -0.8420 -0.8836  0.0699
 7467TIP3    H122365   4.433   5.768   2.549 -0.5386 -0.3433 -1.6617
 7467TIP3    H222366   4.403   5.624   2.511 -0.9009 -0.2772 -1.6288
 7468TIP3   OH222367   1.066   3.234   3.880  0.0577  0.3307  0.1340
 7468TIP3    H122368   1.019   3.156   3.911 -0.1399 -0.4016 -1.8769
 7468TIP3    H222369   1.151   3.229   3.923 -0.4991 -0.1303  1.2306
 7469TIP3   OH222370   1.920   2.108   0.460  0.3390 -0.0255 -0.4433
 7469TIP3    H122371   1.887   2.135   0.375  0.8569 -1.1851 -1.0371
 7469TIP3    H222372   2.004   2.068   0.442 -0.0285 -1.2902  0.4668
 7470TIP3   OH222373   4.293   4.890   0.066  0.7676 -0.1435  1.0699
 7470TIP3    H122374   4.250   4.922   0.145  1.1924 -0.9494  1.6373
 7470TIP3    H222375   4.370   4.946   0.056 -0.4465  1.4138 -0.0415
 7471TIP3   OH222376   2.848   4.150   2.809  0.2284  0.0412 -0.0371
 7471TIP3    H122377   2.872   4.081   2.872 -1.5730  0.4053  1.1293
 7471TIP3    H222378   2.907   4.136   2.735  0.6636 -2.0747  0.6234
 7472TIP3   OH222379   0.523   5.920   4.052  0.1877  0.5222  0.0078
 7472TIP3    H122380   0.516   6.001   4.102  0.5363  0.8716 -0.4941
 7472TIP3    H222381   0.570   5.946   3.972 -0.5548  0.0263 -0.5994
 7473TIP3   OH222382   1.788   3.496   1.044 -0.3814 -0.3404 -0.1528
 7473TIP3    H122383   1.882   3.487   1.029 -0.1865  1.5793 -0.4356
 7473TIP3    H222384   1.751   3.512   0.956 -0.5252  1.7208  0.2197
 7474TIP3   OH222385   4.370   4.865   4.848  0.1446  0.1064  0.8052
 7474TIP3    H122386   4.422   4.785   4.853 -0.1292 -0.3201 -1.6652
 7474TIP3    H222387   4.279   4.836   4.860 -0.0959 -0.2652 -1.3814
 7475TIP3   OH222388   3.382   2.087   0.365  0.4926  0.0668  0.4674
 7475TIP3    H122389   3.421   2.072   0.279  1.2973  1.2896  0.5918
 7475TIP3    H222390   3.423   2.023   0.422  1.0582  0.2093  0.2304
 7476TIP3   OH222391   2.849   3.127   1.203 -0.2938 -0.0180  0.5810
 7476TIP3    H122392   2.890   3.195   1.148  0.7364 -0.6788  0.5004
 7476TIP3    H222393   2.848   3.049   1.147 -0.4478 -0.3550  1.0532
 7477TIP3   OH222394   6.603   2.759   2.628  0.1235 -0.0695  0.0600
 7477TIP3    H122395   6.689   2.762   2.669  1.1418  2.0852 -1.9990
 7477TIP3    H222396   6.621   2.741   2.536 -2.0117 -3.9868  0.1688
 7478TIP3   OH222397   1.779   4.329   5.427  0.4616 -0.0902  0.3107
 7478TIP3    H122398   1.819   4.295   5.347  1.2992  1.5745 -0.0115
 7478TIP3    H222399   1.837   4.400   5.455 -1.4467  1.4127  0.6747
 7479TIP3   OH222400   5.596   5.969   1.717  0.0607 -0.2881  0.0156
 7479TIP3    H122401   5.605   6.011   1.631 -1.2283 -0.3623 -0.1744
 7479TIP3    H222402   5.641   5.885   1.707  1.6975  0.5517  0.0629
 7480TIP3   OH222403   6.725   3.123   2.664 -0.2117  0.1369 -0.2665
 7480TIP3    H122404   6.705   3.054   2.602 -0.7125 -0.3913  0.4598
 7480TIP3    H222405   6.798   3.171   2.625  0.4714 -1.1026 -0.5500
 7481TIP3   OH222406   2.719   1.424   5.799 -0.1741 -0.4442 -0.5652
 7481TIP3    H122407   2.679   1.490   5.856  0.7643 -1.6153  1.5435
 7481TIP3    H222408   2.812   1.426   5.821 -0.0828 -2.2451 -0.6960
 7482TIP3   OH222409   4.940   1.835   3.983  0.1509 -0.6554  0.6538
 7482TIP3    H122410   5.029   1.868   3.969  0.2630 -0.0736  2.5346
 7482TIP3    H222411   4.890   1.912   4.008 -0.6391 -1.1725  0.6866
 7483TIP3   OH222412   4.215   0.231   5.115 -0.3713  0.4114 -0.4005
 7483TIP3    H122413   4.254   0.248   5.030 -1.0283  0.6887 -0.6586
 7483TIP3    H222414   4.197   0.137   5.115  1.8919 -0.0846  0.4327
 7484TIP3   OH222415   0.499   2.768   1.536  0.1720  0.4171 -0.6327
 7484TIP3    H122416   0.411   2.798   1.560  0.8774  2.0097  0.1302
 7484TIP3    H222417   0.513   2.690   1.590 -0.3636  0.7867  0.0561
 7485TIP3   OH222418   1.401   1.095   0.594 -0.2398  0.2278 -0.0205
 7485TIP3    H122419   1.428   1.088   0.502  1.1319  0.1403  0.3634
 7485TIP3    H222420   1.434   1.014   0.634 -0.9740  0.1871  0.5194
 7486TIP3   OH222421   5.761   2.103   1.443  0.1637  0.3489  0.2784
 7486TIP3    H122422   5.793   2.046   1.513 -1.3797 -0.5285  0.3099
 7486TIP3    H222423   5.805   2.187   1.458  0.1569  0.0685  2.0769
 7487TIP3   OH222424   4.178   3.645   1.457  0.6169 -0.2492  0.2200
 7487TIP3    H122425   4.129   3.563   1.455  1.3721 -0.7131 -0.7789
 7487TIP3    H222426   4.203   3.657   1.548 -0.9264 -0.2307  0.6763
 7488TIP3   OH222427   3.491   1.284   3.686  0.3693 -0.2027 -0.8424
 7488TIP3    H122428   3.549   1.284   3.610  1.4932 -0.4987 -0.0088
 7488TIP3    H222429   3.537   1.231   3.751 -1.0428 -0.8001 -0.2952
 7489TIP3   OH222430   3.593   1.217   1.386  0.4148 -0.1366 -0.1458
 7489TIP3    H122431   3.530   1.199   1.316  0.9228  0.2507 -0.7184
 7489TIP3    H222432   3.539   1.228   1.464 -0.0977 -1.3840 -0.3106
 7490TIP3   OH222433   1.732   4.646   1.882 -0.2069  0.0891 -0.3437
 7490TIP3    H122434   1.687   4.600   1.953  0.7541  0.0976  0.2741
 7490TIP3    H222435   1.816   4.672   1.918  0.5320 -0.3837 -1.6539
 7491TIP3   OH222436   1.798   3.066   0.226 -0.1663 -0.0783 -0.6207
 7491TIP3    H122437   1.785   3.047   0.133 -0.1659 -2.3073 -0.2362
 7491TIP3    H222438   1.861   2.999   0.255 -0.5656  0.2423  1.0797
 7492TIP3   OH222439   6.876   5.528   0.436 -0.3127 -0.0282 -0.7097
 7492TIP3    H122440   6.820   5.451   0.446 -0.8899  0.5819  1.3128
 7492TIP3    H222441   6.964   5.496   0.457 -0.7308  0.0527  1.4599
 7493TIP3   OH222442   0.750   5.791   1.499 -0.1021 -0.5957 -0.2059
 7493TIP3    H122443   0.827   5.742   1.472 -1.9984 -2.8841 -1.9601
 7493TIP3    H222444   0.702   5.731   1.556 -0.8565  0.5855  0.4595
 7494TIP3   OH222445   3.620   5.699   3.746  0.2758 -0.0304 -0.4322
 7494TIP3    H122446   3.712   5.709   3.770  0.3168 -0.8074 -0.2308
 7494TIP3    H222447   3.588   5.789   3.734  1.2468  0.2171 -1.2430
 7495TIP3   OH222448   1.061   4.681   2.832  0.7955  0.0777 -0.4427
 7495TIP3    H122449   1.090   4.734   2.906  0.7344  0.4319 -0.6730
 7495TIP3    H222450   1.078   4.735   2.755  0.6488 -0.1984 -0.6719
 7496TIP3   OH222451   6.310   6.798   5.737 -0.6569 -0.4910  0.6075
 7496TIP3    H122452   6.327   6.734   5.668 -0.4071  0.9879 -0.7580
 7496TIP3    H222453   6.226   6.838   5.713 -0.1964  0.5771  0.7300
 7497TIP3   OH222454   4.160   5.706   3.239 -0.2949  0.3748  0.1954
 7497TIP3    H122455   4.222   5.728   3.308 -0.0328  0.4210 -0.0557
 7497TIP3    H222456   4.093   5.774   3.244 -0.8587 -0.2290  1.1209
 7498TIP3   OH222457   3.274   3.611   0.417 -0.0182  0.4585  0.2890
 7498TIP3    H122458   3.193   3.661   0.425 -0.9228 -0.1264 -3.4627
 7498TIP3    H222459   3.342   3.678   0.400 -0.2425  0.7628  0.5886
 7499TIP3   OH222460   2.296   1.018   3.867 -0.4503  0.1008 -0.6307
 7499TIP3    H122461   2.326   0.933   3.899  0.9058  0.0553 -1.8870
 7499TIP3    H222462   2.205   1.024   3.895  0.0759 -0.7793  1.3911
 7500TIP3   OH222463   5.570   0.977   3.951  0.1790 -0.8481 -0.2398
 7500TIP3    H122464   5.636   0.946   4.013  0.0209  0.8886  0.8564
 7500TIP3    H222465   5.492   0.993   4.004 -0.1419  0.1230 -0.9699
 7501TIP3   OH222466   1.731   0.417   2.440  0.0177  0.2160  0.7410
 7501TIP3    H122467   1.787   0.377   2.372  0.5517 -1.0167  1.8632
 7501TIP3    H222468   1.730   0.353   2.511 -1.3650  1.0340  1.4983
 7502TIP3   OH222469   0.733   4.727   4.906  0.3897  0.1665  0.8924
 7502TIP3    H122470   0.677   4.722   4.829 -0.6502 -0.7574  1.6724
 7502TIP3    H222471   0.700   4.802   4.955 -1.1841 -1.2093  2.0617
 7503TIP3   OH222472   4.618   1.788   4.006  0.3161  0.2080 -0.0568
 7503TIP3    H122473   4.647   1.878   3.988 -0.6577  0.8763  1.4619
 7503TIP3    H222474   4.688   1.751   4.061  0.5946  0.1203 -0.4671
 7504TIP3   OH222475   1.906   5.001   4.677  0.2194  0.1751 -0.3121
 7504TIP3    H122476   1.939   4.913   4.693  2.3232  0.4887 -2.4237
 7504TIP3    H222477   1.832   4.990   4.617  0.9122 -0.1335 -1.1203
 7505TIP3   OH222478   1.062   5.226   5.072 -0.0819  0.3060  0.1845
 7505TIP3    H122479   1.097   5.285   5.139 -1.2147  0.8452  0.3346
 7505TIP3    H222480   1.078   5.138   5.105  1.1883  0.5311  0.1929
 7506TIP3   OH222481   1.238   2.945   3.647  0.2314  0.1486  0.1475
 7506TIP3    H122482   1.207   2.933   3.737 -0.8655  2.0667  0.0980
 7506TIP3    H222483   1.284   3.029   3.649 -1.3381  1.1201 -1.3850
 7507TIP3   OH222484   5.347   4.639   2.897 -0.6365  0.6926 -0.3072
 7507TIP3    H122485   5.340   4.584   2.819  0.0523  0.5962 -0.3035
 7507TIP3    H222486   5.256   4.657   2.921 -0.9418 -1.6825  0.5694
 7508TIP3   OH222487   4.938   6.493   0.665 -0.2217  0.0419  0.3344
 7508TIP3    H122488   4.844   6.489   0.684 -0.4495 -0.2828 -0.7588
 7508TIP3    H222489   4.964   6.401   0.654 -0.4112  0.1976 -2.1031
 7509TIP3   OH222490   0.354   5.728   1.947  0.0773 -0.4629  0.2792
 7509TIP3    H122491   0.299   5.728   2.025 -1.9229 -0.8294 -1.0543
 7509TIP3    H222492   0.332   5.647   1.902  0.8808 -0.0635 -0.8834
 7510TIP3   OH222493   2.545   6.207   5.152  0.5779 -0.4717 -0.3220
 7510TIP3    H122494   2.552   6.178   5.061  0.4936  1.7310 -1.1031
 7510TIP3    H222495   2.450   6.216   5.167  0.5652 -1.4280  0.2017
 7511TIP3   OH222496   0.723   6.001   2.096  0.0244 -0.3384  0.5270
 7511TIP3    H122497   0.666   5.928   2.120 -0.8707 -0.4261 -1.6293
 7511TIP3    H222498   0.805   5.984   2.142 -0.5807 -2.0449  1.0298
 7512TIP3   OH222499   5.729   0.295   4.550  0.2073  0.4412 -0.0763
 7512TIP3    H122500   5.668   0.324   4.482  2.0716  1.2104 -1.5240
 7512TIP3    H222501   5.740   0.373   4.605 -0.2899  0.2331  0.3165
 7513TIP3   OH222502   6.773   1.548   4.041  0.8713  0.1969  0.3775
 7513TIP3    H122503   6.701   1.576   4.098  1.4210 -0.1720  1.2790
 7513TIP3    H222504   6.844   1.608   4.062  0.6093  1.0950 -1.1089
 7514TIP3   OH222505   2.432   5.584   4.417 -0.3570  0.0879 -0.3185
 7514TIP3    H122506   2.350   5.580   4.466 -0.4732  0.7512 -0.4574
 7514TIP3    H222507   2.492   5.631   4.474  0.2675 -1.3284  0.2470
 7515TIP3   OH222508   5.533   0.385   4.395 -0.4634  0.2805 -0.5925
 7515TIP3    H122509   5.441   0.389   4.423 -1.4429 -0.7631 -3.2207
 7515TIP3    H222510   5.538   0.447   4.322  1.4366  1.6286  0.6329
 7516TIP3   OH222511   0.150   3.503   4.153  0.5265 -0.1459  0.2215
 7516TIP3    H122512   0.226   3.453   4.120 -1.0252 -0.9577 -2.5023
 7516TIP3    H222513   0.092   3.436   4.189  0.3246  0.2319  0.5955
 7517TIP3   OH222514   4.805   0.215   4.245  0.3064  0.7494 -0.3472
 7517TIP3    H122515   4.767   0.204   4.332  0.2380  0.1923 -0.4397
 7517TIP3    H222516   4.893   0.248   4.261  1.1621 -1.5252  0.0833
 7518TIP3   OH222517   4.387   4.014   3.060  0.3169  0.2699  0.0222
 7518TIP3    H122518   4.447   3.948   3.025 -0.7356 -0.0233 -1.2667
 7518TIP3    H222519   4.328   4.034   2.988 -1.1833  0.5153  1.2790
 7519TIP3   OH222520   5.384   5.250   4.972  0.2745  0.0978 -0.0656
 7519TIP3    H122521   5.478   5.250   4.993  0.3907  0.2089 -0.5669
 7519TIP3    H222522   5.348   5.178   5.024  0.7309 -0.2762 -0.2564
 7520TIP3   OH222523   7.099   3.162   2.716 -0.2269 -0.4077  0.4105
 7520TIP3    H122524   7.190   3.135   2.731 -0.6604 -2.2456 -0.0343
 7520TIP3    H222525   7.057   3.149   2.801 -0.5303 -1.6472  0.0959
 7521TIP3   OH222526   2.414   5.738   1.303  0.1230  0.0518 -0.0105
 7521TIP3    H122527   2.321   5.761   1.304  0.1168  0.1054  1.8256
 7521TIP3    H222528   2.429   5.702   1.216 -2.4831 -3.4427  0.7515
 7522TIP3   OH222529   6.737   4.482   4.652  0.1848 -0.3406  0.5934
 7522TIP3    H122530   6.663   4.500   4.594  0.0747  1.0317  1.1192
 7522TIP3    H222531   6.805   4.448   4.594 -0.0715  0.6031 -0.2933
 7523TIP3   OH222532   6.211   6.424   2.854  0.1711  0.3286 -0.0505
 7523TIP3    H122533   6.131   6.454   2.813 -1.4023 -0.3592  2.3099
 7523TIP3    H222534   6.228   6.338   2.815 -0.5849  0.2233 -0.1584
 7524TIP3   OH222535   1.443   5.443   1.647 -0.1942 -0.4698  0.0249
 7524TIP3    H122536   1.407   5.532   1.653  0.0343 -0.4189  0.7503
 7524TIP3    H222537   1.526   5.453   1.601 -0.1543 -0.3025  0.1323
 7525TIP3   OH222538   3.790   2.340   2.445  0.2377 -0.1404  0.8190
 7525TIP3    H122539   3.761   2.354   2.535  0.7198  0.6773  0.8574
 7525TIP3    H222540   3.774   2.247   2.429 -1.5695  0.0908  1.1203
 7526TIP3   OH222541   6.691   4.528   1.434 -0.4801 -0.6268  0.1043
 7526TIP3    H122542   6.777   4.502   1.402  0.0798 -0.4270  1.3852
 7526TIP3    H222543   6.695   4.623   1.442 -1.2936 -0.4744 -1.1179
 7527TIP3   OH222544   3.004   1.942   5.487 -0.2296 -0.4146 -0.2811
 7527TIP3    H122545   3.010   1.876   5.418  0.4816 -1.9373  1.1642
 7527TIP3    H222546   2.944   1.904   5.551 -0.6447  0.8285  0.0940
 7528TIP3   OH222547   5.233   1.900   2.974  0.3994  0.2456  0.3182
 7528TIP3    H122548   5.290   1.824   2.960 -0.7377 -1.4830  3.8438
 7528TIP3    H222549   5.145   1.869   2.952  0.2485  1.5507 -1.0587
 7529TIP3   OH222550   3.036   4.561   2.497  0.0063 -0.2563 -0.0529
 7529TIP3    H122551   3.077   4.497   2.554 -0.0636 -0.8025 -0.6029
 7529TIP3    H222552   3.098   4.634   2.493  0.3481 -0.5358  0.1219
 7530TIP3   OH222553   4.956   2.122   3.931  0.2326 -0.0024 -0.3052
 7530TIP3    H122554   4.958   2.188   3.862 -0.5752  0.2668 -0.0872
 7530TIP3    H222555   4.995   2.165   4.007  2.2732 -0.6995 -0.8926
 7531TIP3   OH222556   5.890   0.233   1.776 -0.6819  0.6754 -0.1245
 7531TIP3    H122557   5.844   0.225   1.859  1.1648 -0.2004  0.8747
 7531TIP3    H222558   5.910   0.327   1.768 -0.0507  0.6393  0.9054
 7532TIP3   OH222559   2.524   0.384   3.322  0.1072  0.7016  0.7074
 7532TIP3    H122560   2.527   0.434   3.404  0.9361  2.7444 -0.4900
 7532TIP3    H222561   2.615   0.368   3.300 -0.1029  0.2610  0.1426
 7533TIP3   OH222562   4.309   3.175   3.823  0.3808 -0.2242 -0.0205
 7533TIP3    H122563   4.217   3.165   3.797 -0.2399 -0.6829  2.2107
 7533TIP3    H222564   4.324   3.270   3.820 -0.2394 -0.1261 -0.0885
 7534TIP3   OH222565   6.460   3.359   4.373  0.0791  0.3148  0.4631
 7534TIP3    H122566   6.400   3.432   4.355  0.5046  1.0353  1.8493
 7534TIP3    H222567   6.419   3.311   4.444  0.3866 -0.1069  0.3573
 7535TIP3   OH222568   1.894   2.669   0.461 -0.1533  0.0347 -0.9122
 7535TIP3    H122569   1.869   2.707   0.546 -0.1823 -1.7444 -0.0791
 7535TIP3    H222570   1.827   2.701   0.400 -1.4024 -0.3809  0.1886
 7536TIP3   OH222571   2.909   5.327   3.008  0.2437 -0.4917 -0.3407
 7536TIP3    H122572   2.903   5.414   3.047  1.9257  0.6668 -2.4218
 7536TIP3    H222573   2.849   5.273   3.059  0.7324  1.3541  2.4090
 7537TIP3   OH222574   0.645   6.509   4.140  0.2755 -0.5173  0.1304
 7537TIP3    H122575   0.624   6.456   4.216 -0.2337  0.7667  0.9106
 7537TIP3    H222576   0.660   6.445   4.070 -0.0300 -1.6871  1.0984
 7538TIP3   OH222577   2.885   1.380   1.769  0.5768 -0.5915  0.3820
 7538TIP3    H122578   2.823   1.325   1.818 -0.2111 -0.5396 -0.5363
 7538TIP3    H222579   2.970   1.361   1.809  0.0628 -1.1208  1.2635
 7539TIP3   OH222580   7.161   1.390   1.592 -0.4698 -0.1361 -0.5851
 7539TIP3    H122581   7.129   1.480   1.602 -1.1447 -0.0472 -2.8961
 7539TIP3    H222582   7.082   1.336   1.596 -0.2253 -0.4971 -0.5921
 7540TIP3   OH222583   2.618   1.657   5.305 -0.1476 -0.2905  0.0339
 7540TIP3    H122584   2.696   1.673   5.252  0.5778  0.7467  1.3576
 7540TIP3    H222585   2.547   1.700   5.257  0.0479 -1.3161 -1.2231
 7541TIP3   OH222586   5.936   0.588   5.116  0.1057  0.3350 -0.0270
 7541TIP3    H122587   5.972   0.658   5.062 -2.1337 -0.2550 -2.4831
 7541TIP3    H222588   5.894   0.634   5.189  0.2675  1.4355 -0.6032
 7542TIP3   OH222589   0.208   6.361   3.405 -0.3124 -0.0654 -0.3621
 7542TIP3    H122590   0.231   6.372   3.497 -0.0885 -1.6973 -0.2006
 7542TIP3    H222591   0.173   6.272   3.399  2.8898 -1.3386 -2.4714
 7543TIP3   OH222592   1.186   6.037   1.453  0.2333  0.8004  0.0210
 7543TIP3    H122593   1.192   5.955   1.503  0.0515  0.5214 -0.4125
 7543TIP3    H222594   1.134   6.095   1.508 -1.2801 -0.0120 -0.4994
 7544TIP3   OH222595   3.575   6.592   0.444  1.1077  0.0762  0.5673
 7544TIP3    H122596   3.580   6.687   0.447  3.8458  0.0796 -0.6562
 7544TIP3    H222597   3.578   6.565   0.536 -2.2403  1.0962  1.1143
 7545TIP3   OH222598   3.143   6.314   0.713 -0.2344 -0.4491  0.0108
 7545TIP3    H122599   3.183   6.315   0.626 -1.2848 -0.3512 -0.4831
 7545TIP3    H222600   3.133   6.407   0.736  2.0179 -0.4314  1.2000
 7546TIP3   OH222601   3.213   4.001   1.480  0.3938 -0.3482  0.2273
 7546TIP3    H122602   3.161   4.073   1.516  0.4456 -0.4880  0.5915
 7546TIP3    H222603   3.285   3.990   1.543 -1.0755 -2.5089  1.6811
 7547TIP3   OH222604   6.646   0.312   2.238 -0.2443 -0.3390 -0.1999
 7547TIP3    H122605   6.556   0.338   2.219  0.4629  1.8479 -0.9042
 7547TIP3    H222606   6.697   0.346   2.164  1.0186 -2.9335 -0.6717
 7548TIP3   OH222607   4.570   6.012   1.622  0.1010  0.7678 -0.2538
 7548TIP3    H122608   4.664   5.997   1.631 -0.3652 -1.3996  2.1771
 7548TIP3    H222609   4.558   6.102   1.652  1.4344  1.3080 -1.2126
 7549TIP3   OH222610   5.985   4.869   5.217 -0.1577 -0.5729 -0.1188
 7549TIP3    H122611   6.009   4.947   5.168 -1.5718 -0.9749 -1.5259
 7549TIP3    H222612   5.890   4.873   5.224 -0.1223 -1.4049  1.1223
 7550TIP3   OH222613   2.635   0.640   0.089 -0.1089 -0.5403  0.7515
 7550TIP3    H122614   2.636   0.715   0.148  0.0257 -0.4200  0.5967
 7550TIP3    H222615   2.629   0.677   0.002  1.1275 -0.6530  0.6000
 7551TIP3   OH222616   4.755   4.536   3.229 -0.3847 -0.1713 -0.8358
 7551TIP3    H122617   4.837   4.544   3.278 -1.5774 -0.2400  1.2705
 7551TIP3    H222618   4.771   4.585   3.148  1.3668  0.7558  0.0135
 7552TIP3   OH222619   1.465   4.785   0.126 -0.1234  0.2522  0.3204
 7552TIP3    H122620   1.550   4.793   0.084  0.2405  0.0162  1.0025
 7552TIP3    H222621   1.465   4.698   0.166 -0.9108  0.0180 -0.1558
 7553TIP3   OH222622   0.134   5.469   5.908 -0.3715 -0.0909  0.3174
 7553TIP3    H122623   0.199   5.500   5.845  0.1143 -1.8174 -0.0982
 7553TIP3    H222624   0.066   5.429   5.853 -0.6300 -0.3633  0.8340
 7554TIP3   OH222625   5.697   3.876   0.632 -0.5154 -0.1139 -0.1590
 7554TIP3    H122626   5.682   3.929   0.711  0.6630  0.5681 -0.3766
 7554TIP3    H222627   5.643   3.918   0.565 -1.8433 -0.9373  0.3539
 7555TIP3   OH222628   1.929   6.068   0.376  0.2440 -0.5465  0.1089
 7555TIP3    H122629   1.913   6.122   0.453  0.5914 -1.7046  1.0104
 7555TIP3    H222630   1.985   6.123   0.320  1.9271 -0.5255  1.7033
 7556TIP3   OH222631   3.053   5.951   2.032 -0.4645 -0.5317  0.0237
 7556TIP3    H122632   2.984   5.969   1.969 -1.1323  2.1315  1.3871
 7556TIP3    H222633   3.025   5.995   2.112  2.4111  0.0024  0.8580
 7557TIP3   OH222634   4.939   5.092   5.001 -0.5852  0.0388  0.3494
 7557TIP3    H122635   4.893   5.170   5.031  1.7890  2.2157 -1.2091
 7557TIP3    H222636   4.872   5.038   4.959 -2.3421  1.0683  1.7122
 7558TIP3   OH222637   6.308   3.304   3.118  0.1053 -0.2079 -0.0430
 7558TIP3    H122638   6.346   3.353   3.046  2.8067 -0.3115  1.1663
 7558TIP3    H222639   6.290   3.217   3.082 -0.4867  0.3264 -1.0643
 7559TIP3   OH222640   5.902   1.970   3.829 -0.4644  0.1715  0.2679
 7559TIP3    H122641   5.917   2.054   3.871 -2.4037  1.2976 -1.1510
 7559TIP3    H222642   5.885   1.991   3.737  0.2022 -1.8862 -0.3944
 7560TIP3   OH222643   4.310   5.666   5.591 -0.3517 -0.0918  0.5777
 7560TIP3    H122644   4.235   5.607   5.579 -1.0828  0.8983  0.1698
 7560TIP3    H222645   4.364   5.652   5.513 -0.8384  0.2329  0.1818
 7561TIP3   OH222646   0.748   1.661   4.191 -0.0945 -0.4816  0.2572
 7561TIP3    H122647   0.817   1.702   4.244 -0.6477  1.2981 -0.3270
 7561TIP3    H222648   0.685   1.630   4.256  0.8010 -1.3137  0.7591
 7562TIP3   OH222649   5.670   5.549   3.940  0.3441  0.1565  0.6018
 7562TIP3    H122650   5.739   5.500   3.987  0.1551  0.3420  1.0726
 7562TIP3    H222651   5.588   5.518   3.978  0.0645 -1.0855 -0.8999
 7563TIP3   OH222652   1.632   4.152   4.677 -0.2611 -0.1330 -0.0034
 7563TIP3    H122653   1.643   4.074   4.622  0.2321 -1.4664  1.8903
 7563TIP3    H222654   1.565   4.128   4.740 -1.1346  1.5240 -0.2438
 7564TIP3   OH222655   1.561   2.110   3.204 -0.2156  0.1867  0.0754
 7564TIP3    H122656   1.499   2.121   3.276  0.9211 -0.5202  1.1941
 7564TIP3    H222657   1.540   2.024   3.167 -1.3815  0.9107 -1.0744
 7565TIP3   OH222658   0.089   0.752   2.227 -0.1352  0.2485 -0.8365
 7565TIP3    H122659   0.020   0.814   2.252  0.5085  0.6569 -0.0249
 7565TIP3    H222660   0.056   0.711   2.147 -0.8777  1.1632 -1.0243
 7566TIP3   OH222661   0.415   3.960   3.926 -0.1146  0.0888 -0.0863
 7566TIP3    H122662   0.494   3.926   3.886 -1.4737 -1.1263 -1.9089
 7566TIP3    H222663   0.396   3.899   3.997 -0.7223 -1.1106 -1.2311
 7567TIP3   OH222664   4.710   4.045   2.085  0.0329 -0.2426 -0.1142
 7567TIP3    H122665   4.742   4.088   2.165 -1.3512 -0.8015  0.7756
 7567TIP3    H222666   4.645   4.105   2.050 -0.9707 -0.9761  0.4269
 7568TIP3   OH222667   5.512   4.414   1.929  0.1501  0.3513  0.5833
 7568TIP3    H122668   5.587   4.427   1.871  0.1766  0.4467  0.6380
 7568TIP3    H222669   5.466   4.498   1.927 -0.0475  0.2376  0.4189
 7569TIP3   OH222670   7.183   0.928   1.513 -0.3790  0.0796  0.2393
 7569TIP3    H122671   7.189   0.833   1.508 -0.7307  0.1141 -1.3287
 7569TIP3    H222672   7.216   0.960   1.429  1.2556  1.4514  1.3425
 7570TIP3   OH222673   3.792   2.690   5.195 -0.1972 -0.3391 -0.2640
 7570TIP3    H122674   3.793   2.672   5.101 -0.5973  2.5528 -0.9363
 7570TIP3    H222675   3.859   2.757   5.207  1.3907 -2.2098  1.9682
 7571TIP3   OH222676   2.945   4.541   3.532 -0.2921 -0.1164 -0.1953
 7571TIP3    H122677   3.037   4.513   3.535 -0.2555 -0.0424  3.1465
 7571TIP3    H222678   2.896   4.460   3.516  0.3015 -0.2325 -1.5249
 7572TIP3   OH222679   0.404   0.848   0.728 -0.1489 -0.2681 -0.5253
 7572TIP3    H122680   0.343   0.877   0.797  0.3246 -0.6361  0.0518
 7572TIP3    H222681   0.488   0.886   0.753  0.4135 -1.8241  0.0577
 7573TIP3   OH222682   6.908   0.309   4.701  0.1076  0.0528 -0.3119
 7573TIP3    H122683   6.975   0.319   4.633  0.1911 -0.2305 -0.2742
 7573TIP3    H222684   6.872   0.397   4.712  1.2918  0.4548  0.5111
 7574TIP3   OH222685   1.919   0.204   2.511 -0.1654 -0.1079 -0.1904
 7574TIP3    H122686   1.912   0.199   2.606 -2.7718  1.2332 -0.2318
 7574TIP3    H222687   1.990   0.267   2.496 -0.3490  0.3733  0.8788
 7575TIP3   OH222688   5.285   3.991   4.171  0.4628 -0.0040  0.3644
 7575TIP3    H122689   5.341   3.928   4.216 -0.0588 -0.2478  0.6860
 7575TIP3    H222690   5.267   4.059   4.236  0.6217  0.2271  0.1715
 7576TIP3   OH222691   0.222   2.422   5.614 -0.1747  0.6654 -0.6846
 7576TIP3    H122692   0.190   2.503   5.655 -0.9701  0.8295 -1.5878
 7576TIP3    H222693   0.150   2.394   5.557  0.0687 -0.7128 -0.3500
 7577TIP3   OH222694   6.495   1.737   3.310  0.1377  0.3506 -0.1529
 7577TIP3    H122695   6.553   1.661   3.319  1.0926  1.1608  0.9227
 7577TIP3    H222696   6.407   1.700   3.308  0.6756 -1.0709 -3.7615
 7578TIP3   OH222697   3.226   1.702   3.567  0.6508 -0.1788 -0.3105
 7578TIP3    H122698   3.155   1.709   3.631 -0.3446 -1.6064 -1.1790
 7578TIP3    H222699   3.275   1.625   3.593  0.2830 -0.7298 -1.1628
 7579TIP3   OH222700   2.894   0.472   4.539 -0.0222 -0.3138  0.0532
 7579TIP3    H122701   2.816   0.503   4.584  0.6479  1.3953  0.0874
 7579TIP3    H222702   2.966   0.524   4.574  1.3446 -2.4970  0.7230
 7580TIP3   OH222703   4.766   0.867   1.978  0.2606  0.1532 -0.1925
 7580TIP3    H122704   4.830   0.933   2.006  0.2836 -0.1246  0.4334
 7580TIP3    H222705   4.716   0.847   2.057  0.3884 -0.7277 -0.3235
 7581TIP3   OH222706   3.658   4.952   2.353 -0.2327  0.2207 -0.3600
 7581TIP3    H122707   3.747   4.978   2.331  0.0478  0.1439  0.6241
 7581TIP3    H222708   3.603   5.000   2.291  0.3559  2.0259  0.4546
 7582TIP3   OH222709   2.264   3.271   2.940  0.2053  0.0102  0.3232
 7582TIP3    H122710   2.351   3.291   2.974  1.0409 -1.1897 -0.9937
 7582TIP3    H222711   2.265   3.305   2.851 -1.4277  1.8159  0.9338
 7583TIP3   OH222712   4.064   0.184   4.736  0.0684  0.0396  0.1760
 7583TIP3    H122713   4.114   0.128   4.677 -0.4463  0.3557 -0.5757
 7583TIP3    H222714   4.123   0.258   4.754  0.1291  0.0713 -0.1515
 7584TIP3   OH222715   6.276   5.722   1.590  0.4798  0.2071 -0.2750
 7584TIP3    H122716   6.231   5.654   1.540 -0.9679  1.1709 -0.3485
 7584TIP3    H222717   6.286   5.686   1.678  1.4572 -0.8232 -0.7900
 7585TIP3   OH222718   1.901   5.077   3.444  0.1857 -0.0189  0.2264
 7585TIP3    H122719   1.895   5.074   3.540 -0.4018  1.3432  0.2601
 7585TIP3    H222720   1.836   5.012   3.415 -2.1473  1.9235  0.7744
 7586TIP3   OH222721   2.612   5.741   1.811  0.2850  0.0030 -0.6361
 7586TIP3    H122722   2.639   5.735   1.719 -1.8502  2.1970 -1.5416
 7586TIP3    H222723   2.532   5.689   1.816  1.7855 -2.3378  0.7501
 7587TIP3   OH222724   0.325   4.641   4.917 -0.4432 -0.3665 -0.1841
 7587TIP3    H122725   0.399   4.584   4.938  0.6899  0.7545 -0.9152
 7587TIP3    H222726   0.326   4.707   4.987 -1.1729 -0.7259  0.1656
 7588TIP3   OH222727   1.223   0.066   0.324  0.0648  0.3705  0.0079
 7588TIP3    H122728   1.275   0.119   0.263  1.9291  1.0658  2.0409
 7588TIP3    H222729   1.267  -0.019   0.325 -0.1914  0.2391  0.1167
 7589TIP3   OH222730   6.796   1.621   1.119 -0.1214  0.0143  0.1857
 7589TIP3    H122731   6.861   1.574   1.171  0.3520  0.7073  0.2339
 7589TIP3    H222732   6.845   1.657   1.045 -0.2715  1.2063  0.6366
 7590TIP3   OH222733   5.256   2.178   3.764  0.1612  0.2677  0.2210
 7590TIP3    H122734   5.239   2.187   3.858 -1.6494  0.0865 -0.0458
 7590TIP3    H222735   5.238   2.265   3.728 -1.0826 -0.1475 -0.1981
 7591TIP3   OH222736   1.612   4.139   0.177  0.0700 -0.5620 -0.5368
 7591TIP3    H122737   1.596   4.175   0.264  3.0004  0.3606 -0.2737
 7591TIP3    H222738   1.551   4.065   0.170 -1.2458  0.2244  1.6904
 7592TIP3   OH222739   5.348   6.293   2.837 -0.2544  0.2027  0.2581
 7592TIP3    H122740   5.350   6.334   2.923 -2.3433  0.4568  0.2226
 7592TIP3    H222741   5.373   6.363   2.777  0.6767  0.1656  0.5852
 7593TIP3   OH222742   7.132   2.427   2.288 -0.2092  0.0264  0.3369
 7593TIP3    H122743   7.067   2.482   2.332  1.2623  1.3113  0.9936
 7593TIP3    H222744   7.118   2.340   2.325 -1.1633  0.3932  0.8888
 7594TIP3   OH222745   2.321   0.712   0.642  0.2796 -0.3457 -0.2584
 7594TIP3    H122746   2.245   0.662   0.671 -0.8578  0.7111 -1.3367
 7594TIP3    H222747   2.361   0.659   0.573 -0.4831 -0.1337 -0.8696
 7595TIP3   OH222748   1.476   0.678   3.519 -0.2538  0.6235 -0.5835
 7595TIP3    H122749   1.393   0.710   3.555 -0.3057 -0.9685  0.8210
 7595TIP3    H222750   1.473   0.583   3.532  2.1062  0.5928  0.2347
 7596TIP3   OH222751   0.518   0.241   1.851  0.2902  0.0611  0.0349
 7596TIP3    H122752   0.516   0.334   1.874  0.7663 -0.0331  0.4883
 7596TIP3    H222753   0.426   0.215   1.849  0.1721  0.4257  0.4099
 7597TIP3   OH222754   3.111   2.222   4.569  0.9468 -0.3499 -0.0298
 7597TIP3    H122755   3.031   2.176   4.595 -0.5294  1.7087 -0.6667
 7597TIP3    H222756   3.164   2.226   4.649 -0.2342 -0.5134  0.7836
 7598TIP3   OH222757   0.148   1.905   5.009  0.0921  0.4291 -0.1812
 7598TIP3    H122758   0.212   1.960   5.053 -1.7490  3.0392 -0.5278
 7598TIP3    H222759   0.066   1.956   5.012 -1.4711 -1.8100 -1.5654
 7599TIP3   OH222760   5.839   5.738   3.068  0.0668  0.3032 -0.1997
 7599TIP3    H122761   5.861   5.768   2.979  0.4583  2.1933  0.4810
 7599TIP3    H222762   5.918   5.758   3.119  0.4812 -2.3016  0.2915
 7600TIP3   OH222763   3.522   4.629   3.670  0.1459 -0.1863 -0.0851
 7600TIP3    H122764   3.603   4.590   3.636 -0.8155 -2.0352 -0.4047
 7600TIP3    H222765   3.523   4.608   3.763 -0.1373 -0.5795 -0.1654
 7601TIP3   OH222766   3.680   2.012   4.588  0.1559 -0.1723  0.0479
 7601TIP3    H122767   3.598   1.964   4.574  0.9599 -1.5211 -0.2061
 7601TIP3    H222768   3.714   2.027   4.500  0.6402 -0.4539  0.1856
 7602TIP3   OH222769   6.771   2.492   2.744  0.0740 -0.0625  0.3550
 7602TIP3    H122770   6.817   2.571   2.717  1.8076 -0.7976  1.0444
 7602TIP3    H222771   6.679   2.519   2.750  0.5762  1.8065  0.2724
 7603TIP3   OH222772   3.281   6.512   0.456 -0.2313  0.1841 -0.4336
 7603TIP3    H122773   3.362   6.528   0.504 -0.6941 -1.0907  0.8492
 7603TIP3    H222774   3.279   6.418   0.442 -1.1760  0.2780 -1.0210
 7604TIP3   OH222775   4.853   6.501   2.975  0.0392  0.4328  0.5595
 7604TIP3    H122776   4.784   6.508   2.909  0.5879 -1.4004 -0.2629
 7604TIP3    H222777   4.934   6.490   2.924  0.1304 -4.4962  1.3193
 7605TIP3   OH222778   5.573   6.507   2.014  0.0600  0.2777 -0.1443
 7605TIP3    H122779   5.552   6.509   1.921 -0.0817 -0.1174 -0.1247
 7605TIP3    H222780   5.664   6.537   2.019  0.0357  0.3947 -0.3992
 7606TIP3   OH222781   4.210   3.794   3.784 -0.1512 -0.0138 -0.1109
 7606TIP3    H122782   4.149   3.801   3.711 -0.4736 -2.1269 -0.1234
 7606TIP3    H222783   4.161   3.747   3.852  0.8738 -0.1282  0.5786
 7607TIP3   OH222784   6.920   1.708   4.487  0.8151  0.5387 -0.0508
 7607TIP3    H122785   6.854   1.758   4.535 -0.8223 -1.2306 -0.2890
 7607TIP3    H222786   6.998   1.710   4.542 -0.5667 -0.2530  2.0380
 7608TIP3   OH222787   2.260   4.435   2.535  0.3124  0.7509 -0.0583
 7608TIP3    H122788   2.299   4.487   2.465 -0.4468  0.5868 -0.6162
 7608TIP3    H222789   2.210   4.499   2.587  1.2132  0.9420  0.5903
 7609TIP3   OH222790   5.326   3.499   5.810 -0.0251 -0.5034  0.0119
 7609TIP3    H122791   5.332   3.527   5.719 -2.4113 -2.1216 -0.7409
 7609TIP3    H222792   5.325   3.404   5.806  1.5428 -0.6511  1.9247
 7610TIP3   OH222793   5.634   1.869   2.187  0.3793 -0.0569  0.2970
 7610TIP3    H122794   5.683   1.871   2.270 -0.6890 -0.6769  0.9618
 7610TIP3    H222795   5.601   1.959   2.177  1.5231  0.3357 -0.0942
 7611TIP3   OH222796   7.138   2.676   1.876 -0.1349 -0.1009 -0.1724
 7611TIP3    H122797   7.096   2.686   1.962  0.4246  0.3879  0.0487
 7611TIP3    H222798   7.170   2.586   1.876 -0.2689 -0.1503  0.0742
 7612TIP3   OH222799   4.201   2.635   0.320  0.1340 -0.5685 -0.2643
 7612TIP3    H122800   4.289   2.607   0.345  0.1969 -0.7445 -0.6878
 7612TIP3    H222801   4.201   2.729   0.336  0.1826 -0.6671  0.3760
 7613TIP3   OH222802   6.649   5.680   0.896  0.2366 -0.3627  0.5367
 7613TIP3    H122803   6.587   5.607   0.888  0.5175 -0.6741  1.1412
 7613TIP3    H222804   6.700   5.677   0.815  0.1887 -0.7869  0.5201
 7614TIP3   OH222805   3.691   3.382   5.335 -0.3100 -0.3418  0.7147
 7614TIP3    H122806   3.663   3.474   5.342 -0.1052 -0.1671 -0.5370
 7614TIP3    H222807   3.747   3.380   5.257 -0.1915 -1.5063  0.8137
 7615TIP3   OH222808   4.460   3.764   0.929 -0.4549  0.5947 -0.7133
 7615TIP3    H122809   4.544   3.746   0.887 -0.2896 -0.4186  0.0309
 7615TIP3    H222810   4.483   3.804   1.013 -0.7146  0.2506 -0.4777
 7616TIP3   OH222811   5.079   6.794   1.786  0.1145 -0.0274  0.3261
 7616TIP3    H122812   5.024   6.716   1.780  0.8510 -0.8910  3.4019
 7616TIP3    H222813   5.167   6.763   1.765 -0.0772  0.8308 -2.0623
 7617TIP3   OH222814   0.406   0.546   0.838  0.3688 -0.8606  0.0663
 7617TIP3    H122815   0.481   0.578   0.889 -0.2709  1.3167 -0.2552
 7617TIP3    H222816   0.425   0.575   0.748 -1.5574  1.1483  0.2429
 7618TIP3   OH222817   4.840   5.385   1.461  0.4425  0.4219  0.1746
 7618TIP3    H122818   4.908   5.373   1.395  0.2943 -1.8324  0.3358
 7618TIP3    H222819   4.857   5.315   1.525 -1.2829  0.5867  0.8626
 7619TIP3   OH222820   0.902   3.901   3.759 -0.3897 -0.2775  1.2505
 7619TIP3    H122821   0.882   3.994   3.749  1.5372  0.0889  0.5090
 7619TIP3    H222822   0.956   3.897   3.838  0.8876 -0.5143  0.3973
 7620TIP3   OH222823   0.010   2.476   2.889  0.1609  0.3432  0.8076
 7620TIP3    H122824   0.065   2.407   2.852 -1.5307 -0.7674  0.2452
 7620TIP3    H222825  -0.018   2.443   2.974 -1.1959 -0.0083  0.2555
 7621TIP3   OH222826   0.857   1.156   3.998  0.1821  0.2754  0.3823
 7621TIP3    H122827   0.831   1.240   4.035  1.4459 -0.0215  2.1325
 7621TIP3    H222828   0.778   1.102   4.003 -0.6283  1.3125 -0.7253
 7622TIP3   OH222829   1.284   2.839   5.477  0.5415  0.3628  0.5033
 7622TIP3    H122830   1.324   2.920   5.445 -1.2793  0.8356 -0.7542
 7622TIP3    H222831   1.334   2.769   5.433  0.1353  0.9201 -0.9089
 7623TIP3   OH222832   5.994   6.739   2.960  0.3759 -0.1997 -0.3170
 7623TIP3    H122833   6.078   6.770   2.927 -0.7626  0.7246 -2.6124
 7623TIP3    H222834   5.972   6.665   2.903 -0.1293 -0.7922  0.6259
 7624TIP3   OH222835   4.176   1.309   3.220 -0.5626  0.0839 -0.3640
 7624TIP3    H122836   4.248   1.371   3.210  0.5657 -1.2519 -0.8259
 7624TIP3    H222837   4.100   1.363   3.240  0.2357  1.6560 -1.4185
 7625TIP3   OH222838   7.149   6.711   0.408 -0.0763  0.2295 -0.0616
 7625TIP3    H122839   7.107   6.703   0.494 -0.1919 -2.2768 -0.2657
 7625TIP3    H222840   7.213   6.640   0.406  1.9156  1.9431 -1.0467
 7626TIP3   OH222841   7.015   3.368   5.733  0.4545  0.1383  0.1755
 7626TIP3    H122842   6.921   3.349   5.743  0.6167  0.0551  1.9633
 7626TIP3    H222843   7.027   3.450   5.781  0.8924  1.5192 -2.1496
 7627TIP3   OH222844   0.827   3.031   2.867  0.4822 -0.3454 -0.0620
 7627TIP3    H122845   0.820   3.051   2.960  1.0461  3.0366 -0.6144
 7627TIP3    H222846   0.905   3.079   2.838  0.4534 -1.4868 -2.2696
 7628TIP3   OH222847   6.385   4.573   3.727 -0.3310  0.4736 -0.1875
 7628TIP3    H122848   6.397   4.531   3.812  0.0652 -1.0600 -0.9574
 7628TIP3    H222849   6.309   4.630   3.738 -1.8087 -1.5240  0.5459
 7629TIP3   OH222850   3.923   3.588   1.061  0.1616  0.2314 -0.1037
 7629TIP3    H122851   3.847   3.529   1.059 -0.1260  0.6139 -0.5632
 7629TIP3    H222852   3.902   3.649   1.132 -0.6475  1.2244 -1.1584
 7630TIP3   OH222853   2.922   0.156   0.587 -0.3631  0.2067 -0.0973
 7630TIP3    H122854   2.877   0.177   0.506 -1.6299 -0.0734  0.5078
 7630TIP3    H222855   2.888   0.070   0.612  0.6613 -0.1027  0.2823
 7631TIP3   OH222856   6.861   2.153   0.803 -0.2954  0.5454 -0.6046
 7631TIP3    H122857   6.925   2.096   0.844  0.2196  0.6882 -1.1940
 7631TIP3    H222858   6.817   2.197   0.876 -0.3236 -0.1888 -0.1677
 7632TIP3   OH222859   0.028   5.928   1.980  0.1260  0.0340 -0.2452
 7632TIP3    H122860   0.089   5.941   1.907  0.7516  0.7425  0.3845
 7632TIP3    H222861   0.017   6.016   2.018  1.2553 -0.5915  1.6520
 7633TIP3   OH222862   2.968   0.461   0.937 -0.0760  0.4961  0.3081
 7633TIP3    H122863   2.882   0.442   0.973  0.3881 -1.7071  0.3639
 7633TIP3    H222864   2.978   0.400   0.864  1.7379  0.1411  0.8030
 7634TIP3   OH222865   1.656   4.725   0.982 -0.3647  0.6965  0.1055
 7634TIP3    H122866   1.738   4.763   0.951 -0.0974  0.2883  0.2986
 7634TIP3    H222867   1.670   4.710   1.076 -0.1246 -0.6720 -0.1159
 7635TIP3   OH222868   6.244   3.670   2.708 -0.2498  0.7059 -0.4489
 7635TIP3    H122869   6.283   3.698   2.791 -0.8203  0.2506 -0.0227
 7635TIP3    H222870   6.228   3.752   2.661 -1.6927  1.1191  0.6928
 7636TIP3   OH222871   1.547   2.705   4.936 -0.2466 -0.0058 -0.2416
 7636TIP3    H122872   1.491   2.780   4.955  0.1688  0.4146 -0.6558
 7636TIP3    H222873   1.616   2.740   4.880  0.4171 -0.5213  0.2315
 7637TIP3   OH222874   1.503   2.829   3.014  0.0225 -0.5651  0.7787
 7637TIP3    H122875   1.524   2.784   2.932  0.1160 -0.0363  0.5122
 7637TIP3    H222876   1.522   2.764   3.082  2.4219 -0.1714  0.5565
 7638TIP3   OH222877   0.171   0.802   4.618  0.4667 -0.7981  0.3883
 7638TIP3    H122878   0.196   0.828   4.707  0.0885 -1.0528  0.5706
 7638TIP3    H222879   0.077   0.819   4.614  0.2195 -2.0979  0.5002
 7639TIP3   OH222880   3.854   1.071   2.684  0.5213  0.1498 -0.6287
 7639TIP3    H122881   3.847   1.163   2.708 -2.4434 -0.3957  0.9869
 7639TIP3    H222882   3.888   1.028   2.763  0.0001 -0.3926 -0.6957
 7640TIP3   OH222883   6.765   0.488   3.044  0.3885 -0.2390  0.0968
 7640TIP3    H122884   6.815   0.461   2.966  1.4068 -0.1246  0.6879
 7640TIP3    H222885   6.780   0.582   3.050  0.3481 -0.2544  0.4476
 7641TIP3   OH222886   3.182   5.295   4.812  0.3643 -0.4590 -0.5324
 7641TIP3    H122887   3.087   5.283   4.814  0.2084  0.6957  0.9540
 7641TIP3    H222888   3.195   5.378   4.766  0.7283 -0.9664 -1.3803
 7642TIP3   OH222889   1.304   4.718   5.566  0.3283  0.2155 -0.0528
 7642TIP3    H122890   1.345   4.703   5.481  0.1946  1.8038 -0.4288
 7642TIP3    H222891   1.218   4.677   5.559  1.5348 -2.6410  0.5453
 7643TIP3   OH222892   6.499   0.118   0.611 -0.2154  0.0492  0.6007
 7643TIP3    H122893   6.560   0.045   0.608 -0.0950  0.1441  0.7652
 7643TIP3    H222894   6.446   0.102   0.689 -0.1709  0.1523  0.6519
 7644TIP3   OH222895   6.284   3.561   5.631 -0.3586 -0.2811  0.1325
 7644TIP3    H122896   6.339   3.497   5.677 -0.0747  0.8379  1.4245
 7644TIP3    H222897   6.302   3.644   5.675 -0.6824  0.7155 -1.5405
 7645TIP3   OH222898   6.245   6.165   0.531  0.1897 -0.4653 -0.0208
 7645TIP3    H122899   6.226   6.213   0.612  0.1390  1.9813 -1.3941
 7645TIP3    H222900   6.337   6.140   0.540  0.3054  0.1438  0.6144
 7646TIP3   OH222901   3.302   1.000   0.111 -0.1458  0.1431  0.1381
 7646TIP3    H122902   3.222   0.955   0.140 -0.6500 -0.6613 -2.3276
 7646TIP3    H222903   3.373   0.953   0.153 -0.8899  1.3703  3.0530
 7647TIP3   OH222904   2.186   3.272   4.219  0.4049  0.2471  0.4580
 7647TIP3    H122905   2.113   3.303   4.165  0.0391  0.1905  0.9155
 7647TIP3    H222906   2.262   3.275   4.160  0.0183  0.2003 -0.0548
 7648TIP3   OH222907   6.333   6.205   3.154  0.4942  0.0578 -0.3523
 7648TIP3    H122908   6.267   6.182   3.220  1.2738 -0.2418  0.3407
 7648TIP3    H222909   6.345   6.125   3.103  0.3001  0.1181 -0.4895
 7649TIP3   OH222910   3.479   1.099   4.871 -0.0959  0.2657 -1.0336
 7649TIP3    H122911   3.516   1.019   4.835 -0.7784 -0.7673  0.4607
 7649TIP3    H222912   3.421   1.069   4.941 -0.6156  2.0558 -0.6515
 7650TIP3   OH222913   3.813   2.467   1.517 -0.6055  0.1541 -0.1664
 7650TIP3    H122914   3.882   2.519   1.557 -1.0799  0.6518  0.0303
 7650TIP3    H222915   3.750   2.532   1.485 -0.0744 -0.2260 -2.0608
 7651TIP3   OH222916   3.023   1.347   3.800  0.3493 -0.1147 -0.5826
 7651TIP3    H122917   3.033   1.410   3.872  0.5961 -0.1137 -0.6163
 7651TIP3    H222918   3.113   1.319   3.780  0.4284  0.9747 -1.8619
 7652TIP3   OH222919   2.682   4.554   3.684 -0.4269 -0.6368  0.4917
 7652TIP3    H122920   2.628   4.632   3.677 -0.9844 -1.1773 -2.3415
 7652TIP3    H222921   2.767   4.580   3.647 -0.1974 -1.0137  0.7404
 7653TIP3   OH222922   6.228   2.444   5.648 -0.4003 -0.4219  0.0547
 7653TIP3    H122923   6.257   2.354   5.630 -0.1498 -0.7557  1.8726
 7653TIP3    H222924   6.137   2.435   5.676 -0.4998 -0.0663 -0.1549
 7654TIP3   OH222925   4.171   1.795   5.705 -0.6162 -0.2982 -0.0730
 7654TIP3    H122926   4.104   1.735   5.672 -1.2823  0.5158 -0.2616
 7654TIP3    H222927   4.153   1.802   5.799 -2.3161  1.6913 -0.4747
 7655TIP3   OH222928   1.836   5.934   1.092  0.0325  0.2610 -0.4401
 7655TIP3    H122929   1.835   5.841   1.113  0.9875  0.2044 -0.6346
 7655TIP3    H222930   1.926   5.953   1.065 -0.2029  1.1892 -0.6322
 7656TIP3   OH222931   6.537   2.214   0.026 -0.5137 -0.1347  0.3971
 7656TIP3    H122932   6.476   2.145   0.053 -1.8332  1.3545  1.3690
 7656TIP3    H222933   6.484   2.273  -0.029  0.7361 -0.1651 -0.9002
 7657TIP3   OH222934   1.744   6.206   1.091  0.2589  0.4687 -0.1869
 7657TIP3    H122935   1.741   6.114   1.117  1.9837 -0.7785 -3.8240
 7657TIP3    H222936   1.818   6.242   1.139  0.4993 -0.4458  0.1441
 7658TIP3   OH222937   4.124   2.884   0.436  0.0204  0.6321 -0.0065
 7658TIP3    H122938   4.120   2.947   0.509  0.4387  1.3705 -0.6115
 7658TIP3    H222939   4.033   2.854   0.426 -0.8520  3.4813 -1.6984
 7659TIP3   OH222940   0.977   1.374   2.676 -0.7647 -0.2499 -0.3895
 7659TIP3    H122941   1.025   1.447   2.637 -0.1494 -1.7311 -2.6429
 7659TIP3    H222942   1.044   1.308   2.693 -1.1047  0.0853  2.8296
 7660TIP3   OH222943   6.434   2.766   4.452  0.3737  0.2975 -0.4960
 7660TIP3    H122944   6.520   2.805   4.441 -0.4731  1.9980 -1.5190
 7660TIP3    H222945   6.373   2.835   4.427 -1.2792 -1.0215 -0.2892
 7661TIP3   OH222946   2.045   5.559   5.608  0.0111 -0.0213  0.1210
 7661TIP3    H122947   2.069   5.545   5.516 -1.5696 -0.0701 -0.3038
 7661TIP3    H222948   1.991   5.638   5.607 -0.9183 -0.6378  0.8554
 7662TIP3   OH222949   2.771   0.394   0.042 -0.1401  0.6395  0.0121
 7662TIP3    H122950   2.731   0.480   0.029  0.7718  0.9048 -1.2877
 7662TIP3    H222951   2.776   0.358  -0.047 -0.0178 -0.5326  0.4871
 7663TIP3   OH222952   6.932   6.736   2.432  0.7064  0.7853 -0.1120
 7663TIP3    H122953   6.933   6.807   2.496 -2.7992  0.3783  0.6170
 7663TIP3    H222954   6.855   6.684   2.455  0.6315 -0.7516 -3.2631
 7664TIP3   OH222955   2.979   3.433   0.430 -0.2324 -0.1547 -0.4910
 7664TIP3    H122956   3.005   3.518   0.465  0.6934 -0.0883 -1.3251
 7664TIP3    H222957   2.946   3.452   0.342  1.8508 -0.8678 -1.4790
 7665TIP3   OH222958   0.318   2.770   0.014 -0.4747  0.3281 -0.2002
 7665TIP3    H122959   0.293   2.711   0.085 -0.0880 -0.5081 -0.7433
 7665TIP3    H222960   0.406   2.800   0.037  0.5763 -1.6740 -1.3745
 7666TIP3   OH222961   4.935   1.535   3.217  0.0030 -0.9213 -0.2160
 7666TIP3    H122962   4.904   1.476   3.286 -0.0838 -0.5584  0.0575
 7666TIP3    H222963   5.026   1.553   3.239 -0.7631  1.4804  1.4660
 7667TIP3   OH222964   5.522   1.322   1.557 -0.2344 -0.2698  0.3401
 7667TIP3    H122965   5.509   1.375   1.635  0.4646  0.1786  0.1564
 7667TIP3    H222966   5.616   1.305   1.554 -0.1238  0.4617 -0.8802
 7668TIP3   OH222967   3.270   1.354   5.811 -0.1616  0.0171  0.4048
 7668TIP3    H122968   3.331   1.287   5.840  1.1384  0.7053 -0.6121
 7668TIP3    H222969   3.262   1.340   5.717  0.4639  1.5080  0.1013
 7669TIP3   OH222970   2.503   2.175   2.128  0.2201  0.2463  0.1967
 7669TIP3    H122971   2.560   2.247   2.103 -1.6616  2.0619  0.8442
 7669TIP3    H222972   2.531   2.151   2.217  0.1711  0.9312  0.4001
 7670TIP3   OH222973   0.762   6.042   0.430 -0.1482  0.0253  0.6290
 7670TIP3    H122974   0.806   6.053   0.514  0.9035 -0.6521  0.1903
 7670TIP3    H222975   0.796   5.959   0.396  0.1238  0.7135 -0.8591
 7671TIP3   OH222976   0.909   5.804   0.348  0.5961  0.3605  0.0601
 7671TIP3    H122977   0.929   5.804   0.254  0.1336  0.3507 -0.0443
 7671TIP3    H222978   0.984   5.761   0.389  0.2832 -0.6898 -0.4242
 7672TIP3   OH222979   6.674   5.781   3.927 -0.3222 -0.5785 -0.0561
 7672TIP3    H122980   6.669   5.870   3.961  4.1618 -0.7460  1.7611
 7672TIP3    H222981   6.632   5.727   3.995 -0.9912 -0.0635 -0.0482
 7673TIP3   OH222982   4.396   1.469   2.713 -0.5077  0.1872 -0.0404
 7673TIP3    H122983   4.307   1.449   2.740 -1.2137  0.7923 -1.7350
 7673TIP3    H222984   4.420   1.547   2.763 -1.3175  0.6004 -0.2802
 7674TIP3   OH222985   5.685   0.191   1.124 -0.8488 -0.3950  0.4724
 7674TIP3    H122986   5.609   0.135   1.140 -0.0930 -1.8999 -0.9644
 7674TIP3    H222987   5.761   0.134   1.139  0.0712  1.1674  2.2698
 7675TIP3   OH222988   0.094   1.341   3.837 -0.0363 -0.1531  0.1259
 7675TIP3    H122989   0.116   1.347   3.930  2.5381  0.0386 -0.4134
 7675TIP3    H222990   0.006   1.305   3.835  0.2351 -1.1373  2.6128
 7676TIP3   OH222991   5.211   3.961   0.029 -0.0760 -0.1523  0.2466
 7676TIP3    H122992   5.163   3.931   0.106 -0.4358 -0.8951 -0.2596
 7676TIP3    H222993   5.282   3.897   0.019  0.0632  0.0334  0.0499
 7677TIP3   OH222994   2.096   0.786   2.296  0.4537  0.3283  0.1207
 7677TIP3    H122995   2.133   0.734   2.368  2.5741  0.0655 -1.0583
 7677TIP3    H222996   2.166   0.848   2.274 -0.5054  1.0139 -1.0971
 7678TIP3   OH222997   0.708   4.027   3.568  0.3862  0.0773  0.2648
 7678TIP3    H122998   0.678   3.961   3.505 -1.6897  0.8087  0.4069
 7678TIP3    H222999   0.736   3.976   3.644  0.3376 -0.7045 -0.2268
 7679TIP3   OH223000   1.312   3.146   5.772  0.3133 -0.3633  1.1294
 7679TIP3    H123001   1.220   3.122   5.784  0.4960 -0.7579  1.8370
 7679TIP3    H223002   1.310   3.237   5.742 -0.3129 -0.4543  0.8853
 7680TIP3   OH223003   4.971   0.417   4.561  0.5944  0.7136  0.4754
 7680TIP3    H123004   4.978   0.361   4.639  1.8397  1.0493  0.6301
 7680TIP3    H223005   4.959   0.505   4.597  3.7976  1.2943  0.4697
 7681TIP3   OH223006   4.249   0.345   3.099 -0.1086 -0.4560 -0.0497
 7681TIP3    H123007   4.265   0.302   3.015  1.4112 -0.2880  0.1214
 7681TIP3    H223008   4.333   0.384   3.122 -0.3786 -0.8835  1.7737
 7682TIP3   OH223009   6.479   0.995   4.154 -0.0635 -0.3162  0.0658
 7682TIP3    H123010   6.465   1.054   4.229 -3.6548 -0.0995 -0.6036
 7682TIP3    H223011   6.495   1.054   4.080 -0.7960 -0.3063 -0.0888
 7683TIP3   OH223012   6.496   6.363   2.490  0.5029 -0.2833 -0.0183
 7683TIP3    H123013   6.418   6.419   2.485  0.8761  0.3209  0.7458
 7683TIP3    H223014   6.482   6.297   2.423 -0.3550  0.2202 -0.3534
 7684TIP3   OH223015   3.109   5.272  -0.018  0.0710  0.1579  0.1655
 7684TIP3    H123016   3.015   5.268  -0.000 -0.5416 -0.9614 -2.7436
 7684TIP3    H223017   3.148   5.209   0.043 -1.3692 -0.9356  0.0178
 7685TIP3   OH223018   4.522   4.629   4.828  0.2796 -0.5893 -0.0772
 7685TIP3    H123019   4.569   4.651   4.747  2.3043 -0.3176  1.1117
 7685TIP3    H223020   4.591   4.618   4.893 -1.3012 -0.9248  1.5976
 7686TIP3   OH223021   3.446   2.569   1.372  0.2076 -0.1993 -0.2323
 7686TIP3    H123022   3.536   2.598   1.359 -0.0140  0.3402 -0.5809
 7686TIP3    H223023   3.397   2.649   1.391 -0.3659 -0.3649 -0.9729
 7687TIP3   OH223024   6.884   4.930   2.412  0.3363 -0.1924  0.0091
 7687TIP3    H123025   6.899   4.927   2.506 -1.8503 -1.4177  0.3764
 7687TIP3    H223026   6.859   5.021   2.394  0.6844  0.0246  0.6196
 7688TIP3   OH223027   3.986   4.436   4.175  0.7822 -0.0408 -0.1690
 7688TIP3    H123028   3.984   4.501   4.245 -0.5854  0.1947 -0.3894
 7688TIP3    H223029   3.986   4.352   4.220  1.3464  0.1131  0.1183
 7689TIP3   OH223030   4.495   2.385   2.565  0.6299 -0.1093 -0.0211
 7689TIP3    H123031   4.480   2.410   2.656  0.9617 -1.0109  0.2904
 7689TIP3    H223032   4.477   2.291   2.563 -1.6290  0.2617 -1.3821
 7690TIP3   OH223033   3.116   1.708   3.829  0.4593  0.6739 -0.1528
 7690TIP3    H123034   3.060   1.655   3.886  2.8041 -0.8225  0.8753
 7690TIP3    H223035   3.128   1.790   3.877  0.0412  0.5865  0.1050
 7691TIP3   OH223036   0.345   3.537   2.711 -0.2687  0.3599  0.6852
 7691TIP3    H123037   0.338   3.517   2.618  0.6899  0.6900  0.5348
 7691TIP3    H223038   0.257   3.566   2.735 -0.9757 -1.3723  0.3011
 7692TIP3   OH223039   2.347   4.922   1.284  0.3980 -0.1035 -0.0057
 7692TIP3    H123040   2.322   4.857   1.349  0.8411 -2.2365 -1.8350
 7692TIP3    H223041   2.438   4.901   1.262  0.5259  1.0740 -0.7117
 7693TIP3   OH223042   6.297   0.045   0.827  0.7221 -0.1500 -0.0661
 7693TIP3    H123043   6.254  -0.041   0.821  1.1195 -0.3320 -0.4157
 7693TIP3    H223044   6.225   0.108   0.827  0.4102 -0.4995  0.6204
 7694TIP3   OH223045   2.099   6.767   4.935 -0.9855 -0.4833 -0.1661
 7694TIP3    H123046   2.178   6.816   4.956 -1.5995  0.2858  0.4017
 7694TIP3    H223047   2.109   6.745   4.842  1.1681 -2.8532  0.5324
 7695TIP3   OH223048   0.158   3.756  -0.030 -0.0537 -0.1223  0.3872
 7695TIP3    H123049   0.125   3.677   0.013 -1.1825 -0.2952 -0.7096
 7695TIP3    H223050   0.136   3.827   0.030 -1.0325 -0.4227  0.4129
 7696TIP3   OH223051   1.381   4.187   0.969  0.4549  0.4315 -0.1552
 7696TIP3    H123052   1.286   4.194   0.966  0.5070  0.9300 -1.0588
 7696TIP3    H223053   1.413   4.273   0.941  1.1276 -1.0842 -4.9197
 7697TIP3   OH223054   2.828   1.843   5.677  0.0899  0.5620  0.2139
 7697TIP3    H123055   2.794   1.851   5.766  0.0482  2.3721  0.0870
 7697TIP3    H223056   2.920   1.866   5.684 -0.0389  1.2646 -0.2690
 7698TIP3   OH223057   0.579   3.292   5.171  0.3746 -0.3779  0.0752
 7698TIP3    H123058   0.660   3.285   5.119  1.2464 -2.2917  1.5798
 7698TIP3    H223059   0.610   3.300   5.261 -1.1027 -1.3207  0.6961
 7699TIP3   OH223060   5.280   5.323   0.874  1.0133  0.2449  0.4905
 7699TIP3    H123061   5.300   5.283   0.958  0.1250  1.3483  1.2553
 7699TIP3    H223062   5.353   5.299   0.817  1.2253 -1.1946  1.3305
 7700TIP3   OH223063   2.939   6.590   5.191  0.1784  0.5661  0.4924
 7700TIP3    H123064   2.927   6.569   5.099  1.3536  1.3114  0.1361
 7700TIP3    H223065   2.877   6.534   5.238  0.4477 -0.7408 -0.6563
 7701TIP3   OH223066   1.897   5.551   4.457 -1.0662  0.1690 -0.0853
 7701TIP3    H123067   1.939   5.636   4.459  1.0445 -0.8186  0.3673
 7701TIP3    H223068   1.865   5.537   4.546 -1.4838  0.5020 -0.1802
 7702TIP3   OH223069   1.254   0.766   5.677  0.4098 -0.0081 -0.1752
 7702TIP3    H123070   1.256   0.678   5.715 -0.6383 -0.9623 -2.1433
 7702TIP3    H223071   1.175   0.766   5.623 -0.1211  2.4917  0.4787
 7703TIP3   OH223072   0.202   4.453   4.732 -0.3959 -0.3200 -0.1961
 7703TIP3    H123073   0.258   4.525   4.761 -2.7238  0.8130  1.8184
 7703TIP3    H223074   0.253   4.374   4.753  1.0267  0.6589  0.2129
 7704TIP3   OH223075   2.168   5.040   3.362 -0.0424 -0.3523 -0.3280
 7704TIP3    H123076   2.209   5.114   3.317  3.2144 -1.3995  0.6436
 7704TIP3    H223077   2.082   5.072   3.389  0.1519  2.1153 -2.3396
 7705TIP3   OH223078   3.822   2.921   2.305  0.7060  0.3255  0.4037
 7705TIP3    H123079   3.799   2.906   2.397 -2.4733  1.7884 -0.0178
 7705TIP3    H223080   3.744   2.894   2.256  2.2802 -0.3205 -1.8927
 7706TIP3   OH223081   5.409   0.460   5.651 -0.1954  0.6376  0.0378
 7706TIP3    H123082   5.434   0.433   5.563  0.6018 -1.5972  0.8854
 7706TIP3    H223083   5.361   0.385   5.687  1.9068  0.3167  2.4480
 7707TIP3   OH223084   5.412   0.600   3.559  0.1574  0.8514  0.2550
 7707TIP3    H123085   5.355   0.619   3.485  1.1956 -0.2406 -0.8585
 7707TIP3    H223086   5.353   0.589   3.633 -1.0536  0.0572 -0.8056
 7708TIP3   OH223087   7.047   6.228   4.358  0.1645 -0.0076 -0.3151
 7708TIP3    H123088   7.019   6.314   4.327  0.5241  0.4604  0.6333
 7708TIP3    H223089   6.967   6.185   4.386 -0.1144 -0.2805 -1.4743
 7709TIP3   OH223090   3.802   5.485   1.990 -0.3169  0.0481  0.2603
 7709TIP3    H123091   3.744   5.554   2.024 -0.3320 -0.0322  0.3977
 7709TIP3    H223092   3.757   5.404   2.013  1.2403 -0.1519  3.0242
 7710TIP3   OH223093   3.743   6.318   3.579  0.0371  0.3195  0.0603
 7710TIP3    H123094   3.698   6.365   3.509  0.4331 -0.1584 -0.5261
 7710TIP3    H223095   3.832   6.304   3.545 -0.1659 -1.1345  0.0717
 7711TIP3   OH223096   4.673   6.573   5.326 -0.1412  0.2430  0.0655
 7711TIP3    H123097   4.757   6.530   5.308 -1.7764 -2.0487 -3.2374
 7711TIP3    H223098   4.626   6.510   5.381 -0.4895  0.4732  0.0326
 7712TIP3   OH223099   4.827   2.189   1.552 -0.1145  0.4327  0.1969
 7712TIP3    H123100   4.917   2.212   1.527 -0.6854  0.4711 -2.0990
 7712TIP3    H223101   4.775   2.263   1.523 -0.9148  0.4360  1.5647
 7713TIP3   OH223102   6.594   6.263   0.347 -0.1136 -0.2741 -0.3500
 7713TIP3    H123103   6.655   6.226   0.283 -0.5591 -1.2809 -0.1998
 7713TIP3    H223104   6.514   6.211   0.337 -0.2376 -0.3373  0.9124
 7714TIP3   OH223105   4.014   3.020   3.099  0.4107  0.0884 -0.1818
 7714TIP3    H123106   4.086   2.962   3.074  1.0772  0.4790  0.7727
 7714TIP3    H223107   4.057   3.102   3.122 -0.2160  0.0167  1.3878
 7715TIP3   OH223108   1.695   2.375   4.245  0.0637 -0.3614  0.4855
 7715TIP3    H123109   1.790   2.387   4.248 -0.0813  2.7147 -2.0338
 7715TIP3    H223110   1.664   2.414   4.326  0.8150  2.1101 -0.3295
 7716TIP3   OH223111   0.137   2.815   3.735 -0.5491 -0.1044 -0.1659
 7716TIP3    H123112   0.231   2.803   3.731 -0.1922  1.9535  0.5558
 7716TIP3    H223113   0.100   2.731   3.707  1.4741 -0.7532 -1.0664
 7717TIP3   OH223114   0.850   1.438   3.799  0.7521 -0.2821 -0.3532
 7717TIP3    H123115   0.886   1.467   3.883 -0.8746 -0.9811  0.6290
 7717TIP3    H223116   0.758   1.462   3.803  0.0396 -2.6674 -0.8279
 7718TIP3   OH223117   0.677   6.785   0.305 -0.4652  0.1056 -0.1769
 7718TIP3    H123118   0.595   6.745   0.274 -0.8193  0.9536 -0.3659
 7718TIP3    H223119   0.709   6.833   0.229 -1.0901  1.8231  0.6134
 7719TIP3   OH223120   1.763   4.499   3.687 -0.2336  0.2469 -0.1506
 7719TIP3    H123121   1.702   4.487   3.614 -2.4128  0.5214  1.5091
 7719TIP3    H223122   1.757   4.593   3.707 -0.5874 -0.0063  1.0588
 7720TIP3   OH223123   4.994   3.412   1.771  0.7670 -0.0660  0.2383
 7720TIP3    H123124   5.009   3.482   1.708  1.7715 -1.5957 -1.3375
 7720TIP3    H223125   5.067   3.417   1.832  0.4715  0.6633  0.5332
 7721TIP3   OH223126   3.421   3.352   3.931 -0.6284  0.0750  0.4445
 7721TIP3    H123127   3.345   3.298   3.908  0.2488 -0.9508 -0.1337
 7721TIP3    H223128   3.416   3.427   3.872 -0.4656 -0.6672 -0.5415
 7722TIP3   OH223129   0.699   6.730   2.583 -0.5063 -0.2996 -0.1460
 7722TIP3    H123130   0.659   6.768   2.505  0.6503 -1.4933 -1.3801
 7722TIP3    H223131   0.781   6.777   2.593 -1.6591  1.4411  1.7769
 7723TIP3   OH223132   6.304   1.536   4.943  0.1491 -0.2610 -0.0933
 7723TIP3    H123133   6.332   1.451   4.976  1.4058 -0.3457 -1.3285
 7723TIP3    H223134   6.249   1.516   4.867  2.4718 -0.0110 -1.9672
 7724TIP3   OH223135   1.132   5.420   5.493  0.1930  0.4066  0.3377
 7724TIP3    H123136   1.145   5.326   5.477 -0.4276  0.2838  0.5296
 7724TIP3    H223137   1.150   5.461   5.408 -1.2222 -0.0628 -0.2149
 7725TIP3   OH223138   2.731   6.059   1.039 -0.2422  0.3444 -0.5795
 7725TIP3    H123139   2.801   6.102   0.990  0.4387 -0.9884 -0.8056
 7725TIP3    H223140   2.738   6.095   1.128 -0.1540  1.2135 -0.9264
 7726TIP3   OH223141   1.411   3.882   1.252  0.2742  0.4785  0.6496
 7726TIP3    H123142   1.493   3.871   1.204 -0.3762 -0.2403 -0.3399
 7726TIP3    H223143   1.358   3.806   1.226 -0.6429  0.8438  1.3974
 7727TIP3   OH223144   0.624   6.542   5.479 -0.2939 -0.1433 -0.3458
 7727TIP3    H123145   0.543   6.581   5.447 -0.4870 -0.5071 -0.3116
 7727TIP3    H223146   0.612   6.448   5.467 -0.1570 -0.2536  0.2969
 7728TIP3   OH223147   5.654   1.252   2.966 -0.7040 -0.3055  0.3697
 7728TIP3    H123148   5.745   1.222   2.959 -0.8214 -0.6120  0.1109
 7728TIP3    H223149   5.646   1.319   2.899 -0.8916 -0.8585 -0.1731
 7729TIP3   OH223150   3.406   1.870   4.022  0.6322 -0.1742  0.3126
 7729TIP3    H123151   3.404   1.958   3.984  0.8359 -0.5114 -0.5054
 7729TIP3    H223152   3.380   1.883   4.113 -1.1449  0.5020 -0.2481
 7730TIP3   OH223153   4.949   0.267   3.311  0.1056  0.1428  0.4704
 7730TIP3    H123154   4.878   0.318   3.350 -0.4268 -1.6998  2.1020
 7730TIP3    H223155   5.028   0.302   3.353 -0.0567  0.7103  0.3189
 7731TIP3   OH223156   4.616   6.459   2.836 -0.0357  0.6397  0.2281
 7731TIP3    H123157   4.656   6.378   2.806  0.5232  1.2290 -0.6941
 7731TIP3    H223158   4.523   6.440   2.841  0.3230 -0.8553  2.7393
 7732TIP3   OH223159   1.172   4.794   1.772 -0.0939  0.5561  0.1327
 7732TIP3    H123160   1.107   4.725   1.760  1.1521 -0.7161  0.4776
 7732TIP3    H223161   1.145   4.863   1.711 -0.0848 -1.1720 -1.9426
 7733TIP3   OH223162   7.078   3.892   4.426  0.1828  0.5066 -0.3262
 7733TIP3    H123163   6.989   3.925   4.412 -0.4612 -1.4073 -1.1201
 7733TIP3    H223164   7.083   3.874   4.520 -1.3077 -1.9589 -0.6311
 7734TIP3   OH223165   6.731   0.993   5.697 -0.0552 -0.5006  0.6628
 7734TIP3    H123166   6.756   0.961   5.784  1.2470  0.5747  0.7084
 7734TIP3    H223167   6.763   1.083   5.694 -0.2573 -0.4538 -0.8707
 7735TIP3   OH223168   6.367   6.375   5.826 -0.3999  0.0592  0.5302
 7735TIP3    H123169   6.367   6.469   5.840  1.3545  0.1156  0.3559
 7735TIP3    H223170   6.375   6.364   5.731 -0.3651 -0.2673  0.5670
 7736TIP3   OH223171   2.216   2.749   0.329  0.0428 -0.2754  0.4848
 7736TIP3    H123172   2.303   2.778   0.357  1.7539 -2.4158 -2.1412
 7736TIP3    H223173   2.184   2.820   0.273  0.4158  0.1668  0.8184
 7737TIP3   OH223174   0.417   1.267   1.156 -0.0907 -0.3789 -0.0083
 7737TIP3    H123175   0.397   1.219   1.076 -0.8483 -0.0631 -0.0190
 7737TIP3    H223176   0.332   1.298   1.188  0.2854  0.1921  0.4777
 7738TIP3   OH223177   1.704   2.832   4.010  0.1160  0.4215 -0.7045
 7738TIP3    H123178   1.756   2.911   4.029  1.9192 -1.3058  2.1962
 7738TIP3    H223179   1.769   2.765   3.990 -1.0508 -1.3376  1.0177
 7739TIP3   OH223180   0.948   4.173   4.901  0.5249 -0.1693  0.3358
 7739TIP3    H123181   0.886   4.100   4.895 -0.1328  0.3875  0.2684
 7739TIP3    H223182   0.902   4.247   4.862  1.0162  0.3926  0.8033
 7740TIP3   OH223183   6.217   5.345   1.880 -0.5380 -0.4782  0.1949
 7740TIP3    H123184   6.275   5.272   1.856 -2.9189 -2.4216 -0.0938
 7740TIP3    H223185   6.140   5.302   1.918 -0.9674  2.0706  2.4687
 7741TIP3   OH223186   1.867   0.101   0.456 -0.0129 -0.8003  0.4288
 7741TIP3    H123187   1.905   0.026   0.410 -0.3840 -0.6432 -0.1360
 7741TIP3    H223188   1.836   0.065   0.538  3.5375 -0.5417  2.1036
 7742TIP3   OH223189   6.424   0.183   5.069  0.0760  0.1592  0.2726
 7742TIP3    H123190   6.509   0.167   5.108  0.2204  0.2394 -0.0044
 7742TIP3    H223191   6.438   0.257   5.009  0.5775 -1.8179 -2.2463
 7743TIP3   OH223192   0.845   2.510   1.807  0.0590 -0.1479 -0.0306
 7743TIP3    H123193   0.811   2.513   1.896  0.4898 -1.2075  0.1737
 7743TIP3    H223194   0.939   2.502   1.817 -0.0256 -2.1995 -0.5513
 7744TIP3   OH223195   0.226   4.399   0.897  0.2230 -0.2939 -0.3126
 7744TIP3    H123196   0.166   4.329   0.922  0.5838 -0.4034  0.2560
 7744TIP3    H223197   0.295   4.354   0.846  0.2122 -0.2808 -0.3387
 7745TIP3   OH223198   1.594   4.480   5.673  0.1274  0.2305  0.1002
 7745TIP3    H123199   1.609   4.507   5.582  1.1988  0.1670  0.2389
 7745TIP3    H223200   1.562   4.559   5.716  0.1525  0.4165 -0.2161
 7746TIP3   OH223201   4.481   5.473   5.413 -0.6057  0.2271 -0.4462
 7746TIP3    H123202   4.422   5.410   5.372 -1.6339  0.4634  0.5976
 7746TIP3    H223203   4.497   5.539   5.345 -1.8062  0.3172 -0.6650
 7747TIP3   OH223204   3.850   0.961   2.948  0.1313 -0.9568  0.0485
 7747TIP3    H123205   3.831   1.055   2.943  2.1787 -0.5516 -2.1094
 7747TIP3    H223206   3.842   0.940   3.041 -3.4389  0.5767  0.2404
 7748TIP3   OH223207   0.313   3.835   5.347 -0.1290  0.0518 -0.4474
 7748TIP3    H123208   0.318   3.931   5.341  0.1000  0.2870  2.1597
 7748TIP3    H223209   0.399   3.805   5.319  0.7448  0.8615  1.1674
 7749TIP3   OH223210   0.335   5.028   3.846 -0.0366  0.7871 -0.0915
 7749TIP3    H123211   0.261   5.082   3.876 -0.9143  0.0833 -0.9155
 7749TIP3    H223212   0.396   5.028   3.920 -1.6517 -0.0446  1.3232
 7750TIP3   OH223213   4.470   0.266   5.827  0.1856  0.2325  0.0185
 7750TIP3    H123214   4.519   0.336   5.870 -0.6106  0.2498  0.9302
 7750TIP3    H223215   4.388   0.261   5.876  0.1622 -1.2211 -0.1425
 7751TIP3   OH223216   4.832   4.989   0.777  0.5996 -0.3336 -0.4017
 7751TIP3    H123217   4.738   4.995   0.759  0.6357 -2.3258 -1.5952
 7751TIP3    H223218   4.838   4.981   0.872 -0.4883 -0.5136 -0.3348
 7752TIP3   OH223219   3.319   4.699   3.010  0.3364 -0.2359 -0.2501
 7752TIP3    H123220   3.327   4.787   2.974  2.7672 -0.1448  0.3521
 7752TIP3    H223221   3.355   4.641   2.943  1.3071 -0.4714  0.4594
 7753TIP3   OH223222   1.099   1.094   4.852  0.6982 -0.1805 -0.3569
 7753TIP3    H123223   1.158   1.030   4.811 -1.2282 -2.3692  0.0872
 7753TIP3    H223224   1.150   1.130   4.924  1.2469 -2.8212  0.7044
 7754TIP3   OH223225   4.423   3.107   5.014  0.2846  0.0961  0.0215
 7754TIP3    H123226   4.481   3.093   4.940 -0.3266  0.5557 -0.5574
 7754TIP3    H223227   4.341   3.138   4.975 -1.3008 -3.0086  0.5640
 7755TIP3   OH223228   6.216   0.880   5.860 -0.1507 -0.0099  0.2268
 7755TIP3    H123229   6.203   0.815   5.791  0.3865 -1.5617  1.5254
 7755TIP3    H223230   6.283   0.842   5.916 -0.3972  1.3187  1.4692
 7756TIP3   OH223231   3.701   6.578   2.116 -0.2743 -0.0591  0.0591
 7756TIP3    H123232   3.774   6.640   2.121  0.3123 -0.6920 -0.4247
 7756TIP3    H223233   3.742   6.496   2.087 -1.0526 -0.6414  0.5979
 7757TIP3   OH223234   3.194   2.539   0.819 -0.2467 -0.5171 -0.3657
 7757TIP3    H123235   3.216   2.632   0.822  0.6364 -0.7366  0.0943
 7757TIP3    H223236   3.210   2.514   0.728  0.8179 -0.5186 -0.1921
 7758TIP3   OH223237   3.406   5.907   3.767  0.3263 -0.6597 -0.4649
 7758TIP3    H123238   3.328   5.956   3.741  1.2565  1.4966  0.5498
 7758TIP3    H223239   3.381   5.864   3.849 -0.3715 -1.5797 -1.1472
 7759TIP3   OH223240   1.483   5.347   5.362 -0.6371  0.1310 -0.0765
 7759TIP3    H123241   1.499   5.420   5.302  2.9625 -0.5205 -0.0932
 7759TIP3    H223242   1.467   5.272   5.305 -0.4896  0.1432 -0.1324
 7760TIP3   OH223243   5.263   1.356   1.475 -0.5448  0.2244  0.2644
 7760TIP3    H123244   5.205   1.280   1.468 -0.3759  0.2050 -1.0892
 7760TIP3    H223245   5.349   1.319   1.497 -0.4041 -0.0052 -0.6561
 7761TIP3   OH223246   0.444   5.152   0.035  0.1632  0.4018  0.4395
 7761TIP3    H123247   0.444   5.214   0.108 -0.5569  0.1349  0.6785
 7761TIP3    H223248   0.456   5.206  -0.043  0.6602  0.7172  0.7335
 7762TIP3   OH223249   3.892   3.405   2.919  0.2632 -0.2912  0.3938
 7762TIP3    H123250   3.824   3.345   2.888 -1.7090  1.7047  0.5920
 7762TIP3    H223251   3.902   3.385   3.012 -0.3481 -0.3516  0.4498
 7763TIP3   OH223252   3.463   3.037   0.798 -0.3789 -0.3115  0.2777
 7763TIP3    H123253   3.438   3.095   0.726 -0.1874  0.1309  0.5667
 7763TIP3    H223254   3.404   3.060   0.869  0.7830  0.6896  0.9420
 7764TIP3   OH223255   1.109   5.034   2.230  0.1519 -0.9416 -0.0539
 7764TIP3    H123256   1.171   5.104   2.209  0.5956 -1.5570 -0.7898
 7764TIP3    H223257   1.126   4.966   2.166 -1.6920 -0.8882 -0.6539
 7765TIP3   OH223258   6.056   0.418   2.935  0.5290  0.0815 -0.0830
 7765TIP3    H123259   5.966   0.402   2.963  0.2545 -2.6398 -2.0548
 7765TIP3    H223260   6.079   0.503   2.973 -2.5893  0.5345  1.0658
 7766TIP3   OH223261   0.514   2.760   3.139 -0.3797 -0.6449 -0.1100
 7766TIP3    H123262   0.457   2.700   3.187  0.9558 -1.4687  0.5081
 7766TIP3    H223263   0.589   2.773   3.197 -0.8536  2.0938  0.0268
 7767TIP3   OH223264   1.949   0.724   4.706  0.2127  0.0096 -0.2552
 7767TIP3    H123265   1.858   0.752   4.697  0.0804 -0.8924 -2.1448
 7767TIP3    H223266   1.992   0.759   4.628  1.4792  0.2936  0.5443
 7768TIP3   OH223267   5.366   5.464   1.650  0.5918  0.3711  0.3637
 7768TIP3    H123268   5.374   5.389   1.591 -1.8547  1.1968 -1.1527
 7768TIP3    H223269   5.289   5.445   1.703  0.2644  1.5783  0.3401
 7769TIP3   OH223270   4.424   2.905   3.909 -0.1822 -0.0950 -0.1387
 7769TIP3    H123271   4.445   2.989   3.867 -2.2996  0.9269  0.6971
 7769TIP3    H223272   4.350   2.925   3.967 -0.8417 -2.5700 -0.0128
 7770TIP3   OH223273   7.166   2.366   3.654  0.1429 -0.3469  0.1597
 7770TIP3    H123274   7.209   2.282   3.671 -0.1516 -0.5211  0.0469
 7770TIP3    H223275   7.072   2.347   3.662  0.1049  0.2454  1.4058
 7771TIP3   OH223276   5.360   5.009   5.071  0.4487  0.5274 -0.2489
 7771TIP3    H123277   5.410   5.007   4.989  1.6411 -0.1735  0.4767
 7771TIP3    H223278   5.277   4.966   5.049  1.1781 -0.6348 -0.8246
 7772TIP3   OH223279   6.404   4.055   0.966 -0.2270  0.0823 -0.2905
 7772TIP3    H123280   6.373   4.060   1.056  0.5762  0.4277 -0.0274
 7772TIP3    H223281   6.324   4.060   0.913 -0.6996 -0.0868  0.3943
 7773TIP3   OH223282   5.595   0.554   0.515 -0.0378  0.3363  0.3873
 7773TIP3    H123283   5.604   0.602   0.597  1.0728 -0.5999  0.8436
 7773TIP3    H223284   5.505   0.521   0.516 -0.0579  0.3987  1.1941
 7774TIP3   OH223285   5.551   5.835   4.275  0.3234  0.7100 -0.1623
 7774TIP3    H123286   5.463   5.824   4.310  0.3870 -2.0515 -0.6241
 7774TIP3    H223287   5.609   5.792   4.338  0.9081 -0.5708 -1.5029
 7775TIP3   OH223288   2.172   5.157   2.854 -0.2291  0.0954  0.4726
 7775TIP3    H123289   2.189   5.080   2.799 -0.3349  1.3053 -1.3362
 7775TIP3    H223290   2.228   5.143   2.931  1.6632 -0.6396 -0.9291
 7776TIP3   OH223291   5.199   2.661   4.108  0.6681 -0.1616 -0.2949
 7776TIP3    H123292   5.137   2.734   4.107  0.2900 -0.4681 -2.0611
 7776TIP3    H223293   5.158   2.595   4.163 -0.7824 -0.5158 -1.7375
 7777TIP3   OH223294   6.674   2.436   0.510 -0.0136  0.2891 -0.1789
 7777TIP3    H123295   6.769   2.440   0.500  0.0025  1.3654  0.2435
 7777TIP3    H223296   6.640   2.431   0.421  0.4778 -1.9334 -0.2884
 7778TIP3   OH223297   4.479   6.790   4.367 -0.2331  0.1552  0.0820
 7778TIP3    H123298   4.498   6.723   4.301  0.5980  1.0251 -0.5895
 7778TIP3    H223299   4.544   6.859   4.351  0.4183  0.1111  2.2405
 7779TIP3   OH223300   0.288   2.267   5.843 -0.2295  0.0858  0.2443
 7779TIP3    H123301   0.245   2.298   5.763 -0.3000  0.7677  0.5357
 7779TIP3    H223302   0.244   2.314   5.913  0.5032  0.2459  0.6024
 7780TIP3   OH223303   3.228   4.876   0.159 -0.2186  0.1849  0.0100
 7780TIP3    H123304   3.209   4.850   0.249 -0.4388  0.3400  0.0098
 7780TIP3    H223305   3.221   4.972   0.160 -0.8041  0.1481 -0.3044
 7781TIP3   OH223306   1.978   3.960   4.647  0.2536  0.0267  0.0667
 7781TIP3    H123307   2.032   4.037   4.632 -0.4126  0.4301 -0.2891
 7781TIP3    H223308   1.991   3.940   4.740  2.2714 -0.8685 -0.3607
 7782TIP3   OH223309   1.012   1.488   1.268 -0.0053  0.4662 -0.0260
 7782TIP3    H123310   1.107   1.474   1.259 -0.2741 -1.7918  0.1467
 7782TIP3    H223311   0.995   1.478   1.361 -0.6923 -1.4423 -0.3164
 7783TIP3   OH223312   0.804   6.721   4.268  0.0318 -0.4237  0.0733
 7783TIP3    H123313   0.752   6.656   4.221  1.1211 -1.3388  0.1015
 7783TIP3    H223314   0.894   6.691   4.261  0.4581  0.5529  0.9456
 7784TIP3   OH223315   1.320   4.062   4.502 -0.5409 -0.3890 -0.0921
 7784TIP3    H123316   1.346   4.062   4.410 -1.7268  0.6263 -0.4494
 7784TIP3    H223317   1.399   4.037   4.549  0.3946  0.1985 -1.3032
 7785TIP3   OH223318   6.895   3.004   3.241 -0.1892 -0.5119  0.4618
 7785TIP3    H123319   6.989   3.019   3.249 -0.5425  1.6043  1.1938
 7785TIP3    H223320   6.880   2.997   3.147  0.6163 -0.3930  0.3124
 7786TIP3   OH223321   5.428   4.269   1.134  0.0567 -0.1032 -0.2427
 7786TIP3    H123322   5.413   4.189   1.084  1.0194 -0.4092 -0.0577
 7786TIP3    H223323   5.494   4.317   1.085  0.4458 -0.0455  0.3295
 7787TIP3   OH223324   2.570   3.888   4.618 -0.5232 -0.5064 -0.0718
 7787TIP3    H123325   2.533   3.909   4.704 -2.5223 -1.5637 -0.6124
 7787TIP3    H223326   2.577   3.972   4.574  0.2386  0.0142  0.9919
 7788TIP3   OH223327   5.371   2.809   0.429 -0.1334  0.2238  0.6899
 7788TIP3    H123328   5.358   2.729   0.480 -0.1227  1.4891  2.7879
 7788TIP3    H223329   5.464   2.829   0.439 -0.1244  0.4689  0.1318
 7789TIP3   OH223330   3.646   5.587   1.483  0.4917 -0.3591 -0.2607
 7789TIP3    H123331   3.710   5.613   1.416  2.4258 -1.2415  1.1347
 7789TIP3    H223332   3.688   5.611   1.565 -0.4079 -2.1922  0.7818
 7790TIP3   OH223333   7.098   6.769   4.365 -0.4244  0.0101  0.1863
 7790TIP3    H123334   7.041   6.743   4.292  0.8989 -0.0663 -0.8536
 7790TIP3    H223335   7.185   6.739   4.339  0.2570  0.9313  1.3264
 7791TIP3   OH223336   1.343   2.752   1.680 -0.4662  0.0052  0.4129
 7791TIP3    H123337   1.425   2.793   1.651 -0.0317 -0.2774  1.2027
 7791TIP3    H223338   1.283   2.825   1.695  0.1130  0.3208  1.2391
 7792TIP3   OH223339   6.669   1.739   5.790 -0.1061  0.4895  0.1917
 7792TIP3    H123340   6.739   1.776   5.737  0.0537  0.1795  0.1904
 7792TIP3    H223341   6.617   1.687   5.729  0.0274  0.2040  0.3204
 7793TIP3   OH223342   6.300   2.380   3.664  0.0343  0.1848 -0.3757
 7793TIP3    H123343   6.343   2.450   3.615 -1.2733  1.0653 -0.2858
 7793TIP3    H223344   6.258   2.424   3.737 -1.3416 -0.6066 -0.6665
 7794TIP3   OH223345   3.794   4.096   1.172  0.0913  0.4722 -0.2596
 7794TIP3    H123346   3.875   4.083   1.123 -0.2899  0.1154 -0.7963
 7794TIP3    H223347   3.733   4.133   1.109 -0.0629  1.0800  0.2353
 7795TIP3   OH223348   3.729   6.695   2.999 -0.3719 -0.1703  0.5301
 7795TIP3    H123349   3.712   6.768   2.940 -1.0398 -0.7558 -0.0043
 7795TIP3    H223350   3.801   6.647   2.958  3.1949  2.4784  2.9332
 7796TIP3   OH223351   4.894   6.298   0.294 -0.0662  0.0996  0.4424
 7796TIP3    H123352   4.925   6.214   0.326  1.6653 -0.0616 -1.4855
 7796TIP3    H223353   4.960   6.361   0.325 -0.2044  0.4347  0.0652
 7797TIP3   OH223354   3.425   1.074   1.165 -0.2603  0.0004  0.2889
 7797TIP3    H123355   3.364   1.001   1.174  0.1078 -0.5152 -1.2093
 7797TIP3    H223356   3.510   1.032   1.151 -0.2482  0.6666 -1.9657
 7798TIP3   OH223357   1.243   2.336   2.956  0.0297 -0.6289 -0.6222
 7798TIP3    H123358   1.219   2.404   2.893  1.8650  0.4598 -0.2093
 7798TIP3    H223359   1.314   2.375   3.008 -1.0271 -1.6849  1.7588
 7799TIP3   OH223360   4.000   6.071   4.534 -0.3748  0.1530 -0.4318
 7799TIP3    H123361   4.033   6.058   4.445 -0.3019 -2.0872 -0.1308
 7799TIP3    H223362   3.905   6.071   4.525 -0.3747 -0.3929 -0.5026
 7800TIP3   OH223363   3.750   0.955   5.547 -0.6320  0.5380 -0.1407
 7800TIP3    H123364   3.811   0.964   5.474  0.4932  0.6905  0.7849
 7800TIP3    H223365   3.685   0.891   5.517  1.5027 -1.7376 -0.2055
 7801TIP3   OH223366   1.994   3.091   3.695  0.4874 -0.0796 -0.7080
 7801TIP3    H123367   1.918   3.040   3.669  0.9070 -0.8445 -0.4631
 7801TIP3    H223368   2.028   3.128   3.613  0.4426 -0.5671 -0.9465
 7802TIP3   OH223369   3.565   1.788   4.833  0.2404 -0.0958 -0.3635
 7802TIP3    H123370   3.623   1.747   4.770  1.2259  0.8915 -0.1305
 7802TIP3    H223371   3.496   1.828   4.780 -0.1721 -1.1507 -0.6498
 7803TIP3   OH223372   2.360   1.521   2.587 -1.3301 -0.4327 -0.0231
 7803TIP3    H123373   2.302   1.584   2.631 -2.4889 -0.5762 -1.2781
 7803TIP3    H223374   2.448   1.555   2.603 -1.7887  0.1943  1.3279
 7804TIP3   OH223375   1.207   5.550   0.765 -0.1993 -0.6851  0.2035
 7804TIP3    H123376   1.251   5.587   0.841  0.7153 -0.5572 -0.3826
 7804TIP3    H223377   1.277   5.519   0.709 -0.7596  1.0366 -1.5319
 7805TIP3   OH223378   1.294   6.079   1.934 -0.1996  0.1522 -0.1390
 7805TIP3    H123379   1.263   6.162   1.899 -1.8039 -0.1160  0.5592
 7805TIP3    H223380   1.340   6.037   1.861  1.7605  2.1459 -0.1617
 7806TIP3   OH223381   2.165   0.847   4.595 -0.1611 -0.1685  0.0875
 7806TIP3    H123382   2.208   0.927   4.565 -0.5449  0.0893  0.2149
 7806TIP3    H223383   2.134   0.805   4.515  0.9761 -0.7401 -0.0676
 7807TIP3   OH223384   4.605   3.291   2.431 -0.3537  0.1170 -0.8299
 7807TIP3    H123385   4.516   3.325   2.441 -0.9461 -1.7838  0.9298
 7807TIP3    H223386   4.661   3.360   2.466 -1.1903  0.9336 -1.0505
 7808TIP3   OH223387   3.077   3.213   0.284 -0.0655  0.1812 -0.1745
 7808TIP3    H123388   3.053   3.262   0.363  1.0178  1.3361 -0.5157
 7808TIP3    H223389   3.169   3.190   0.298 -0.2468 -0.7785 -0.5241
 7809TIP3   OH223390   5.076   0.519   0.694  0.5214 -0.3837 -0.4990
 7809TIP3    H123391   5.063   0.438   0.645  0.4097  0.1453 -1.3629
 7809TIP3    H223392   4.988   0.558   0.700 -0.0955 -1.9133  2.8475
 7810TIP3   OH223393   2.769   1.504   4.933 -0.4519 -0.2019  0.7940
 7810TIP3    H123394   2.673   1.502   4.928 -0.7416  0.9123  3.7355
 7810TIP3    H223395   2.793   1.421   4.974 -0.1516 -0.4116  0.2059
 7811TIP3   OH223396   6.385   4.802   3.002  0.4038  0.3709  0.0178
 7811TIP3    H123397   6.315   4.771   3.059  0.4089  1.4715  0.6317
 7811TIP3    H223398   6.362   4.768   2.915 -0.1288 -0.4716  0.4731
 7812TIP3   OH223399   1.753   1.877   3.122 -0.1973 -0.0445 -0.1830
 7812TIP3    H123400   1.663   1.857   3.147 -0.0583  0.2112  0.5486
 7812TIP3    H223401   1.766   1.830   3.040 -1.8925  2.0982 -1.8148
 7813TIP3   OH223402   2.896   1.114   3.213  0.5491 -0.1276  0.0805
 7813TIP3    H123403   2.928   1.158   3.291  0.5600 -0.8487  0.4961
 7813TIP3    H223404   2.926   1.168   3.140 -1.1490  1.6647  0.6166
 7814TIP3   OH223405   5.869   3.107   0.395  0.2055  0.7193  0.3707
 7814TIP3    H123406   5.912   3.192   0.402  0.1380  0.6763  1.5631
 7814TIP3    H223407   5.934   3.045   0.428  1.2042 -0.0634 -2.7360
 7815TIP3   OH223408   3.290   3.235   4.539  0.1192 -0.0569 -0.0715
 7815TIP3    H123409   3.197   3.215   4.537  0.1072 -0.1637  0.9157
 7815TIP3    H223410   3.320   3.200   4.623  1.0914 -0.2090 -0.4639
 7816TIP3   OH223411   1.984   5.413   2.978  0.0630 -0.0889 -0.3005
 7816TIP3    H123412   2.060   5.362   2.949 -0.1324 -1.0195  0.7556
 7816TIP3    H223413   1.931   5.351   3.028 -0.7421  0.8810  0.0791
 7817TIP3   OH223414   0.615   1.005   0.836 -0.4103 -0.2892  0.0083
 7817TIP3    H123415   0.671   0.932   0.862  0.7946  0.9389  1.0781
 7817TIP3    H223416   0.664   1.050   0.767 -0.1977  0.5966  0.7100
 7818TIP3   OH223417   6.862   0.089   2.934 -0.1074 -0.2019 -0.1895
 7818TIP3    H123418   6.783   0.117   2.980 -0.3961 -0.2430 -0.6543
 7818TIP3    H223419   6.848  -0.005   2.919  0.6873 -0.5443  1.0314
 7819TIP3   OH223420   5.843   1.724   3.901 -0.2309  0.6090 -0.3569
 7819TIP3    H123421   5.857   1.816   3.878 -2.9229  1.4216  0.9105
 7819TIP3    H223422   5.927   1.682   3.883  1.3361  3.4579 -0.2414
 7820TIP3   OH223423   3.192   2.337   3.569  0.3631  0.3014  0.4530
 7820TIP3    H123424   3.109   2.291   3.583  0.5945  0.1213  1.3370
 7820TIP3    H223425   3.178   2.389   3.490 -0.2250 -0.5523 -0.0229
 7821TIP3   OH223426   3.209   2.585   5.252  0.4581 -0.2194 -0.2501
 7821TIP3    H123427   3.115   2.575   5.269  0.7631 -1.6390  0.8566
 7821TIP3    H223428   3.214   2.637   5.172 -1.2493  0.5452  0.0904
 7822TIP3   OH223429   5.010   6.573   5.198 -0.3146  0.1991  0.4755
 7822TIP3    H123430   5.006   6.568   5.102 -1.1618 -2.1006  0.5765
 7822TIP3    H223431   5.102   6.559   5.219 -0.2982 -0.4700  0.0076
 7823TIP3   OH223432   0.051   5.936   0.650  0.1548 -0.3096  0.1024
 7823TIP3    H123433   0.020   6.007   0.706 -0.3218 -1.2512  1.0731
 7823TIP3    H223434   0.143   5.956   0.635 -0.2848  1.2214 -0.7776
 7824TIP3   OH223435   3.544   3.749   3.415 -0.6486  0.8042  0.4750
 7824TIP3    H123436   3.636   3.775   3.414 -0.5373  0.4286 -1.1842
 7824TIP3    H223437   3.496   3.831   3.430 -0.1251  1.3660 -0.7996
 7825TIP3   OH223438   1.307   3.065   1.689 -0.6564  0.5026 -0.1596
 7825TIP3    H123439   1.357   3.138   1.651  0.5709 -0.5517 -0.6366
 7825TIP3    H223440   1.278   3.014   1.613  0.3747 -0.7046  0.2330
 7826TIP3   OH223441   2.828   0.562   1.449  0.5529  0.1754 -0.0156
 7826TIP3    H123442   2.766   0.509   1.398 -0.5763 -0.6065  2.0293
 7826TIP3    H223443   2.775   0.634   1.484  1.1692  0.4192  0.4406
 7827TIP3   OH223444   7.083   4.081   2.492  0.0091 -0.3402 -0.3353
 7827TIP3    H123445   7.015   4.146   2.473  0.3118  0.6293  1.6239
 7827TIP3    H223446   7.145   4.090   2.420 -1.2070 -0.2635 -1.4206
 7828TIP3   OH223447   6.329   1.016   3.049 -0.3107  0.2171  0.6709
 7828TIP3    H123448   6.281   0.934   3.056 -0.1866 -0.0849 -1.4052
 7828TIP3    H223449   6.414   0.997   3.089 -1.2004  0.2088  2.6880
 7829TIP3   OH223450   4.654   5.195   1.076 -0.2503  0.4308 -0.2723
 7829TIP3    H123451   4.700   5.111   1.083  0.6588  0.8362 -1.2151
 7829TIP3    H223452   4.598   5.185   0.999 -3.4092 -0.7900  1.9403
 7830TIP3   OH223453   2.512   2.424   4.597 -0.0247  0.2308  0.4412
 7830TIP3    H123454   2.589   2.480   4.611 -0.8638  1.7911 -0.8906
 7830TIP3    H223455   2.438   2.484   4.596 -1.0064 -0.9385 -0.7154
 7831TIP3   OH223456   4.816   0.718   2.698  0.0895  0.2669 -0.4852
 7831TIP3    H123457   4.835   0.782   2.767 -0.2211 -0.0561 -0.0861
 7831TIP3    H223458   4.755   0.763   2.640 -1.1393 -0.0671  0.4912
 7832TIP3   OH223459   5.990   1.962   1.754 -0.4463  0.3536 -0.4673
 7832TIP3    H123460   5.959   1.921   1.673  1.3748 -1.2957 -0.4243
 7832TIP3    H223461   6.028   1.889   1.804  1.5311  1.8413  0.3351
 7833TIP3   OH223462   0.136   6.397   2.803  0.1023 -0.4454 -0.4776
 7833TIP3    H123463   0.157   6.461   2.871 -1.6826 -0.2740 -0.0206
 7833TIP3    H223464   0.165   6.313   2.839  1.7039 -0.0215 -0.7274
 7834TIP3   OH223465   3.613   3.014   2.072 -0.6143 -0.0577  0.5280
 7834TIP3    H123466   3.691   3.068   2.088 -0.1698 -0.5260  0.0089
 7834TIP3    H223467   3.552   3.038   2.142  0.1435  0.0405  1.1758
 7835TIP3   OH223468   6.846   6.179   4.752 -0.0940 -0.1902 -0.5870
 7835TIP3    H123469   6.881   6.101   4.708  2.1300  0.3299  0.1132
 7835TIP3    H223470   6.755   6.183   4.725 -0.4229 -3.2517 -0.3519
 7836TIP3   OH223471   5.397   4.144   4.992 -0.2159  0.1162 -0.5478
 7836TIP3    H123472   5.341   4.222   4.997  0.5199  0.6227 -0.0144
 7836TIP3    H223473   5.433   4.146   4.903 -1.4033 -0.4863 -1.0692
 7837TIP3   OH223474   4.007   5.643   3.662 -0.7622 -0.2228  0.2675
 7837TIP3    H123475   4.026   5.550   3.646  2.9627 -0.2065  3.1187
 7837TIP3    H223476   4.056   5.690   3.594  1.4073 -0.3694  1.6561
 7838TIP3   OH223477   4.819   3.124   2.285 -0.0736  0.0708  0.5383
 7838TIP3    H123478   4.868   3.198   2.321 -0.2715  0.4685  0.0131
 7838TIP3    H223479   4.745   3.113   2.344  0.5089 -0.3871  1.2075
 7839TIP3   OH223480   5.386   3.899   5.645 -0.6054 -0.0437 -0.7050
 7839TIP3    H123481   5.413   3.818   5.603 -1.9236 -1.0608  0.3330
 7839TIP3    H223482   5.410   3.968   5.582  0.3067 -1.2298 -1.7068
 7840TIP3   OH223483   1.588   0.292   5.244  0.7971 -0.3835 -0.1974
 7840TIP3    H123484   1.583   0.286   5.339 -1.6298 -0.8552 -0.2748
 7840TIP3    H223485   1.532   0.221   5.212  1.2375  0.0003 -1.9657
 7841TIP3   OH223486   4.925   1.090   3.274  0.6377 -0.4464  0.3872
 7841TIP3    H123487   4.896   1.001   3.297 -0.1340  0.2420  2.3831
 7841TIP3    H223488   4.847   1.131   3.237 -0.1556  0.4549  2.8654
 7842TIP3   OH223489   5.172   1.099   3.211 -0.0429 -0.5743 -0.3906
 7842TIP3    H123490   5.077   1.096   3.226 -0.0121  2.2631  0.9401
 7842TIP3    H223491   5.188   1.187   3.178  2.1233 -1.1174 -0.9114
 7843TIP3   OH223492   0.107   5.165   1.167 -0.0552 -0.4866 -0.4466
 7843TIP3    H123493   0.071   5.253   1.172  1.7440  0.2243  2.9561
 7843TIP3    H223494   0.030   5.107   1.175 -0.9197  0.8824  1.9442
 7844TIP3   OH223495   6.299   3.694   1.262  0.1973 -0.0624 -0.1892
 7844TIP3    H123496   6.245   3.756   1.312  0.3478  0.4852 -0.6987
 7844TIP3    H223497   6.310   3.620   1.321 -1.0432 -0.1490 -0.0344
 7845TIP3   OH223498   0.947   4.448   0.565 -0.6948  0.1805 -0.6572
 7845TIP3    H123499   1.036   4.416   0.547 -1.2564 -3.1931  1.5839
 7845TIP3    H223500   0.898   4.427   0.486 -0.3458 -2.0367 -0.3503
 7846TIP3   OH223501   4.015   1.855   3.866  0.3595 -0.1913  0.0282
 7846TIP3    H123502   4.099   1.875   3.908  1.3109 -2.0587 -0.8791
 7846TIP3    H223503   3.995   1.766   3.894  0.7353 -1.2988 -2.9037
 7847TIP3   OH223504   3.566   1.738   5.484  0.1972  0.8615 -0.0187
 7847TIP3    H123505   3.503   1.810   5.473  1.5050  1.9722 -0.5151
 7847TIP3    H223506   3.646   1.769   5.442  1.5061  0.0326  1.7338
 7848TIP3   OH223507   6.304   5.091   4.252 -0.3742 -0.0730 -0.5942
 7848TIP3    H123508   6.211   5.075   4.269 -0.3667 -1.0133 -1.3462
 7848TIP3    H223509   6.309   5.114   4.159 -0.0279  1.6522 -0.1902
 7849TIP3   OH223510   4.663   6.664   1.874 -0.0129  0.0040 -0.3243
 7849TIP3    H123511   4.608   6.742   1.889 -0.7850 -0.4426 -0.7713
 7849TIP3    H223512   4.634   6.602   1.941  0.1557 -0.1228 -0.3702
 7850TIP3   OH223513   2.638   2.063   2.353 -0.6320 -0.0585 -0.3378
 7850TIP3    H123514   2.709   2.016   2.311 -0.0842 -0.0807  0.5897
 7850TIP3    H223515   2.633   2.027   2.441 -1.7786 -0.0350 -0.3757
 7851TIP3   OH223516   0.764   0.105   4.553 -0.5327  0.5101 -0.0438
 7851TIP3    H123517   0.755   0.166   4.626 -1.3173 -0.9894  1.1595
 7851TIP3    H223518   0.856   0.113   4.527 -0.1913  0.9309  1.2228
 7852TIP3   OH223519   2.937   4.806   1.932  0.0926 -0.5422 -0.2850
 7852TIP3    H123520   2.954   4.896   1.959  0.1636 -0.1971 -1.4482
 7852TIP3    H223521   2.885   4.770   2.004  2.6606 -0.5717  1.7572
 7853TIP3   OH223522   3.563   0.909   1.994  0.0221 -0.2340  0.2592
 7853TIP3    H123523   3.633   0.972   1.977  0.4466 -0.9358 -0.7507
 7853TIP3    H223524   3.510   0.949   2.063 -1.2613  2.4821 -2.0736
 7854TIP3   OH223525   4.899   6.227   4.647  0.2388 -0.0637 -0.5840
 7854TIP3    H123526   4.993   6.221   4.661 -0.0957  0.0134  2.2557
 7854TIP3    H223527   4.889   6.301   4.587  1.9803 -0.4998 -1.4803
 7855TIP3   OH223528   1.688   0.191   4.277  0.1883  0.3280 -0.8681
 7855TIP3    H123529   1.644   0.242   4.209  0.3864  1.8822  0.1127
 7855TIP3    H223530   1.779   0.220   4.274  0.5089 -0.6502 -0.8856
 7856TIP3   OH223531   3.708   1.319   2.690  0.0807 -0.1088 -0.3940
 7856TIP3    H123532   3.646   1.392   2.696  1.4542  1.3732 -2.5691
 7856TIP3    H223533   3.714   1.301   2.596  0.3113 -2.6060  0.0450
 7857TIP3   OH223534   5.850   1.308   3.569  0.2067  0.0354 -0.8636
 7857TIP3    H123535   5.786   1.312   3.498  1.0934 -1.6305 -1.8190
 7857TIP3    H223536   5.809   1.251   3.635 -0.0286  0.4306 -0.6658
 7858TIP3   OH223537   7.068   1.363   5.309 -0.8115  0.4865  0.0957
 7858TIP3    H123538   7.092   1.343   5.218  2.9394 -0.0031  1.0506
 7858TIP3    H223539   7.015   1.287   5.337  0.0436 -0.5456 -0.9732
 7859TIP3   OH223540   6.574   6.233   4.728 -0.1164 -0.0309 -0.1175
 7859TIP3    H123541   6.579   6.314   4.777 -1.5317 -0.0901  0.1650
 7859TIP3    H223542   6.552   6.166   4.793  0.6467 -0.5973 -0.4102
 7860TIP3   OH223543   1.627   1.410   1.157 -0.2889  0.4978 -0.0749
 7860TIP3    H123544   1.600   1.401   1.065 -1.2017  0.8218  0.1529
 7860TIP3    H223545   1.619   1.321   1.192 -0.8685  0.5436 -0.0728
 7861TIP3   OH223546   1.343   2.429   3.268  0.1046  0.0645  0.5991
 7861TIP3    H123547   1.252   2.452   3.290  0.4822  0.4731  1.7931
 7861TIP3    H223548   1.390   2.437   3.351  1.1585 -0.5525  0.0739
 7862TIP3   OH223549   4.239   4.404   1.720 -0.6428  0.2276 -0.1303
 7862TIP3    H123550   4.200   4.349   1.788 -1.1538  0.1382 -0.4943
 7862TIP3    H223551   4.283   4.341   1.662  0.0255  0.3232  0.2514
 7863TIP3   OH223552   1.880   5.434   0.508 -0.7447  0.3796  0.5754
 7863TIP3    H123553   1.842   5.376   0.441 -2.2305 -0.1593  1.8129
 7863TIP3    H223554   1.834   5.517   0.497  0.5222  0.9776 -0.4100
 7864TIP3   OH223555   2.281   4.871   5.067 -0.2976  0.3751 -0.8338
 7864TIP3    H123556   2.329   4.792   5.092 -1.6811 -0.0032  0.7609
 7864TIP3    H223557   2.339   4.943   5.091  0.1909 -0.1046 -0.5488
 7865TIP3   OH223558   2.905   6.673   3.415  0.7335  0.4162 -0.3455
 7865TIP3    H123559   2.967   6.691   3.486 -0.1259  2.1108  0.0060
 7865TIP3    H223560   2.858   6.595   3.445  0.6562  0.8684  0.7741
 7866TIP3   OH223561   0.308   3.736   1.380  0.6552 -0.0580 -0.4140
 7866TIP3    H123562   0.392   3.719   1.423 -0.8417 -0.4247  2.6010
 7866TIP3    H223563   0.296   3.662   1.320  3.5827  1.3174 -3.0188
 7867TIP3   OH223564   5.859   0.104   4.316 -0.3561  0.4685  0.0298
 7867TIP3    H123565   5.791   0.141   4.373  1.0685  2.0359  0.7992
 7867TIP3    H223566   5.873   0.171   4.249  2.7585  1.8138  1.8340
 7868TIP3   OH223567   7.101   0.537   4.896  0.3048 -0.0368  0.3456
 7868TIP3    H123568   7.077   0.629   4.908  1.6796  0.4909 -0.7369
 7868TIP3    H223569   7.181   0.526   4.947  0.4024 -0.5188  0.0901
 7869TIP3   OH223570   1.688   1.827   1.065 -0.3249  0.2688 -0.3872
 7869TIP3    H123571   1.709   1.794   1.152 -2.3404  0.1829  0.1139
 7869TIP3    H223572   1.644   1.911   1.081 -3.0515 -0.9241 -1.0812
 7870TIP3   OH223573   2.417   1.401   1.088 -0.0590  0.1651 -0.2420
 7870TIP3    H123574   2.352   1.455   1.134 -1.0866 -1.2114 -0.0178
 7870TIP3    H223575   2.499   1.421   1.132 -0.1257  2.5222 -1.0104
 7871TIP3   OH223576   1.434   5.486   4.131  0.4396 -0.2866  0.0613
 7871TIP3    H123577   1.423   5.391   4.134  0.2879 -0.4075 -2.3734
 7871TIP3    H223578   1.348   5.519   4.108  0.2031  0.5908  2.0311
 7872TIP3   OH223579   3.867   3.902   0.886 -0.1553 -0.6826  0.1947
 7872TIP3    H123580   3.915   3.820   0.877  1.8507  0.5334 -1.0489
 7872TIP3    H223581   3.802   3.900   0.816  0.1762 -1.0314 -0.1069
 7873TIP3   OH223582   3.392   4.361   2.590 -0.0291 -0.5900  0.4128
 7873TIP3    H123583   3.443   4.284   2.614  2.2026  0.7935  0.3212
 7873TIP3    H223584   3.439   4.399   2.516 -1.1309  0.8330  0.4039
 7874TIP3   OH223585   7.036   4.200   3.297 -0.1721  0.2131  0.1318
 7874TIP3    H123586   6.974   4.159   3.237  0.5385 -1.0458  0.2257
 7874TIP3    H223587   7.089   4.257   3.242 -0.7416  0.5195 -0.1106
 7875TIP3   OH223588   3.439   1.295   1.600  0.1146 -0.5508 -0.0820
 7875TIP3    H123589   3.519   1.319   1.646  0.4742 -2.5249  0.3988
 7875TIP3    H223590   3.378   1.367   1.619  1.0343 -0.1309  1.4480
 7876TIP3   OH223591   2.799   6.535   4.930  0.2386  0.1998  0.1380
 7876TIP3    H123592   2.838   6.449   4.948 -2.0408 -0.7682  0.9028
 7876TIP3    H223593   2.866   6.582   4.881  2.0294 -1.5715  0.7429
 7877TIP3   OH223594   1.933   6.447   2.854  0.1162  0.2769 -0.0935
 7877TIP3    H123595   1.950   6.449   2.948  0.3758 -0.0739 -0.1320
 7877TIP3    H223596   1.980   6.523   2.819  0.0227  0.4042  0.0564
 7878TIP3   OH223597   4.435   4.632   3.729  0.0711  1.0334  0.5142
 7878TIP3    H123598   4.476   4.706   3.684 -1.1367  0.5923 -1.4280
 7878TIP3    H223599   4.358   4.670   3.771 -0.6485  0.8901 -0.6323
 7879TIP3   OH223600   7.059   3.648   3.565  0.1976 -0.1985 -0.2477
 7879TIP3    H123601   7.133   3.638   3.625  0.7361 -1.3212 -1.0750
 7879TIP3    H223602   7.053   3.742   3.550 -0.3472  0.1933  2.0361
 7880TIP3   OH223603   3.719   5.752   3.426 -0.2524 -0.0621 -0.2149
 7880TIP3    H123604   3.737   5.799   3.507 -0.3157 -1.8779  0.9179
 7880TIP3    H223605   3.805   5.741   3.386  0.0483 -0.8403  0.6117
 7881TIP3   OH223606   1.074   1.576   3.428  0.2388  0.0514  0.4113
 7881TIP3    H123607   0.986   1.610   3.412 -0.5470 -2.1796 -0.2873
 7881TIP3    H223608   1.068   1.482   3.410  2.9097 -0.0795 -0.2121
 7882TIP3   OH223609   1.991   0.061   2.208 -0.1047  0.0889  0.0690
 7882TIP3    H123610   1.996   0.023   2.296  1.5653 -0.2286 -0.1279
 7882TIP3    H223611   2.075   0.038   2.167 -1.2655 -0.7388 -2.0033
 7883TIP3   OH223612   0.152   2.985   2.476  0.4623  0.0608 -0.0113
 7883TIP3    H123613   0.130   2.967   2.385  0.6322  2.3070 -0.5613
 7883TIP3    H223614   0.077   2.953   2.526  0.6681 -1.8410 -0.8166
 7884TIP3   OH223615   2.776   5.197   0.524 -0.0834 -0.0900  0.1005
 7884TIP3    H123616   2.686   5.206   0.553  0.1842 -0.2348  0.9890
 7884TIP3    H223617   2.829   5.208   0.603  0.7027  0.3747 -0.4689
 7885TIP3   OH223618   1.922   2.657   3.978 -0.4544  0.2143 -0.0497
 7885TIP3    H123619   1.938   2.567   3.950 -1.0122 -0.0090  0.3318
 7885TIP3    H223620   1.962   2.663   4.065  0.2720  0.5674 -0.4056
 7886TIP3   OH223621   5.280   0.433   4.036 -0.0748  0.2912  0.0620
 7886TIP3    H123622   5.218   0.360   4.038  0.2784 -0.1319 -2.2169
 7886TIP3    H223623   5.293   0.455   4.129 -0.6759 -2.1025  0.7933
 7887TIP3   OH223624   3.959   5.437   3.428 -0.0087 -0.1514 -0.0566
 7887TIP3    H123625   4.024   5.367   3.422  0.4570  0.3811 -2.2188
 7887TIP3    H223626   3.937   5.457   3.337 -0.6891  1.9960  0.5188
 7888TIP3   OH223627   6.874   2.301   1.411 -0.0482  0.1023 -0.1349
 7888TIP3    H123628   6.961   2.261   1.417  0.2400  0.6012 -0.8171
 7888TIP3    H223629   6.814   2.227   1.413  0.3863 -0.2409  0.4498
 7889TIP3   OH223630   2.443   0.926   2.518  0.0129 -0.1771  0.2459
 7889TIP3    H123631   2.487   0.946   2.435  1.6586  0.1222  1.1383
 7889TIP3    H223632   2.468   0.997   2.577  0.4388 -1.3266  1.5267
 7890TIP3   OH223633   1.941   0.537   5.426  0.0618 -0.0150  0.0444
 7890TIP3    H123634   2.008   0.603   5.406  0.2150 -0.2487 -0.2155
 7890TIP3    H223635   1.971   0.495   5.506 -0.2499  0.5177  0.4475
 7891TIP3   OH223636   3.076   5.435   3.343 -0.8767  0.5713 -0.5611
 7891TIP3    H123637   3.157   5.384   3.349  1.2117  3.1011 -3.6247
 7891TIP3    H223638   3.006   5.369   3.343  1.2580 -1.8533  0.4789
 7892TIP3   OH223639   5.743   3.783   2.211  0.0339  0.1299 -0.0137
 7892TIP3    H123640   5.666   3.802   2.263 -1.4123 -1.1594 -1.5607
 7892TIP3    H223641   5.713   3.791   2.120  1.5126 -1.0984 -0.6510
 7893TIP3   OH223642   2.816   6.189   5.251  0.4026  0.8561  0.0245
 7893TIP3    H123643   2.819   6.280   5.282 -0.6399  1.1750 -0.7323
 7893TIP3    H223644   2.728   6.179   5.216  0.9226 -0.0562 -1.0815
 7894TIP3   OH223645   0.650   3.867   2.908  0.1869  0.0423  0.1516
 7894TIP3    H123646   0.651   3.786   2.857 -1.4811 -0.5686  1.0288
 7894TIP3    H223647   0.729   3.863   2.962  1.9858  0.6727 -2.2051
 7895TIP3   OH223648   3.150   2.544   4.286 -0.1146  0.0946 -0.3144
 7895TIP3    H123649   3.230   2.593   4.306  1.3825 -2.4191  0.2753
 7895TIP3    H223650   3.110   2.528   4.371  0.9830 -2.1207 -0.1563
 7896TIP3   OH223651   1.805   6.682   1.262 -0.1038  0.0442  0.0454
 7896TIP3    H123652   1.829   6.773   1.246 -1.9334  0.8362  1.4318
 7896TIP3    H223653   1.818   6.670   1.356  0.1349 -1.1465 -0.1217
 7897TIP3   OH223654   0.188   2.628   3.406  0.0919  0.0673  0.0568
 7897TIP3    H123655   0.148   2.610   3.491 -0.6502 -0.6838 -0.4283
 7897TIP3    H223656   0.143   2.707   3.374  0.7661  0.6758  0.5990
 7898TIP3   OH223657   6.602   2.012   3.192 -0.6073  0.3837  0.2391
 7898TIP3    H123658   6.674   1.965   3.151 -1.2876 -1.2085  0.7858
 7898TIP3    H223659   6.632   2.103   3.197  0.6218  0.0950 -1.1537
 7899TIP3   OH223660   6.275   0.955   5.395 -0.4686 -0.5862 -0.1657
 7899TIP3    H123661   6.182   0.944   5.373 -0.6331  0.1968  0.1138
 7899TIP3    H223662   6.315   0.870   5.375 -1.1390 -0.7524 -0.8256
 7900TIP3   OH223663   1.158   2.003   0.536 -0.1566  0.5442  0.3803
 7900TIP3    H123664   1.170   2.090   0.573  1.7560  0.7190 -0.5315
 7900TIP3    H223665   1.116   2.019   0.451 -1.5112  0.4016  1.0008
 7901TIP3   OH223666   0.101   3.468   1.803 -0.2554 -0.2701 -0.3515
 7901TIP3    H123667   0.148   3.386   1.788  0.7121  0.2292 -0.1354
 7901TIP3    H223668   0.037   3.472   1.732 -0.9959 -1.6812  0.2140
 7902TIP3   OH223669   6.817   0.524   1.709 -1.1124 -0.1116  0.7897
 7902TIP3    H123670   6.904   0.509   1.746 -1.1870  2.0043  1.9904
 7902TIP3    H223671   6.772   0.441   1.719  1.2851 -1.8989 -1.5923
 7903TIP3   OH223672   6.670   5.258   0.902 -0.0636 -0.1580 -0.2445
 7903TIP3    H123673   6.619   5.177   0.892  0.1619 -0.0827 -2.7219
 7903TIP3    H223674   6.604   5.327   0.910 -0.2595 -0.4914  1.3141
 7904TIP3   OH223675   5.204   3.008   4.550 -0.4380  0.4737  0.2863
 7904TIP3    H123676   5.120   2.964   4.535  0.5781 -2.1946  1.7897
 7904TIP3    H223677   5.257   2.986   4.474  0.4317 -2.0183  1.5232
 7905TIP3   OH223678   5.679   3.719   5.118  0.3175  0.1640 -0.6136
 7905TIP3    H123679   5.630   3.791   5.080  0.9827  1.9062  1.6207
 7905TIP3    H223680   5.764   3.756   5.140  1.7281 -2.0605 -1.9000
 7906TIP3   OH223681   2.206   1.007   5.073  0.2259  0.5203 -0.3794
 7906TIP3    H123682   2.238   1.034   5.159  0.6736 -0.1460 -0.3276
 7906TIP3    H223683   2.228   0.914   5.068 -1.3562  0.1334 -0.5102
 7907TIP3   OH223684   2.888   5.462   2.740 -0.3506 -0.4844  0.4570
 7907TIP3    H123685   2.820   5.400   2.714  2.0545 -2.4471 -1.7402
 7907TIP3    H223686   2.944   5.413   2.801  0.7410  0.0092 -0.1172
 7908TIP3   OH223687   3.730   2.120   1.160 -0.4471  0.1824 -0.6001
 7908TIP3    H123688   3.725   2.178   1.084 -1.3780 -0.8861 -1.3873
 7908TIP3    H223689   3.664   2.154   1.220  0.1250  0.8856 -0.3450
 7909TIP3   OH223690   6.295   5.346   3.083 -0.1106 -0.0802 -0.0370
 7909TIP3    H123691   6.356   5.419   3.074 -2.7014  2.1386 -0.8573
 7909TIP3    H223692   6.329   5.295   3.156  1.8001  1.9882  0.6069
 7910TIP3   OH223693   2.275   4.756   3.928  0.7093  0.1414  0.0300
 7910TIP3    H123694   2.358   4.755   3.976 -0.5708  0.5579  2.4369
 7910TIP3    H223695   2.254   4.849   3.917  1.4652  0.0941 -2.3983
 7911TIP3   OH223696   2.932   3.011   0.551 -0.2365  0.1034 -0.3758
 7911TIP3    H123697   2.871   2.961   0.606 -1.0812  0.2316 -1.1621
 7911TIP3    H223698   2.884   3.023   0.468  1.3890 -0.9946 -1.5408
 7912TIP3   OH223699   4.024   2.881   4.500 -0.3312  0.2382 -0.0061
 7912TIP3    H123700   3.953   2.885   4.437  0.6269 -0.9109 -1.2351
 7912TIP3    H223701   4.084   2.951   4.473 -0.3304  0.2982  0.1530
 7913TIP3   OH223702   1.527   6.568   2.039  0.3531 -0.2227  0.1000
 7913TIP3    H123703   1.520   6.536   2.128 -0.4007  1.2423  0.6077
 7913TIP3    H223704   1.597   6.633   2.042 -0.1808  0.3863 -0.1767
 7914TIP3   OH223705   4.206   5.373   0.735 -0.2697  0.7859 -0.1564
 7914TIP3    H123706   4.181   5.297   0.788  0.4369  0.8756  0.3190
 7914TIP3    H223707   4.206   5.446   0.797  1.3346  0.7545 -0.0867
 7915TIP3   OH223708   1.151   2.871   2.423  0.3093  0.0410  0.5731
 7915TIP3    H123709   1.107   2.948   2.387 -0.4468 -0.6696 -0.0593
 7915TIP3    H223710   1.162   2.813   2.348  2.0145  0.0374  0.7777
 7916TIP3   OH223711   1.967   3.395   4.062  0.0839 -0.1939  0.6374
 7916TIP3    H123712   1.948   3.322   4.003 -0.8259 -0.1968  0.9100
 7916TIP3    H223713   1.991   3.467   4.004  1.8102 -0.9157  0.4019
 7917TIP3   OH223714   1.181   3.583   0.203 -0.2727  0.0874  0.1169
 7917TIP3    H123715   1.257   3.545   0.160  0.2362 -0.5018  1.4983
 7917TIP3    H223716   1.122   3.605   0.131  0.5639 -0.8253 -0.8873
 7918TIP3   OH223717   6.864   3.889   3.594  0.1101  0.1827 -0.8424
 7918TIP3    H123718   6.888   3.982   3.587 -1.7042  0.7340 -0.3461
 7918TIP3    H223719   6.898   3.862   3.680 -1.8557  1.2455  0.3333
 7919TIP3   OH223720   4.809   4.212   2.282  0.2037 -0.3517 -0.4351
 7919TIP3    H123721   4.733   4.271   2.280  0.3587 -0.1499 -0.4218
 7919TIP3    H223722   4.869   4.249   2.217  0.1676 -0.6769 -0.6527
 7920TIP3   OH223723   0.139   1.810   1.949  0.2254 -0.0878  0.0695
 7920TIP3    H123724   0.061   1.760   1.925  0.2835 -0.9141  1.5633
 7920TIP3    H223725   0.172   1.843   1.865 -2.2844  1.1583 -0.5318
 7921TIP3   OH223726   1.777   5.377   5.706 -0.3256  0.2095 -0.8213
 7921TIP3    H123727   1.757   5.372   5.800 -2.0017 -1.1565 -1.2052
 7921TIP3    H223728   1.816   5.291   5.686  1.8356  1.1725 -1.0395
 7922TIP3   OH223729   6.391   4.873   3.451 -0.5730  0.5693 -0.1120
 7922TIP3    H123730   6.299   4.899   3.446 -0.6490  1.3607  3.0073
 7922TIP3    H223731   6.415   4.889   3.542  2.0964 -1.6169 -0.3004
 7923TIP3   OH223732   2.100   0.924   4.260  0.3492 -0.0327  0.5591
 7923TIP3    H123733   2.187   0.884   4.269 -0.4728 -1.9415  0.4040
 7923TIP3    H223734   2.098   0.991   4.328  1.3116 -1.1485  1.7385
 7924TIP3   OH223735   5.235   1.887   5.054  0.3005 -0.1647 -0.0186
 7924TIP3    H123736   5.217   1.959   5.114 -0.4851 -1.8787  1.9143
 7924TIP3    H223737   5.327   1.896   5.032 -0.1328  2.3546 -1.1985
 7925TIP3   OH223738   1.920   4.583   5.465 -0.0305 -0.3840  0.0474
 7925TIP3    H123739   1.964   4.582   5.380  0.8017  0.8815  0.4335
 7925TIP3    H223740   1.831   4.611   5.445  0.2257  0.1470 -0.3900
 7926TIP3   OH223741   2.646   1.613   4.549 -0.3543 -0.2533 -0.7923
 7926TIP3    H123742   2.729   1.572   4.572 -0.3212  0.3408  0.2116
 7926TIP3    H223743   2.670   1.694   4.504 -0.4014 -0.4597 -1.1919
 7927TIP3   OH223744   2.136   1.583   0.707 -0.3211 -0.0811 -0.0959
 7927TIP3    H123745   2.187   1.524   0.763 -0.1321  0.9077  0.8081
 7927TIP3    H223746   2.177   1.574   0.621 -0.1586 -1.0958  0.0666
 7928TIP3   OH223747   3.528   1.421   3.987  0.1283  0.1002 -0.0656
 7928TIP3    H123748   3.476   1.483   3.935 -0.4789 -1.4059 -1.3118
 7928TIP3    H223749   3.616   1.429   3.952  0.0816  0.3348 -0.1360
 7929TIP3   OH223750   0.498   3.490   5.791 -0.6984 -0.1623  0.1479
 7929TIP3    H123751   0.453   3.496   5.707  1.4514  1.9390 -0.9522
 7929TIP3    H223752   0.449   3.549   5.849 -0.0919  1.2511 -0.7245
 7930TIP3   OH223753   3.254   1.402   3.153  0.2382 -0.0398  0.3484
 7930TIP3    H123754   3.317   1.456   3.200  0.8623 -0.9784  0.6188
 7930TIP3    H223755   3.228   1.335   3.216 -0.6476  0.0297  0.0719
 7931TIP3   OH223756   5.989   2.629   2.307 -0.0314 -0.1477  0.1351
 7931TIP3    H123757   5.910   2.587   2.342  0.5301 -1.0444  0.3604
 7931TIP3    H223758   6.015   2.574   2.233  1.5344 -1.1109  1.3122
 7932TIP3   OH223759   5.529   2.131   3.772 -0.3455  0.6480  0.0196
 7932TIP3    H123760   5.440   2.167   3.772 -0.1595  1.1453  0.6955
 7932TIP3    H223761   5.517   2.036   3.770 -1.0295  0.5123  3.4869
 7933TIP3   OH223762   1.716   6.082   3.241  0.6189 -0.1925 -0.0542
 7933TIP3    H123763   1.703   6.175   3.225  0.7139  0.0014  0.9244
 7933TIP3    H223764   1.807   6.075   3.269 -0.2396 -0.0543  3.1725
 7934TIP3   OH223765   2.178   1.930   3.167  0.0244 -0.8884 -0.1761
 7934TIP3    H123766   2.157   1.848   3.123 -0.3995 -1.2038  0.5931
 7934TIP3    H223767   2.214   1.904   3.252 -1.6125 -0.3104  0.7618
 7935TIP3   OH223768   2.182   3.955   1.231 -0.1455 -0.0154 -0.0951
 7935TIP3    H123769   2.191   3.935   1.138  0.9286 -0.8269  0.1610
 7935TIP3    H223770   2.267   3.991   1.256 -0.1724 -0.4948  0.7313
 7936TIP3   OH223771   1.116   6.559   3.212  0.2829  0.1740  0.0259
 7936TIP3    H123772   1.085   6.590   3.296  1.6648  0.0107  0.6309
 7936TIP3    H223773   1.189   6.617   3.190  0.8476 -0.6452 -0.3612
 7937TIP3   OH223774   5.228   1.286   0.747  0.2129 -0.3537 -0.0208
 7937TIP3    H123775   5.149   1.323   0.786  0.4708 -0.0102  0.1815
 7937TIP3    H223776   5.299   1.316   0.804  0.4183 -1.2866  0.2384
 7938TIP3   OH223777   5.919   4.266   3.130 -0.0889  0.0267  0.3586
 7938TIP3    H123778   5.913   4.189   3.073 -1.5533 -0.9915  1.7872
 7938TIP3    H223779   5.875   4.336   3.081 -0.5704 -0.5993 -0.1249
 7939TIP3   OH223780   1.612   0.496   1.644  0.4027  0.6521 -0.6482
 7939TIP3    H123781   1.618   0.587   1.615 -0.7831 -0.0129 -3.2885
 7939TIP3    H223782   1.564   0.501   1.727 -1.7099  2.3424 -1.8490
 7940TIP3   OH223783   0.161   2.908   2.195  0.2533  0.1196  0.1802
 7940TIP3    H123784   0.214   2.829   2.185  0.2229  0.0512  0.5543
 7940TIP3    H223785   0.224   2.979   2.198  0.3127  0.0537  0.4641
 7941TIP3   OH223786   2.896   2.555   0.646 -0.2834  0.0809 -0.3997
 7941TIP3    H123787   2.987   2.554   0.616 -0.4620  0.7538 -0.9890
 7941TIP3    H223788   2.898   2.507   0.729  0.2643 -1.6457 -1.3629
 7942TIP3   OH223789   4.124   1.623   4.171 -0.0671 -0.3329  0.4671
 7942TIP3    H123790   4.078   1.596   4.092 -1.2692  0.7888  0.7336
 7942TIP3    H223791   4.187   1.689   4.141  0.5984 -1.0510  0.2538
 7943TIP3   OH223792   2.070   4.678   1.422  0.3302  0.0144 -0.2358
 7943TIP3    H123793   2.018   4.700   1.345  0.2760  0.5200 -0.0582
 7943TIP3    H223794   2.063   4.755   1.479  1.8514  0.4036 -0.5182
 7944TIP3   OH223795   3.493   5.866   1.849  0.0031  0.4338 -0.1828
 7944TIP3    H123796   3.571   5.921   1.855  0.2995  0.0216 -0.2405
 7944TIP3    H223797   3.437   5.896   1.920  0.6172  0.1050  0.4538
 7945TIP3   OH223798   5.665   4.760   1.100 -0.4561 -0.2183  0.1516
 7945TIP3    H123799   5.736   4.735   1.040 -0.8999 -0.8544 -0.1230
 7945TIP3    H223800   5.600   4.803   1.044 -0.5794 -0.2236  0.2907
 7946TIP3   OH223801   5.601   0.810   3.284  0.0804  0.3899 -0.2198
 7946TIP3    H123802   5.690   0.845   3.283  0.1192  0.2901 -1.1265
 7946TIP3    H223803   5.545   0.888   3.278  0.1169  0.4238 -0.1187
 7947TIP3   OH223804   4.954   5.691   2.115 -0.0140  0.0476  1.1765
 7947TIP3    H123805   5.008   5.617   2.141 -1.4279 -1.4357  0.0563
 7947TIP3    H223806   4.921   5.668   2.028 -0.4249  2.0436  0.7442
 7948TIP3   OH223807   6.150   4.398   1.974  0.7307 -0.0535  0.3979
 7948TIP3    H123808   6.098   4.375   1.896  0.2513  1.2577  0.2998
 7948TIP3    H223809   6.174   4.314   2.012 -1.9141 -0.7753  0.7239
 7949TIP3   OH223810   2.939   2.457   5.282 -0.0019  0.3721 -0.0886
 7949TIP3    H123811   2.846   2.459   5.263 -0.9527 -0.1977  3.7435
 7949TIP3    H223812   2.958   2.366   5.307  0.5711  1.1725  2.8375
 7950TIP3   OH223813   0.198   1.619   3.852  0.0510 -0.6769  0.3991
 7950TIP3    H123814   0.171   1.542   3.902 -2.0485 -0.3682 -0.2018
 7950TIP3    H223815   0.274   1.652   3.900 -1.2024 -1.0303  2.7912
 7951TIP3   OH223816   5.739   4.307   4.537  0.4099  0.0115  0.5008
 7951TIP3    H123817   5.685   4.382   4.512 -0.2644 -0.4707  0.5085
 7951TIP3    H223818   5.803   4.300   4.466  0.2745  0.3929  0.3350
 7952TIP3   OH223819   3.672   4.383   3.341 -0.6413 -0.0879 -0.0178
 7952TIP3    H123820   3.588   4.382   3.295 -0.7143  0.2923  0.1092
 7952TIP3    H223821   3.648   4.389   3.434 -0.5316 -1.8996  0.1662
 7953TIP3   OH223822   5.388   1.359   2.147  0.2740 -0.3144  0.3129
 7953TIP3    H123823   5.336   1.422   2.097  1.0343  0.7318  0.8035
 7953TIP3    H223824   5.466   1.407   2.174  0.6047 -1.2919  1.2073
 7954TIP3   OH223825   0.823   3.359   1.244  0.3340  0.5069 -0.4101
 7954TIP3    H123826   0.782   3.312   1.316  0.6578 -1.5579 -1.5141
 7954TIP3    H223827   0.780   3.445   1.243  0.7648  0.8682  2.6021
 7955TIP3   OH223828   2.918   3.537   1.769  0.2539  0.1532 -0.3097
 7955TIP3    H123829   2.919   3.631   1.757  1.2863  0.2297  0.2575
 7955TIP3    H223830   2.883   3.524   1.858 -1.2481 -0.0918 -0.8957
 7956TIP3   OH223831   0.928   5.406   4.568 -0.3852 -0.2902 -0.2333
 7956TIP3    H123832   0.836   5.428   4.552 -0.8255  1.6177  3.6927
 7956TIP3    H223833   0.930   5.376   4.659  2.6956 -2.0720 -0.7322
 7957TIP3   OH223834   6.950   0.131   1.594  0.7340 -0.1958  0.3489
 7957TIP3    H123835   6.865   0.167   1.618  1.0133  0.1392  0.8485
 7957TIP3    H223836   6.931   0.042   1.563  0.2322 -0.2024  0.6795
 7958TIP3   OH223837   2.028   4.227   2.828 -0.5394  0.4004 -0.0962
 7958TIP3    H123838   2.107   4.177   2.810 -1.1510 -0.3596 -0.7158
 7958TIP3    H223839   2.050   4.317   2.803 -1.0554 -0.4183 -4.0152
 7959TIP3   OH223840   1.385   3.552   2.344 -0.0430  0.1688  0.5134
 7959TIP3    H123841   1.361   3.642   2.364 -0.2739  0.0919  0.5937
 7959TIP3    H223842   1.314   3.520   2.287  0.3065  0.2020  0.0526
 7960TIP3   OH223843   5.639   0.679   1.606  0.0837 -0.8674  0.5290
 7960TIP3    H123844   5.550   0.692   1.637 -0.0218 -0.2486 -0.0240
 7960TIP3    H223845   5.645   0.585   1.589  0.0362 -1.1812  2.0372
 7961TIP3   OH223846   0.191   5.973   5.320 -0.0263 -0.9931 -0.1273
 7961TIP3    H123847   0.249   5.901   5.346 -0.0108 -1.0823 -0.4027
 7961TIP3    H223848   0.142   5.938   5.245 -0.5938 -0.9957  0.2382
 7962TIP3   OH223849   2.225   3.229   5.416  0.0626  0.1020  0.3319
 7962TIP3    H123850   2.170   3.282   5.359  0.5129 -0.6787 -0.8636
 7962TIP3    H223851   2.204   3.260   5.504 -2.7266 -0.5587 -0.0003
 7963TIP3   OH223852   2.936   0.963   2.553  0.1352 -0.1608  0.1358
 7963TIP3    H123853   3.025   0.974   2.585 -0.1500 -1.6611  1.5264
 7963TIP3    H223854   2.931   0.872   2.524 -1.7904 -1.1220  3.0687
 7964TIP3   OH223855   0.219   2.442   0.749  0.2439  0.2497 -0.2469
 7964TIP3    H123856   0.226   2.352   0.716  0.1330 -0.8484  2.4809
 7964TIP3    H223857   0.305   2.480   0.732  0.4285 -0.4824 -1.0494
 7965TIP3   OH223858   1.036   4.736   5.568  0.3802 -0.0091  0.3178
 7965TIP3    H123859   0.989   4.664   5.609  0.0026 -0.8810 -1.5767
 7965TIP3    H223860   1.005   4.738   5.478  2.3910  0.7603 -0.4204
 7966TIP3   OH223861   0.302   3.669   3.913 -0.2431  0.2779  0.4932
 7966TIP3    H123862   0.258   3.653   3.997 -0.8837  1.7395  0.4833
 7966TIP3    H223863   0.386   3.625   3.921 -0.5373 -0.1174  1.6770
 7967TIP3   OH223864   6.827   4.191   2.535  0.1663 -0.0524 -0.4501
 7967TIP3    H123865   6.773   4.161   2.462  1.7451 -1.6412 -1.0373
 7967TIP3    H223866   6.778   4.264   2.572 -1.7981 -0.6616 -1.6603
 7968TIP3   OH223867   3.095   5.201   0.433 -0.1631 -0.5085  0.3540
 7968TIP3    H123868   3.138   5.190   0.518  0.3071 -3.7519 -0.1655
 7968TIP3    H223869   3.001   5.198   0.452 -0.0615 -0.9657  0.7876
 7969TIP3   OH223870   6.968   2.840   2.440 -0.7449 -0.2659 -0.0351
 7969TIP3    H123871   7.054   2.805   2.462 -0.4146  0.1468 -0.6802
 7969TIP3    H223872   6.982   2.932   2.421 -1.5582  0.1621  1.2612
 7970TIP3   OH223873   1.881   3.107   1.189 -0.0812 -0.9111  0.6700
 7970TIP3    H123874   1.937   3.030   1.190  1.9861  0.4412  3.1029
 7970TIP3    H223875   1.940   3.180   1.171 -1.7715  0.2677 -0.4802
 7971TIP3   OH223876   3.277   3.625   1.878  1.0037 -0.0911 -0.0054
 7971TIP3    H123877   3.245   3.700   1.928  0.1008 -0.2181 -0.3564
 7971TIP3    H223878   3.366   3.611   1.909  0.6111  0.0799  1.2628
 7972TIP3   OH223879   6.864   6.125   5.618  0.0636 -0.3280  0.0055
 7972TIP3    H123880   6.915   6.197   5.654  0.0756 -0.2524 -0.1592
 7972TIP3    H223881   6.927   6.052   5.612 -0.4014 -0.9481  1.9577
 7973TIP3   OH223882   5.711   6.569   5.882 -0.8543 -0.2672 -0.1820
 7973TIP3    H123883   5.783   6.507   5.868  0.2326  0.8618  0.1960
 7973TIP3    H223884   5.649   6.549   5.813 -0.8393 -2.1792  0.2861
 7974TIP3   OH223885   7.156   2.943   1.286 -0.1576 -0.2653  0.3478
 7974TIP3    H123886   7.104   3.016   1.320  2.0940  2.3208 -1.3737
 7974TIP3    H223887   7.146   2.874   1.352 -0.2743  2.5171  3.5065
 7975TIP3   OH223888   4.043   6.090   1.318  0.2889 -0.0627 -0.3007
 7975TIP3    H123889   4.001   6.108   1.234 -1.4324 -2.5017 -0.0670
 7975TIP3    H223890   4.085   6.173   1.343 -1.9003  1.6520 -1.9878
 7976TIP3   OH223891   4.912   4.877   2.543 -0.1984  0.6290  0.7260
 7976TIP3    H123892   4.921   4.860   2.637 -1.3284 -1.0157  0.5681
 7976TIP3    H223893   4.992   4.924   2.521 -0.3234  1.8903  2.6725
 7977TIP3   OH223894   3.450   6.791   2.046 -0.2139 -0.2107 -0.4092
 7977TIP3    H123895   3.466   6.870   2.097 -0.8183 -1.0638  1.1694
 7977TIP3    H223896   3.496   6.722   2.094  2.6933 -0.4794 -3.2320
 7978TIP3   OH223897   2.862   5.605   3.019  0.3731  0.2122 -0.1722
 7978TIP3    H123898   2.768   5.586   3.018  0.3263  0.2366  1.2726
 7978TIP3    H223899   2.889   5.596   2.928 -0.8462 -0.7282 -0.4792
 7979TIP3   OH223900   2.728   2.782   2.006 -0.0193 -0.1253 -0.0448
 7979TIP3    H123901   2.752   2.858   1.953 -0.8265  0.1300 -0.0680
 7979TIP3    H223902   2.784   2.788   2.084 -0.3962  0.7728  0.1760
 7980TIP3   OH223903   4.153   6.766   5.648  0.1251 -0.6953 -0.0394
 7980TIP3    H123904   4.120   6.695   5.594 -0.6668 -0.1486 -0.2782
 7980TIP3    H223905   4.230   6.798   5.601 -2.0337  1.5305 -2.2990
 7981TIP3   OH223906   6.122   0.864   2.350 -0.3083  0.4205  0.0528
 7981TIP3    H123907   6.155   0.850   2.261  0.0585  0.4747  0.1815
 7981TIP3    H223908   6.043   0.809   2.355  0.6764 -1.0127  0.2876
 7982TIP3   OH223909   2.393   1.278   3.902  0.2470 -0.2323 -0.3811
 7982TIP3    H123910   2.342   1.197   3.904  1.1686 -0.9112 -2.2730
 7982TIP3    H223911   2.478   1.254   3.939  0.3674 -0.0184 -0.5171
 7983TIP3   OH223912   1.785   5.169   1.999  0.0308  0.0763 -0.0808
 7983TIP3    H123913   1.692   5.148   1.999 -0.0640  0.4321 -1.1586
 7983TIP3    H223914   1.819   5.127   2.078 -0.7809 -1.2434 -0.4050
 7984TIP3   OH223915   2.788   0.097   2.602 -0.1506  0.2959 -0.2427
 7984TIP3    H123916   2.878   0.095   2.635 -0.0784  0.7691 -0.3966
 7984TIP3    H223917   2.755   0.183   2.629 -0.7371 -0.0837  0.2835
 7985TIP3   OH223918   1.916   1.038   1.728  0.4540 -0.2635  0.1100
 7985TIP3    H123919   1.962   1.112   1.767 -0.3003 -0.9557  2.5237
 7985TIP3    H223920   1.834   1.075   1.696  0.2943  0.0480  0.8553
 7986TIP3   OH223921   6.409   2.377   2.957  0.8354  0.0477 -0.3657
 7986TIP3    H123922   6.457   2.421   2.887  0.7396 -2.0156 -1.8422
 7986TIP3    H223923   6.396   2.444   3.023  3.2560  1.4158 -1.1463
 7987TIP3   OH223924   4.254   0.160   1.237 -0.1640 -0.1321 -0.2810
 7987TIP3    H123925   4.252   0.230   1.302  1.3044 -0.7613  0.4910
 7987TIP3    H223926   4.315   0.191   1.170 -1.4470  0.3877 -1.2502
 7988TIP3   OH223927   1.011   2.870   1.563 -0.5178  0.0673 -0.2580
 7988TIP3    H123928   1.047   2.898   1.479 -2.5988  1.4113 -0.7660
 7988TIP3    H223929   0.980   2.780   1.548  0.7304 -0.3673 -0.3658
 7989TIP3   OH223930   6.210   4.137   0.773 -0.0300 -0.4753 -0.1402
 7989TIP3    H123931   6.164   4.215   0.804  0.8598  0.3315 -0.7925
 7989TIP3    H223932   6.142   4.084   0.730 -0.4505  0.4533 -0.6466
 7990TIP3   OH223933   7.201   1.802   0.738 -0.4231 -0.3580 -0.0979
 7990TIP3    H123934   7.133   1.811   0.671  0.3301  1.5357 -0.6802
 7990TIP3    H223935   7.283   1.794   0.689 -0.1555 -2.5174  0.5941
 7991TIP3   OH223936   5.325   0.009   5.725  0.7048  0.2280 -0.2705
 7991TIP3    H123937   5.268   0.080   5.754 -1.0353 -1.6881  1.2881
 7991TIP3    H223938   5.331  -0.049   5.800  2.5565 -1.0144 -1.2994
 7992TIP3   OH223939   0.629   2.056   4.348  0.1621 -0.7777 -0.1417
 7992TIP3    H123940   0.630   2.151   4.362  2.5879 -0.6537 -0.8047
 7992TIP3    H223941   0.627   2.019   4.437  0.5348 -0.0882  0.1653
 7993TIP3   OH223942   4.251   3.174   4.084  0.0954 -0.2662  0.0550
 7993TIP3    H123943   4.215   3.085   4.088  1.1523 -0.8794 -2.3304
 7993TIP3    H223944   4.289   3.181   3.996 -0.5236  2.7776 -0.1043
 7994TIP3   OH223945   3.113   3.988   1.788 -0.1103 -0.2100  0.0858
 7994TIP3    H123946   3.191   4.032   1.821  0.3675 -2.1356  1.7212
 7994TIP3    H223947   3.042   4.050   1.803  0.7486  0.6068  0.8743
 7995TIP3   OH223948   0.037   2.137   5.393  0.1086  0.1526  0.0538
 7995TIP3    H123949   0.035   2.062   5.333  1.1638  0.3573 -0.2551
 7995TIP3    H223950   0.031   2.213   5.336 -2.3637  0.3244  0.4516
 7996TIP3   OH223951   4.957   5.410   5.531  0.5006  0.0128 -0.0342
 7996TIP3    H123952   4.919   5.467   5.598  0.5595 -0.2047  0.1820
 7996TIP3    H223953   5.043   5.386   5.565 -0.1754 -1.5582  0.6574
 7997TIP3   OH223954   4.333   6.067   0.216 -0.0910  0.3909 -0.3192
 7997TIP3    H123955   4.428   6.078   0.226 -0.2148 -0.4542  2.8680
 7997TIP3    H223956   4.296   6.100   0.298 -2.4094 -0.7713 -0.8169
 7998TIP3   OH223957   4.336   3.308   1.332 -0.2122  0.3556 -0.0672
 7998TIP3    H123958   4.273   3.324   1.263 -2.1912 -0.0125  1.5688
 7998TIP3    H223959   4.312   3.223   1.368  1.5533 -0.0370  0.2853
 7999TIP3   OH223960   3.357   2.441   3.972  0.0567  0.1027  0.1649
 7999TIP3    H123961   3.447   2.470   3.971  0.0647  0.2101  1.6893
 7999TIP3    H223962   3.347   2.397   4.056 -1.2039 -0.2571 -0.1477
 8000TIP3   OH223963   0.033   1.453   2.770 -0.2022  0.1410 -0.0541
 8000TIP3    H123964   0.064   1.521   2.830 -0.5013  0.6078 -0.4192
 8000TIP3    H223965   0.062   1.482   2.683  2.2319 -1.6793  0.0779
 8001TIP3   OH223966   6.366   4.675   5.210  0.1025  0.2445 -0.2610
 8001TIP3    H123967   6.371   4.638   5.298  0.9028 -0.0203 -0.4091
 8001TIP3    H223968   6.315   4.756   5.221 -1.6231 -0.8406  0.0706
 8002TIP3   OH223969   4.554   0.574   0.124  0.0867 -0.5777  0.0528
 8002TIP3    H123970   4.575   0.663   0.095  0.3643 -0.3645  0.8767
 8002TIP3    H223971   4.553   0.522   0.043 -0.7730  0.2965 -0.5301
 8003TIP3   OH223972   3.339   6.673   3.213 -0.3418  0.4612  0.6396
 8003TIP3    H123973   3.402   6.614   3.172  0.6763  0.6075  1.9280
 8003TIP3    H223974   3.297   6.719   3.140 -2.8818 -3.3986 -0.6409
 8004TIP3   OH223975   2.424   6.248   2.803 -0.3445 -0.2953  0.0843
 8004TIP3    H123976   2.401   6.268   2.894 -1.1818  0.9349 -0.3720
 8004TIP3    H223977   2.396   6.325   2.754  2.3679  0.1769 -0.8990
 8005TIP3   OH223978   2.885   6.555   5.595 -0.1240 -0.5896  0.0780
 8005TIP3    H123979   2.823   6.515   5.656 -1.7452 -1.7639 -2.2153
 8005TIP3    H223980   2.885   6.648   5.618 -0.8581 -0.9523  1.6790
 8006TIP3   OH223981   3.482   3.798   0.719 -0.3458  0.2972 -0.2365
 8006TIP3    H123982   3.505   3.802   0.812  1.5442  0.5104 -0.6726
 8006TIP3    H223983   3.534   3.867   0.678 -1.3022  0.3414 -1.4417
 8007TIP3   OH223984   1.827   1.184   2.363 -0.5313 -0.3618  0.2107
 8007TIP3    H123985   1.759   1.180   2.297 -0.2073 -0.4702 -0.1180
 8007TIP3    H223986   1.888   1.250   2.331  0.4099 -1.4753 -0.3549
 8008TIP3   OH223987   4.925   3.146   1.125  0.3065  0.4676  0.4228
 8008TIP3    H123988   4.961   3.125   1.039 -0.8092 -0.4094  0.1498
 8008TIP3    H223989   4.935   3.241   1.132  0.0858  0.6048 -0.8269
 8009TIP3   OH223990   2.576   4.025   1.077 -0.0657 -0.7962 -0.4736
 8009TIP3    H123991   2.599   4.107   1.034 -0.2604 -0.5727 -0.1621
 8009TIP3    H223992   2.651   3.968   1.064  0.3626 -0.3272 -0.0899
 8010TIP3   OH223993   2.084   4.101   2.401  0.0746 -0.2968  0.2445
 8010TIP3    H123994   2.099   4.179   2.348  0.7266 -1.3533 -1.1855
 8010TIP3    H223995   2.033   4.133   2.476 -0.3560  1.3504 -0.6872
 8011TIP3   OH223996   1.736   0.488   1.060 -0.3021 -0.0591 -0.2172
 8011TIP3    H123997   1.826   0.456   1.067  0.7502  2.5088 -0.9999
 8011TIP3    H223998   1.709   0.504   1.151 -0.1484 -1.2189  0.0479
 8012TIP3   OH223999   3.386   3.568   4.165 -0.2090 -0.7492  0.0516
 8012TIP3    H124000   3.415   3.478   4.149  2.6790  0.1885 -0.7257
 8012TIP3    H224001   3.358   3.599   4.079  4.2018  0.6693 -1.1728
 8013TIP3   OH224002   2.468   3.038   4.858 -0.7263  0.2693  0.0576
 8013TIP3    H124003   2.504   2.960   4.899 -1.3795  1.3697  2.9535
 8013TIP3    H224004   2.544   3.095   4.845 -0.2681 -0.7058 -1.9482
 8014TIP3   OH224005   4.797   0.410   2.284 -0.8086 -0.7184  0.5160
 8014TIP3    H124006   4.719   0.403   2.339 -1.2813  0.1361 -0.0335
 8014TIP3    H224007   4.772   0.470   2.214  1.2410  2.1125  1.9754
 8015TIP3   OH224008   6.208   5.142   1.427  0.2041 -0.4223 -0.2256
 8015TIP3    H124009   6.192   5.138   1.521  0.9193  0.4954 -0.0476
 8015TIP3    H224010   6.195   5.234   1.405  0.2929 -0.5876 -0.9786
 8016TIP3   OH224011   3.750   1.830   0.826 -0.4997 -0.1282 -0.1952
 8016TIP3    H124012   3.780   1.739   0.825 -0.5091 -0.1297 -0.5197
 8016TIP3    H224013   3.658   1.824   0.851 -1.0937 -0.4033 -2.2331
 8017TIP3   OH224014   2.322   1.122   1.571  0.0517  0.0471  0.0362
 8017TIP3    H124015   2.249   1.066   1.544 -0.4062  0.2255  0.8488
 8017TIP3    H224016   2.365   1.071   1.640  0.1578  0.3253  0.1743
 8018TIP3   OH224017   0.725   5.245   0.180 -0.3817  0.2760  0.2292
 8018TIP3    H124018   0.817   5.244   0.205 -0.0082  1.6711 -0.9507
 8018TIP3    H224019   0.677   5.228   0.261  0.8972 -0.2315  0.8951
 8019TIP3   OH224020   6.937   1.537   0.784  0.0062  0.2225  0.1527
 8019TIP3    H124021   6.846   1.564   0.776 -0.2226 -0.4668  0.3442
 8019TIP3    H224022   6.979   1.572   0.706 -0.1120  1.7114  0.7268
 8020TIP3   OH224023   0.828   5.708   4.243 -0.4087 -0.6100  0.0289
 8020TIP3    H124024   0.816   5.747   4.156  1.0042  0.3486  0.2301
 8020TIP3    H224025   0.913   5.665   4.238  0.0252  0.0843  1.1597
 8021TIP3   OH224026   7.165   0.795   0.929 -0.0231 -0.6220  0.3388
 8021TIP3    H124027   7.137   0.848   0.854 -1.5902 -1.3322  0.3652
 8021TIP3    H224028   7.096   0.729   0.938  0.9649 -1.5455  1.4153
 8022TIP3   OH224029   4.512   3.876   1.514  0.3708 -0.2063  0.1148
 8022TIP3    H124030   4.430   3.910   1.480  0.8052  0.2454 -0.4996
 8022TIP3    H224031   4.580   3.929   1.472  0.9547 -0.1077  1.1318
 8023TIP3   OH224032   6.933   2.542   0.600 -0.0616 -0.2770  0.0666
 8023TIP3    H124033   7.019   2.536   0.640  1.0408  1.7433 -1.8064
 8023TIP3    H224034   6.874   2.561   0.672  1.4850  0.9346  1.0700
 8024TIP3   OH224035   1.731   0.727   2.260 -0.1306 -0.1538 -0.3041
 8024TIP3    H124036   1.765   0.763   2.342 -0.2586 -1.2194  0.2404
 8024TIP3    H224037   1.778   0.645   2.248 -2.1417 -1.4816  0.2644
 8025TIP3   OH224038   1.621   2.579   1.685  0.4441  0.2568 -0.5872
 8025TIP3    H124039   1.576   2.537   1.758 -0.2318  0.7645 -0.7052
 8025TIP3    H224040   1.711   2.592   1.717  0.6577 -1.2034 -0.5314
 8026TIP3   OH224041   4.088   1.366   0.947  0.7396 -0.4035  0.0911
 8026TIP3    H124042   4.056   1.341   1.034  2.3360 -3.0834  0.0076
 8026TIP3    H224043   4.160   1.426   0.965  1.6898 -1.6795  0.7231
 8027TIP3   OH224044   5.680   4.064   1.175 -0.0850  0.5722  0.0560
 8027TIP3    H124045   5.715   4.092   1.090  0.3075  1.1971  0.4147
 8027TIP3    H224046   5.656   4.145   1.219 -1.2017  0.1931  0.1647
 8028TIP3   OH224047   2.067   3.354   4.466  0.2868  0.1294 -0.1632
 8028TIP3    H124048   2.123   3.329   4.392  0.7309  0.1797  0.1469
 8028TIP3    H224049   2.126   3.402   4.524 -0.2611  0.8015 -0.1615
 8029TIP3   OH224050   2.226   6.754   1.445 -0.0032 -0.3886  0.4062
 8029TIP3    H124051   2.159   6.699   1.486 -0.2911  0.4389  1.0686
 8029TIP3    H224052   2.184   6.839   1.435  1.1404  0.3216  1.3971
 8030TIP3   OH224053   6.037   4.469   4.704  0.0056 -0.4837  0.3392
 8030TIP3    H124054   5.978   4.505   4.770  1.0299 -0.2607  1.1498
 8030TIP3    H224055   6.036   4.535   4.634 -0.4749 -0.3430  0.4721
 8031TIP3   OH224056   3.276   1.766   2.614 -0.7189 -0.3695 -0.7656
 8031TIP3    H124057   3.340   1.819   2.567 -0.0646 -0.1019  0.3836
 8031TIP3    H224058   3.305   1.676   2.602  1.1165 -0.1651  1.3808
 8032TIP3   OH224059   0.245   4.121   3.691 -0.2885 -0.6022  0.0011
 8032TIP3    H124060   0.260   4.215   3.681  0.7603 -0.7044  0.4756
 8032TIP3    H224061   0.296   4.096   3.768  0.1257 -1.7109 -0.6073
 8033TIP3   OH224062   3.552   5.275   5.705 -0.1860 -0.2606  0.2151
 8033TIP3    H124063   3.628   5.327   5.731 -0.0963 -0.5951  0.6434
 8033TIP3    H224064   3.492   5.284   5.779 -0.4937 -0.1346 -0.0478
 8034TIP3   OH224065   2.229   0.609   1.682  0.4503 -0.4053  0.1626
 8034TIP3    H124066   2.168   0.611   1.755 -0.3500 -0.1601 -0.4975
 8034TIP3    H224067   2.175   0.622   1.604  1.5890  2.4987 -0.2819
 8035TIP3   OH224068   1.590   2.406   3.899  0.2491 -0.1394 -0.4403
 8035TIP3    H124069   1.591   2.497   3.930  0.1311 -0.5425  0.7963
 8035TIP3    H224070   1.542   2.410   3.816 -1.8810  0.6042  0.7439
 8036TIP3   OH224071   2.431   5.364   3.046  0.1087 -0.1194  0.3515
 8036TIP3    H124072   2.419   5.270   3.037  0.9573 -0.2782  0.8093
 8036TIP3    H224073   2.356   5.393   3.099  0.5230 -0.7416  1.3051
 8037TIP3   OH224074   3.978   3.047   1.909  0.7996  0.3180  0.2654
 8037TIP3    H124075   3.907   3.096   1.949  1.4682  0.8063  0.8801
 8037TIP3    H224076   4.032   3.018   1.982  0.7134 -0.8951 -0.1277
 8038TIP3   OH224077   5.782   5.381   5.408  0.0727  0.2417  0.4780
 8038TIP3    H124078   5.801   5.456   5.465 -0.7704  0.6427  0.2440
 8038TIP3    H224079   5.731   5.418   5.336  2.0135 -0.0507 -1.1411
 8039TIP3   OH224080   5.477   6.283   3.856  0.4606 -0.7427  0.0124
 8039TIP3    H124081   5.479   6.309   3.764  0.6988 -1.1785 -0.1068
 8039TIP3    H224082   5.535   6.345   3.900  0.0914 -0.3288 -0.0769
 8040TIP3   OH224083   2.161   0.945   0.673 -0.1853  0.3483 -0.0539
 8040TIP3    H124084   2.089   0.917   0.616 -0.7727  2.2566 -0.3034
 8040TIP3    H224085   2.234   0.887   0.651 -1.1223 -0.4746 -1.0447
 8041TIP3   OH224086   3.142   6.479   5.571 -0.0370 -0.1679  0.1997
 8041TIP3    H124087   3.174   6.557   5.615  0.7048 -0.2433 -0.2037
 8041TIP3    H224088   3.046   6.488   5.574  0.0249  0.3981  0.7790
 8042TIP3   OH224089   2.111   2.497   3.415  0.3445  0.0959  0.4546
 8042TIP3    H124090   2.187   2.508   3.358  0.6922 -0.9902  0.6857
 8042TIP3    H224091   2.120   2.408   3.450 -0.8706  0.0692  0.7320
 8043TIP3   OH224092   5.035   2.239   2.324  0.4979  0.4024 -0.0104
 8043TIP3    H124093   5.005   2.242   2.234  0.9588  3.5486 -0.1672
 8043TIP3    H224094   5.048   2.330   2.349 -0.3141 -0.2751  3.4979
 8044TIP3   OH224095   3.666   6.341   5.420 -0.5499 -0.2607 -0.2121
 8044TIP3    H124096   3.725   6.267   5.403  0.2081 -0.1283  1.6057
 8044TIP3    H224097   3.704   6.414   5.372  0.6693 -0.2337  0.7669
 8045TIP3   OH224098   3.784   0.144   4.361 -0.0437 -0.4020 -0.4818
 8045TIP3    H124099   3.856   0.097   4.319 -0.6502 -0.2385 -1.7416
 8045TIP3    H224100   3.817   0.234   4.372  0.4249 -0.6501  0.1907
 8046TIP3   OH224101   6.782   4.889   3.675  0.8282 -0.0620 -0.7950
 8046TIP3    H124102   6.849   4.948   3.710 -0.0672  0.8420 -0.5701
 8046TIP3    H224103   6.785   4.813   3.733  0.9379  0.4301 -0.1458
 8047TIP3   OH224104   6.766   5.577   2.140 -0.6340  0.8275  0.2568
 8047TIP3    H124105   6.830   5.580   2.069 -2.8635 -2.7918 -2.2272
 8047TIP3    H224106   6.819   5.564   2.219  1.8086 -0.1155 -1.4121
 8048TIP3   OH224107   5.630   6.623   4.724 -0.5412 -0.4673  0.8324
 8048TIP3    H124108   5.672   6.708   4.735 -1.8020 -0.0021  2.4715
 8048TIP3    H224109   5.545   6.643   4.687 -1.0042 -0.9526  1.6065
 8049TIP3   OH224110   6.665   1.251   2.797 -1.0062  0.4177 -0.1853
 8049TIP3    H124111   6.609   1.294   2.862 -1.6274  0.6692 -0.8782
 8049TIP3    H224112   6.611   1.246   2.719 -0.1797  0.3218 -0.7563
 8050TIP3   OH224113   3.056   1.513   5.584  0.0094  0.1971 -0.0282
 8050TIP3    H124114   3.078   1.421   5.568  0.2097  0.3132 -0.4481
 8050TIP3    H224115   3.050   1.520   5.679 -0.0383 -0.2582  0.0056
 8051TIP3   OH224116   5.847   0.480   0.486 -0.1606  0.3215  0.1355
 8051TIP3    H124117   5.752   0.483   0.495 -0.2338  0.0193 -0.4983
 8051TIP3    H224118   5.879   0.455   0.573 -0.7603 -1.3464 -0.0930
 8052TIP3   OH224119   6.584   6.630   1.631 -0.2999 -1.0392  0.0316
 8052TIP3    H124120   6.663   6.684   1.629  0.0026 -1.5161 -0.8528
 8052TIP3    H224121   6.613   6.546   1.666 -0.7575 -0.6895  1.3270
 8053TIP3   OH224122   3.298   5.658   1.024 -0.3001  0.0117  0.1031
 8053TIP3    H124123   3.231   5.725   1.034  0.5083  1.0352 -1.1656
 8053TIP3    H224124   3.347   5.661   1.107  0.6825  2.0887 -0.4832
 8054TIP3   OH224125   4.574   1.580   2.251  0.4597  0.2753 -0.3962
 8054TIP3    H124126   4.518   1.629   2.190 -0.9911  0.4561  1.0088
 8054TIP3    H224127   4.592   1.642   2.322  0.0394 -0.6799  0.5734
 8055TIP3   OH224128   5.501   0.120   4.528  0.2109  0.3880 -0.7840
 8055TIP3    H124129   5.448   0.146   4.604  1.1918 -0.7009  0.3142
 8055TIP3    H224130   5.529   0.203   4.490 -0.6562  0.9656 -0.2195
 8056TIP3   OH224131   4.627   2.770   2.017  0.3777  0.7635  0.2108
 8056TIP3    H124132   4.707   2.812   2.048  0.5749 -1.1581  2.6001
 8056TIP3    H224133   4.658   2.694   1.968  0.0086  0.8402 -0.1425
 8057TIP3   OH224134   5.443   3.526   1.588 -0.0103  0.5803  0.0811
 8057TIP3    H124135   5.408   3.606   1.550  1.1251  1.4878  0.8924
 8057TIP3    H224136   5.501   3.491   1.520  0.4648  1.1277  0.1974
 8058TIP3   OH224137   0.398   0.167   3.884  0.6496 -0.2974  0.7469
 8058TIP3    H124138   0.473   0.226   3.885  1.3560 -1.1704  2.2962
 8058TIP3    H224139   0.323   0.225   3.868  1.4539  0.8224  0.8862
 8059TIP3   OH224140   2.076   0.237   3.981 -0.0113  0.2592  0.5577
 8059TIP3    H124141   2.061   0.315   3.927 -0.7609 -1.0642 -1.2089
 8059TIP3    H224142   2.131   0.269   4.053  0.8457  2.1423 -0.8414
 8060TIP3   OH224143   1.719   5.753   1.451  0.0145 -0.5321  0.2048
 8060TIP3    H124144   1.693   5.812   1.380  1.1110 -1.4102 -0.9649
 8060TIP3    H224145   1.813   5.768   1.462  0.3951 -2.2894 -0.3761
 8061TIP3   OH224146   0.096   0.281   4.111 -0.2809 -0.2889 -0.7472
 8061TIP3    H124147   0.134   0.367   4.092 -0.3233 -0.0490  0.2067
 8061TIP3    H224148   0.157   0.242   4.174 -0.0203 -1.1487 -1.5152
 8062TIP3   OH224149   4.707   0.074   4.650  0.2870 -0.1118 -0.3234
 8062TIP3    H124150   4.734   0.085   4.741  0.5094 -1.3224 -0.2312
 8062TIP3    H224151   4.723   0.159   4.610  2.1405 -0.1408  0.2754
 8063TIP3   OH224152   3.680   0.174   3.820 -0.0569  0.0487 -0.2546
 8063TIP3    H124153   3.735   0.134   3.752 -0.1929 -2.4341  0.9756
 8063TIP3    H224154   3.743   0.206   3.885  0.0298 -0.7956  0.0971
 8064TIP3   OH224155   5.886   3.026   2.654 -0.4497 -0.3037  0.3462
 8064TIP3    H124156   5.876   2.964   2.582 -2.0610 -0.3360  0.5505
 8064TIP3    H224157   5.875   3.112   2.614 -1.5988 -0.3321  0.5558
 8065TIP3   OH224158   0.294   6.134   1.232  0.0297 -0.7082  0.8099
 8065TIP3    H124159   0.342   6.208   1.196 -1.9761  0.2036 -0.1513
 8065TIP3    H224160   0.284   6.153   1.325  1.3445 -0.8681  1.0142
 8066TIP3   OH224161   2.339   1.099   1.134 -0.0085  0.4910  0.1563
 8066TIP3    H124162   2.276   1.158   1.176 -1.4920 -1.0765  0.2593
 8066TIP3    H224163   2.317   1.103   1.041 -0.1399  0.0793  0.1690
 8067TIP3   OH224164   5.913   3.069   5.807 -0.7495 -0.9490  0.3805
 8067TIP3    H124165   5.978   3.082   5.876  0.4775  1.6392 -1.1128
 8067TIP3    H224166   5.838   3.120   5.835 -0.1318  0.3683 -0.2822
 8068TIP3   OH224167   1.430   6.073   2.195 -0.0384  0.1099 -0.1578
 8068TIP3    H124168   1.400   6.161   2.217 -2.4976 -1.1646  2.2269
 8068TIP3    H224169   1.387   6.053   2.112 -2.5024 -0.0678  1.0780
 8069TIP3   OH224170   1.971   0.905   0.120  0.1354 -0.0567  0.3191
 8069TIP3    H124171   2.006   0.827   0.077  1.3635  0.2808  0.6679
 8069TIP3    H224172   1.887   0.877   0.156  0.6259 -1.2567  0.5772
 8070TIP3   OH224173   5.774   3.533   3.073 -0.3250 -0.2070 -0.3817
 8070TIP3    H124174   5.768   3.548   2.978 -0.3719  0.3206 -0.2965
 8070TIP3    H224175   5.753   3.618   3.112 -1.5333 -0.7300  0.1361
 8071TIP3   OH224176   3.628   1.637   0.181  0.2042  0.9400 -0.1540
 8071TIP3    H124177   3.609   1.731   0.189  1.6373  1.3259 -0.7936
 8071TIP3    H224178   3.723   1.634   0.168  0.1027 -0.5702 -0.6819
 8072TIP3   OH224179   0.430  -0.023   5.037 -0.1221  0.6768  0.0974
 8072TIP3    H124180   0.460   0.030   4.963 -2.1839  2.1992  0.2421
 8072TIP3    H224181   0.337   0.000   5.046 -0.8527 -2.1804  0.9111
 8073TIP3   OH224182   1.313   0.988   3.478 -0.5997 -0.1544 -0.2065
 8073TIP3    H124183   1.272   0.938   3.548 -0.7698  1.5888  1.0019
 8073TIP3    H224184   1.249   0.987   3.407 -0.5574 -1.6690 -0.2585
 8074TIP3   OH224185   4.953   4.471   2.086 -0.3994  0.0629 -0.1743
 8074TIP3    H124186   4.878   4.498   2.139 -0.2736 -0.0368  0.0549
 8074TIP3    H224187   4.929   4.496   1.996 -0.6332  0.1855 -0.0787
 8075TIP3   OH224188   4.046   0.383   3.336  0.0226 -0.0584 -0.1646
 8075TIP3    H124189   4.042   0.290   3.358 -0.4764  0.0774  0.3318
 8075TIP3    H224190   4.067   0.384   3.242  0.4909 -0.6580 -0.0752
 8076TIP3   OH224191   2.721   5.327   0.202 -0.3333 -0.4922 -0.0545
 8076TIP3    H124192   2.678   5.379   0.270  0.0795 -1.4905  1.0057
 8076TIP3    H224193   2.793   5.382   0.171 -1.3439  0.5241 -0.6812
 8077TIP3   OH224194   5.192   1.136   1.634  0.7717 -0.0558  0.1347
 8077TIP3    H124195   5.212   1.194   1.707  3.2468 -0.1968 -0.3313
 8077TIP3    H224196   5.097   1.137   1.627  0.5679  1.1868  2.3398
 8078TIP3   OH224197   2.786   0.779   4.651  0.4207 -0.1468 -0.5273
 8078TIP3    H124198   2.749   0.714   4.711 -0.8615  0.1348 -0.9816
 8078TIP3    H224199   2.837   0.837   4.707  1.9774 -1.7568 -0.1580
 8079TIP3   OH224200   0.533   4.523   4.213 -0.2705 -0.0733 -0.4021
 8079TIP3    H124201   0.510   4.469   4.138  0.0738  1.1412 -1.4143
 8079TIP3    H224202   0.449   4.550   4.250 -0.4399 -0.4693 -0.4905
 8080TIP3   OH224203   2.290   1.566   1.268  0.6418  0.4851 -0.7376
 8080TIP3    H124204   2.211   1.576   1.216  0.0470  0.3642  0.1282
 8080TIP3    H224205   2.302   1.651   1.311 -1.0795 -0.5170  1.9597
 8081TIP3   OH224206   6.662   1.697   5.052  0.2487 -0.8835  0.8524
 8081TIP3    H124207   6.643   1.605   5.072 -1.0191 -0.6466  0.7576
 8081TIP3    H224208   6.595   1.747   5.097 -0.4789 -0.1403 -0.9674
 8082TIP3   OH224209   4.991   1.034   2.933 -0.3838 -0.5171 -0.4698
 8082TIP3    H124210   4.962   1.099   2.998 -1.6192  0.1999 -1.6948
 8082TIP3    H224211   4.921   0.969   2.932 -0.8690 -0.0050 -1.7669
 8083TIP3   OH224212   0.523   3.791   4.929 -0.1049 -0.1206  0.2987
 8083TIP3    H124213   0.613   3.758   4.932  0.9690  2.5420  1.0400
 8083TIP3    H224214   0.529   3.871   4.877 -1.8748  0.5786  1.0930
 8084TIP3   OH224215   0.897   3.373   5.093 -0.8721 -0.7681 -0.0499
 8084TIP3    H124216   0.978   3.382   5.043 -1.7585 -2.8817 -2.0488
 8084TIP3    H224217   0.921   3.316   5.166  0.1141  1.2705  1.3430
 8085TIP3   OH224218   2.563   5.859   5.299  0.2117 -0.2138 -0.2525
 8085TIP3    H124219   2.538   5.814   5.379  1.0312 -0.5022 -0.1477
 8085TIP3    H224220   2.540   5.951   5.315 -1.1511 -0.5224 -0.3393
 8086TIP3   OH224221   4.344   0.792   2.190 -0.0947 -0.6537  0.0775
 8086TIP3    H124222   4.398   0.870   2.177 -0.3357 -0.3573  0.7789
 8086TIP3    H224223   4.272   0.822   2.246 -1.0246 -1.0295 -0.8862
 8087TIP3   OH224224   2.124   3.405   0.957  0.1079  0.4563  0.4045
 8087TIP3    H124225   2.166   3.345   1.019  2.1778 -0.2303 -1.5387
 8087TIP3    H224226   2.098   3.350   0.883 -0.8360  1.5029 -0.0817
 8088TIP3   OH224227   3.559   0.457   3.776  0.1179  0.4305  0.1994
 8088TIP3    H124228   3.594   0.384   3.827 -0.0843 -0.4430 -0.8744
 8088TIP3    H224229   3.558   0.425   3.686  0.2480  1.8505 -0.3338
 8089TIP3   OH224230   0.074   3.949   5.491 -0.0169  0.3531  0.0578
 8089TIP3    H124231   0.005   3.965   5.556  0.1762 -0.4220  0.4662
 8089TIP3    H224232   0.150   3.997   5.523 -0.7541  2.4601 -1.1637
 8090TIP3   OH224233   5.117   2.055   2.520 -1.1585 -0.4702 -0.2361
 8090TIP3    H124234   5.196   2.028   2.473 -0.7593 -1.6708  1.0695
 8090TIP3    H224235   5.071   2.111   2.457 -1.0055 -2.5320 -2.3313
 8091TIP3   OH224236   4.252   4.229   4.173  0.0763  0.4408 -0.3365
 8091TIP3    H124237   4.340   4.193   4.166 -0.1227 -0.4518  1.3243
 8091TIP3    H224238   4.195   4.154   4.156 -0.3510  0.5387  0.6214
 8092TIP3   OH224239   6.749   3.335   5.759 -0.0869  0.5587  0.1560
 8092TIP3    H124240   6.687   3.283   5.811 -0.8455  0.9337 -0.3590
 8092TIP3    H224241   6.733   3.425   5.786 -1.0150  0.8364 -1.2476
 8093TIP3   OH224242   7.089   2.051   2.075 -0.3229  0.1648  0.0973
 8093TIP3    H124243   7.008   2.005   2.056 -0.9084  0.7988  0.9909
 8093TIP3    H224244   7.095   2.051   2.170  1.8680 -1.8050  0.0638
 8094TIP3   OH224245   3.817   1.380   5.806  0.2756 -0.4652  0.2024
 8094TIP3    H124246   3.790   1.468   5.779  1.6369  0.0450  0.4618
 8094TIP3    H224247   3.773   1.322   5.744 -1.1209  0.3368  0.3864
 8095TIP3   OH224248   6.899   3.734   5.015  0.4927 -0.4904  0.0287
 8095TIP3    H124249   6.834   3.791   4.975 -0.1044 -1.4810 -0.4608
 8095TIP3    H224250   6.983   3.772   4.989  0.1741  1.3224  1.4160
 8096TIP3   OH224251   6.066   2.311   4.177  0.2568 -0.2665 -0.1842
 8096TIP3    H124252   5.977   2.302   4.210  0.1956 -2.7382 -0.8335
 8096TIP3    H224253   6.115   2.350   4.249 -0.9524 -0.7373  0.9222
 8097TIP3   OH224254   1.125   3.997   1.161  0.0007  0.1951  0.3311
 8097TIP3    H124255   1.033   4.023   1.153 -0.1547 -0.1477  0.9266
 8097TIP3    H224256   1.128   3.944   1.241  0.2497 -1.8452 -0.9680
 8098TIP3   OH224257   3.794   1.368   4.303 -0.9835 -0.0047  0.0665
 8098TIP3    H124258   3.709   1.327   4.288 -0.2080 -1.2792 -1.0545
 8098TIP3    H224259   3.781   1.459   4.276 -2.0101 -0.1608 -0.0187
 8099TIP3   OH224260   6.742   0.468   1.997 -0.2775 -0.5952  0.0670
 8099TIP3    H124261   6.815   0.525   2.023  1.9656 -1.5383 -3.4311
 8099TIP3    H224262   6.696   0.516   1.929 -0.9622 -1.3080  0.0088
 8100TIP3   OH224263   1.864   6.757   5.071 -0.2911  0.2928 -0.0693
 8100TIP3    H124264   1.943   6.774   5.019  0.0563 -3.7394 -1.1960
 8100TIP3    H224265   1.792   6.768   5.009 -0.4462  1.3829  0.2762
 8101TIP3   OH224266   3.177   4.092   0.760 -0.5855 -0.6487 -0.6319
 8101TIP3    H124267   3.149   4.163   0.818 -1.3659 -1.3218 -0.1676
 8101TIP3    H224268   3.204   4.022   0.818  0.2465 -0.7194 -1.0926
 8102TIP3   OH224269   2.574   3.158   0.595 -0.4218 -0.5111  0.4620
 8102TIP3    H124270   2.574   3.121   0.507 -0.7245 -0.6619  0.5220
 8102TIP3    H224271   2.514   3.101   0.645 -1.2986  0.3467  0.4214
 8103TIP3   OH224272   5.857   5.062   3.452 -0.3021  0.0008 -0.3598
 8103TIP3    H124273   5.771   5.063   3.494 -0.0022 -0.1132  0.2663
 8103TIP3    H224274   5.852   4.991   3.388 -0.7573  0.1634 -0.5038
 8104TIP3   OH224275   2.448   3.536   4.708 -0.0941  0.3325 -0.4099
 8104TIP3    H124276   2.371   3.503   4.753 -0.5010 -0.6741 -1.7560
 8104TIP3    H224277   2.415   3.569   4.624  0.9743 -0.7880 -1.3273
 8105TIP3   OH224278   4.939   4.230   5.079  0.1287  0.0562 -0.3839
 8105TIP3    H124279   5.014   4.217   5.135 -0.5734 -1.3226  0.2869
 8105TIP3    H224280   4.883   4.154   5.094 -1.7260  1.3326 -0.3590
 8106TIP3   OH224281   5.862   1.502   1.648  0.4843 -0.0285 -0.0165
 8106TIP3    H124282   5.837   1.441   1.578 -0.8207  1.5328 -0.9958
 8106TIP3    H224283   5.780   1.523   1.692  1.2390 -0.7073  1.8183
 8107TIP3   OH224284   3.513   3.081   1.748 -0.2227  0.0929 -0.0637
 8107TIP3    H124285   3.576   3.060   1.678 -0.7882 -3.1887  0.2531
 8107TIP3    H224286   3.566   3.079   1.828 -0.2619  0.0669 -0.0390
 8108TIP3   OH224287   2.082   2.175   5.654 -0.1051 -0.3126 -0.1375
 8108TIP3    H124288   2.024   2.135   5.718  0.0455 -0.7786 -0.2874
 8108TIP3    H224289   2.155   2.210   5.706  0.8871 -2.1979 -0.1749
 8109TIP3   OH224290   6.852   6.060   2.507 -0.6124 -0.0180  0.5115
 8109TIP3    H124291   6.774   6.072   2.453 -0.2604 -0.6041 -0.1485
 8109TIP3    H224292   6.821   6.012   2.583 -0.5551 -2.2015 -0.7595
 8110TIP3   OH224293   2.310   0.362   3.861 -0.1951  0.1318  0.4324
 8110TIP3    H124294   2.272   0.409   3.934  0.4959  1.2388  0.1108
 8110TIP3    H224295   2.289   0.416   3.784 -0.1002 -0.5121 -0.0519
 8111TIP3   OH224296   6.655   6.052   3.239  0.2996  0.1274 -0.6533
 8111TIP3    H124297   6.696   6.019   3.319  1.0624  2.7548  0.1219
 8111TIP3    H224298   6.603   6.127   3.268 -0.5703  0.2482 -2.4314
 8112TIP3   OH224299   0.943   1.289   0.624  0.0918 -0.2477 -0.1751
 8112TIP3    H124300   1.033   1.261   0.637  0.3106  0.3915 -0.2419
 8112TIP3    H224301   0.942   1.380   0.654 -0.7560 -0.5399  0.7263
 8113TIP3   OH224302   5.120   1.457   2.538 -0.6831  0.0384 -0.1494
 8113TIP3    H124303   5.105   1.406   2.617  0.4322 -1.2890 -0.7563
 8113TIP3    H224304   5.077   1.541   2.555 -2.9564 -1.2246  0.7127
 8114TIP3   OH224305   6.911   2.539   0.329  0.5281 -0.1829 -0.2654
 8114TIP3    H124306   6.834   2.595   0.327  0.3367 -0.4410 -0.2081
 8114TIP3    H224307   6.926   2.521   0.422 -0.3820 -1.5408 -0.3565
 8115TIP3   OH224308   3.319   1.653   2.976  0.5708 -0.0588 -0.1778
 8115TIP3    H124309   3.348   1.713   3.044 -1.8224  1.0119  0.0087
 8115TIP3    H224310   3.267   1.588   3.022  0.5893 -0.4928 -0.7577
 8116TIP3   OH224311   4.446   5.160   3.761 -0.1865 -0.0059  0.0880
 8116TIP3    H124312   4.401   5.224   3.815  0.4673 -0.2674  0.9663
 8116TIP3    H224313   4.539   5.170   3.783  0.0311 -0.5731 -0.4983
 8117TIP3   OH224314   4.326   0.921   4.012 -0.0088 -0.5886  0.0214
 8117TIP3    H124315   4.260   0.989   3.999  0.6802  0.0150 -0.3311
 8117TIP3    H224316   4.348   0.891   3.924  1.0634  0.0538  0.0598
 8118TIP3   OH224317   1.763   5.863   3.553 -0.6027  0.0159 -0.7009
 8118TIP3    H124318   1.702   5.789   3.549 -1.1689  0.3304  1.2259
 8118TIP3    H224319   1.713   5.932   3.597  0.3885  1.0810 -1.1988
 8119TIP3   OH224320   1.356   1.061   3.141  0.1057 -0.1630 -0.5846
 8119TIP3    H124321   1.437   1.011   3.152  0.5140  0.5290 -0.4297
 8119TIP3    H224322   1.365   1.135   3.201 -1.7224 -1.4000  1.3829
 8120TIP3   OH224323   3.766   5.311   4.554  0.0034 -0.3594  0.8481
 8120TIP3    H124324   3.848   5.335   4.509 -1.0027  0.4264 -0.6495
 8120TIP3    H224325   3.702   5.373   4.520 -1.5157 -1.8067  0.9778
 8121TIP3   OH224326   4.809   2.611   3.138 -0.0600 -0.2905 -0.1184
 8121TIP3    H124327   4.867   2.603   3.214 -0.4424 -0.0703  0.2042
 8121TIP3    H224328   4.749   2.681   3.162 -0.4610 -0.5210 -0.4422
 8122TIP3   OH224329   4.610   5.364   3.523  0.1757  0.2675  0.3053
 8122TIP3    H124330   4.547   5.392   3.457  0.1439 -0.3021  0.0886
 8122TIP3    H224331   4.563   5.370   3.606  0.6200  2.2701  0.4645
 8123TIP3   OH224332   6.917   5.433   3.457  0.2650 -0.5922  0.1675
 8123TIP3    H124333   6.871   5.488   3.394 -0.2737 -0.6358  0.5148
 8123TIP3    H224334   7.001   5.413   3.416  0.5952  0.7479  0.1619
 8124TIP3   OH224335   3.221   3.440   0.072 -0.2319  0.1885 -0.0644
 8124TIP3    H124336   3.245   3.348   0.057 -0.9411 -0.0892  0.4330
 8124TIP3    H224337   3.141   3.452   0.020 -1.0723  0.0414  1.1530
 8125TIP3   OH224338   2.332   1.101   3.027  0.0307  0.3807 -0.0070
 8125TIP3    H124339   2.274   1.122   3.101 -0.2428  2.9323 -0.8548
 8125TIP3    H224340   2.348   1.185   2.985  2.0458 -0.6947 -1.5236
 8126TIP3   OH224341   6.826   5.353   5.726  0.1895  0.0956 -0.5389
 8126TIP3    H124342   6.881   5.302   5.786 -0.6528  2.6988  2.7036
 8126TIP3    H224343   6.884   5.420   5.690  0.1352  0.0258 -0.7639
 8127TIP3   OH224344   0.370   1.503   1.888  0.4387 -0.1008 -0.1328
 8127TIP3    H124345   0.401   1.588   1.857  0.1867 -0.4643 -1.4297
 8127TIP3    H224346   0.449   1.448   1.893  0.1955 -0.8524 -2.8683
 8128TIP3   OH224347   7.172   6.786   2.889 -0.7611 -0.0196 -0.6873
 8128TIP3    H124348   7.263   6.805   2.867 -0.9225  0.0949 -1.2748
 8128TIP3    H224349   7.171   6.780   2.985 -0.4950  1.8725 -0.5360
 8129TIP3   OH224350   1.937   2.089   5.170  0.1203 -0.2642 -0.1057
 8129TIP3    H124351   1.980   2.132   5.096  2.0630 -0.6164  0.7612
 8129TIP3    H224352   1.844   2.101   5.154  0.5434  1.3983 -1.5717
 8130TIP3   OH224353   0.510   2.463   2.988 -0.2931  0.2976  0.1144
 8130TIP3    H124354   0.503   2.369   2.976  0.8008 -0.0766  1.9344
 8130TIP3    H224355   0.452   2.482   3.063 -2.1346  1.4610 -1.4851
 8131TIP3   OH224356   5.351   5.755   5.522  0.5924 -0.0644  0.0556
 8131TIP3    H124357   5.327   5.712   5.605 -0.7367 -1.1234 -0.8227
 8131TIP3    H224358   5.403   5.689   5.476  0.9841  0.3734 -0.1306
 8132TIP3   OH224359   0.778   2.676   0.320  0.0771  0.6192 -0.1784
 8132TIP3    H124360   0.784   2.617   0.244  2.0021  0.2579  0.2179
 8132TIP3    H224361   0.754   2.619   0.393  0.5311  0.5583 -0.0732
 8133TIP3   OH224362   1.973   1.405   2.280 -0.9091 -0.0887  0.1497
 8133TIP3    H124363   2.020   1.483   2.309 -0.5998 -0.0711 -0.3812
 8133TIP3    H224364   1.973   1.411   2.184 -0.2363 -1.0965  0.0665
 8134TIP3   OH224365   3.614   3.073   2.489  0.2839 -0.0552 -0.3644
 8134TIP3    H124366   3.680   3.003   2.495 -0.2398 -0.4681  0.7858
 8134TIP3    H224367   3.561   3.063   2.568 -1.1446  0.2920 -1.2433
 8135TIP3   OH224368   6.611   4.220   0.872 -0.2544 -0.5853  0.0290
 8135TIP3    H124369   6.522   4.197   0.897 -0.1396 -0.5951  0.4282
 8135TIP3    H224370   6.658   4.229   0.955  0.3660 -1.5915 -0.1923
 8136TIP3   OH224371   1.523   1.963   0.794 -0.9796  0.1279  0.0725
 8136TIP3    H124372   1.429   1.947   0.791 -1.1341  0.7142  1.1367
 8136TIP3    H224373   1.538   2.003   0.880  0.3070 -0.3735  0.1071
 8137TIP3   OH224374   4.214   1.594   2.237  0.3059  0.2720 -0.0534
 8137TIP3    H124375   4.246   1.661   2.177  0.3405  0.3081  0.0053
 8137TIP3    H224376   4.238   1.626   2.324 -0.0950  0.4154  0.0082
 8138TIP3   OH224377   5.765   4.741   1.599 -0.2908  0.4551  0.4012
 8138TIP3    H124378   5.743   4.710   1.511 -2.0884  1.1120  0.5772
 8138TIP3    H224379   5.856   4.716   1.611 -0.4265 -0.9237 -1.0958
 8139TIP3   OH224380   3.917   5.074   2.297  0.0064  0.0282 -0.3640
 8139TIP3    H124381   3.995   5.019   2.290 -0.5680 -0.7128 -1.1979
 8139TIP3    H224382   3.949   5.157   2.331  1.2852 -0.0114 -1.3934
 8140TIP3   OH224383   6.271   0.179   4.511 -0.6766 -0.2862  0.1155
 8140TIP3    H124384   6.234   0.096   4.542  0.7575 -0.7318  0.7405
 8140TIP3    H224385   6.196   0.230   4.483 -1.5693 -1.9290 -0.5997
 8141TIP3   OH224386   0.241   5.199   0.890  0.2264 -0.0989 -0.4060
 8141TIP3    H124387   0.195   5.200   0.974  0.0029  2.0270 -0.5232
 8141TIP3    H224388   0.226   5.110   0.856 -0.8000 -0.5627  1.1616
 8142TIP3   OH224389   5.470   6.100   0.259  0.4240  0.4976  0.3982
 8142TIP3    H124390   5.536   6.155   0.302  0.3507  1.0357 -0.1676
 8142TIP3    H224391   5.454   6.143   0.175 -0.2566  0.0691  0.3042
 8143TIP3   OH224392   1.118   2.557   4.471  0.5029  0.3012 -0.1401
 8143TIP3    H124393   1.198   2.512   4.444  0.0597  1.3288 -3.6794
 8143TIP3    H224394   1.047   2.501   4.439 -0.1654  0.5702  0.8348
 8144TIP3   OH224395   3.750   1.431   3.839  0.4939  0.4725 -0.0222
 8144TIP3    H124396   3.844   1.421   3.831  0.3589 -0.4999 -0.5025
 8144TIP3    H224397   3.719   1.445   3.750 -0.1490 -2.5304 -0.3923
 8145TIP3   OH224398   7.050   2.526   3.891  0.4560  0.2096  0.4029
 8145TIP3    H124399   7.066   2.531   3.797  1.5283 -0.0735  0.5559
 8145TIP3    H224400   7.059   2.433   3.912 -0.0787  0.2295  0.7400
 8146TIP3   OH224401   0.644   5.722   4.681 -0.0878 -0.6495 -0.0476
 8146TIP3    H124402   0.652   5.673   4.599 -2.0090 -1.3615  0.1330
 8146TIP3    H224403   0.628   5.812   4.654 -2.7975 -1.2065 -0.5836
 8147TIP3   OH224404   0.921   4.632   4.615  0.3208 -0.5275  0.5431
 8147TIP3    H124405   0.952   4.575   4.545  0.2214  0.4197 -0.2997
 8147TIP3    H224406   0.864   4.695   4.572  0.4184  0.2083  1.4450
 8148TIP3   OH224407   7.061   1.272   3.916  0.1108  0.4413 -0.5040
 8148TIP3    H124408   7.017   1.263   4.001  0.7736  0.8077 -0.1160
 8148TIP3    H224409   7.032   1.195   3.866 -1.9790  1.3163 -0.7406
 8149TIP3   OH224410   6.236   0.817   2.101  0.1257  0.8444  0.0361
 8149TIP3    H124411   6.259   0.895   2.051  1.6799  1.8049  2.0881
 8149TIP3    H224412   6.320   0.777   2.123 -0.6158 -0.8749 -0.1145
 8150TIP3   OH224413   4.767   2.749   1.378 -0.5546  0.2067  0.3188
 8150TIP3    H124414   4.782   2.836   1.341  0.8506 -0.3639 -0.5820
 8150TIP3    H224415   4.853   2.723   1.412 -0.4511 -1.5262 -1.0917
 8151TIP3   OH224416   5.147   0.029   5.209  0.2547  0.0671  0.1542
 8151TIP3    H124417   5.139   0.029   5.304  2.4730 -0.2982  0.3853
 8151TIP3    H224418   5.212  -0.039   5.190 -1.6040 -1.3256 -1.8107
 8152TIP3   OH224419   2.601   0.947   5.625 -0.3567 -0.5456  0.1232
 8152TIP3    H124420   2.669   1.013   5.623  1.5323 -2.3908 -1.4600
 8152TIP3    H224421   2.543   0.973   5.696  2.2697  0.8681  1.8667
 8153TIP3   OH224422   5.982   6.451   3.545  0.1363 -0.3687  0.7774
 8153TIP3    H124423   5.924   6.523   3.522  1.8793  0.9705  0.4122
 8153TIP3    H224424   6.031   6.482   3.621  0.4866 -1.4074  0.9957
 8154TIP3   OH224425   5.447   0.056   0.229 -0.3861  0.8825  0.1453
 8154TIP3    H124426   5.413  -0.034   0.225  1.6062  0.1178 -1.3899
 8154TIP3    H224427   5.520   0.050   0.290 -0.8930  1.7353  0.8509
 8155TIP3   OH224428   5.171   4.987   4.568 -0.3621  0.5903 -0.5491
 8155TIP3    H124429   5.089   4.938   4.572  0.3615 -0.7097 -1.0562
 8155TIP3    H224430   5.155   5.065   4.622 -1.2599 -0.6359  1.0560
 8156TIP3   OH224431   0.601   0.750   4.712 -0.0200 -0.9654 -0.6511
 8156TIP3    H124432   0.573   0.796   4.633  1.7299  0.7776 -0.3357
 8156TIP3    H224433   0.692   0.777   4.725 -0.2253 -1.2385  1.9234
 8157TIP3   OH224434   3.904   2.059   5.825 -0.7276  0.4936 -0.4341
 8157TIP3    H124435   3.893   2.139   5.878 -0.8806 -1.2417  2.3489
 8157TIP3    H224436   3.992   2.067   5.788  0.0703  1.0787  1.4683
 8158TIP3   OH224437   0.891   2.019   4.987 -0.0923 -0.3782 -0.2781
 8158TIP3    H124438   0.823   2.078   5.020 -0.8316 -1.5199  0.3071
 8158TIP3    H224439   0.962   2.025   5.052 -0.0567  0.0506 -0.3559
 8159TIP3   OH224440   3.204   0.075   2.190 -0.3993 -0.6165 -0.1407
 8159TIP3    H124441   3.117   0.048   2.218 -0.9372  0.1699 -1.0112
 8159TIP3    H224442   3.233   0.137   2.256 -1.7599  1.4202 -1.3389
 8160TIP3   OH224443   5.965   4.347   1.381  0.0299 -0.0610  0.4994
 8160TIP3    H124444   6.055   4.377   1.385 -0.0337  0.5799 -1.5867
 8160TIP3    H224445   5.918   4.404   1.442  0.6019  1.4364 -0.4137
 8161TIP3   OH224446   5.745   2.967   0.188 -0.4213 -0.1946  0.1072
 8161TIP3    H124447   5.653   2.994   0.184 -0.2523  0.4600  0.5426
 8161TIP3    H224448   5.782   3.017   0.260 -0.0839 -1.5927  0.9499
 8162TIP3   OH224449   1.008   6.393   0.573 -0.1817 -0.0037 -0.4711
 8162TIP3    H124450   1.034   6.328   0.638  0.4563  1.2774  0.6073
 8162TIP3    H224451   1.049   6.364   0.491 -1.2453 -1.8069 -0.4320
 8163TIP3   OH224452   1.272   5.344   1.460  0.3666 -0.8883 -0.0976
 8163TIP3    H124453   1.334   5.299   1.403 -0.5308  0.0973 -1.9410
 8163TIP3    H224454   1.326   5.390   1.525  1.6008  0.0642 -1.7461
 8164TIP3   OH224455   1.957   2.739   4.922 -0.6159  0.5091  0.0552
 8164TIP3    H124456   1.879   2.765   4.872 -1.4976  1.0192  1.6010
 8164TIP3    H224457   1.975   2.815   4.978  1.4573  0.6680 -0.7631
 8165TIP3   OH224458   4.483   0.944   4.238  0.0530  0.4666  0.5723
 8165TIP3    H124459   4.443   0.939   4.151 -0.2996  2.2622  0.5960
 8165TIP3    H224460   4.421   0.994   4.291 -0.7687 -2.3753  2.5321
 8166TIP3   OH224461   1.406   4.373   5.399 -0.4815 -0.7974 -0.1803
 8166TIP3    H124462   1.394   4.312   5.326  0.9330 -1.1553 -0.1358
 8166TIP3    H224463   1.465   4.327   5.459  0.9679  0.7645 -0.3388
 8167TIP3   OH224464   6.715   0.665   2.622 -0.2384  0.1354 -0.0333
 8167TIP3    H124465   6.784   0.691   2.561 -2.2813  1.0859 -2.0655
 8167TIP3    H224466   6.743   0.703   2.706  2.3720 -0.7447 -0.3988
 8168TIP3   OH224467   6.503   2.224   2.321 -0.1967  0.5565 -0.1826
 8168TIP3    H124468   6.594   2.199   2.306 -0.3090 -0.1010  0.1890
 8168TIP3    H224469   6.485   2.196   2.411  0.0170  3.0815  0.7200
 8169TIP3   OH224470   3.485   0.878   4.677  0.0250 -0.5977  0.2839
 8169TIP3    H124471   3.556   0.821   4.705  1.1426  1.2219  1.3924
 8169TIP3    H224472   3.417   0.865   4.743  0.7169  0.1004  1.1780
 8170TIP3   OH224473   5.608   0.602   5.795  0.0369  0.1157  0.3133
 8170TIP3    H124474   5.548   0.551   5.740 -0.5898 -0.8008  1.7854
 8170TIP3    H224475   5.551   0.644   5.859  0.6835  1.7442 -0.1405
 8171TIP3   OH224476   5.469   5.758   4.043  0.4611  0.3760 -0.6397
 8171TIP3    H124477   5.461   5.664   4.062 -0.7514  0.5073 -0.4352
 8171TIP3    H224478   5.523   5.792   4.115 -0.7410  0.1568  0.4214
 8172TIP3   OH224479   1.451   1.740   4.767  0.1511 -0.7537 -0.2432
 8172TIP3    H124480   1.453   1.835   4.770 -0.1123 -0.7499 -0.1540
 8172TIP3    H224481   1.445   1.719   4.674 -1.7809 -0.6285 -0.1949
 8173TIP3   OH224482   4.290   5.032   0.583  0.2388  0.0064  0.1519
 8173TIP3    H124483   4.335   5.057   0.503  1.8776 -1.6771  0.4686
 8173TIP3    H224484   4.359   5.031   0.650 -0.2566 -2.4057  0.7193
 8174TIP3   OH224485   3.509   1.876   2.471 -0.2919  0.5858 -0.1152
 8174TIP3    H124486   3.548   1.849   2.388  0.1958 -3.0099  1.0909
 8174TIP3    H224487   3.582   1.917   2.519  1.5797 -3.5371  1.0207
 8175TIP3   OH224488   0.638   0.490   2.205  0.9930 -0.2809 -0.0358
 8175TIP3    H124489   0.670   0.411   2.161 -0.0369 -0.6718 -0.1235
 8175TIP3    H224490   0.543   0.487   2.193  1.0437  1.9388 -1.6679
 8176TIP3   OH224491   2.749   2.917   3.295 -0.1203 -0.5210  0.7276
 8176TIP3    H124492   2.663   2.901   3.256 -0.4261  1.8499  0.2957
 8176TIP3    H224493   2.795   2.970   3.230  1.3085 -0.9017  1.3973
 8177TIP3   OH224494   1.782   3.465   1.494  0.2012 -0.0860 -0.1498
 8177TIP3    H124495   1.856   3.504   1.446 -0.8398  1.4744 -0.5673
 8177TIP3    H224496   1.708   3.471   1.434 -0.3342 -1.4695  0.3335
 8178TIP3   OH224497   4.266   3.150   2.135 -0.6566  0.2536 -0.1856
 8178TIP3    H124498   4.256   3.127   2.227 -0.6497 -0.4106 -0.3494
 8178TIP3    H224499   4.216   3.083   2.088  0.4773 -0.2153 -0.7430
 8179TIP3   OH224500   0.224   4.705   0.700 -0.1841  0.4011  0.4344
 8179TIP3    H124501   0.261   4.770   0.640  1.1199  2.6998  3.4477
 8179TIP3    H224502   0.292   4.638   0.707 -0.5091 -0.0874 -0.8701
 8180TIP3   OH224503   1.536   5.687   1.105  0.1494  0.1307 -0.4666
 8180TIP3    H124504   1.622   5.676   1.065 -1.0075  0.0593 -3.1962
 8180TIP3    H224505   1.500   5.766   1.064 -2.5165 -1.8945 -2.4279
 8181TIP3   OH224506   2.248   0.371   5.421  0.1666 -0.0320  0.9800
 8181TIP3    H124507   2.210   0.283   5.419  1.3502 -0.5643  0.0316
 8181TIP3    H224508   2.215   0.410   5.502 -1.4891 -0.8259  0.7315
 8182TIP3   OH224509   4.672   4.458   2.254 -0.3484  0.3921 -0.1433
 8182TIP3    H124510   4.620   4.504   2.320 -0.4961  0.0020  0.0150
 8182TIP3    H224511   4.624   4.470   2.172 -2.6243 -2.8292  0.5137
 8183TIP3   OH224512   0.322   2.269   4.149  0.5334 -0.3534 -0.1109
 8183TIP3    H124513   0.409   2.274   4.111  0.2389  1.1797 -0.6729
 8183TIP3    H224514   0.284   2.356   4.133 -1.2034 -1.0749 -0.1669
 8184TIP3   OH224515   5.271   2.928   2.591  0.3620 -0.2190  0.3830
 8184TIP3    H124516   5.241   3.016   2.616  0.8641  0.0539  0.0513
 8184TIP3    H224517   5.224   2.869   2.649 -3.0203 -0.0699 -1.9014
 8185TIP3   OH224518   4.090   6.677   0.365 -0.0881  0.0663  0.5929
 8185TIP3    H124519   4.146   6.647   0.437  1.1767 -2.4876 -1.2972
 8185TIP3    H224520   4.053   6.596   0.329  0.7132  1.0390 -2.6625
 8186TIP3   OH224521   5.357   4.931   3.936 -0.3457  0.1162  0.1939
 8186TIP3    H124522   5.400   4.853   3.901 -0.5851  0.3550 -0.6598
 8186TIP3    H224523   5.287   4.950   3.873  1.0377  2.2798 -0.8238
 8187TIP3   OH224524   2.390   5.934   2.459 -0.4372 -0.4388  0.4763
 8187TIP3    H124525   2.384   5.861   2.397 -1.1581  0.2084 -0.2331
 8187TIP3    H224526   2.301   5.969   2.465  0.2606  1.8493 -1.0298
 8188TIP3   OH224527   5.941   5.813   2.823  0.2883  0.4198  0.2553
 8188TIP3    H124528   5.976   5.781   2.740 -0.8790  0.8630 -0.4393
 8188TIP3    H224529   5.994   5.890   2.843  0.8940  0.0277  0.1835
 8189TIP3   OH224530   3.371   5.600   4.953 -0.2308  0.3844  0.4912
 8189TIP3    H124531   3.412   5.545   5.020  0.8186 -0.0582 -0.4714
 8189TIP3    H224532   3.282   5.565   4.944  0.5053 -1.4113 -0.3159
 8190TIP3   OH224533   3.519   4.905   0.974  0.3559 -0.2923 -0.0264
 8190TIP3    H124534   3.440   4.939   1.015 -0.3951 -1.6925 -0.2174
 8190TIP3    H224535   3.552   4.977   0.921 -1.2216  0.1239 -0.5170
 8191TIP3   OH224536   4.590   3.525   4.977  0.2717 -0.5390  0.4189
 8191TIP3    H124537   4.599   3.458   4.909  0.4575 -0.0482 -0.0483
 8191TIP3    H224538   4.650   3.497   5.047  1.6253  0.0079 -0.4841
 8192TIP3   OH224539   3.509   4.394   2.337  0.5009 -0.1007  0.4904
 8192TIP3    H124540   3.435   4.431   2.290  1.8903  1.3814 -0.6732
 8192TIP3    H224541   3.496   4.299   2.333 -1.6887  0.1227  1.0307
 8193TIP3   OH224542   6.379   1.910   2.760  0.3075  0.6586 -0.1700
 8193TIP3    H124543   6.321   1.971   2.715  1.4080  1.9358  0.0758
 8193TIP3    H224544   6.378   1.939   2.851  2.3522  1.6183 -0.3903
 8194TIP3   OH224545   3.250   1.200   3.833  0.3834  0.2776 -0.3869
 8194TIP3    H124546   3.332   1.229   3.793 -0.2944  2.0181 -0.5945
 8194TIP3    H224547   3.266   1.108   3.856  1.2611 -0.4112 -3.3578
 8195TIP3   OH224548   6.639   3.433   2.531 -0.1173  0.8741  0.2822
 8195TIP3    H124549   6.696   3.361   2.506 -1.5114  0.4463 -1.9434
 8195TIP3    H224550   6.570   3.392   2.583 -0.5514  0.7120 -0.4196
 8196TIP3   OH224551   3.972   0.222   1.420  0.3686  0.0095  0.0296
 8196TIP3    H124552   3.903   0.288   1.424  2.0560  1.9029 -0.2109
 8196TIP3    H224553   3.985   0.195   1.511 -0.3942 -0.0307  0.1264
 8197TIP3   OH224554   5.626   5.231   0.082  0.4961 -0.4319 -0.8666
 8197TIP3    H124555   5.663   5.145   0.103 -0.3206 -0.9698 -1.5359
 8197TIP3    H224556   5.540   5.231   0.125  0.4749  0.0330 -0.9087
 8198TIP3   OH224557   1.399   5.494   2.305  0.1081 -0.4347  0.0611
 8198TIP3    H124558   1.384   5.471   2.397 -3.0869 -0.9893 -0.4716
 8198TIP3    H224559   1.368   5.584   2.298  0.2259 -0.4362 -0.4809
 8199TIP3   OH224560   4.608   3.760   1.747  0.9264 -0.0233 -0.3082
 8199TIP3    H124561   4.520   3.737   1.775  0.5971  0.8408 -0.5856
 8199TIP3    H224562   4.595   3.807   1.664  1.7242 -0.7508 -0.8561
 8200TIP3   OH224563   3.264   0.527   1.823  0.5198 -0.7555  1.0404
 8200TIP3    H124564   3.200   0.513   1.893 -3.2702  2.1452 -1.5232
 8200TIP3    H224565   3.291   0.618   1.833  0.0218 -0.3356 -1.1074
 8201TIP3   OH224566   2.646   5.169   0.008 -0.2290  0.5945  0.2300
 8201TIP3    H124567   2.698   5.091   0.025 -2.1669 -0.6274  0.9027
 8201TIP3    H224568   2.681   5.235   0.068  1.5686  0.3607 -0.4960
 8202TIP3   OH224569   7.006   1.601   4.254  0.4249  0.2679  0.4419
 8202TIP3    H124570   7.093   1.628   4.282  0.5901 -0.0114  0.2145
 8202TIP3    H224571   6.946   1.661   4.298  0.7909  1.1759 -0.2671
 8203TIP3   OH224572   5.730   5.490   4.737  0.1090 -0.3639 -0.4870
 8203TIP3    H124573   5.697   5.400   4.737  0.6862 -0.5982  0.4822
 8203TIP3    H224574   5.759   5.504   4.827  0.0040  0.8080 -0.6291
 8204TIP3   OH224575   3.122   4.767   4.472  0.2171 -0.5463  0.2081
 8204TIP3    H124576   3.065   4.776   4.396 -2.0322 -0.7595  1.7776
 8204TIP3    H224577   3.129   4.673   4.487  1.2189 -0.5365 -0.0904
 8205TIP3   OH224578   3.935   1.433   3.624 -0.5523 -0.2581  0.3793
 8205TIP3    H124579   3.915   1.525   3.608  0.6307 -0.1032 -0.3433
 8205TIP3    H224580   4.017   1.435   3.673 -0.0843 -0.9380 -0.3586
 8206TIP3   OH224581   6.425   5.231   5.096 -0.8934 -0.1246  1.0545
 8206TIP3    H124582   6.394   5.251   5.008  1.2506 -1.5768 -0.1226
 8206TIP3    H224583   6.382   5.296   5.152 -0.7615  2.1730 -1.3108
 8207TIP3   OH224584   7.071   0.974   4.187 -0.3266 -0.2534  0.0794
 8207TIP3    H124585   6.989   0.999   4.145  0.7208 -0.4824 -2.2559
 8207TIP3    H224586   7.069   1.018   4.272 -1.8344  1.6516 -0.8625
 8208TIP3   OH224587   6.114   0.872   0.407  0.0454 -0.2001 -0.0415
 8208TIP3    H124588   6.088   0.825   0.328  0.1884 -1.7554  0.7821
 8208TIP3    H224589   6.065   0.829   0.477  0.3653  0.7516  0.7866
 8209TIP3   OH224590   2.420   4.057   1.290  0.0236  0.0026 -0.2992
 8209TIP3    H124591   2.486   4.050   1.221  1.8062  0.4105  1.2825
 8209TIP3    H224592   2.448   3.995   1.357 -1.1663  0.2286  0.4300
 8210TIP3   OH224593   2.018   3.113   3.979  0.5443 -0.0369  0.2819
 8210TIP3    H124594   2.099   3.072   4.010  0.2551  0.2450  1.4932
 8210TIP3    H224595   2.019   3.101   3.884  1.5370 -0.8743  0.3798
 8211TIP3   OH224596   6.584   6.403   0.571 -0.3950 -0.7854 -0.9877
 8211TIP3    H124597   6.588   6.335   0.638  0.0339  0.3930  0.2190
 8211TIP3    H224598   6.604   6.357   0.490 -0.5450 -2.1738 -0.2767
 8212TIP3   OH224599   5.669   2.851   4.707 -0.2213 -0.5259 -0.1699
 8212TIP3    H124600   5.724   2.841   4.629  0.5246 -1.4946  0.4484
 8212TIP3    H224601   5.597   2.908   4.680  0.9286  0.5186 -1.0905
 8213TIP3   OH224602   2.312   0.333   4.869  0.1298 -0.3540  0.0922
 8213TIP3    H124603   2.350   0.417   4.893  0.0744 -0.1441 -0.5279
 8213TIP3    H224604   2.279   0.297   4.951  0.1792  0.2169  0.3698
 8214TIP3   OH224605   6.792   0.635   4.689 -0.3166  0.0890 -0.2135
 8214TIP3    H124606   6.713   0.636   4.744 -0.6826  0.4357 -0.7421
 8214TIP3    H224607   6.770   0.689   4.614  0.2815 -0.1565 -0.5727
 8215TIP3   OH224608   2.499   2.318   4.349  0.5849 -0.4007 -0.2144
 8215TIP3    H124609   2.502   2.343   4.441  1.4719 -0.3651 -0.2453
 8215TIP3    H224610   2.426   2.369   4.313  0.6519  0.0895  0.3261
 8216TIP3   OH224611   2.649   4.515   4.420 -0.6791  0.7859 -0.0476
 8216TIP3    H124612   2.651   4.610   4.431 -1.6470  1.0142 -1.5467
 8216TIP3    H224613   2.704   4.499   4.343 -0.6818  0.1390  0.0820
 8217TIP3   OH224614   5.879   6.477   0.994  0.3464 -0.0563 -0.4265
 8217TIP3    H124615   5.953   6.419   1.011 -1.3599 -1.5729  2.5491
 8217TIP3    H224616   5.877   6.536   1.069 -1.1093  0.3435 -0.7458
 8218TIP3   OH224617   2.406   6.062   3.855  0.0878 -0.5244 -0.3809
 8218TIP3    H124618   2.379   5.974   3.880 -1.5245  0.1576  0.4308
 8218TIP3    H224619   2.348   6.085   3.782 -1.2529  0.7444  1.0029
 8219TIP3   OH224620   2.820   1.258   2.059 -0.1729  0.1148  0.0943
 8219TIP3    H124621   2.809   1.262   2.154  0.7152  3.8179  0.1627
 8219TIP3    H224622   2.740   1.297   2.024 -0.8041 -1.8516 -0.7909
 8220TIP3   OH224623   1.248   5.098   3.670 -0.4084  0.3161  0.4527
 8220TIP3    H124624   1.243   5.175   3.613 -0.3379  0.0689  0.1102
 8220TIP3    H224625   1.159   5.085   3.701 -0.2101  1.2696  1.4970
 8221TIP3   OH224626   5.743   6.161   2.424 -0.0088 -0.1044  0.0855
 8221TIP3    H124627   5.748   6.163   2.328 -1.0167  0.2924  0.0318
 8221TIP3    H224628   5.668   6.106   2.443  0.1033 -0.0680  0.6497
 8222TIP3   OH224629   0.083   0.886   5.856  0.2540 -0.2980  0.7718
 8222TIP3    H124630   0.163   0.928   5.824 -0.3694  0.7755  0.5753
 8222TIP3    H224631   0.018   0.956   5.857 -0.6989 -1.1625  0.8847
 8223TIP3   OH224632   5.214   0.053   2.427 -0.2678  0.6325  0.2560
 8223TIP3    H124633   5.305   0.048   2.400 -0.2621  1.4791  0.0921
 8223TIP3    H224634   5.208   0.135   2.478 -1.0429  0.8606 -0.1839
 8224TIP3   OH224635   5.771   4.157   3.924  0.2806 -0.2793 -0.2869
 8224TIP3    H124636   5.706   4.114   3.868 -0.6411  0.0838  0.4809
 8224TIP3    H224637   5.730   4.162   4.010  1.2628  0.1227  0.1792
 8225TIP3   OH224638   2.725   2.252   2.884  0.2479 -0.8512  0.6220
 8225TIP3    H124639   2.749   2.344   2.871 -0.7224 -0.5371  0.9813
 8225TIP3    H224640   2.804   2.211   2.919  0.3961  0.0584  1.3631
 8226TIP3   OH224641   7.062   5.650   3.889  0.1628 -0.0208 -0.2792
 8226TIP3    H124642   7.057   5.632   3.983 -1.7548  0.3883 -0.2804
 8226TIP3    H224643   7.152   5.626   3.866  1.2305  1.4623  1.9669
 8227TIP3   OH224644   6.043   4.499   2.928 -0.2006 -0.0757  0.2534
 8227TIP3    H124645   6.053   4.590   2.956  1.2802  1.0930 -3.4480
 8227TIP3    H224646   5.950   4.480   2.941 -0.8854  2.5252 -0.1526
 8228TIP3   OH224647   4.657   3.802   1.197  0.1113  0.2376  0.0082
 8228TIP3    H124648   4.586   3.784   1.257 -0.5185 -0.3348 -0.8855
 8228TIP3    H224649   4.693   3.716   1.174  1.9717  0.5570  1.4294
 8229TIP3   OH224650   5.624   0.088   1.770  0.0524  0.2118 -0.5996
 8229TIP3    H124651   5.677   0.008   1.769  1.7316  1.1936  1.0730
 8229TIP3    H224652   5.650   0.132   1.851 -1.1084  2.2616 -1.2672
 8230TIP3   OH224653   4.961   2.992   0.009 -0.0547  0.2735  0.1025
 8230TIP3    H124654   5.054   2.988   0.032 -0.3414 -0.9389  1.1869
 8230TIP3    H224655   4.943   3.085  -0.001  1.6643  0.4739 -1.8916
 8231TIP3   OH224656   5.247   2.074   1.255 -0.2979  0.4124 -0.6314
 8231TIP3    H124657   5.224   1.982   1.241 -0.7998  0.5198 -0.5380
 8231TIP3    H224658   5.342   2.073   1.268 -0.4607 -0.2694  0.7047
 8232TIP3   OH224659   1.567   3.003   1.215 -0.3014 -0.0995  0.4405
 8232TIP3    H124660   1.500   3.042   1.270 -1.6982 -0.3741 -0.9922
 8232TIP3    H224661   1.581   3.066   1.144  1.2006  0.0911  0.8657
 8233TIP3   OH224662   3.554   0.370   5.485  0.1307 -0.2778 -0.1731
 8233TIP3    H124663   3.555   0.285   5.528  0.6685  0.3756  1.1822
 8233TIP3    H224664   3.606   0.426   5.542 -0.0228  0.9091 -1.1529
 8234TIP3   OH224665   3.344   1.148   4.146 -0.0720  0.2739 -0.2674
 8234TIP3    H124666   3.260   1.115   4.114  0.7327 -1.1752 -1.0450
 8234TIP3    H224667   3.395   1.068   4.163  2.1497  1.0519 -2.6376
 8235TIP3   OH224668   5.450   6.613   4.962 -0.7679 -0.0909 -0.2260
 8235TIP3    H124669   5.361   6.647   4.972 -0.0744  1.8891 -0.3021
 8235TIP3    H224670   5.446   6.555   4.886 -1.7675  0.8513 -0.9089
 8236TIP3   OH224671   5.660   3.196   4.287 -0.4768  0.4801  0.0559
 8236TIP3    H124672   5.647   3.218   4.195 -1.3550 -1.3834 -0.3159
 8236TIP3    H224673   5.627   3.272   4.335 -0.5021  1.2532 -1.1517
 8237TIP3   OH224674   2.656   4.632   0.198 -0.2088 -0.4927 -0.0923
 8237TIP3    H124675   2.606   4.713   0.208 -0.3168 -0.5449 -0.2248
 8237TIP3    H224676   2.649   4.610   0.106  1.0978  0.1736 -0.3767
 8238TIP3   OH224677   4.988   0.257   0.825  0.4496 -0.1263  0.3365
 8238TIP3    H124678   4.932   0.306   0.765 -0.3444 -1.4362 -0.0153
 8238TIP3    H224679   5.011   0.321   0.893 -0.6920  0.6879 -0.0101
 8239TIP3   OH224680   2.610   6.257   2.149 -0.1536  0.3469  0.0941
 8239TIP3    H124681   2.555   6.315   2.096 -0.7323 -1.0820 -0.9367
 8239TIP3    H224682   2.570   6.171   2.140  2.6117 -0.9527 -1.3247
 8240TIP3   OH224683   5.165   0.181   1.788 -0.0686  0.6038  0.4940
 8240TIP3    H124684   5.228   0.241   1.749  0.3057 -0.8209 -1.2063
 8240TIP3    H224685   5.177   0.193   1.883  2.6047  0.5730  0.2533
 8241TIP3   OH224686   1.199   0.426   3.169 -0.2349 -0.6689 -0.1497
 8241TIP3    H124687   1.150   0.438   3.088 -0.7785  1.9160  0.4825
 8241TIP3    H224688   1.250   0.506   3.179 -1.5837 -0.0551  2.9700
 8242TIP3   OH224689   2.708   2.622   4.654  0.2017  0.4663 -0.5718
 8242TIP3    H124690   2.798   2.652   4.667  0.2065  1.8457 -3.0557
 8242TIP3    H224691   2.654   2.684   4.703  0.5500 -1.2176  2.1609
 8243TIP3   OH224692   0.770   5.006   4.649 -0.8519  0.1289 -0.1006
 8243TIP3    H124693   0.753   5.093   4.685 -0.4359  0.3819 -0.5061
 8243TIP3    H224694   0.798   5.022   4.559 -2.8973 -0.5412 -0.9367
 8244TIP3   OH224695   2.947   4.027   4.073 -0.1777 -0.1063  0.0575
 8244TIP3    H124696   2.898   4.025   4.156 -1.5677 -2.3313 -0.7407
 8244TIP3    H224697   2.926   3.944   4.030  2.1616  0.0575 -1.6192
 8245TIP3   OH224698   0.261   0.434   5.583 -0.2529 -0.5707  0.3449
 8245TIP3    H124699   0.304   0.362   5.629  0.4991 -0.7855 -0.6439
 8245TIP3    H224700   0.199   0.470   5.646  0.4079 -1.1481  1.3512
 8246TIP3   OH224701   0.945   1.947   0.021 -0.1323  0.3473 -0.4480
 8246TIP3    H124702   0.892   2.024   0.000 -0.5601  0.8481  2.1817
 8246TIP3    H224703   0.883   1.881   0.052  0.3270 -0.7881 -1.8195
 8247TIP3   OH224704   3.581   4.471   4.942 -0.0696  0.2506 -0.2771
 8247TIP3    H124705   3.522   4.507   4.875 -0.1163  1.0842  0.1967
 8247TIP3    H224706   3.601   4.383   4.911 -0.9578  0.2307 -0.8340
 8248TIP3   OH224707   5.213   2.366   4.519 -0.0521 -0.0606  0.4271
 8248TIP3    H124708   5.260   2.448   4.531  0.0724 -0.2773  1.5481
 8248TIP3    H224709   5.149   2.364   4.590 -0.1245 -0.8813  0.3558
 8249TIP3   OH224710   2.031   0.199   5.402 -0.0686 -0.3742  0.4376
 8249TIP3    H124711   1.973   0.229   5.472  0.5437 -0.1198  0.8374
 8249TIP3    H224712   1.994   0.237   5.322 -0.7340 -0.6168  0.6254
 8250TIP3   OH224713   0.813   5.041   4.377  0.0907  0.3032 -0.0330
 8250TIP3    H124714   0.805   5.127   4.336 -1.9157  0.4411  0.5612
 8250TIP3    H224715   0.763   4.983   4.320 -0.9596  0.1055  1.0526
 8251TIP3   OH224716   5.029   4.797   0.360 -0.0817  0.4981  0.6279
 8251TIP3    H124717   5.049   4.880   0.404 -1.9459  1.0323  0.5436
 8251TIP3    H224718   4.974   4.750   0.422 -1.8729  0.8147 -0.6401
 8252TIP3   OH224719   5.665   5.709   2.387  0.2690 -0.4539  0.4768
 8252TIP3    H124720   5.600   5.774   2.360 -0.0872 -0.7615  0.5747
 8252TIP3    H224721   5.672   5.721   2.482 -0.2175 -0.9241  0.5812
 8253TIP3   OH224722   2.509   6.395   5.482 -0.0250  0.2095 -0.0141
 8253TIP3    H124723   2.432   6.383   5.426 -0.3697  1.3555  0.1787
 8253TIP3    H224724   2.480   6.364   5.568 -0.0168 -0.0768 -0.1134
 8254TIP3   OH224725   5.678   3.602   0.720  0.4254 -0.4795  0.8679
 8254TIP3    H124726   5.660   3.551   0.641 -1.1721 -1.8643  2.0605
 8254TIP3    H224727   5.710   3.686   0.687 -3.0088  0.1446 -1.3881
 8255TIP3   OH224728   3.271   1.077   4.626 -0.0146  0.5531 -0.2751
 8255TIP3    H124729   3.363   1.079   4.652  0.5624  1.0358 -2.1599
 8255TIP3    H224730   3.258   0.988   4.591  0.3839  1.1144 -1.9692
 8256TIP3   OH224731   4.481   1.639   1.811  0.3471 -0.2937 -0.0570
 8256TIP3    H124732   4.529   1.705   1.761  1.2722 -0.3426  0.7290
 8256TIP3    H224733   4.522   1.556   1.787 -0.3535 -0.5248 -0.5107
 8257TIP3   OH224734   5.239   2.023   4.075 -0.4309  0.4238  0.0815
 8257TIP3    H124735   5.170   2.036   4.140  0.9271 -0.8222  1.8601
 8257TIP3    H224736   5.312   2.078   4.104  0.4516 -0.6892  0.0507
 8258TIP3   OH224737   1.063   3.503   1.985 -0.4914  0.3141 -0.2308
 8258TIP3    H124738   1.151   3.503   1.948 -0.6903  0.7301 -0.7154
 8258TIP3    H224739   1.040   3.596   1.992 -1.5810  0.1966 -1.7947
 8259TIP3   OH224740   4.680   5.255   5.786 -0.0724  0.2965 -0.3129
 8259TIP3    H124741   4.711   5.346   5.786 -0.7198  0.5666  1.6973
 8259TIP3    H224742   4.586   5.262   5.769  0.3467 -0.2950 -3.3557
 8260TIP3   OH224743   2.888   1.102   4.492  0.0928 -0.5175  0.0801
 8260TIP3    H124744   2.963   1.160   4.501  1.2392 -1.9016 -0.2965
 8260TIP3    H224745   2.916   1.019   4.531 -0.5071 -1.6680 -1.8077
 8261TIP3   OH224746   6.829   3.695   5.528 -0.6024 -0.2619  0.2728
 8261TIP3    H124747   6.819   3.601   5.510 -0.9351 -0.1437 -0.1906
 8261TIP3    H224748   6.762   3.714   5.594 -0.9267 -0.2360 -0.0599
 8262TIP3   OH224749   2.057   0.657   1.489  0.2883 -0.1733 -0.2828
 8262TIP3    H124750   1.970   0.621   1.509  0.4430  0.3540  1.5011
 8262TIP3    H224751   2.065   0.648   1.394 -2.3447  1.1097 -0.7349
 8263TIP3   OH224752   4.638   4.763   4.272 -0.6468 -0.2178  0.0026
 8263TIP3    H124753   4.621   4.815   4.193 -1.1415 -0.8239 -0.2965
 8263TIP3    H224754   4.709   4.704   4.247  2.3994  2.5294  1.3415
 8264TIP3   OH224755   2.825   1.019   5.094 -0.3006  0.1092 -0.3576
 8264TIP3    H124756   2.772   0.963   5.150 -0.5788 -0.0390 -0.7609
 8264TIP3    H224757   2.861   0.960   5.028 -0.8104  0.4421 -0.9462
 8265TIP3   OH224758   3.341   4.330   4.576 -0.2725 -0.3448 -0.0740
 8265TIP3    H124759   3.369   4.330   4.484  0.9399 -0.3768  0.2859
 8265TIP3    H224760   3.310   4.240   4.591  1.8659 -1.0830  0.2201
 8266TIP3   OH224761   6.827   5.268   0.263 -0.0256  0.4449 -0.4018
 8266TIP3    H124762   6.908   5.319   0.261 -0.1569  0.9785  2.6954
 8266TIP3    H224763   6.856   5.177   0.272  0.1973  0.4808 -0.7243
 8267TIP3   OH224764   5.783   6.745   1.784  0.2278 -0.8817 -0.2978
 8267TIP3    H124765   5.756   6.772   1.872 -1.4027 -0.4818 -0.8887
 8267TIP3    H224766   5.707   6.763   1.729  1.6627  0.1481 -2.0527
 8268TIP3   OH224767   0.398   6.678   1.905  0.3442  0.2706  0.1275
 8268TIP3    H124768   0.406   6.589   1.938  0.8445 -0.1659 -1.1087
 8268TIP3    H224769   0.320   6.675   1.848  1.4331  0.1015 -1.4229
 8269TIP3   OH224770   5.748   4.305   2.436  0.7086  0.0988 -0.1387
 8269TIP3    H124771   5.709   4.335   2.354 -1.9701  1.3228  1.4419
 8269TIP3    H224772   5.724   4.372   2.500  1.8730 -1.2684  1.8381
 8270TIP3   OH224773   1.507   1.181   1.047 -0.5513  0.6339  0.2424
 8270TIP3    H124774   1.497   1.151   1.137  0.3814 -0.4016  0.0160
 8270TIP3    H224775   1.417   1.186   1.013 -0.8667  0.4868  1.0415
 8271TIP3   OH224776   0.526   1.351   5.117  0.4379 -0.1344 -0.1100
 8271TIP3    H124777   0.480   1.339   5.200 -0.1534  0.4066 -0.3563
 8271TIP3    H224778   0.578   1.431   5.130 -0.0378  0.2271 -0.4303
 8272TIP3   OH224779   2.375   6.514   3.222 -0.7249 -0.1489  0.0972
 8272TIP3    H124780   2.367   6.477   3.310  3.6731 -0.7016  0.4780
 8272TIP3    H224781   2.418   6.598   3.235  2.5893 -1.4351 -1.5165
 8273TIP3   OH224782   4.472   4.372   0.251  0.0775  0.4829 -0.0990
 8273TIP3    H124783   4.412   4.445   0.267  0.8997  1.3861 -0.9235
 8273TIP3    H224784   4.557   4.414   0.239  0.5374 -0.5974 -0.7700
 8274TIP3   OH224785   5.930   2.042   2.246 -0.3315 -0.5699 -0.0535
 8274TIP3    H124786   6.023   2.065   2.249  0.0465 -1.9514  3.4985
 8274TIP3    H224787   5.907   2.022   2.337 -4.2908  0.2481 -0.6864
 8275TIP3   OH224788   7.131   2.912   3.091 -0.3441  0.3905 -0.0697
 8275TIP3    H124789   7.206   2.887   3.036 -0.7833 -0.1338 -0.4575
 8275TIP3    H224790   7.055   2.890   3.037 -0.7815  2.0045 -0.1603
 8276TIP3   OH224791   0.797   3.130   4.430  0.6773 -0.7805  0.1956
 8276TIP3    H124792   0.809   3.068   4.502 -2.3309 -0.0754  1.4580
 8276TIP3    H224793   0.753   3.079   4.362 -4.5537  0.1621  2.3077
 8277TIP3   OH224794   3.718   4.027   4.502  0.3594 -0.5480  0.1179
 8277TIP3    H124795   3.726   4.122   4.500  0.8581 -0.4722  2.6931
 8277TIP3    H224796   3.804   3.995   4.474  0.0319 -0.3053 -1.2609
 8278TIP3   OH224797   6.000   4.950   5.580 -0.3583  0.1682 -0.1744
 8278TIP3    H124798   6.006   5.045   5.569 -0.9538  0.2703  0.3523
 8278TIP3    H224799   5.960   4.939   5.666  0.7340 -0.5718  0.2570
 8279TIP3   OH224800   0.872   2.247   1.312  0.2666 -0.2751  0.1825
 8279TIP3    H124801   0.882   2.159   1.346  0.0704 -0.5858 -0.5488
 8279TIP3    H224802   0.949   2.294   1.343  0.8256 -0.9453 -0.1796
 8280TIP3   OH224803   5.069   5.986   3.269 -0.5979 -0.2260  0.2248
 8280TIP3    H124804   5.083   5.985   3.364 -2.7566 -2.1640  0.6202
 8280TIP3    H224805   5.064   5.893   3.245 -0.5958  0.2335 -1.7199
 8281TIP3   OH224806   1.899   5.453   4.735 -0.0334  0.3935  0.0504
 8281TIP3    H124807   1.985   5.451   4.777 -0.3703  0.2416  0.7465
 8281TIP3    H224808   1.865   5.364   4.745  0.3445  0.0457 -1.5521
 8282TIP3   OH224809   5.333   1.275   4.672  0.6142 -0.1278  0.2719
 8282TIP3    H124810   5.343   1.331   4.749 -0.1461 -1.3218  1.2733
 8282TIP3    H224811   5.288   1.197   4.705 -0.4917 -0.3096 -1.5366
 8283TIP3   OH224812   4.628   1.484   0.257  0.2011 -0.2932  0.0767
 8283TIP3    H124813   4.594   1.557   0.206  0.4914 -0.2843 -0.1019
 8283TIP3    H224814   4.554   1.457   0.312  0.6369  1.3758  1.5507
 8284TIP3   OH224815   3.403   6.127   4.752 -0.5052  0.3408 -0.1484
 8284TIP3    H124816   3.413   6.142   4.658 -1.0362 -0.7922 -0.3934
 8284TIP3    H224817   3.427   6.035   4.765 -0.3528  0.5058  0.8416
 8285TIP3   OH224818   1.156   3.798   4.985 -0.2406 -0.0022 -0.6662
 8285TIP3    H124819   1.203   3.747   5.050 -2.9743  2.2963  3.5895
 8285TIP3    H224820   1.091   3.738   4.949 -1.5968 -0.4223  2.2140
 8286TIP3   OH224821   6.773   6.625   0.376 -0.2247 -0.0858  0.2393
 8286TIP3    H124822   6.692   6.588   0.343 -0.3718  1.6617 -1.5820
 8286TIP3    H224823   6.836   6.614   0.304  1.1351 -1.2238  1.5379
 8287TIP3   OH224824   1.924   2.653   4.608  0.0036  0.1471  0.0866
 8287TIP3    H124825   1.969   2.569   4.612 -0.1929  0.0775  1.0550
 8287TIP3    H224826   1.995   2.717   4.597  0.2673 -0.0381  0.6659
 8288TIP3   OH224827   2.851   0.750   4.919  0.3774 -0.5909  0.3233
 8288TIP3    H124828   2.794   0.708   4.982 -0.3192 -0.5111 -0.2420
 8288TIP3    H224829   2.925   0.690   4.909 -0.0891 -1.1686  0.3172
 8289TIP3   OH224830   0.306   3.202   2.938 -0.6612 -0.2422  0.0486
 8289TIP3    H124831   0.367   3.169   3.004 -0.6811 -1.9648 -0.7512
 8289TIP3    H224832   0.220   3.199   2.981 -0.5479 -0.3909  0.2668
 8290TIP3   OH224833   2.650   5.852   2.108 -0.3038  0.2245 -0.4055
 8290TIP3    H124834   2.582   5.904   2.066 -1.5963 -1.0969 -0.0593
 8290TIP3    H224835   2.614   5.763   2.111  2.4333 -1.1312 -2.5114
 8291TIP3   OH224836   1.078   1.948   1.650 -0.3932  0.3211  0.1075
 8291TIP3    H124837   1.010   1.977   1.711  1.7989  3.3352  1.3661
 8291TIP3    H224838   1.101   1.860   1.681 -0.9843  0.8339  2.1633
 8292TIP3   OH224839   6.820   0.073   0.655 -0.0353  0.4621  0.0360
 8292TIP3    H124840   6.854   0.140   0.595  0.8541  0.3562  0.4081
 8292TIP3    H224841   6.888   0.006   0.657 -0.8405 -0.3776 -0.1939
 8293TIP3   OH224842   0.246   5.835   0.450  0.9041  0.3300 -0.2367
 8293TIP3    H124843   0.335   5.866   0.435  0.9269  0.5397  0.3156
 8293TIP3    H224844   0.251   5.740   0.435  0.6524  0.6476 -2.7637
 8294TIP3   OH224845   0.171   2.491   2.162  0.1518  0.4526 -0.4425
 8294TIP3    H124846   0.086   2.486   2.207 -0.8359  0.3630 -2.1960
 8294TIP3    H224847   0.214   2.408   2.183 -0.7534 -0.0621 -0.5533
 8295TIP3   OH224848   3.732   6.218   1.304  0.1301  0.3726 -0.1133
 8295TIP3    H124849   3.784   6.227   1.225  0.1065  0.7102 -0.0941
 8295TIP3    H224850   3.644   6.244   1.278  0.1435  0.5781  0.0471
 8296TIP3   OH224851   7.035   1.415   2.327  0.3210 -0.3596 -0.1588
 8296TIP3    H124852   7.082   1.421   2.244  3.0682 -3.4037  0.9556
 8296TIP3    H224853   6.953   1.370   2.305 -0.7835  2.1737 -1.6592
 8297TIP3   OH224854   5.329   4.968   0.599  0.2349 -1.2682  0.1353
 8297TIP3    H124855   5.351   5.052   0.557  0.9015 -1.1838  0.6443
 8297TIP3    H224856   5.234   4.961   0.588 -0.0804  0.2773  1.3516
 8298TIP3   OH224857   1.185   0.562   5.022  0.2238 -0.2228  0.1182
 8298TIP3    H124858   1.115   0.627   5.015  0.6042  0.1427 -0.2910
 8298TIP3    H224859   1.234   0.587   5.100  0.3729 -0.0120 -0.0419
 8299TIP3   OH224860   3.738   3.670   0.268  0.2432  0.1213  0.4341
 8299TIP3    H124861   3.678   3.601   0.238  0.8056  0.1988 -0.9598
 8299TIP3    H224862   3.819   3.623   0.290 -0.1680  0.0672  1.8835
 8300TIP3   OH224863   2.424   5.113   3.508 -0.0122 -0.0092  0.1738
 8300TIP3    H124864   2.347   5.056   3.501  1.2325 -1.6361 -1.0220
 8300TIP3    H224865   2.497   5.059   3.477  1.4786  1.7946  0.3644
 8301TIP3   OH224866   6.322   0.853   1.238  0.3572  0.1618  0.1007
 8301TIP3    H124867   6.413   0.848   1.209  0.3557  0.9567 -0.0405
 8301TIP3    H224868   6.275   0.797   1.176  0.9489 -1.4898  1.0732
 8302TIP3   OH224869   0.216   2.360   2.652  0.3915  0.0318  0.5715
 8302TIP3    H124870   0.288   2.349   2.589  0.0573  0.3687  0.1196
 8302TIP3    H224871   0.200   2.455   2.653 -0.9209 -0.1528 -0.3447
 8303TIP3   OH224872   5.049   2.578   5.696  0.2220  0.1981  0.6434
 8303TIP3    H124873   4.978   2.642   5.706  1.1215  1.1258  1.3041
 8303TIP3    H224874   5.127   2.631   5.685  0.6916 -0.7981 -1.3657
 8304TIP3   OH224875   2.484   4.720   3.660  0.1717 -0.1295  0.8549
 8304TIP3    H124876   2.420   4.649   3.668  0.7784 -0.8145 -0.1058
 8304TIP3    H224877   2.432   4.800   3.664 -0.7807 -0.6754 -0.0804
 8305TIP3   OH224878   0.296   6.463   1.554 -0.2349 -0.4861 -0.0980
 8305TIP3    H124879   0.317   6.549   1.518  1.8191 -1.1369 -0.5582
 8305TIP3    H224880   0.256   6.483   1.639 -1.1792  0.9294 -0.8133
 8306TIP3   OH224881   1.090   6.061   0.209  0.1093  0.0246  0.1979
 8306TIP3    H124882   1.145   6.116   0.153 -0.6721  0.1180 -0.4978
 8306TIP3    H224883   1.060   5.991   0.151  0.4154 -0.6784  0.8654
 8307TIP3   OH224884   4.193   5.033   3.872  0.5430  0.0397  0.0716
 8307TIP3    H124885   4.224   5.062   3.786  0.7103 -2.6629 -0.8892
 8307TIP3    H224886   4.246   5.082   3.935  1.1507  1.3105 -1.3594
 8308TIP3   OH224887   1.747   0.313   1.327  0.2369  0.1881  0.3877
 8308TIP3    H124888   1.811   0.282   1.263  0.9146  2.6476 -0.2290
 8308TIP3    H224889   1.790   0.303   1.412  0.9380  0.6105  0.0872
 8309TIP3   OH224890   3.694   0.961   3.791  0.4141 -0.4150 -0.3646
 8309TIP3    H124891   3.650   0.876   3.796 -1.3679  0.4817  0.0720
 8309TIP3    H224892   3.644   1.017   3.850 -0.0332  1.5962 -2.5025
 8310TIP3   OH224893   3.945   4.765   1.829  0.2037 -1.1740  0.2905
 8310TIP3    H124894   3.989   4.714   1.897  2.5701 -1.5694 -1.3871
 8310TIP3    H224895   3.898   4.700   1.777  1.3359 -1.3952 -0.4967
 8311TIP3   OH224896   6.129   6.319   2.298 -0.4604 -0.0820  1.0579
 8311TIP3    H124897   6.119   6.247   2.237 -0.9080  0.0288  0.9947
 8311TIP3    H224898   6.089   6.288   2.379 -3.2901  1.0942  0.2243
 8312TIP3   OH224899   0.766   2.107   3.763  0.3602 -0.0375 -0.2342
 8312TIP3    H124900   0.820   2.091   3.841  0.2629 -0.1984 -0.1990
 8312TIP3    H224901   0.676   2.089   3.793 -0.1100  3.0787  0.5636
 8313TIP3   OH224902   3.343   2.782   2.832  0.6339 -0.2640 -0.0401
 8313TIP3    H124903   3.340   2.803   2.925 -1.3017 -0.6568  0.0219
 8313TIP3    H224904   3.252   2.787   2.803  1.0367 -1.3559 -1.6403
 8314TIP3   OH224905   3.507   2.518   0.897  0.2000  0.2596 -0.0345
 8314TIP3    H124906   3.422   2.512   0.853  0.0933 -1.6383  0.3495
 8314TIP3    H224907   3.562   2.568   0.836 -0.4525 -0.7667 -1.5274
 8315TIP3   OH224908   3.769   5.367   3.598  0.8948  0.0403  0.5129
 8315TIP3    H124909   3.843   5.408   3.553  0.5460 -0.2932 -0.3851
 8315TIP3    H224910   3.767   5.277   3.566 -0.0763  0.1265  0.2880
 8316TIP3   OH224911   0.893   2.243   0.869  0.3039  0.3307 -0.4357
 8316TIP3    H124912   0.941   2.160   0.865 -0.4044 -0.2815  2.1209
 8316TIP3    H224913   0.928   2.294   0.795  2.9695 -1.0684 -0.2803
 8317TIP3   OH224914   4.643   0.537   1.498  0.1613 -0.0841  0.5782
 8317TIP3    H124915   4.562   0.509   1.455  0.8241 -0.2407 -0.6103
 8317TIP3    H224916   4.707   0.469   1.475  0.2168 -0.9492  3.0222
 8318TIP3   OH224917   5.182   0.272   3.684  0.4305 -0.2192  0.3638
 8318TIP3    H124918   5.235   0.195   3.704  0.3021 -0.2969  0.4036
 8318TIP3    H224919   5.105   0.264   3.741  0.1495 -0.3495 -0.0316
 8319TIP3   OH224920   1.621   4.297   4.298 -0.0936  0.4629  0.6465
 8319TIP3    H124921   1.639   4.390   4.287 -0.5973  0.4331 -0.5986
 8319TIP3    H224922   1.689   4.253   4.245 -1.3907  0.2299 -0.9009
 8320TIP3   OH224923   0.155   4.888   2.282 -0.1047 -0.1483  0.2700
 8320TIP3    H124924   0.094   4.893   2.355  0.5991  0.3001  0.8394
 8320TIP3    H224925   0.219   4.957   2.299  0.9842 -1.0713  0.0937
 8321TIP3   OH224926   6.376   6.780   2.335 -0.4520 -0.0507  0.1199
 8321TIP3    H124927   6.386   6.703   2.279 -0.4464 -0.2724  0.4208
 8321TIP3    H224928   6.382   6.854   2.275 -1.9177 -0.3154 -0.3855
 8322TIP3   OH224929   6.939   3.258   3.570  0.1048 -0.0413 -0.3640
 8322TIP3    H124930   6.882   3.238   3.645  0.3718 -2.0006 -0.6268
 8322TIP3    H224931   6.885   3.311   3.512  0.0634  2.0160  1.4202
 8323TIP3   OH224932   4.642   4.691   4.593  0.1894  0.0901 -0.1262
 8323TIP3    H124933   4.662   4.611   4.544  0.7934 -0.4513  0.9850
 8323TIP3    H224934   4.570   4.731   4.544 -0.2556 -1.2279 -0.5960
 8324TIP3   OH224935   3.494   1.555   2.206  0.4475 -0.2976  0.1185
 8324TIP3    H124936   3.551   1.518   2.139  1.7051 -0.2304  1.0877
 8324TIP3    H224937   3.527   1.645   2.218  0.7299 -0.5426  1.3068
 8325TIP3   OH224938   5.722   5.724   1.642 -0.6024  0.0817 -0.1885
 8325TIP3    H124939   5.753   5.717   1.551  2.0656  1.3546  0.5491
 8325TIP3    H224940   5.786   5.674   1.693 -1.4523  0.3115  1.1286
 8326TIP3   OH224941   1.689   6.111   0.195 -0.5748 -0.5322  0.0760
 8326TIP3    H124942   1.762   6.110   0.256 -0.7234 -2.5758  0.3018
 8326TIP3    H224943   1.612   6.125   0.249 -0.4515  0.7408 -0.0542
 8327TIP3   OH224944   0.044   6.759   1.438 -0.3994 -0.0950  0.0933
 8327TIP3    H124945   0.018   6.794   1.523 -0.9834  0.2989 -0.2399
 8327TIP3    H224946   0.138   6.746   1.445 -0.3667  0.3999  0.6305
 8328TIP3   OH224947   0.401   0.768   2.638 -0.1348  0.3365 -0.0756
 8328TIP3    H124948   0.484   0.765   2.591 -1.4414  0.2571 -2.5962
 8328TIP3    H224949   0.377   0.861   2.638 -0.2767  0.2996  0.1950
 8329TIP3   OH224950   0.761   1.219   2.069 -0.2625 -0.3796  0.8531
 8329TIP3    H124951   0.785   1.220   2.162 -0.0389 -1.2071  0.8125
 8329TIP3    H224952   0.718   1.135   2.056 -0.5246 -0.1600  0.2596
 8330TIP3   OH224953   3.817   6.784   0.399  0.6594  0.3397  0.2058
 8330TIP3    H124954   3.805   6.787   0.305  0.8623  0.9845  0.1909
 8330TIP3    H224955   3.912   6.787   0.411  0.7600 -1.8433  0.3859
 8331TIP3   OH224956   6.718   2.303   0.982  0.1720  0.0976  0.2529
 8331TIP3    H124957   6.666   2.378   0.953  0.7443  1.2305  1.9882
 8331TIP3    H224958   6.737   2.322   1.074  1.9787 -1.2332  0.1954
 8332TIP3   OH224959   6.219   4.970   4.866  0.4622  0.5199 -0.1313
 8332TIP3    H124960   6.315   4.962   4.867  0.4785  0.7227  0.0079
 8332TIP3    H224961   6.196   4.992   4.957  0.1513 -1.0037  0.1839
 8333TIP3   OH224962   1.587   0.721   4.700 -0.2346  0.1343  0.2230
 8333TIP3    H124963   1.530   0.674   4.761 -0.4074  0.8702  0.6400
 8333TIP3    H224964   1.656   0.758   4.756 -0.3318  0.7268 -0.0397
 8334TIP3   OH224965   5.142   1.230   0.460  0.0655 -0.1129 -0.1490
 8334TIP3    H124966   5.230   1.216   0.496 -0.0501  1.3771  0.7900
 8334TIP3    H224967   5.086   1.240   0.537 -1.0281 -1.3645 -0.7321
 8335TIP3   OH224968   1.549   2.802   3.728  0.2521  0.0514 -0.1564
 8335TIP3    H124969   1.518   2.826   3.816  0.1166  0.3089 -0.2725
 8335TIP3    H224970   1.482   2.742   3.695  0.6116 -0.5207  0.1497
 8336TIP3   OH224971   2.302   4.890   4.434  0.7043 -0.4021 -0.3987
 8336TIP3    H124972   2.382   4.937   4.458  0.0794 -0.1818  1.4594
 8336TIP3    H224973   2.231   4.943   4.471  0.0216 -3.4547  3.3926
 8337TIP3   OH224974   5.950   2.591   4.882 -0.4124  0.5474 -0.3458
 8337TIP3    H124975   5.887   2.631   4.943  0.4349  2.6175 -0.7598
 8337TIP3    H224976   5.950   2.499   4.906 -2.1255  0.8318  0.9831
 8338TIP3   OH224977   2.841   4.192   2.334 -0.1435 -0.1165 -0.2504
 8338TIP3    H124978   2.921   4.150   2.364  0.2998 -0.0234 -1.2461
 8338TIP3    H224979   2.771   4.149   2.383  0.4359 -0.8899 -0.0883
 8339TIP3   OH224980   5.635   5.538   0.460 -0.7905  0.0969  0.2179
 8339TIP3    H124981   5.638   5.478   0.386  1.2990 -1.0106  1.1216
 8339TIP3    H224982   5.657   5.624   0.422 -0.1864 -0.3750 -0.5315
 8340TIP3   OH224983   2.784   4.715   2.437 -0.1141 -0.0917 -0.2945
 8340TIP3    H124984   2.818   4.665   2.511  1.0316  0.3944 -0.4769
 8340TIP3    H224985   2.701   4.672   2.415  0.4570 -1.4043  0.0590
 8341TIP3   OH224986   2.842   1.420   4.609 -0.0379  0.5475 -0.2328
 8341TIP3    H124987   2.819   1.360   4.680 -1.3448  1.2035 -0.0568
 8341TIP3    H224988   2.935   1.405   4.592  0.4006  0.6535  1.8801
 8342TIP3   OH224989   3.696   5.042   0.129 -0.4178  0.3826 -0.1074
 8342TIP3    H124990   3.718   5.074   0.041 -2.4975  1.4548 -0.3064
 8342TIP3    H224991   3.675   4.949   0.115  2.5115 -0.3706 -0.0929
 8343TIP3   OH224992   0.349   6.712   1.428 -0.2318  1.3217 -0.3576
 8343TIP3    H124993   0.413   6.742   1.493 -1.3715 -0.5737  1.7872
 8343TIP3    H224994   0.389   6.733   1.344  2.5219  1.5505  0.9001
 8344TIP3   OH224995   2.060   1.653   2.378  0.1876 -0.3605 -0.0053
 8344TIP3    H124996   2.046   1.632   2.470 -1.2445  0.7709  0.0605
 8344TIP3    H224997   2.147   1.693   2.375 -0.0841  0.3174  0.9838
 8345TIP3   OH224998   6.441   0.944   3.754  0.0122 -0.7400  0.1325
 8345TIP3    H124999   6.402   0.866   3.714  0.2725 -1.0016  0.3906
 8345TIP3    H225000   6.530   0.918   3.776  1.9078  1.0261 -4.2491
 8346TIP3   OH225001   0.554   1.030   5.578  0.3065 -0.5684  0.0598
 8346TIP3    H125002   0.528   1.104   5.523 -0.9634 -1.7197 -0.9568
 8346TIP3    H225003   0.648   1.022   5.563  0.1023 -0.4361 -1.4574
 8347TIP3   OH225004   2.459   5.540   3.335  0.0657  0.3843  0.3077
 8347TIP3    H125005   2.373   5.513   3.302  0.8874 -0.0314 -1.6187
 8347TIP3    H225006   2.477   5.480   3.407 -0.7747 -0.2771 -0.0095
 8348TIP3   OH225007   7.180   3.672   2.389  0.0199 -0.3561  0.0341
 8348TIP3    H125008   7.212   3.606   2.327 -1.2513  1.0398 -2.2490
 8348TIP3    H225009   7.085   3.657   2.393 -0.0459  0.2401  0.8654
 8349TIP3   OH225010   5.520   6.114   3.333 -0.0891 -0.3451  0.4848
 8349TIP3    H125011   5.532   6.033   3.283  0.4878 -0.7914  1.3071
 8349TIP3    H225012   5.438   6.151   3.301  1.1324  0.3487 -2.0591
 8350TIP3   OH225013   6.953   6.326   3.828  0.3430 -0.0781 -0.3970
 8350TIP3    H125014   6.906   6.303   3.908 -0.9109 -0.1508 -1.1259
 8350TIP3    H225015   6.991   6.413   3.847  1.0374 -0.5816  0.6533
 8351TIP3   OH225016   1.347   0.254   3.329 -0.1389  0.0543  0.3141
 8351TIP3    H125017   1.333   0.331   3.275 -3.6220  0.5268  1.6151
 8351TIP3    H225018   1.282   0.191   3.299  1.6080 -1.8693  0.3010
 8352TIP3   OH225019   3.895   1.376   2.246  0.2170  0.4417  0.5398
 8352TIP3    H125020   3.917   1.321   2.172  0.2607 -1.2437  1.7433
 8352TIP3    H225021   3.898   1.466   2.212  0.6284 -0.2555 -1.3549
 8353TIP3   OH225022   5.702   0.264   5.387 -0.5856 -0.7159  0.0296
 8353TIP3    H125023   5.611   0.285   5.407 -0.3489  0.2716  0.1535
 8353TIP3    H225024   5.710   0.280   5.293 -0.2636  0.3478  0.2242
 8354TIP3   OH225025   4.257   5.193   1.112  0.7649 -0.4691 -0.6093
 8354TIP3    H125026   4.341   5.218   1.073 -0.3629  2.5647 -1.3045
 8354TIP3    H225027   4.193   5.208   1.043 -0.8565  1.5359  1.1987
 8355TIP3   OH225028   0.566   0.500   4.427  0.9451  0.1348  0.4297
 8355TIP3    H125029   0.506   0.573   4.409 -1.8410 -2.1258 -0.3258
 8355TIP3    H225030   0.586   0.464   4.340 -0.4562 -1.8778  0.8501
 8356TIP3   OH225031   4.400   5.408   0.979  0.2341 -0.6723 -0.3685
 8356TIP3    H125032   4.487   5.390   0.944  0.4292 -0.9775  0.2624
 8356TIP3    H225033   4.381   5.498   0.951  2.9365  1.5162  3.6856
 8357TIP3   OH225034   5.385   1.895   4.353 -0.4812  0.5890 -0.0508
 8357TIP3    H125035   5.439   1.903   4.274  0.2984 -0.2917  0.3739
 8357TIP3    H225036   5.410   1.970   4.407 -1.1361  1.2883 -0.6938
 8358TIP3   OH225037   3.915   3.494   0.398  0.1209 -0.5820 -0.0404
 8358TIP3    H125038   3.991   3.479   0.455  0.4149 -0.5884 -0.4249
 8358TIP3    H225039   3.840   3.486   0.455  0.4231 -0.3617  0.3931
 8359TIP3   OH225040   2.240   1.730   1.582  0.0766  0.6748 -0.0717
 8359TIP3    H125041   2.275   1.809   1.622  0.1520  1.2038 -1.1569
 8359TIP3    H225042   2.306   1.663   1.598  0.2880  0.9738  0.3188
 8360TIP3   OH225043   0.717   5.522   0.054 -0.1387 -0.3167 -0.4017
 8360TIP3    H125044   0.785   5.588   0.067 -1.0789  0.6096 -0.0541
 8360TIP3    H225045   0.763   5.438   0.057  0.9291  0.2780  0.2047
 8361TIP3   OH225046   1.890   6.799   2.780  0.2624  0.2412  0.1518
 8361TIP3    H125047   1.829   6.756   2.720 -0.6921 -2.3848  2.7402
 8361TIP3    H225048   1.969   6.745   2.778  1.3588  1.7897 -0.7899
 8362TIP3   OH225049   6.432   4.684   2.484 -0.0213  0.5868  0.2368
 8362TIP3    H125050   6.393   4.653   2.566  0.3579 -0.3750  0.0728
 8362TIP3    H225051   6.430   4.779   2.490  1.8789  0.5811  2.2813
 8363TIP3   OH225052   0.823   4.038   0.628  0.2086 -0.3651 -0.1984
 8363TIP3    H125053   0.902   4.093   0.630 -0.2230  0.2554  0.0087
 8363TIP3    H225054   0.783   4.052   0.714 -0.8920  0.4662 -0.8200
 8364TIP3   OH225055   5.702   5.848   3.911  0.0516 -0.2905  0.2872
 8364TIP3    H125056   5.733   5.780   3.851 -1.3152  0.2856 -1.1512
 8364TIP3    H225057   5.640   5.802   3.969 -0.3961 -0.4130 -0.2791
 8365TIP3   OH225058   7.148   0.370   4.454 -0.3462  0.1265  0.2640
 8365TIP3    H125059   7.139   0.459   4.419  0.0698  0.2216  0.3875
 8365TIP3    H225060   7.238   0.367   4.488 -0.5359 -0.1735  0.7402
 8366TIP3   OH225061  -0.006   0.880   2.553  0.0620  0.0771  0.2608
 8366TIP3    H125062   0.077   0.906   2.594 -0.4004  0.7021  0.8119
 8366TIP3    H225063  -0.007   0.927   2.469 -0.7197  1.8064  1.2016
 8367TIP3   OH225064   0.872   2.114   4.728  0.6192  0.6939  0.4257
 8367TIP3    H125065   0.881   2.065   4.810 -0.9391  2.6640  1.8675
 8367TIP3    H225066   0.934   2.187   4.737  3.0981 -0.9214 -1.7984
 8368TIP3   OH225067   1.882   3.968   0.626 -0.6604  0.3184 -0.2128
 8368TIP3    H125068   1.950   4.023   0.664 -0.6990 -0.9661  1.8986
 8368TIP3    H225069   1.808   4.027   0.611 -0.4002  1.0426  1.1577
 8369TIP3   OH225070   3.905   5.977   3.002  0.2386  0.1779 -0.0392
 8369TIP3    H125071   3.964   5.952   3.073  2.2695  1.0951 -1.3106
 8369TIP3    H225072   3.818   5.952   3.033  0.9652  0.9016  2.9387
 8370TIP3   OH225073   6.081   0.750   4.949  0.3880  0.5119 -0.0286
 8370TIP3    H125074   6.061   0.843   4.942  0.0129  0.4115 -0.3269
 8370TIP3    H225075   6.108   0.725   4.860 -0.5742  0.0955 -0.2134
 8371TIP3   OH225076   5.940   2.599   5.198 -0.6311 -0.0473  0.0642
 8371TIP3    H125077   6.025   2.632   5.169 -1.5198  0.9692 -1.5326
 8371TIP3    H225078   5.930   2.516   5.152 -0.9560  0.3686 -0.6403
 8372TIP3   OH225079   2.675   6.316   0.143  0.0282 -0.0603  0.3918
 8372TIP3    H125080   2.677   6.398   0.192  0.3076 -0.7095  1.4865
 8372TIP3    H225081   2.750   6.267   0.174 -1.1822 -1.5177  1.1503
 8373TIP3   OH225082   3.859   3.266   3.179 -0.5911  0.2548  0.3798
 8373TIP3    H125083   3.786   3.301   3.231 -0.4103 -0.5376  1.1733
 8373TIP3    H225084   3.846   3.172   3.180 -0.0321  0.1693 -0.2043
 8374TIP3   OH225085   5.667   4.202   0.709  0.1259 -0.3486  0.1871
 8374TIP3    H125086   5.737   4.261   0.681 -0.6585  0.7959  0.5923
 8374TIP3    H225087   5.654   4.143   0.634  0.2496  0.6227 -0.6081
 8375TIP3   OH225088   1.562   6.369   1.445  0.1993  0.0901 -0.3220
 8375TIP3    H125089   1.585   6.280   1.420 -2.4536 -0.3021 -1.7800
 8375TIP3    H225090   1.561   6.369   1.540  1.2911 -1.1052 -0.2873
 8376TIP3   OH225091   6.477   0.926   5.675  0.3518  0.9079 -0.3744
 8376TIP3    H125092   6.459   0.878   5.595  1.4593 -0.7056  0.3064
 8376TIP3    H225093   6.572   0.933   5.680  0.5164 -1.3795  2.0524
 8377TIP3   OH225094   5.510   2.336   1.998  0.1817  0.2492  0.9299
 8377TIP3    H125095   5.603   2.333   2.018  0.1821  0.3614  0.9465
 8377TIP3    H225096   5.497   2.422   1.957  0.5956 -0.7664 -1.5622
 8378TIP3   OH225097   3.577   2.872   2.967 -0.0685 -0.4648 -0.1645
 8378TIP3    H125098   3.660   2.876   2.919 -0.5684 -0.9816 -1.1231
 8378TIP3    H225099   3.565   2.779   2.986  0.2581 -0.2341  1.2591
 8379TIP3   OH225100   4.630   2.611   2.413 -0.1742  0.5749 -0.1919
 8379TIP3    H125101   4.681   2.597   2.493  0.4002 -1.1439 -0.7973
 8379TIP3    H225102   4.568   2.538   2.412  0.3828  0.0739 -1.6905
 8380TIP3   OH225103   1.129   1.209   0.159 -0.8195 -0.4604  0.0676
 8380TIP3    H125104   1.192   1.271   0.124 -0.4836 -1.5834 -1.4499
 8380TIP3    H225105   1.090   1.253   0.235 -0.2890  1.3833 -0.6867
 8381TIP3   OH225106   2.010   4.314   0.824  0.0768 -0.5238 -0.4775
 8381TIP3    H125107   1.941   4.313   0.891  0.0749 -0.0985 -0.4698
 8381TIP3    H225108   2.086   4.352   0.869 -0.4620  1.5781 -1.2170
 8382TIP3   OH225109   7.172   0.294   1.677 -0.0327 -0.4549  0.4452
 8382TIP3    H125110   7.105   0.235   1.643 -1.3205  0.4466  1.3135
 8382TIP3    H225111   7.126   0.377   1.692  1.4708  0.4439  0.3072
 8383TIP3   OH225112   0.697   1.301   5.838 -0.3887  0.3693 -0.4598
 8383TIP3    H125113   0.749   1.373   5.875 -1.2883  2.1119 -2.3499
 8383TIP3    H225114   0.607   1.323   5.861 -0.6577 -0.2884 -0.8697
 8384TIP3   OH225115   5.568   5.102   2.347  0.1239  0.3215  0.5345
 8384TIP3    H125116   5.506   5.111   2.274  0.8270  2.0731  0.0979
 8384TIP3    H225117   5.513   5.080   2.422 -0.8918  0.6444 -0.0896
 8385TIP3   OH225118   1.089   4.599   0.254  0.2042  0.5023  0.1366
 8385TIP3    H125119   1.121   4.650   0.179  0.5162  1.1066  0.6644
 8385TIP3    H225120   1.164   4.544   0.279  0.0265  0.1365 -0.1327
 8386TIP3   OH225121   2.562   3.807   1.360  0.0911 -0.4214  0.3283
 8386TIP3    H125122   2.563   3.719   1.397 -0.5347 -0.0459  1.2942
 8386TIP3    H225123   2.651   3.823   1.331  0.2082 -1.3684  0.1513
 8387TIP3   OH225124   3.418   0.494   2.604  0.1637  0.0000 -0.3632
 8387TIP3    H125125   3.423   0.456   2.692 -2.5075  0.7566  0.1900
 8387TIP3    H225126   3.335   0.464   2.569  1.0709 -0.1067 -2.6142
 8388TIP3   OH225127   2.416   5.838   4.599  0.7191  0.3506 -0.4096
 8388TIP3    H125128   2.373   5.857   4.682  2.0309  1.1737  0.1270
 8388TIP3    H225129   2.347   5.804   4.542 -0.1440 -0.5096  1.1047
 8389TIP3   OH225130   2.160   4.659   3.406 -0.6047  0.2878 -0.3105
 8389TIP3    H125131   2.093   4.714   3.364  0.9669  0.7880 -2.3296
 8389TIP3    H225132   2.195   4.606   3.335  1.8050  0.7337  0.4483
 8390TIP3   OH225133   1.269   1.409   1.179  0.3725 -0.0759 -0.1737
 8390TIP3    H125134   1.349   1.432   1.226  0.3595  0.6579 -0.4902
 8390TIP3    H225135   1.297   1.399   1.088  0.4171 -1.5908 -0.0151
 8391TIP3   OH225136   6.150   2.893   2.479  0.1009 -0.2516 -0.3253
 8391TIP3    H125137   6.192   2.921   2.398 -0.8383  1.3193 -0.3134
 8391TIP3    H225138   6.058   2.885   2.457  0.1421 -2.1773  0.0230
 8392TIP3   OH225139   7.011   5.312   0.579 -0.4690 -0.0431 -0.4970
 8392TIP3    H125140   6.956   5.247   0.623  1.7839 -1.1678  0.8786
 8392TIP3    H225141   7.042   5.268   0.500  1.8192 -1.1524  0.9059
 8393TIP3   OH225142   4.493   5.670   2.179 -1.1732  0.6233 -0.2317
 8393TIP3    H125143   4.539   5.753   2.183  0.5216 -0.2738 -0.0497
 8393TIP3    H225144   4.438   5.677   2.101 -1.1423  1.9281 -0.1582
 8394TIP3   OH225145   2.126   6.479   4.261  0.0457 -0.1771  0.1971
 8394TIP3    H125146   2.131   6.385   4.248 -1.9485 -0.4496  0.9987
 8394TIP3    H225147   2.216   6.510   4.253  1.2928 -2.5889  3.1791
 8395TIP3   OH225148   5.742   2.175   5.180 -0.1841  0.4732  0.2070
 8395TIP3    H125149   5.661   2.159   5.229  0.3521 -1.2708  0.5616
 8395TIP3    H225150   5.796   2.228   5.239 -0.8465  1.2441  0.1520
 8396TIP3   OH225151   6.349   3.848   4.912 -0.0577 -0.2496  0.3675
 8396TIP3    H125152   6.406   3.780   4.877 -1.1637 -0.8397 -0.3485
 8396TIP3    H225153   6.398   3.885   4.986  1.4532 -0.3707 -0.5252
 8397TIP3   OH225154   1.359   5.875   0.464  0.2649  0.0789  0.3688
 8397TIP3    H125155   1.387   5.846   0.377 -2.2630 -0.7071 -0.2838
 8397TIP3    H225156   1.438   5.872   0.517  2.1380  1.5240 -2.0829
 8398TIP3   OH225157   3.601   1.307   4.974 -0.5209  0.2519 -0.0840
 8398TIP3    H125158   3.575   1.228   4.926 -0.1244 -0.1342  0.3252
 8398TIP3    H225159   3.676   1.341   4.925  0.7478 -0.8971  0.9884
 8399TIP3   OH225160   5.503   1.885   4.995  0.2668  0.2341  0.0974
 8399TIP3    H125161   5.548   1.832   5.061 -1.2376  1.5117  2.2920
 8399TIP3    H225162   5.567   1.951   4.969  1.7656 -1.8450 -1.7995
 8400TIP3   OH225163   3.002   4.678   1.412  0.0338  0.1852  0.1947
 8400TIP3    H125164   3.077   4.635   1.451 -0.7834 -0.5258  1.0327
 8400TIP3    H225165   2.970   4.737   1.480 -1.1450 -0.7454  0.4895
 8401TIP3   OH225166   1.893   6.196   0.653  0.5358 -0.3169  0.5528
 8401TIP3    H125167   1.856   6.240   0.730  1.0024 -1.1540  1.2685
 8401TIP3    H225168   1.942   6.265   0.608  1.1275 -0.0564  1.5709
 8402TIP3   OH225169   4.391   2.431   0.705  0.9502  0.5763 -0.4053
 8402TIP3    H125170   4.310   2.479   0.687  1.3112  1.1553 -0.5129
 8402TIP3    H225171   4.376   2.344   0.670 -1.3476 -0.8204  3.4318
 8403TIP3   OH225172   5.224   3.182   5.526  0.4738 -0.5507  0.1067
 8403TIP3    H125173   5.139   3.143   5.545  0.9340 -0.6695  2.1608
 8403TIP3    H225174   5.249   3.145   5.441 -0.1653 -2.9588  0.8870
 8404TIP3   OH225175   4.062   1.248   5.862 -0.6356  0.0038 -0.1449
 8404TIP3    H125176   4.107   1.332   5.848  1.6759 -1.4195 -1.8043
 8404TIP3    H225177   3.979   1.258   5.816 -0.6676  1.5517  0.1752
 8405TIP3   OH225178   3.704   6.407   4.466  0.3339  0.5843  0.4056
 8405TIP3    H125179   3.645   6.386   4.538  1.9059 -2.5168  0.9558
 8405TIP3    H225180   3.790   6.380   4.498  1.2498  0.1882 -2.2252
 8406TIP3   OH225181   5.537   3.543   3.920 -0.2516 -0.0682  0.2869
 8406TIP3    H125182   5.492   3.466   3.885  1.6388 -0.5938 -1.1570
 8406TIP3    H225183   5.603   3.564   3.853  0.1708  1.9803  1.2902
 8407TIP3   OH225184   2.176   4.704   2.531  0.7552 -0.3866  0.0572
 8407TIP3    H125185   2.253   4.729   2.582  1.1820 -1.2043 -0.1720
 8407TIP3    H225186   2.163   4.777   2.470  0.4765  0.4153  1.0479
 8408TIP3   OH225187   3.021   0.538   5.123  0.0953  0.3488  0.0515
 8408TIP3    H125188   2.944   0.594   5.134  1.0870  1.7003  0.3363
 8408TIP3    H225189   3.049   0.517   5.213  0.0549 -0.1552 -0.0492
 8409TIP3   OH225190   6.232   0.032   2.145 -0.1555 -0.3972 -0.0508
 8409TIP3    H125191   6.227   0.066   2.235 -0.1157 -2.4658  0.8052
 8409TIP3    H225192   6.152   0.064   2.103 -0.0464  0.8244  0.6221
 8410TIP3   OH225193   1.714   5.667   2.319 -0.0028  0.0808  0.2876
 8410TIP3    H125194   1.747   5.677   2.409 -0.2982  0.2360  0.3842
 8410TIP3    H225195   1.644   5.732   2.314 -0.8765 -0.8334  0.3733
 8411TIP3   OH225196   2.297   6.488   5.674  0.5121  0.0425  0.4561
 8411TIP3    H125197   2.325   6.497   5.583  0.2947  1.0465  0.4795
 8411TIP3    H225198   2.209   6.452   5.669 -1.1370  3.7694  0.0591
 8412TIP3   OH225199   2.457   3.407   3.525  0.5122 -0.1495 -0.1645
 8412TIP3    H125200   2.519   3.468   3.567  0.0881 -0.9509  1.7490
 8412TIP3    H225201   2.390   3.392   3.592 -1.2170 -0.1205 -1.8204
 8413TIP3   OH225202   0.423   1.178   2.091  0.1506 -0.2127  0.0201
 8413TIP3    H125203   0.339   1.149   2.055  0.0182 -0.2114  0.3219
 8413TIP3    H225204   0.446   1.111   2.155 -0.2823  0.4523  0.9007
 8414TIP3   OH225205   6.957   3.215   1.041  0.3659  0.1208  0.3667
 8414TIP3    H125206   6.932   3.127   1.072 -0.5165 -0.2885 -1.3630
 8414TIP3    H225207   6.881   3.269   1.062  0.0336 -0.0150 -0.4673
 8415TIP3   OH225208   2.192   6.220   2.055  0.0320 -0.5245  0.0997
 8415TIP3    H125209   2.218   6.140   2.010  0.2841  0.1217 -0.9223
 8415TIP3    H225210   2.215   6.290   1.995 -0.1273  0.3272  1.0122
 8416TIP3   OH225211   3.734   4.439   0.890  0.0131  0.2768  0.1754
 8416TIP3    H125212   3.643   4.470   0.895  0.7765  3.1092 -1.2266
 8416TIP3    H225213   3.777   4.484   0.963  0.2815 -1.3258  1.0454
 8417TIP3   OH225214   3.411   0.864   0.917 -0.2360  0.1459  0.8771
 8417TIP3    H125215   3.502   0.860   0.887 -0.0166 -1.5591  1.6746
 8417TIP3    H225216   3.392   0.776   0.949 -1.4317  1.0514  2.8483
 8418TIP3   OH225217   3.302   5.373   5.397 -0.1047 -0.7069 -0.4085
 8418TIP3    H125218   3.300   5.450   5.453  2.0650 -0.8356 -0.0689
 8418TIP3    H225219   3.270   5.302   5.453 -1.7042 -0.1790 -0.5957
 8419TIP3   OH225220   4.722   5.435   4.450 -0.5033  0.1444  0.4005
 8419TIP3    H125221   4.809   5.456   4.482 -0.6502  0.5191  0.5645
 8419TIP3    H225222   4.699   5.509   4.393 -0.8194  0.1874  0.5777
 8420TIP3   OH225223   0.683   3.236   0.312 -0.0036 -0.0854  0.2615
 8420TIP3    H125224   0.725   3.158   0.348 -0.6507 -0.4821  0.1709
 8420TIP3    H225225   0.599   3.242   0.357 -0.6389 -0.3313 -0.8409
 8421TIP3   OH225226   4.686   3.591   0.813  0.0620  0.0612 -0.7626
 8421TIP3    H125227   4.776   3.616   0.792 -0.4043  1.3353 -1.3103
 8421TIP3    H225228   4.690   3.561   0.904  0.9299  0.7129 -0.5758
 8422TIP3   OH225229   2.372   3.440   4.387 -0.5613 -0.6138 -0.1420
 8422TIP3    H125230   2.456   3.454   4.342 -0.1861  1.0120  0.9784
 8422TIP3    H225231   2.310   3.422   4.317  0.3394  0.1557 -1.1647
 8423TIP3   OH225232   0.297   5.317   2.071 -0.3842 -0.2609  0.5504
 8423TIP3    H125233   0.350   5.271   2.137  0.0414 -0.3048  0.1787
 8423TIP3    H225234   0.213   5.330   2.114 -1.0545 -2.7642  0.1554
 8424TIP3   OH225235   5.874   6.676   3.413  0.0168  0.8893 -0.4670
 8424TIP3    H125236   5.888   6.769   3.431  0.2646  0.8412 -0.4221
 8424TIP3    H225237   5.958   6.644   3.380 -0.3750  0.9354 -1.5465
 8425TIP3   OH225238   6.151   5.124   0.985  0.4427  0.7067  0.0971
 8425TIP3    H125239   6.161   5.196   1.047  0.2208  0.1316  0.8081
 8425TIP3    H225240   6.057   5.105   0.986  0.2051  1.6221 -1.4815
 8426TIP3   OH225241   0.409   3.128   2.161 -0.0394  0.1437 -0.0364
 8426TIP3    H125242   0.438   3.100   2.248  0.3210 -0.0073 -0.2035
 8426TIP3    H225243   0.365   3.211   2.177  0.9260  0.6327  0.1688
 8427TIP3   OH225244   3.362   1.589   3.335 -0.2899  0.3027 -0.1450
 8427TIP3    H125245   3.448   1.549   3.347  0.0733  0.3980 -2.0418
 8427TIP3    H225246   3.336   1.620   3.422  1.8488  0.7741  0.3648
 8428TIP3   OH225247   3.784   2.386   2.708  0.3775  0.1048  0.1814
 8428TIP3    H125248   3.854   2.331   2.745 -1.2921 -2.2575  0.0775
 8428TIP3    H225249   3.812   2.475   2.726  1.7451 -0.7930  3.3570
 8429TIP3   OH225250   6.388   3.632   3.682  0.2247  0.5836 -0.2789
 8429TIP3    H125251   6.348   3.629   3.595 -0.1081  1.2799 -0.1565
 8429TIP3    H225252   6.334   3.695   3.731  0.6855  0.5445  0.2895
 8430TIP3   OH225253   3.829   4.893   0.687  0.4630  0.2507 -0.3991
 8430TIP3    H125254   3.835   4.818   0.627 -0.4102 -0.2791  0.1426
 8430TIP3    H225255   3.743   4.931   0.669  0.2580  0.1776  0.4064
 8431TIP3   OH225256   2.521   5.202   0.635  0.0503 -0.9746 -0.4718
 8431TIP3    H125257   2.481   5.140   0.695 -0.3078 -0.2029  0.1040
 8431TIP3    H225258   2.448   5.255   0.603  0.4896 -0.0550 -0.0011
 8432TIP3   OH225259   0.087   1.568   5.462 -0.6272 -0.1709 -0.2257
 8432TIP3    H125260   0.063   1.511   5.389  1.6597  0.7501 -1.8023
 8432TIP3    H225261   0.067   1.656   5.432  0.3064  0.2224  0.2634
 8433TIP3   OH225262   5.168   4.088   3.650 -0.0510 -0.7394  0.1495
 8433TIP3    H125263   5.199   4.149   3.583 -2.8886 -0.0801 -0.7382
 8433TIP3    H225264   5.221   4.108   3.727  1.7112  0.1470 -1.2054
 8434TIP3   OH225265   1.205   1.278   0.693  0.1023 -0.1353  0.5088
 8434TIP3    H125266   1.293   1.248   0.671  0.2212  0.5749 -0.0348
 8434TIP3    H225267   1.212   1.374   0.694  0.0640 -0.0729  3.5814
 8435TIP3   OH225268   1.656   4.630   5.434 -0.3011  0.0835 -0.0445
 8435TIP3    H125269   1.652   4.602   5.342 -0.0282  0.2553 -0.1113
 8435TIP3    H225270   1.626   4.721   5.433  0.9356  0.5053 -0.1599
 8436TIP3   OH225271   0.966   4.050   0.265  0.6324 -0.1748  0.2889
 8436TIP3    H125272   0.972   3.960   0.296  0.0963 -0.7829 -1.3058
 8436TIP3    H225273   0.999   4.048   0.175 -4.1817  0.0865 -1.7660
 8437TIP3   OH225274   2.118   1.188   3.741  0.5040 -0.7705 -0.5752
 8437TIP3    H125275   2.150   1.097   3.736 -1.4946 -1.5776  0.1574
 8437TIP3    H225276   2.102   1.202   3.834  2.9795  1.2216 -0.3448
 8438TIP3   OH225277   4.731   0.890   0.825 -0.7523  0.0287  0.5087
 8438TIP3    H125278   4.779   0.815   0.860 -0.2472  0.5695  1.0046
 8438TIP3    H225279   4.640   0.874   0.850 -0.7288 -0.6622  0.1653
 8439TIP3   OH225280   2.017   3.868   3.249  0.0669 -0.0909  0.5588
 8439TIP3    H125281   2.019   3.803   3.318 -0.4043 -0.1226  0.5483
 8439TIP3    H225282   1.924   3.892   3.242  0.1580  0.1530  0.1697
 8440TIP3   OH225283   1.502   1.908   2.574  0.4781  0.3290 -0.7019
 8440TIP3    H125284   1.408   1.927   2.573  0.2666 -0.6613 -0.8161
 8440TIP3    H225285   1.510   1.830   2.628  1.4803  1.5068  0.9317
 8441TIP3   OH225286   6.870   5.977   0.083  0.2698 -0.1639  0.2235
 8441TIP3    H125287   6.791   5.941   0.123 -0.5376 -0.5587 -1.6063
 8441TIP3    H225288   6.908   5.902   0.036  1.7710  0.0133  1.0915
 8442TIP3   OH225289   4.519   4.864   2.835  0.2346  0.5213  1.0654
 8442TIP3    H125290   4.456   4.795   2.812  0.8990  0.5642 -1.0483
 8442TIP3    H225291   4.514   4.869   2.931 -1.5154 -0.8437  1.1030
 8443TIP3   OH225292   0.241   1.806   0.605  0.3186  0.2459 -0.4234
 8443TIP3    H125293   0.283   1.812   0.690 -0.8954  0.5750  0.1751
 8443TIP3    H225294   0.266   1.720   0.571  0.9274  0.1775  0.1903
 8444TIP3   OH225295   6.999   1.315   4.192  0.3494  0.0378  0.1158
 8444TIP3    H125296   7.005   1.411   4.187  2.6764 -0.0631  0.0372
 8444TIP3    H225297   6.999   1.295   4.285 -2.9471  0.1514  0.2653
 8445TIP3   OH225298   5.076   5.950   3.551 -0.1859 -0.1830 -0.1414
 8445TIP3    H125299   5.166   5.960   3.584 -0.7740  0.7568  1.2746
 8445TIP3    H225300   5.021   5.977   3.625 -1.6290 -0.3737 -1.1252
 8446TIP3   OH225301   4.438   6.060   3.211 -0.4021  0.2077 -0.3989
 8446TIP3    H125302   4.363   6.039   3.266 -0.5329  0.2810 -0.5487
 8446TIP3    H225303   4.457   6.152   3.229 -1.5613  0.7447 -1.7950
 8447TIP3   OH225304   3.594   5.673   5.214  0.0568 -0.2702  0.2423
 8447TIP3    H125305   3.558   5.589   5.186 -0.1455 -0.2041  0.3055
 8447TIP3    H225306   3.597   5.666   5.310 -0.2686 -0.0787  0.2670
 8448TIP3   OH225307   0.046   1.535   2.522  0.3795 -0.6421 -0.2364
 8448TIP3    H125308   0.133   1.513   2.489  1.1505 -1.7392  2.3000
 8448TIP3    H225309  -0.014   1.497   2.458  1.7163 -0.0270 -1.9432
 8449TIP3   OH225310   3.245   4.566   2.214 -0.2031 -0.3043  0.5870
 8449TIP3    H125311   3.222   4.610   2.296  0.7157  0.0444  0.6651
 8449TIP3    H225312   3.318   4.617   2.179 -1.2917  0.2321 -1.0316
 8450TIP3   OH225313   6.985   2.944   3.573  0.1455 -0.0622 -0.2552
 8450TIP3    H125314   7.002   3.018   3.514  2.3809  0.7189  1.2183
 8450TIP3    H225315   7.022   2.972   3.657 -1.9436 -1.5665  1.2548
 8451TIP3   OH225316   0.647   3.305   0.053 -0.0500 -0.5573  0.1062
 8451TIP3    H125317   0.691   3.269   0.130  0.0723 -0.2376  0.1873
 8451TIP3    H225318   0.701   3.379   0.027 -0.5281 -0.1698  0.1971
 8452TIP3   OH225319   4.914   5.710   1.106 -0.6996 -0.2888 -0.0110
 8452TIP3    H125320   4.952   5.747   1.026  1.1021 -3.2857 -0.7469
 8452TIP3    H225321   4.874   5.784   1.151  0.5835  2.0141 -2.3673
 8453TIP3   OH225322   1.354   6.117   3.167 -0.4670  0.0091 -0.5171
 8453TIP3    H125323   1.408   6.109   3.088 -0.0770 -1.0430 -0.1647
 8453TIP3    H225324   1.286   6.180   3.143 -1.0086 -1.0818 -2.0814
 8454TIP3   OH225325   4.751   3.475   0.491  0.2105 -0.3029  0.6383
 8454TIP3    H125326   4.750   3.433   0.405  0.7059 -0.7295  0.8359
 8454TIP3    H225327   4.811   3.549   0.481  0.3170 -0.3896  0.6351
 8455TIP3   OH225328   0.159   1.183   0.968 -0.2017 -0.0701  0.4441
 8455TIP3    H125329   0.103   1.251   1.004  0.0817 -0.5392  1.8125
 8455TIP3    H225330   0.216   1.229   0.906 -1.6200  0.5221 -0.4625
 8456TIP3   OH225331   3.956   5.623   4.664  0.3091 -0.5117  0.2390
 8456TIP3    H125332   3.909   5.705   4.649 -1.4987 -1.6006 -0.3947
 8456TIP3    H225333   4.044   5.650   4.690 -0.6196  1.6488  1.4174
 8457TIP3   OH225334   0.924   6.090   4.951  0.7043  0.1607  0.1358
 8457TIP3    H125335   0.843   6.135   4.928  0.7016  0.9649  1.6037
 8457TIP3    H225336   0.969   6.150   5.011  0.0215 -2.3579  3.4392
 8458TIP3   OH225337   4.328   2.033   0.927 -0.3374 -0.8642  0.5244
 8458TIP3    H125338   4.383   2.103   0.962  0.0220 -0.5491 -0.6330
 8458TIP3    H225339   4.356   2.024   0.836 -0.0347 -2.8632  0.7812
 8459TIP3   OH225340   3.200   1.698   5.460  0.3916  0.1539  0.1385
 8459TIP3    H125341   3.140   1.625   5.478  1.1865 -0.4076  0.6274
 8459TIP3    H225342   3.221   1.733   5.547 -0.3753  1.2991 -0.1319
 8460TIP3   OH225343   5.491   1.260   1.875  0.0286 -0.4783 -0.2408
 8460TIP3    H125344   5.510   1.349   1.906  1.3336 -0.6907 -0.3692
 8460TIP3    H225345   5.397   1.261   1.856  0.2468  1.2807 -1.5353
 8461TIP3   OH225346   2.321   1.313   1.792  0.4096  0.0051 -0.3642
 8461TIP3    H125347   2.325   1.266   1.709  1.9785  0.0457 -0.3331
 8461TIP3    H225348   2.257   1.264   1.844  0.9210 -1.2304 -0.8611
 8462TIP3   OH225349   3.191   2.240   4.824  0.0210  0.2454 -0.1928
 8462TIP3    H125350   3.097   2.248   4.840  0.1964  0.1960  0.9082
 8462TIP3    H225351   3.232   2.291   4.894  0.8574 -1.5160  0.6691
 8463TIP3   OH225352   3.564   0.179   0.469  0.0296  0.6968 -0.2115
 8463TIP3    H125353   3.497   0.232   0.512  0.1580  0.8937 -0.2536
 8463TIP3    H225354   3.575   0.219   0.383  1.3790  1.6899  0.3876
 8464TIP3   OH225355   4.956   5.493   4.600  0.0317 -0.5179 -0.1555
 8464TIP3    H125356   4.990   5.547   4.671 -1.6832  0.1482  0.2087
 8464TIP3    H225357   4.944   5.406   4.639 -0.4853 -0.2641  0.2619
 8465TIP3   OH225358   0.995   3.569   1.079 -0.2824 -0.6934 -0.0472
 8465TIP3    H125359   1.030   3.605   1.160  0.3417 -1.5573  0.0798
 8465TIP3    H225360   0.962   3.483   1.103  0.1255 -1.0620 -0.7530
 8466TIP3   OH225361   5.810   4.260   4.267 -0.1942 -0.4699 -0.1673
 8466TIP3    H125362   5.738   4.203   4.239  0.2911 -0.4604 -1.4701
 8466TIP3    H225363   5.789   4.345   4.230  0.6196 -0.5301 -0.7714
 8467TIP3   OH225364   3.603   0.526   2.257  0.0211 -0.4935  0.1828
 8467TIP3    H125365   3.521   0.551   2.215  0.1723 -0.4849 -0.1144
 8467TIP3    H225366   3.626   0.601   2.312 -0.4983 -0.7555  0.7692
 8468TIP3   OH225367   5.673   4.568   1.326  0.2216 -0.6381 -0.3443
 8468TIP3    H125368   5.715   4.505   1.268  0.9026 -0.4228 -0.0917
 8468TIP3    H225369   5.670   4.649   1.275  3.3576  0.3531  0.8226
 8469TIP3   OH225370   1.346   5.716   1.358  0.4837 -0.4641  0.1189
 8469TIP3    H125371   1.426   5.664   1.348  0.4197 -0.5821  0.2146
 8469TIP3    H225372   1.377   5.806   1.368  0.5418 -0.3015 -1.3214
 8470TIP3   OH225373   6.090   0.288   0.989  0.4660 -0.4927 -0.7143
 8470TIP3    H125374   6.166   0.345   0.999  0.4569 -0.4064 -1.0891
 8470TIP3    H225375   6.029   0.317   1.056  0.3533  0.1234 -1.0738
 8471TIP3   OH225376   5.818   2.247   2.824 -0.6247 -0.0456 -0.2170
 8471TIP3    H125377   5.874   2.282   2.894 -0.2477  0.0173 -0.5452
 8471TIP3    H225378   5.858   2.279   2.743 -0.9449 -0.2801 -0.4698
 8472TIP3   OH225379   4.527   0.935   5.814  0.6676 -0.0599  0.3821
 8472TIP3    H125380   4.444   0.899   5.844  0.3299 -1.4113 -1.9462
 8472TIP3    H225381   4.588   0.861   5.817  0.9364  0.0881 -0.9233
 8473TIP3   OH225382   6.547   2.277   5.037  0.3089 -0.2355 -0.0499
 8473TIP3    H125383   6.576   2.331   4.964 -1.3880  0.2440 -0.4062
 8473TIP3    H225384   6.498   2.336   5.093 -0.5240 -1.1331  0.1968
 8474TIP3   OH225385   2.544   1.931   3.996  0.1716 -0.7943 -0.3367
 8474TIP3    H125386   2.563   1.838   4.001  2.6674 -0.3073  0.6553
 8474TIP3    H225387   2.544   1.960   4.088  1.3905  0.5069 -0.7148
 8475TIP3   OH225388   0.979   3.672   4.804 -0.2094  0.3691  0.5520
 8475TIP3    H125389   0.965   3.755   4.757  1.6494  0.8614  0.8168
 8475TIP3    H225390   0.898   3.624   4.789 -1.4677  2.3235  0.5974
 8476TIP3   OH225391   4.569   3.137   5.604 -0.0469  0.0370  0.0569
 8476TIP3    H125392   4.550   3.048   5.574 -0.8479  0.2204  0.0188
 8476TIP3    H225393   4.582   3.129   5.698  1.4167 -0.3635 -0.1435
 8477TIP3   OH225394   1.582   6.654   0.829  0.0917 -0.1766 -0.1935
 8477TIP3    H125395   1.504   6.704   0.804  0.5769  1.6883  1.7600
 8477TIP3    H225396   1.560   6.615   0.913  0.9573 -0.2971 -0.0111
 8478TIP3   OH225397   3.686   3.944   4.846 -0.1075 -0.3542  0.4254
 8478TIP3    H125398   3.685   3.890   4.767 -0.9552 -1.6640  1.3040
 8478TIP3    H225399   3.779   3.960   4.863  0.0888 -0.1682 -0.7418
 8479TIP3   OH225400   4.916   6.762   1.088  0.4917  0.4280  0.0374
 8479TIP3    H125401   4.964   6.806   1.017 -0.4159 -1.6061 -1.9810
 8479TIP3    H225402   4.922   6.669   1.066 -3.2541 -0.0291  0.3129
 8480TIP3   OH225403   5.188   5.994   1.401 -0.3325 -0.4122 -0.4334
 8480TIP3    H125404   5.149   5.932   1.340  0.2163 -1.4293  0.2117
 8480TIP3    H225405   5.183   5.950   1.486 -1.4538  1.1414  0.3518
 8481TIP3   OH225406   5.724   0.319   1.570 -0.5780  0.0362  0.4771
 8481TIP3    H125407   5.650   0.293   1.516  0.6491 -0.9605 -0.8281
 8481TIP3    H225408   5.734   0.248   1.634 -0.9924  0.3752  0.9221
 8482TIP3   OH225409   5.102   5.102   0.392 -0.2333 -0.3840  0.2099
 8482TIP3    H125410   5.014   5.081   0.421 -0.9360 -0.3491 -1.7210
 8482TIP3    H225411   5.116   5.193   0.418 -0.6808 -0.4540  0.7003
 8483TIP3   OH225412   6.156   1.812   2.126  0.0049  0.1137 -0.1652
 8483TIP3    H125413   6.130   1.898   2.157 -0.3655  0.5539 -1.6053
 8483TIP3    H225414   6.153   1.756   2.204  0.3319  1.4000  0.8066
 8484TIP3   OH225415   1.401   1.787   5.168 -0.0695 -0.3712 -0.5735
 8484TIP3    H125416   1.327   1.768   5.227  0.0373 -2.4691 -1.0243
 8484TIP3    H225417   1.449   1.856   5.213 -0.9131 -0.7407  1.0133
 8485TIP3   OH225418   3.378   5.801   4.644  0.1516  0.3741  0.0248
 8485TIP3    H125419   3.399   5.821   4.735 -1.5243 -1.3409  0.8577
 8485TIP3    H225420   3.285   5.777   4.645 -0.1348  1.1103 -2.2943
 8486TIP3   OH225421   1.931   1.051   5.389 -0.2157  0.4526  0.0309
 8486TIP3    H125422   1.857   0.997   5.415 -1.4886  0.0885 -3.7588
 8486TIP3    H225423   1.897   1.141   5.392  0.2404  0.6029  1.2755
 8487TIP3   OH225424   2.026   3.558   1.407 -0.1103 -0.6854 -0.2401
 8487TIP3    H125425   2.074   3.580   1.487  0.7267 -0.4367 -0.7989
 8487TIP3    H225426   2.047   3.629   1.347 -1.3098 -0.4938 -0.4566
 8488TIP3   OH225427   1.641   1.083   5.024 -0.2431 -0.1744 -0.1330
 8488TIP3    H125428   1.650   1.079   5.119 -1.1883 -0.0469 -0.0220
 8488TIP3    H225429   1.730   1.076   4.991 -0.0381 -2.0394  0.6842
 8489TIP3   OH225430   5.732   6.761   4.127  0.5326  0.3006  0.4701
 8489TIP3    H125431   5.827   6.757   4.133  0.5793 -1.2904 -0.6156
 8489TIP3    H225432   5.713   6.748   4.034 -0.7568 -0.5903  0.8239
 8490TIP3   OH225433   6.820   1.285   2.259 -0.1888  0.4436 -0.6165
 8490TIP3    H125434   6.836   1.193   2.278 -1.0951  0.0897 -1.5108
 8490TIP3    H225435   6.748   1.309   2.317 -0.0601  0.5444 -0.4985
 8491TIP3   OH225436   2.625   0.025   2.119 -0.1554 -0.8813  0.0711
 8491TIP3    H125437   2.609   0.097   2.057 -1.3788 -1.7995 -0.7310
 8491TIP3    H225438   2.575   0.049   2.197 -0.0238 -0.5530  0.0564
 8492TIP3   OH225439   3.979   6.709   2.595  0.2359  0.3072  0.3516
 8492TIP3    H125440   3.891   6.744   2.585  0.2546  0.4510  0.6745
 8492TIP3    H225441   4.027   6.779   2.639  0.7775  0.6389 -0.7188
 8493TIP3   OH225442   2.245   1.363   0.855  0.3771 -0.2040  0.0377
 8493TIP3    H125443   2.168   1.392   0.904 -0.2213  1.0059 -1.5321
 8493TIP3    H225444   2.318   1.375   0.915 -0.5609 -0.8820  1.3858
 8494TIP3   OH225445   3.210   0.986   1.815  0.0584  0.0959  0.5728
 8494TIP3    H125446   3.299   1.020   1.807  0.3448 -0.4039  1.4410
 8494TIP3    H225447   3.182   1.015   1.902 -0.7532  0.5289  0.1705
 8495TIP3   OH225448   6.040   6.586   5.569  0.4367 -0.1059 -0.3068
 8495TIP3    H125449   6.123   6.603   5.613  0.0607 -0.8000  0.7025
 8495TIP3    H225450   5.976   6.639   5.616  0.4302  1.1450 -1.6607
 8496TIP3   OH225451   0.444   4.352   3.025 -0.2736  0.2029  0.6456
 8496TIP3    H125452   0.385   4.301   3.081 -0.9443 -0.3379 -0.5090
 8496TIP3    H225453   0.515   4.291   3.002 -1.5807 -0.6308 -1.5408
 8497TIP3   OH225454   6.215   1.159   2.108 -0.2093 -1.0119  0.0037
 8497TIP3    H125455   6.216   1.108   2.027 -0.7382  1.4027 -1.6141
 8497TIP3    H225456   6.271   1.110   2.168  0.3820 -2.7617 -1.8780
 8498TIP3   OH225457   6.615   6.414   1.402  0.1384  0.7438 -0.4083
 8498TIP3    H125458   6.617   6.391   1.309  0.5606  1.0646 -0.4821
 8498TIP3    H225459   6.629   6.508   1.403  1.7168  0.5321  0.0568
 8499TIP3   OH225460   6.954   2.310   5.384  0.2513 -0.5566  0.1206
 8499TIP3    H125461   7.031   2.346   5.339  0.0713 -1.4909 -0.9791
 8499TIP3    H225462   6.879   2.344   5.336  0.0210 -0.8614  0.2604
 8500TIP3   OH225463   1.688   6.349   3.159  0.3983  0.2649  0.0904
 8500TIP3    H125464   1.748   6.422   3.170 -0.9529  1.1487  2.3437
 8500TIP3    H225465   1.628   6.377   3.090  0.1858  1.1060  0.5996
 8501TIP3   OH225466   1.764   5.526   2.795  0.2946  0.3424 -0.1429
 8501TIP3    H125467   1.689   5.470   2.778  1.4669 -1.1118 -0.6965
 8501TIP3    H225468   1.817   5.478   2.858  0.4400  1.6721  0.8027
 8502TIP3   OH225469   6.124   2.743   4.730  0.2469 -0.1157 -0.0594
 8502TIP3    H125470   6.060   2.704   4.789 -1.1784  0.1867 -1.3413
 8502TIP3    H225471   6.180   2.796   4.787  0.6082 -1.9156  1.3431
 8503TIP3   OH225472   2.287   6.340   1.829  0.1508 -0.0191 -0.2968
 8503TIP3    H125473   2.346   6.389   1.886 -0.8245  1.0210 -0.1483
 8503TIP3    H225474   2.321   6.355   1.740 -1.4314  2.9508 -0.5251
 8504TIP3   OH225475   4.667   4.775   1.203 -0.2700  0.5231  0.1871
 8504TIP3    H125476   4.632   4.788   1.291  0.0742 -1.4815  0.6916
 8504TIP3    H225477   4.709   4.688   1.207  0.0306  0.5193 -1.8655
 8505TIP3   OH225478   0.645   3.702   5.598  0.1743 -0.0526 -0.2043
 8505TIP3    H125479   0.700   3.661   5.532 -0.0350  0.8458 -0.9712
 8505TIP3    H225480   0.559   3.660   5.587  0.5573 -1.0840  0.6392
 8506TIP3   OH225481   0.711   2.669   1.029 -0.1602  0.9669 -0.2537
 8506TIP3    H125482   0.708   2.692   1.122  2.0195  0.7199 -0.0690
 8506TIP3    H225483   0.733   2.575   1.028 -1.2081  0.7080 -1.0317
 8507TIP3   OH225484   6.657   1.966   4.062 -0.4029 -0.3338 -0.2870
 8507TIP3    H125485   6.574   1.951   4.017 -0.7125  0.7069 -0.0872
 8507TIP3    H225486   6.670   2.060   4.057 -0.3648 -0.1909  1.6360
 8508TIP3   OH225487   0.931   5.901   3.781  0.2841 -0.4228 -0.0107
 8508TIP3    H125488   0.875   5.830   3.813 -0.4921  0.1637 -0.0311
 8508TIP3    H225489   0.924   5.895   3.685 -0.8431  0.4672 -0.0145
 8509TIP3   OH225490   4.843   3.229   2.601  0.1027 -0.4561  0.4219
 8509TIP3    H125491   4.906   3.216   2.530  0.1213  1.0479  0.1352
 8509TIP3    H225492   4.826   3.323   2.602 -1.0633 -0.6428  1.4290
 8510TIP3   OH225493   4.164   5.151   5.237  0.3037  0.0647 -0.0120
 8510TIP3    H125494   4.131   5.062   5.221  2.4803 -0.8985  0.4428
 8510TIP3    H225495   4.258   5.144   5.223  0.8117  1.8145  2.0720
 8511TIP3   OH225496   4.324   3.600   1.193 -0.2274  0.2183 -0.1330
 8511TIP3    H125497   4.372   3.681   1.176  0.2775 -0.1771 -0.6324
 8511TIP3    H225498   4.348   3.577   1.283 -1.5071  1.3716  0.5388
 8512TIP3   OH225499   3.626   6.376   2.886 -0.1475  0.5194  0.2155
 8512TIP3    H125500   3.702   6.320   2.868  1.0720  2.1850 -0.0282
 8512TIP3    H225501   3.588   6.393   2.800 -0.9600 -0.4894  0.3575
 8513TIP3   OH225502   2.854   4.210   1.383 -0.4798 -0.5048  0.2138
 8513TIP3    H125503   2.820   4.250   1.303 -0.0130  0.5382  0.5226
 8513TIP3    H225504   2.872   4.284   1.441  0.6520 -1.1370  0.7026
 8514TIP3   OH225505   3.830   3.167   2.112  0.3106  0.1854 -0.0650
 8514TIP3    H125506   3.837   3.259   2.089 -0.0316  0.3829  0.5740
 8514TIP3    H225507   3.898   3.154   2.179 -0.5991  0.3496  0.9225
 8515TIP3   OH225508   1.974   3.256   0.685  0.7853 -0.0418  0.2957
 8515TIP3    H125509   1.903   3.243   0.621 -0.8916  1.7104  1.6737
 8515TIP3    H225510   2.048   3.286   0.632 -1.0725  3.1657 -0.8078
 8516TIP3   OH225511   6.406   4.232   1.748  0.4917 -0.1248  0.3086
 8516TIP3    H125512   6.372   4.215   1.836  0.2943  1.4502  0.5604
 8516TIP3    H225513   6.500   4.218   1.756  0.3364 -1.1972  0.4457
 8517TIP3   OH225514   3.821   5.433   5.728 -0.2813  0.4032  0.2446
 8517TIP3    H125515   3.762   5.507   5.715 -1.5516 -0.7419 -0.7199
 8517TIP3    H225516   3.816   5.415   5.822  0.3985  1.7911  0.5751
 8518TIP3   OH225517   3.151   1.422   1.879  0.3266  0.3122 -0.3868
 8518TIP3    H125518   3.191   1.340   1.906 -1.1140 -0.9804 -1.9287
 8518TIP3    H225519   3.211   1.457   1.813  1.2048  0.8075  0.6415
 8519TIP3   OH225520   5.416   0.132   2.031  0.2170 -0.1424  0.2061
 8519TIP3    H125521   5.416   0.109   2.124  0.3710  1.8821  0.7539
 8519TIP3    H225522   5.336   0.183   2.019 -1.8688 -3.5089 -1.7049
 8520TIP3   OH225523   0.638   2.168   0.857 -0.1894  0.4121 -0.6738
 8520TIP3    H125524   0.635   2.126   0.943  0.3321 -2.3502 -1.8980
 8520TIP3    H225525   0.727   2.202   0.850  0.0004 -0.0273 -0.4221
 8521TIP3   OH225526   1.711   5.764   5.116 -0.0539 -0.3406  0.4617
 8521TIP3    H125527   1.696   5.720   5.033 -1.3534  0.3344  0.3148
 8521TIP3    H225528   1.804   5.748   5.136  0.1197 -0.9948 -0.8114
 8522TIP3   OH225529   2.950   5.359   5.177 -0.1188  0.4164  0.1679
 8522TIP3    H125530   2.994   5.287   5.223 -1.2651 -0.5187 -0.1482
 8522TIP3    H225531   2.962   5.435   5.235  2.3700  0.3694 -0.1798
 8523TIP3   OH225532   5.861   5.059   0.835  0.7135  0.2220 -0.8300
 8523TIP3    H125533   5.795   5.094   0.894  0.7724  1.4532 -1.4788
 8523TIP3    H225534   5.811   5.017   0.765  0.6362 -1.7618  0.3256
 8524TIP3   OH225535   2.859   2.659   3.379  0.1297  0.1941  0.0715
 8524TIP3    H125536   2.845   2.657   3.474 -0.7703  1.4493 -0.0148
 8524TIP3    H225537   2.821   2.742   3.351 -1.4359 -1.0559 -1.6824
 8525TIP3   OH225538   7.093   0.020   4.693 -0.1971  0.1398  0.2310
 8525TIP3    H125539   7.074   0.102   4.738  1.1724  0.7823 -0.3051
 8525TIP3    H225540   7.034   0.020   4.617 -1.2138 -0.0736  1.0060
 8526TIP3   OH225541   2.008   3.639   5.485  0.3710 -0.2381 -0.0894
 8526TIP3    H125542   2.032   3.634   5.578  1.3524 -0.0937 -0.3276
 8526TIP3    H225543   1.912   3.638   5.485  0.3453  0.6000  0.9850
 8527TIP3   OH225544   0.008   6.246   5.066  0.1957  0.4304  0.7024
 8527TIP3    H125545   0.060   6.292   5.000 -1.0672  1.0962  0.1234
 8527TIP3    H225546   0.042   6.276   5.150  2.1923 -0.8337  0.4144
 8528TIP3   OH225547   4.599   5.666   5.245  0.3199 -0.3161  0.2966
 8528TIP3    H125548   4.602   5.710   5.160 -0.0824 -0.5804  0.1414
 8528TIP3    H225549   4.687   5.674   5.279  0.0344  1.5015  0.7202
 8529TIP3   OH225550   1.682   2.499   4.507 -0.5442  0.4896  1.0864
 8529TIP3    H125551   1.690   2.458   4.593  1.5034  1.3212  1.3481
 8529TIP3    H225552   1.749   2.567   4.506  0.6356 -0.5406 -1.7292
 8530TIP3   OH225553   7.116   5.372   0.275 -0.3660 -0.2644  0.7918
 8530TIP3    H125554   7.130   5.342   0.185  1.1584  1.2873  0.4636
 8530TIP3    H225555   7.143   5.298   0.330  0.0465 -0.7161 -0.0105
 8531TIP3   OH225556   6.705   2.653   3.040  0.3871 -0.4401 -0.3522
 8531TIP3    H125557   6.659   2.599   3.105  0.5231  0.4178  0.4811
 8531TIP3    H225558   6.635   2.707   3.001  0.4422 -0.2968 -0.2533
 8532TIP3   OH225559   3.159   6.675   3.798  0.6233  0.5185  0.0046
 8532TIP3    H125560   3.211   6.620   3.739 -0.7018 -1.3968  0.5258
 8532TIP3    H225561   3.223   6.721   3.852  1.7867 -0.2400 -0.7036
 8533TIP3   OH225562   3.546   1.850   2.201  0.0828  0.1130 -0.1512
 8533TIP3    H125563   3.504   1.857   2.115 -0.5490  1.6768  0.2516
 8533TIP3    H225564   3.630   1.894   2.190  1.4533 -2.5012 -0.7954
 8534TIP3   OH225565   2.513   1.556   5.543  0.9612 -0.3094 -0.7908
 8534TIP3    H125566   2.420   1.565   5.520  0.9887  0.0297 -0.7775
 8534TIP3    H225567   2.518   1.473   5.591  0.3565  0.5054  0.7393
 8535TIP3   OH225568   0.692   6.576   0.834 -0.1048 -0.0796  0.4670
 8535TIP3    H125569   0.710   6.584   0.740  1.5637 -1.3075  0.6235
 8535TIP3    H225570   0.627   6.644   0.852 -2.8898 -1.8130 -2.1423
 8536TIP3   OH225571   1.063   4.042   3.395 -0.5019 -0.5463 -0.3185
 8536TIP3    H125572   1.099   4.033   3.306  0.9761  0.4429  0.1456
 8536TIP3    H225573   1.080   3.958   3.437 -2.4486 -1.5271 -1.3528
 8537TIP3   OH225574   1.334   0.475   0.223 -0.1405 -0.1378  0.1048
 8537TIP3    H125575   1.339   0.400   0.283 -1.1560 -0.7824 -0.5931
 8537TIP3    H225576   1.241   0.497   0.221  0.1816  1.3647  0.5443
 8538TIP3   OH225577   2.455   2.737   1.875 -0.3731  0.2745  0.3119
 8538TIP3    H125578   2.389   2.678   1.910  0.4992 -0.9225  0.0151
 8538TIP3    H225579   2.451   2.814   1.932 -1.5527 -0.0484  0.6903
 8539TIP3   OH225580   7.141   0.800   1.205 -0.0361 -0.0531  0.1967
 8539TIP3    H125581   7.137   0.809   1.110 -1.0158 -3.2009 -0.2015
 8539TIP3    H225582   7.167   0.708   1.219  4.2056  1.2578  3.0402
 8540TIP3   OH225583   1.175   3.395   2.256  0.0389 -0.2537  1.1202
 8540TIP3    H125584   1.120   3.377   2.332 -0.2099 -0.2271  0.9487
 8540TIP3    H225585   1.114   3.429   2.190  0.3895  0.5621  1.2096
 8541TIP3   OH225586   2.746   2.957   0.946  0.2640 -0.2725  0.1578
 8541TIP3    H125587   2.751   2.918   0.859  0.0291 -0.7452  0.3505
 8541TIP3    H225588   2.654   2.978   0.959  0.1970 -0.7707  0.5307
 8542TIP3   OH225589   5.755   3.500   2.220 -0.2416 -0.1276  0.6774
 8542TIP3    H125590   5.830   3.468   2.170  0.8083  3.6102 -0.4951
 8542TIP3    H225591   5.760   3.596   2.212 -4.2521  0.3669  1.9242
 8543TIP3   OH225592   2.836   5.266   1.362  0.3376  0.2324 -0.2906
 8543TIP3    H125593   2.840   5.361   1.364 -0.9002  0.3334 -1.2987
 8543TIP3    H225594   2.785   5.245   1.284 -0.1202 -1.2252  0.3515
 8544TIP3   OH225595   2.107   2.071   4.551 -0.6175  0.7563 -0.7373
 8544TIP3    H125596   2.172   2.135   4.522 -0.0711  0.9220  0.7586
 8544TIP3    H225597   2.075   2.105   4.635 -0.6719 -0.6701 -0.1440
 8545TIP3   OH225598   0.791   3.735   3.567 -0.5095 -0.3436 -0.3634
 8545TIP3    H125599   0.799   3.651   3.613 -2.1766  0.6538  1.9441
 8545TIP3    H225600   0.842   3.796   3.621 -0.4695  0.4101 -1.2369
 8546TIP3   OH225601   7.105   0.720   2.995  0.1758  0.1723  0.1039
 8546TIP3    H125602   7.129   0.694   2.907  1.9805  0.8735  0.3426
 8546TIP3    H225603   7.048   0.796   2.983 -0.3824 -0.3292 -0.4584
 8547TIP3   OH225604   0.882   5.527   5.665 -0.4374 -0.2035  0.3156
 8547TIP3    H125605   0.943   5.494   5.731  0.1455  0.0818 -0.0761
 8547TIP3    H225606   0.920   5.500   5.581 -1.4174 -0.9859  0.0959
 8548TIP3   OH225607   3.558   5.797   4.206  0.3888  0.3407 -0.0776
 8548TIP3    H125608   3.484   5.792   4.146  1.2420  0.4135 -1.1764
 8548TIP3    H225609   3.603   5.713   4.197  0.8162  0.5464  0.0679
 8549TIP3   OH225610   1.003   0.318   4.177  0.2455 -0.9158 -0.3011
 8549TIP3    H125611   1.057   0.343   4.253 -0.2151  0.7765 -0.4959
 8549TIP3    H225612   0.927   0.275   4.216 -0.4110  0.6998  0.3244
 8550TIP3   OH225613   2.817   4.383   4.182 -0.0247 -0.4121  0.5564
 8550TIP3    H125614   2.785   4.295   4.162  0.5333 -0.4660 -0.1245
 8550TIP3    H225615   2.795   4.435   4.105 -1.4741  0.3678  1.4539
 8551TIP3   OH225616   7.221   2.134   0.359  0.2364 -0.0552  0.7430
 8551TIP3    H125617   7.135   2.135   0.318  1.0200 -2.4260 -1.2747
 8551TIP3    H225618   7.204   2.123   0.452 -1.6321 -0.3947  0.3999
 8552TIP3   OH225619   1.560   4.648   2.140  0.8864  0.2475  0.6802
 8552TIP3    H125620   1.498   4.575   2.135  0.5950  0.5668 -0.8124
 8552TIP3    H225621   1.513   4.717   2.186  0.1163  0.4698 -0.4047
 8553TIP3   OH225622   3.612   2.699   4.653 -0.2910 -0.1669 -0.0401
 8553TIP3    H125623   3.576   2.736   4.573  0.0481 -0.2860 -0.2464
 8553TIP3    H225624   3.576   2.754   4.723 -0.7613 -0.1950 -0.2529
 8554TIP3   OH225625   2.191   5.415   3.206 -0.4090  0.0618  0.1091
 8554TIP3    H125626   2.118   5.354   3.200 -0.7720  0.3714  1.0940
 8554TIP3    H225627   2.150   5.502   3.206  0.0063  0.2615  0.0423
 8555TIP3   OH225628   1.813   6.467   2.373  0.3176 -0.1844  0.3317
 8555TIP3    H125629   1.866   6.491   2.296  0.7150 -0.4378  0.5194
 8555TIP3    H225630   1.861   6.394   2.412  0.3628  0.2415  1.0830
 8556TIP3   OH225631   0.721   3.148   5.637 -0.6876 -0.6478  0.2374
 8556TIP3    H125632   0.647   3.087   5.631 -2.1728  0.9515  1.3514
 8556TIP3    H225633   0.787   3.100   5.688 -0.9082 -2.1125 -0.7872
 8557TIP3   OH225634   4.080   1.200   1.620  0.3904 -0.1255 -0.5094
 8557TIP3    H125635   4.126   1.284   1.611 -1.5600  1.0382 -0.0751
 8557TIP3    H225636   4.028   1.209   1.700 -1.2717 -1.0280 -1.4410
 8558TIP3   OH225637   3.308   4.371   0.834  0.2262  0.3150 -0.4311
 8558TIP3    H125638   3.282   4.460   0.810  0.5981  0.9188  1.2821
 8558TIP3    H225639   3.280   4.361   0.925  2.5243 -0.3494  0.2786
 8559TIP3   OH225640   2.101   1.993   4.876  0.3646 -0.1490  0.2270
 8559TIP3    H125641   2.118   1.946   4.958  0.9192 -1.4818 -0.6242
 8559TIP3    H225642   2.047   2.068   4.903 -0.0522 -0.9342  1.7149
 8560TIP3   OH225643   3.325   3.990   4.954  0.1731 -0.4594  0.1941
 8560TIP3    H125644   3.348   4.072   4.997  1.4461 -0.5840 -0.2327
 8560TIP3    H225645   3.261   3.950   5.013 -1.3862  1.3563 -0.1674
 8561TIP3   OH225646   6.917   5.314   3.930  0.2048 -0.5104  0.0740
 8561TIP3    H125647   6.982   5.335   3.997 -0.7758  0.0139  0.8829
 8561TIP3    H225648   6.877   5.398   3.908  0.2002 -0.7443 -0.8572
 8562TIP3   OH225649   4.025   6.013   3.686 -0.0381  0.4980  0.5679
 8562TIP3    H125650   3.950   5.978   3.638  1.2664 -0.7699 -0.6272
 8562TIP3    H225651   3.986   6.058   3.761 -1.9618 -0.7276  0.3752
 8563TIP3   OH225652   3.222   0.990   0.776 -0.4099 -0.0887 -0.1110
 8563TIP3    H125653   3.155   0.963   0.839 -0.1007  1.9700  1.2003
 8563TIP3    H225654   3.304   0.960   0.815 -0.2509  0.8850  0.3491
 8564TIP3   OH225655   3.287   3.179   3.202 -0.0021 -0.3975 -0.0423
 8564TIP3    H125656   3.346   3.167   3.127 -0.1281 -0.2406 -0.1653
 8564TIP3    H225657   3.315   3.112   3.264  0.4455 -0.1893 -0.0126
 8565TIP3   OH225658   4.737   3.523   3.809  0.1236 -0.2199  0.5180
 8565TIP3    H125659   4.652   3.518   3.764  0.6499  2.5056 -0.9553
 8565TIP3    H225660   4.799   3.546   3.740  1.7274 -0.1331  1.9489
 8566TIP3   OH225661   6.199   3.070   1.416 -0.0831  0.1147 -0.1819
 8566TIP3    H125662   6.148   3.026   1.483 -0.0391  1.4055  0.7304
 8566TIP3    H225663   6.161   3.041   1.333 -1.5223  0.1314  0.4550
 8567TIP3   OH225664   3.944   5.414   1.538  0.1826  0.1473  0.1040
 8567TIP3    H125665   4.014   5.471   1.505  0.3162 -1.0434 -1.8109
 8567TIP3    H225666   3.910   5.370   1.460 -0.3893 -1.8657  1.4127
 8568TIP3   OH225667   3.947   3.891   4.924  0.6845 -0.2271 -0.6161
 8568TIP3    H125668   3.939   3.832   4.999  0.9954  0.7134  0.1845
 8568TIP3    H225669   3.997   3.965   4.957 -0.1789  0.7583 -1.4361
 8569TIP3   OH225670   5.799   6.409   4.407  0.0188  1.0597 -0.5132
 8569TIP3    H125671   5.724   6.442   4.359  0.3282  0.5298 -1.3743
 8569TIP3    H225672   5.846   6.487   4.435 -0.5709  1.3802 -0.4032
 8570TIP3   OH225673   6.916   5.492   5.143  0.2150  0.0268 -0.0726
 8570TIP3    H125674   6.968   5.481   5.063  0.8275 -0.3267  0.3650
 8570TIP3    H225675   6.846   5.427   5.135 -0.2365  0.5800 -0.7188
 8571TIP3   OH225676   5.362   0.375   1.270  0.0354  0.2373 -0.3698
 8571TIP3    H125677   5.279   0.412   1.299 -1.9470 -3.8116 -0.2055
 8571TIP3    H225678   5.376   0.411   1.182 -1.1692  2.0064  0.1387
 8572TIP3   OH225679   6.001   2.721   3.322  0.4914  0.4216 -0.4493
 8572TIP3    H125680   5.985   2.675   3.404  0.1321  2.2280  0.5525
 8572TIP3    H225681   6.076   2.778   3.341  0.7873  0.4149 -1.5617
 8573TIP3   OH225682   4.424   2.738   3.536 -0.0066  0.3768  0.2215
 8573TIP3    H125683   4.432   2.674   3.606  1.0412 -0.3048 -0.4892
 8573TIP3    H225684   4.478   2.812   3.564 -1.5882  1.1886  1.2566
 8574TIP3   OH225685   6.615   5.658   3.580  0.1246 -0.1712 -0.4404
 8574TIP3    H125686   6.689   5.672   3.639 -0.8311 -0.0850  0.7878
 8574TIP3    H225687   6.639   5.581   3.528  1.1973  0.0455 -0.2790
 8575TIP3   OH225688   6.860   3.367   1.281 -0.5329 -0.2904 -0.1193
 8575TIP3    H125689   6.826   3.427   1.348  0.2534  0.6396 -0.5209
 8575TIP3    H225690   6.828   3.402   1.199  0.7415  0.1826 -0.4435
 8576TIP3   OH225691   2.714   5.361   4.635  0.1203  0.2428  0.1454
 8576TIP3    H125692   2.799   5.333   4.602  0.7971  1.2607  0.9436
 8576TIP3    H225693   2.674   5.282   4.670  0.2795 -0.4415 -1.1868
 8577TIP3   OH225694   4.654   3.383   4.731 -0.7110  0.0743 -0.0843
 8577TIP3    H125695   4.721   3.418   4.672  1.7649 -1.2318  1.7482
 8577TIP3    H225696   4.640   3.294   4.700  1.2231 -0.9075  1.6375
 8578TIP3   OH225697   2.890   6.454   1.746  0.0115  0.4033  0.0734
 8578TIP3    H125698   2.864   6.363   1.765  0.4408  0.1165 -0.6843
 8578TIP3    H225699   2.844   6.506   1.812  0.4562 -0.4395  1.0729
 8579TIP3   OH225700   4.658   5.975   2.540 -0.3748 -0.0436 -0.1146
 8579TIP3    H125701   4.669   5.897   2.595 -1.5339 -1.5238 -1.8268
 8579TIP3    H225702   4.747   6.004   2.522  0.0552 -0.3057  1.4309
 8580TIP3   OH225703   2.854   4.779   3.609 -0.0502 -0.1711  0.4787
 8580TIP3    H125704   2.903   4.709   3.567  1.7611  0.7128  0.9733
 8580TIP3    H225705   2.916   4.817   3.672 -0.7852  2.1602 -0.0920
 8581TIP3   OH225706   5.705   4.124   2.741 -0.6157 -0.2198 -0.0133
 8581TIP3    H125707   5.733   4.073   2.817 -0.0750 -0.0885 -0.1237
 8581TIP3    H225708   5.717   4.215   2.768  1.1060 -0.1788 -0.8131
 8582TIP3   OH225709   7.010   2.155   2.993  0.1756  0.2646  0.0026
 8582TIP3    H125710   6.940   2.220   2.998  0.1024  0.2806 -1.0540
 8582TIP3    H225711   7.083   2.195   3.040 -0.2864  0.5486  0.4918
 8583TIP3   OH225712   2.657   1.587   1.975  0.0436  0.3463 -0.3690
 8583TIP3    H125713   2.716   1.603   2.048 -1.9703  0.8719  1.2610
 8583TIP3    H225714   2.628   1.675   1.949  1.3992  0.2301 -2.4396
 8584TIP3   OH225715   2.797   1.082   2.347  0.1867 -0.6516 -0.4209
 8584TIP3    H125716   2.858   1.046   2.412 -1.5594 -0.6410  1.3255
 8584TIP3    H225717   2.801   1.177   2.360 -0.2797 -0.6586 -0.1913
 8585TIP3   OH225718   2.718   1.241   3.786 -0.1101  0.4930 -0.1559
 8585TIP3    H125719   2.686   1.317   3.738  0.6686  1.2196  0.4481
 8585TIP3    H225720   2.753   1.276   3.867  0.7913 -0.4395 -0.1155
 8586TIP3   OH225721   5.389   0.011   0.645  0.2170 -0.9006 -0.3824
 8586TIP3    H125722   5.453   0.073   0.680  0.9013 -1.6574 -0.2444
 8586TIP3    H225723   5.306   0.058   0.647  0.3403 -0.6603  1.6554
 8587TIP3   OH225724   0.825   2.501   4.566 -0.0401  0.0367 -0.0284
 8587TIP3    H125725   0.776   2.524   4.644 -0.3868 -0.2881 -0.1482
 8587TIP3    H225726   0.915   2.491   4.596 -0.2778 -0.7521  0.4649
 8588TIP3   OH225727   7.138   6.374   4.128  0.1022 -0.0445 -0.1674
 8588TIP3    H125728   7.219   6.405   4.169  0.6074 -1.0161 -0.4115
 8588TIP3    H225729   7.168   6.318   4.057 -0.7929 -0.2773 -0.3601
 8589TIP3   OH225730   2.474   5.393   3.568  0.1535 -0.2294  0.0712
 8589TIP3    H125731   2.453   5.300   3.564  0.3310 -0.3838  1.7983
 8589TIP3    H225732   2.406   5.431   3.623  0.7283  0.4395  0.3450
 8590TIP3   OH225733   3.408   6.663   1.797  0.4988  0.4209 -0.0254
 8590TIP3    H125734   3.332   6.607   1.812  0.6000 -0.6086 -2.8616
 8590TIP3    H225735   3.433   6.692   1.885 -2.4692 -0.0599  1.1099
 8591TIP3   OH225736   0.372   2.662   4.695 -0.0956 -0.0798 -0.1608
 8591TIP3    H125737   0.451   2.691   4.649 -0.1584  1.2089  0.4991
 8591TIP3    H225738   0.304   2.662   4.628  0.3320 -0.6308 -0.6059
 8592TIP3   OH225739   7.038   4.732   0.184  0.6249  0.2597  0.9034
 8592TIP3    H125740   7.069   4.658   0.133  0.9773  0.5154  0.7437
 8592TIP3    H225741   6.942   4.724   0.182  0.4996  1.5286 -1.7043
 8593TIP3   OH225742   5.702   6.121   3.850 -0.2412  0.0897  0.3171
 8593TIP3    H125743   5.616   6.161   3.863 -1.3542 -0.9738 -2.8445
 8593TIP3    H225744   5.685   6.027   3.856  1.4249 -0.1510  2.8338
 8594TIP3   OH225745   3.030   0.500   2.011 -0.3182  0.3081 -0.0040
 8594TIP3    H125746   3.070   0.437   2.071 -0.2533  0.6544  0.3176
 8594TIP3    H225747   2.980   0.559   2.067 -0.1007  0.7535 -0.2697
 8595TIP3   OH225748   6.586   3.241   0.178 -0.1095 -0.5363  0.2924
 8595TIP3    H125749   6.493   3.259   0.160 -0.1116 -0.4278  0.4046
 8595TIP3    H225750   6.607   3.299   0.252  0.4180  0.4694 -0.6183
 8596TIP3   OH225751   6.985   4.776   0.476 -0.4362 -0.1614 -0.4552
 8596TIP3    H125752   6.913   4.786   0.538  0.8734 -3.7039  2.0019
 8596TIP3    H225753   6.963   4.696   0.427  0.7580 -0.0183 -1.2688
 8597TIP3   OH225754   2.698   4.845   4.925  0.6014 -0.4567  0.1088
 8597TIP3    H125755   2.613   4.838   4.881 -0.1374 -2.2163  1.6826
 8597TIP3    H225756   2.689   4.923   4.981  0.6818  0.3679 -0.9855
 8598TIP3   OH225757   3.450   2.269   3.656 -0.5322  0.2681  0.0551
 8598TIP3    H125758   3.356   2.280   3.641 -1.0476 -2.1833  0.8547
 8598TIP3    H225759   3.456   2.236   3.746  0.7151 -2.7452 -0.9937
 8599TIP3   OH225760   6.494   6.526   0.348  0.1349  0.6584  0.3955
 8599TIP3    H125761   6.518   6.531   0.441 -1.9110  0.2291  1.0181
 8599TIP3    H225762   6.515   6.436   0.323  0.8497  0.8242  0.3833
 8600TIP3   OH225763   2.117   5.637   0.940  0.1888  0.1317  0.0648
 8600TIP3    H125764   2.059   5.563   0.959  1.0338 -0.8122 -0.8882
 8600TIP3    H225765   2.177   5.603   0.873 -0.0886  2.0265 -1.2006
 8601TIP3   OH225766   3.637   4.010   0.693  0.5210  0.1074  0.3444
 8601TIP3    H125767   3.614   4.073   0.624 -0.0375 -1.8052 -1.2852
 8601TIP3    H225768   3.699   4.058   0.748  2.2820  1.2325 -2.4044
 8602TIP3   OH225769   4.955   6.058   5.424 -0.4719 -0.4901  0.3750
 8602TIP3    H125770   4.963   6.096   5.337  1.5135 -1.6161  0.0086
 8602TIP3    H225771   4.865   6.077   5.450 -0.5087  1.6448 -1.0518
 8603TIP3   OH225772   2.168   5.099   1.359  0.2882  0.3787 -0.0831
 8603TIP3    H125773   2.248   5.078   1.312 -0.0188 -0.8338 -0.1032
 8603TIP3    H225774   2.144   5.017   1.402  0.0248  1.2008  1.3833
 8604TIP3   OH225775   3.827   6.257   5.057  0.1611 -0.3947 -0.0630
 8604TIP3    H125776   3.904   6.286   5.008 -0.4198  0.5750 -0.4296
 8604TIP3    H225777   3.792   6.184   5.004 -0.1503  0.2870 -0.8150
 8605TIP3   OH225778   1.674   2.138   3.616  0.5692 -0.2943  0.2288
 8605TIP3    H125779   1.724   2.091   3.549  1.3384 -0.6857  1.0613
 8605TIP3    H225780   1.723   2.218   3.631  1.0376 -0.7454  1.1503
 8606TIP3   OH225781   3.270   0.859   4.305  0.0607 -0.2530  0.6570
 8606TIP3    H125782   3.364   0.877   4.300  0.3048 -1.6128  0.1805
 8606TIP3    H225783   3.253   0.796   4.235 -0.8607 -1.4335  1.8957
 8607TIP3   OH225784   4.319   1.299   5.356  0.0885 -0.4466 -0.0175
 8607TIP3    H125785   4.413   1.307   5.370  0.1719 -1.5513  0.1970
 8607TIP3    H225786   4.301   1.352   5.279  1.3339 -2.1878 -1.5830
 8608TIP3   OH225787   7.110   1.319   5.666 -0.1792  0.0943 -0.1397
 8608TIP3    H125788   7.159   1.271   5.600 -1.2296  2.5609 -2.9214
 8608TIP3    H225789   7.023   1.280   5.665 -0.2356  0.2277 -0.2789
 8609TIP3   OH225790   6.613   3.884   0.978 -0.0757  0.3938 -0.5198
 8609TIP3    H125791   6.539   3.945   0.980  0.6683  1.3162  0.7210
 8609TIP3    H225792   6.596   3.827   0.904 -1.1713  1.6714 -1.2894
 8610TIP3   OH225793   1.232   3.910   2.636  0.1518  0.0694  0.4430
 8610TIP3    H125794   1.174   3.850   2.684 -0.1707  0.8966  1.1076
 8610TIP3    H225795   1.179   3.941   2.562  0.8202 -1.6123 -0.8125
 8611TIP3   OH225796   2.132   4.091   0.704  0.2362  0.0717  0.5036
 8611TIP3    H125797   2.085   4.151   0.762  0.9210  1.7746 -0.6202
 8611TIP3    H225798   2.154   4.016   0.760  1.8691  2.1073  2.7822
 8612TIP3   OH225799   4.641   5.242   2.007  0.1495 -0.0591  0.9521
 8612TIP3    H125800   4.604   5.295   2.077 -0.9545  0.4641  0.0105
 8612TIP3    H225801   4.586   5.164   2.003 -1.0489  0.8185 -0.5906
 8613TIP3   OH225802   4.384   4.937   1.627  0.4050 -0.2338 -0.2161
 8613TIP3    H125803   4.349   5.026   1.617  1.5238  0.0748 -1.8319
 8613TIP3    H225804   4.422   4.936   1.715  0.6320  0.9894 -0.2815
 8614TIP3   OH225805   3.065   5.031   3.674 -0.1148  0.7243  0.0132
 8614TIP3    H125806   3.160   5.031   3.688  0.1088 -0.6769 -1.2172
 8614TIP3    H225807   3.035   4.950   3.714 -0.8724  1.3227  0.6927
 8615TIP3   OH225808   3.442   0.526   5.251  0.0374 -0.5124  0.3517
 8615TIP3    H125809   3.467   0.459   5.315 -0.5297  0.8415  2.0928
 8615TIP3    H225810   3.503   0.598   5.267  0.3000 -0.3844 -1.1146
 8616TIP3   OH225811   0.909   4.846   3.599 -0.1205  0.2341 -0.4826
 8616TIP3    H125812   0.979   4.801   3.645 -0.7431 -0.6648 -0.3925
 8616TIP3    H225813   0.900   4.799   3.516  0.8459  1.7088 -1.4747
 8617TIP3   OH225814   6.687   6.232   5.439 -0.8550  0.0111 -0.1038
 8617TIP3    H125815   6.746   6.182   5.495 -1.2856  1.5198  1.7743
 8617TIP3    H225816   6.651   6.167   5.379  3.3049 -0.9099 -2.0050
 8618TIP3   OH225817   0.376   6.018   2.244  0.0215 -0.3239  0.1779
 8618TIP3    H125818   0.375   6.010   2.149 -1.2405  0.6724  0.0906
 8618TIP3    H225819   0.462   6.055   2.264  1.2127 -2.6022 -0.3457
 8619TIP3   OH225820   5.983   0.901   5.380 -0.0355 -0.4483 -0.2301
 8619TIP3    H125821   5.933   0.829   5.418  1.5002 -0.2864  2.3121
 8619TIP3    H225822   5.954   0.979   5.428  1.5336 -0.1323  0.2761
 8620TIP3   OH225823   5.998   2.070   0.252 -0.6612  0.2632 -0.1439
 8620TIP3    H125824   5.939   2.146   0.257  1.3797  2.0501 -1.3502
 8620TIP3    H225825   6.048   2.084   0.172  2.2086 -0.4869  1.3579
 8621TIP3   OH225826   2.738   6.008   2.311 -0.3010  0.4393  0.2004
 8621TIP3    H125827   2.707   5.987   2.223 -0.3695  0.1382  0.2944
 8621TIP3    H225828   2.661   5.995   2.367  0.0101 -0.3774  0.4470
 8622TIP3   OH225829   0.679   6.261   5.459  0.4235 -0.0935  0.2144
 8622TIP3    H125830   0.760   6.269   5.409 -0.3427 -0.5553 -1.1410
 8622TIP3    H225831   0.661   6.168   5.461 -0.0126 -0.0019  0.6148
 8623TIP3   OH225832   2.689   2.702   5.826  0.2774  0.0538  0.2986
 8623TIP3    H125833   2.618   2.638   5.832  0.3932 -0.0371  0.7143
 8623TIP3    H225834   2.768   2.653   5.849  0.8431 -0.4312 -2.3895
 8624TIP3   OH225835   3.204   0.292   4.342  0.1312 -0.2451 -0.4358
 8624TIP3    H125836   3.274   0.230   4.363 -1.2096 -1.1673  1.6198
 8624TIP3    H225837   3.202   0.294   4.246  1.6917 -1.6458 -0.5442
 8625TIP3   OH225838   4.952   4.527   5.145 -0.2219 -0.4129  0.1830
 8625TIP3    H125839   4.966   4.563   5.232 -0.3949 -0.9256  0.4279
 8625TIP3    H225840   4.953   4.432   5.158 -1.0505 -0.4882 -0.2423
 8626TIP3   OH225841   1.661   2.135   5.064 -0.2437  0.0968  0.1253
 8626TIP3    H125842   1.675   2.094   4.978 -0.7402 -0.6105  0.3708
 8626TIP3    H225843   1.574   2.172   5.059 -1.0894 -1.6408  0.9531
 8627TIP3   OH225844   6.110   5.082   0.352  0.3208 -0.4796 -0.6275
 8627TIP3    H125845   6.125   5.175   0.371 -0.4787 -0.7042  1.3604
 8627TIP3    H225846   6.055   5.082   0.273  0.6450  0.7159 -0.8694
 8628TIP3   OH225847   2.873   6.747   4.033 -0.2314  0.1184 -0.0431
 8628TIP3    H125848   2.949   6.801   4.014  1.0213 -1.5885 -0.1143
 8628TIP3    H225849   2.907   6.658   4.041 -1.7360 -0.3301  3.1284
 8629TIP3   OH225850   4.046   0.430   0.901  0.0610 -0.1801 -0.4406
 8629TIP3    H125851   4.110   0.483   0.948  0.1805 -0.6941 -0.0185
 8629TIP3    H225852   3.989   0.395   0.969 -1.0885  0.7942 -0.8598
 8630TIP3   OH225853   0.422   4.076   2.032 -0.6634 -0.3656  0.4819
 8630TIP3    H125854   0.483   4.145   2.058 -1.2556  0.0883  0.6787
 8630TIP3    H225855   0.427   4.012   2.102  1.7043 -1.7444 -0.8270
 8631TIP3   OH225856   1.519   1.393   3.962 -0.4106  0.4632  0.1355
 8631TIP3    H125857   1.437   1.439   3.943 -1.3865 -0.9735  0.6930
 8631TIP3    H225858   1.495   1.300   3.963  0.9038  0.0845  1.8520
 8632TIP3   OH225859   0.821   5.835   2.716  0.4256 -0.1982  0.1758
 8632TIP3    H125860   0.836   5.929   2.730  0.3245 -0.0888 -0.4461
 8632TIP3    H225861   0.872   5.814   2.639 -0.7996 -0.3073 -0.6274
 8633TIP3   OH225862   2.175   6.242   1.113  0.0029  0.0588  0.2603
 8633TIP3    H125863   2.108   6.302   1.145  1.0316  1.2948  0.2133
 8633TIP3    H225864   2.248   6.299   1.088  1.7952 -1.2950  2.0412
 8634TIP3   OH225865   2.249   3.128   0.810  0.1147 -0.2193 -0.3809
 8634TIP3    H125866   2.311   3.079   0.864 -1.4390 -0.5757  1.1160
 8634TIP3    H225867   2.187   3.062   0.778 -0.7102  0.4305 -0.1515
 8635TIP3   OH225868   0.266   5.235   4.795  0.1773 -0.7255 -0.5241
 8635TIP3    H125869   0.212   5.231   4.716 -2.8739  2.2432  1.1589
 8635TIP3    H225870   0.211   5.197   4.864  1.2873  0.0295  0.8175
 8636TIP3   OH225871   6.209   0.783   1.497  0.2440  0.3985  0.1618
 8636TIP3    H125872   6.128   0.829   1.520 -0.6212 -1.1122  0.2380
 8636TIP3    H225873   6.224   0.805   1.405 -1.5083 -1.0470 -0.5376
 8637TIP3   OH225874   2.596   1.974   1.423  0.8753  0.5200  0.2233
 8637TIP3    H125875   2.568   2.061   1.453 -0.7378  0.2589 -0.4387
 8637TIP3    H225876   2.514   1.928   1.403  1.7811 -0.1497 -2.2384
 8638TIP3   OH225877   4.002   2.518   4.295 -0.0235  0.2693 -0.0356
 8638TIP3    H125878   4.029   2.555   4.379 -2.2432 -1.6312  1.6603
 8638TIP3    H225879   3.978   2.427   4.315 -1.3805 -0.0276 -2.5540
 8639TIP3   OH225880   2.064   3.810   2.750 -0.7620  0.2518  0.4731
 8639TIP3    H125881   1.987   3.757   2.731 -1.0455  0.5653  0.7219
 8639TIP3    H225882   2.079   3.798   2.844  0.1275 -0.6391  0.2288
 8640TIP3   OH225883   3.899   6.044   1.632 -0.2370 -0.1700 -0.1298
 8640TIP3    H125884   3.862   6.012   1.550  0.8099 -0.5760 -0.4642
 8640TIP3    H225885   3.932   6.132   1.610  0.4994 -0.4779 -0.2967
 8641TIP3   OH225886   7.006   4.573   4.788 -0.0592 -0.5408 -0.3792
 8641TIP3    H125887   7.064   4.536   4.721 -0.9550 -2.5976 -0.0972
 8641TIP3    H225888   6.922   4.529   4.774 -1.2866  1.5785 -0.1050
 8642TIP3   OH225889   0.418   4.304   2.547  0.1547  0.0931  0.1980
 8642TIP3    H125890   0.499   4.257   2.568 -0.3215 -1.3053 -0.9166
 8642TIP3    H225891   0.444   4.369   2.483  0.6532  0.7499  1.0365
 8643TIP3   OH225892   4.878   5.568   3.123 -0.1638  0.1427 -0.2647
 8643TIP3    H125893   4.951   5.515   3.090 -0.2655 -0.6554  0.7452
 8643TIP3    H225894   4.886   5.563   3.218  0.2541  2.5546 -0.0987
 8644TIP3   OH225895   6.364   1.388   2.504 -0.1660  0.5754 -0.2520
 8644TIP3    H125896   6.347   1.412   2.595 -2.2687 -1.4537 -0.0292
 8644TIP3    H225897   6.285   1.341   2.476  0.4876  0.9678 -3.0871
 8645TIP3   OH225898   2.166   3.500   1.791  0.3924  0.0624 -0.1077
 8645TIP3    H125899   2.171   3.596   1.783 -1.5322  0.1935 -0.2566
 8645TIP3    H225900   2.087   3.476   1.742 -0.0025 -1.4326  1.1856
 8646TIP3   OH225901   3.258   4.079   0.498  0.5295 -0.4089  0.2279
 8646TIP3    H125902   3.292   4.162   0.463  2.9853 -1.6256 -0.4621
 8646TIP3    H225903   3.242   4.098   0.590  0.9251  0.8738  0.0658
 8647TIP3   OH225904   3.857   5.050   4.224  0.0817  0.5044 -0.5751
 8647TIP3    H125905   3.914   4.985   4.182 -0.3102 -0.3874  0.2546
 8647TIP3    H225906   3.770   5.012   4.220  0.1159  0.0574  1.6235
 8648TIP3   OH225907   6.633   2.104   4.588  0.2539 -0.3534 -0.3675
 8648TIP3    H125908   6.724   2.129   4.568  0.9131 -3.4991 -2.0263
 8648TIP3    H225909   6.587   2.115   4.505 -0.9525  1.0993  0.4360
 8649TIP3   OH225910   1.780   3.802   0.878 -0.1941  0.7717 -0.3901
 8649TIP3    H125911   1.826   3.841   0.804 -0.3424 -0.0281 -0.9106
 8649TIP3    H225912   1.736   3.726   0.842 -2.0515  1.5759  0.0481
 8650TIP3   OH225913   2.285   3.069   4.561 -0.2338 -0.6142  0.7594
 8650TIP3    H125914   2.343   3.145   4.553 -0.6020 -0.3603  0.4379
 8650TIP3    H225915   2.247   3.077   4.649 -1.1973  0.2591  0.2872
 8651TIP3   OH225916   5.443   6.010   5.582 -0.6004  0.2042  0.5770
 8651TIP3    H125917   5.418   5.927   5.541 -1.4577  1.5800 -1.8839
 8651TIP3    H225918   5.374   6.026   5.647 -1.9415  0.2376 -0.8041
 8652TIP3   OH225919   6.376   3.777   4.030  0.3906  0.4538  0.5854
 8652TIP3    H125920   6.426   3.706   4.069  0.9143 -0.1307 -1.0551
 8652TIP3    H225921   6.285   3.757   4.052  0.5003 -0.9141 -0.0983
 8653TIP3   OH225922   3.043   2.483   2.465 -0.5162 -0.6027 -0.2200
 8653TIP3    H125923   2.948   2.470   2.463 -0.7201  0.4628  1.1531
 8653TIP3    H225924   3.055   2.574   2.437 -0.2145  0.3986  2.8636
 8654TIP3   OH225925   1.523   6.613   1.131  0.2850  0.4388 -0.1408
 8654TIP3    H125926   1.566   6.544   1.182  1.6511  0.9525 -0.5548
 8654TIP3    H225927   1.433   6.615   1.164  0.4535 -0.9477  0.4743
 8655TIP3   OH225928   0.134   6.103   0.407 -0.3326 -0.4350  0.4643
 8655TIP3    H125929   0.043   6.075   0.394  0.5005 -2.3105 -2.2476
 8655TIP3    H225930   0.179   6.026   0.439  1.2479 -1.3690 -3.4134
 8656TIP3   OH225931   0.741   5.989   1.825  0.3365  0.4781 -0.7248
 8656TIP3    H125932   0.728   5.974   1.918  1.9877  0.2625 -0.4949
 8656TIP3    H225933   0.727   5.903   1.785 -0.1436  0.5216 -0.6554
 8657TIP3   OH225934   5.017   0.723   0.409  0.1327  0.1808 -0.0037
 8657TIP3    H125935   5.052   0.812   0.404 -2.0292  1.2369  1.6794
 8657TIP3    H225936   4.940   0.725   0.353  0.6018 -0.9583 -0.7116
 8658TIP3   OH225937   3.529   4.689   0.525 -0.5911 -0.3317  0.0832
 8658TIP3    H125938   3.612   4.669   0.567  0.7716  1.5135 -1.5644
 8658TIP3    H225939   3.532   4.641   0.442 -0.5886  0.7473 -0.5482
 8659TIP3   OH225940   3.552   0.137   5.669 -0.1399 -0.2697 -0.1273
 8659TIP3    H125941   3.645   0.118   5.662 -0.2417 -0.5570 -0.7964
 8659TIP3    H225942   3.510   0.051   5.663 -0.5526  0.0230 -2.0204
 8660TIP3   OH225943   5.435   3.797   3.393  0.1816  0.1814 -0.0645
 8660TIP3    H125944   5.408   3.800   3.301  2.1070 -0.4291 -0.6997
 8660TIP3    H225945   5.470   3.709   3.405 -0.2465  0.1831  1.3293
 8661TIP3   OH225946   2.937   4.093   0.604  0.7034  0.0864  0.2817
 8661TIP3    H125947   2.914   4.174   0.558  1.0685 -0.4337 -0.8594
 8661TIP3    H225948   3.033   4.093   0.606  0.8398 -1.5085 -2.0550
 8662TIP3   OH225949   6.987   6.002   4.589  0.3404  0.2614 -0.0538
 8662TIP3    H125950   7.062   6.008   4.531  0.3713  2.7819  0.1206
 8662TIP3    H225951   6.932   5.933   4.551  2.2645 -0.9982 -0.6841
 8663TIP3   OH225952   1.306   5.844   0.731 -0.4205  0.6730  0.2262
 8663TIP3    H125953   1.275   5.823   0.819 -0.2312 -1.4147 -0.1563
 8663TIP3    H225954   1.394   5.807   0.727 -0.6901  0.1260 -1.0674
 8664TIP3   OH225955   4.783   0.316   1.485 -0.1592  0.3293  0.0399
 8664TIP3    H125956   4.737   0.236   1.512 -0.1099 -0.1357 -1.1759
 8664TIP3    H225957   4.870   0.307   1.523 -0.4310  0.2576  0.6738
 8665TIP3   OH225958   1.444   6.575   4.999 -0.2110  0.2693  0.0158
 8665TIP3    H125959   1.499   6.511   4.955  0.2995 -2.0331  3.6217
 8665TIP3    H225960   1.486   6.589   5.084 -3.0047  1.5176  1.3328
 8666TIP3   OH225961   6.293   4.604   0.687 -0.0962 -0.3639 -0.3665
 8666TIP3    H125962   6.385   4.590   0.667 -0.2966 -0.9982 -0.8725
 8666TIP3    H225963   6.282   4.699   0.683 -0.0173 -0.3793 -2.8860
 8667TIP3   OH225964   4.889   6.218   0.817 -0.3087  0.5069  0.2245
 8667TIP3    H125965   4.984   6.202   0.816 -0.3934 -0.0160 -0.7787
 8667TIP3    H225966   4.857   6.174   0.738 -1.4792  0.1447  0.8861
 8668TIP3   OH225967   6.219   1.177   4.575 -0.2087 -0.0578  0.3559
 8668TIP3    H125968   6.282   1.111   4.548 -0.4980 -0.3399  0.3527
 8668TIP3    H225969   6.175   1.203   4.495 -0.2768 -0.0573  0.3929
 8669TIP3   OH225970   5.004   1.748   1.825 -0.3706  0.3019 -0.1885
 8669TIP3    H125971   4.941   1.721   1.891  0.5446 -0.4172  0.4212
 8669TIP3    H225972   5.024   1.668   1.777  0.8357  0.2772  0.3032
 8670TIP3   OH225973   1.427   1.991   5.591 -0.2035  0.0214 -0.2302
 8670TIP3    H125974   1.414   2.007   5.684 -1.3671  2.0809 -0.6991
 8670TIP3    H225975   1.344   2.016   5.550 -0.1877 -2.1120 -1.7181
 8671TIP3   OH225976   0.015   5.262   2.914 -0.1524  0.2894 -0.2230
 8671TIP3    H125977   0.081   5.193   2.908 -0.9904 -0.4756 -0.7201
 8671TIP3    H225978  -0.032   5.243   2.995  1.6263  2.1272  1.3643
 8672TIP3   OH225979   1.772   4.911   1.177  0.0209 -0.2009 -0.4330
 8672TIP3    H125980   1.749   4.883   1.266  2.8020 -1.9957 -0.1776
 8672TIP3    H225981   1.831   4.985   1.190  1.9038 -1.5936 -0.6143
 8673TIP3   OH225982   0.980   4.851   2.385 -0.1831 -0.4450 -0.4156
 8673TIP3    H125983   1.028   4.768   2.394 -1.1227 -0.9496  0.0886
 8673TIP3    H225984   1.030   4.900   2.320  1.7105 -0.4583  0.9335
 8674TIP3   OH225985   4.708   2.622   0.318  0.6827  0.2143  0.2309
 8674TIP3    H125986   4.727   2.696   0.261 -1.4316  0.1747 -0.6307
 8674TIP3    H225987   4.786   2.566   0.314  0.5887  0.1513 -2.7376
 8675TIP3   OH225988   4.416   6.729   3.474  0.3913 -0.4326  0.6102
 8675TIP3    H125989   4.432   6.805   3.418  1.3796 -0.4020  0.9135
 8675TIP3    H225990   4.439   6.654   3.420 -3.4054 -0.8113 -0.7622
 8676TIP3   OH225991   6.039   3.635   0.736  0.0157 -0.3111  0.5858
 8676TIP3    H125992   6.024   3.682   0.818  0.9566 -1.4858  1.4649
 8676TIP3    H225993   6.010   3.696   0.668  0.2148  1.1052  1.7217
 8677TIP3   OH225994   4.520   0.495   3.922  0.5269 -0.3935  0.0852
 8677TIP3    H125995   4.515   0.485   3.827 -1.7866 -0.2411  0.1337
 8677TIP3    H225996   4.491   0.410   3.956  2.2830 -0.7825  0.7079
 8678TIP3   OH225997   5.769   0.993   0.059  0.8930  0.0776 -0.0103
 8678TIP3    H125998   5.728   0.973  -0.025  0.4460 -0.9519  0.4422
 8678TIP3    H225999   5.859   1.016   0.037  0.4732  0.9600 -0.8725
 8679TIP3   OH226000   1.339   4.721   3.262 -0.0131 -0.5231  0.1078
 8679TIP3    H126001   1.357   4.770   3.343  2.4481  2.0097 -1.7855
 8679TIP3    H226002   1.265   4.767   3.222 -0.2717 -0.8491  0.2105
 8680TIP3   OH226003   4.483   1.632   2.957  0.5738 -0.0046 -0.1451
 8680TIP3    H126004   4.528   1.598   3.034  1.7600  1.0685 -0.3525
 8680TIP3    H226005   4.446   1.715   2.985 -0.2754 -0.3056 -0.3275
 8681TIP3   OH226006   2.727   1.127   0.709  0.3341  0.3741 -0.0834
 8681TIP3    H126007   2.644   1.125   0.662 -0.1381  0.0462  0.7343
 8681TIP3    H226008   2.707   1.171   0.792  1.3213  1.6438 -0.4931
 8682TIP3   OH226009   1.304   2.454   0.123 -0.1934 -0.1855 -0.4930
 8682TIP3    H126010   1.252   2.495   0.053 -3.8375 -1.3683  1.2396
 8682TIP3    H226011   1.283   2.507   0.201  2.3873  0.0658  0.1090
 8683TIP3   OH226012   6.365   3.558   2.480  0.1541  0.0769 -0.0520
 8683TIP3    H126013   6.296   3.501   2.445 -1.5549  2.7132 -1.3946
 8683TIP3    H226014   6.347   3.562   2.574 -0.1142 -1.0017 -0.0409
 8684TIP3   OH226015   6.845   2.571   4.688 -0.3918 -0.4011 -0.4024
 8684TIP3    H126016   6.914   2.505   4.681 -0.0227 -0.2251  1.1594
 8684TIP3    H226017   6.777   2.529   4.741 -0.5294  0.1611 -0.1256
 8685TIP3   OH226018   2.197   3.710   1.567 -0.3248  0.0448 -0.1956
 8685TIP3    H126019   2.285   3.747   1.575 -0.8315  1.0188  1.3024
 8685TIP3    H226020   2.145   3.781   1.529 -0.5676 -0.3589 -0.6205
 8686TIP3   OH226021   2.612   6.230   4.869  0.2769  0.2676  0.1744
 8686TIP3    H126022   2.684   6.292   4.854 -0.3812  1.1006  0.3357
 8686TIP3    H226023   2.535   6.273   4.831 -0.0552 -0.8197 -0.4205
 8687TIP3   OH226024   5.330   3.909   3.145  0.0342 -0.7358  0.8401
 8687TIP3    H126025   5.315   3.984   3.203 -1.1406 -0.6664  0.4634
 8687TIP3    H226026   5.242   3.875   3.127  0.1391  0.4181 -2.4619
 8688TIP3   OH226027   0.099   1.576   4.306  0.4595 -0.4851 -0.5970
 8688TIP3    H126028   0.100   1.668   4.333  2.4437 -0.4235 -0.7180
 8688TIP3    H226029   0.067   1.529   4.383 -0.1814  0.2547 -0.3907
 8689TIP3   OH226030   3.513   4.868   3.551 -0.1140  0.3390 -0.0605
 8689TIP3    H126031   3.588   4.870   3.491 -0.0544  3.6329 -0.0543
 8689TIP3    H226032   3.505   4.776   3.575  3.3930 -0.3067 -0.7186
 8690TIP3   OH226033   0.672   3.754   3.910  0.0464  0.1669  0.2246
 8690TIP3    H126034   0.629   3.677   3.948 -0.8021 -1.2638 -3.2732
 8690TIP3    H226035   0.753   3.720   3.873  1.3847  1.7201  1.5436
 8691TIP3   OH226036   5.904   5.297   1.228 -0.7449  0.3352 -0.3784
 8691TIP3    H126037   5.885   5.373   1.284 -2.5704  1.4140 -2.3583
 8691TIP3    H226038   5.998   5.304   1.211 -0.3472  0.5857  1.5952
 8692TIP3   OH226039   2.889   3.514   0.178 -0.1320  0.2232 -0.2917
 8692TIP3    H126040   2.830   3.458   0.127 -0.7596 -0.3752  1.0546
 8692TIP3    H226041   2.830   3.573   0.226  0.3752 -0.0846  0.7371
 8693TIP3   OH226042   4.827   1.255   3.014  0.1991  0.1380  0.4752
 8693TIP3    H126043   4.734   1.230   3.012  0.3478 -0.4158 -0.5489
 8693TIP3    H226044   4.827   1.346   2.985 -0.0549  0.2667  0.8654
 8694TIP3   OH226045   2.903   4.003   3.707 -0.1064  0.3234 -0.3685
 8694TIP3    H126046   2.852   3.962   3.778 -0.1004 -0.0582 -0.5833
 8694TIP3    H226047   2.917   3.933   3.644  2.1499 -0.0608  0.4570
 8695TIP3   OH226048   5.010   1.039   0.136 -0.0082  0.1625  0.0844
 8695TIP3    H126049   5.029   1.012   0.226  0.4021  1.4355  0.4069
 8695TIP3    H226050   5.062   0.980   0.081  1.1656  0.5241  0.7709
 8696TIP3   OH226051   4.988   4.129   5.731 -0.0117 -0.3090 -0.1651
 8696TIP3    H126052   5.016   4.063   5.668  1.3995  0.9254 -0.8709
 8696TIP3    H226053   4.893   4.130   5.723  0.0102 -1.5025 -0.8874
 8697TIP3   OH226054   3.809   0.980   3.223  0.5346  0.0834  0.0269
 8697TIP3    H126055   3.735   1.003   3.278  0.7051  0.8964 -0.0634
 8697TIP3    H226056   3.886   1.010   3.273  0.6753  1.1156 -0.7579
 8698TIP3   OH226057   5.936   5.305   0.486  0.2366 -0.5309  0.3061
 8698TIP3    H126058   5.847   5.280   0.510  0.0152  0.9473  1.1002
 8698TIP3    H226059   5.992   5.249   0.541 -0.2156 -0.6128  0.6855
 8699TIP3   OH226060   0.039   1.058   1.268 -0.5237 -0.4835  0.4018
 8699TIP3    H126061  -0.027   1.005   1.223  0.6930 -1.9313  0.2470
 8699TIP3    H226062   0.121   1.011   1.254  1.0546  2.5794 -1.5829
 8700TIP3   OH226063   2.106   2.762   3.289  0.0784 -0.0317  0.0777
 8700TIP3    H126064   2.197   2.743   3.312 -0.1398  0.3176  1.2556
 8700TIP3    H226065   2.064   2.676   3.283 -0.4618 -0.1340  3.5615
 8701TIP3   OH226066   5.821   3.505   2.804  0.5229  0.1683 -0.0966
 8701TIP3    H126067   5.753   3.437   2.799 -0.3725  0.9747  0.5640
 8701TIP3    H226068   5.886   3.478   2.739 -0.0963 -0.9942 -0.2808
 8702TIP3   OH226069   5.482   3.064   4.640 -0.0672 -0.3445  0.0964
 8702TIP3    H126070   5.518   3.150   4.664  1.9003 -1.3608  1.0973
 8702TIP3    H226071   5.407   3.083   4.585  0.8892  2.0037 -0.5028
 8703TIP3   OH226072   3.148   4.074   5.189  0.2184 -0.2715 -0.2734
 8703TIP3    H126073   3.176   4.041   5.274 -2.3105 -2.8806 -0.2863
 8703TIP3    H226074   3.085   4.143   5.210 -0.3046 -0.8244  0.0171
 8704TIP3   OH226075   3.998   6.292   5.304 -0.6147  0.2196 -0.8406
 8704TIP3    H126076   3.923   6.282   5.245 -0.6920 -2.0518 -0.4620
 8704TIP3    H226077   4.074   6.290   5.247 -0.7617 -0.0645 -1.0313
 8705TIP3   OH226078   5.179   5.482   3.192  0.1598 -0.4281 -0.5753
 8705TIP3    H126079   5.123   5.404   3.193  0.9612 -1.0241 -1.0231
 8705TIP3    H226080   5.268   5.448   3.206  0.5514  0.3773 -1.0305
 8706TIP3   OH226081   1.767   2.810   4.330  0.9367 -0.1133  0.0393
 8706TIP3    H126082   1.799   2.867   4.399  1.4019 -0.3273  0.0066
 8706TIP3    H226083   1.673   2.830   4.323  0.7458 -0.5369  1.1525
 8707TIP3   OH226084   4.348   6.610   3.969  0.4007 -0.1314  0.6024
 8707TIP3    H126085   4.336   6.637   3.878  1.7043 -2.3307 -0.3024
 8707TIP3    H226086   4.275   6.551   3.986  0.0258  0.4635  1.0792
 8708TIP3   OH226087   2.696   0.686   2.671  0.2023  0.5960  0.5876
 8708TIP3    H126088   2.742   0.624   2.728  0.7195 -1.2501 -1.6551
 8708TIP3    H226089   2.765   0.739   2.633  0.4280 -1.0457 -1.4831
 8709TIP3   OH226090   5.718   3.994   4.597 -0.0094  0.3100  0.9525
 8709TIP3    H126091   5.799   3.977   4.551 -0.7448 -1.1064  0.1139
 8709TIP3    H226092   5.687   4.078   4.562 -0.0455 -0.2541 -0.4039
 8710TIP3   OH226093   0.086   2.169   0.656 -0.2899 -0.3200 -0.0164
 8710TIP3    H126094  -0.002   2.143   0.631  0.1382 -1.5742 -0.2546
 8710TIP3    H226095   0.136   2.088   0.657  0.9904  0.4432 -0.3757
 8711TIP3   OH226096   0.537   6.367   0.214 -0.2151  0.5973 -0.1388
 8711TIP3    H126097   0.496   6.313   0.146  1.5442  0.2137 -0.9668
 8711TIP3    H226098   0.500   6.335   0.296  1.3097 -2.5392 -0.5168
 8712TIP3   OH226099   6.989   4.947   2.696  0.1169 -0.3276 -0.5574
 8712TIP3    H126100   6.918   4.915   2.752  1.8445  0.1621  2.1296
 8712TIP3    H226101   6.994   5.041   2.715 -0.5406  0.3274 -3.2163
 8713TIP3   OH226102   2.063   2.614   3.669 -0.1418  0.5751  0.4615
 8713TIP3    H126103   2.043   2.543   3.730  0.4101  0.7291  0.8374
 8713TIP3    H226104   2.092   2.570   3.589  0.8320  0.3618  0.9111
 8714TIP3   OH226105   1.406   4.511   3.594  0.8445 -0.8257 -0.8517
 8714TIP3    H126106   1.459   4.447   3.547  2.2589  0.0797 -0.5582
 8714TIP3    H226107   1.415   4.487   3.686  2.8457  0.7523 -0.5606
 8715TIP3   OH226108   5.449   1.927   0.673 -0.2520  0.2846 -0.0454
 8715TIP3    H126109   5.500   1.847   0.661  0.6567  1.0978 -2.3001
 8715TIP3    H226110   5.497   1.976   0.740  0.2936 -0.2202 -0.0514
 8716TIP3   OH226111   5.022   0.668   2.897 -0.8743  0.2936 -0.3383
 8716TIP3    H126112   5.025   0.641   2.805  0.0560  0.5977 -0.4080
 8716TIP3    H226113   4.984   0.594   2.943  1.4845 -1.1456 -0.5373
 8717TIP3   OH226114   4.378   6.355   2.663 -0.4594  0.1472 -0.6596
 8717TIP3    H126115   4.373   6.450   2.674 -1.0010  0.5429 -3.4812
 8717TIP3    H226116   4.299   6.332   2.614  0.0920 -1.6238 -0.8152
 8718TIP3   OH226117   3.454   6.090   3.432  0.0522 -0.3050  0.3691
 8718TIP3    H126118   3.380   6.034   3.410  0.5682 -0.2242 -1.8422
 8718TIP3    H226119   3.445   6.166   3.375  0.7787  0.6586  1.4812
 8719TIP3   OH226120   2.557   1.024   3.733  0.1486 -1.0077  0.6476
 8719TIP3    H126121   2.469   1.035   3.769 -0.5378 -2.3728 -0.5228
 8719TIP3    H226122   2.606   1.098   3.768 -1.6256  0.1523  0.8327
 8720TIP3   OH226123   5.512   1.298   3.194 -0.2431  0.0002  0.1806
 8720TIP3    H126124   5.575   1.295   3.122  0.1311  0.6657  0.4691
 8720TIP3    H226125   5.545   1.367   3.251  0.5389 -1.7378  1.9743
 8721TIP3   OH226126   1.699   2.112   5.576 -0.6225  0.1306 -0.0124
 8721TIP3    H126127   1.607   2.126   5.598 -0.4152  1.4702  0.1007
 8721TIP3    H226128   1.697   2.075   5.487 -1.2988 -1.2736  0.5605
 8722TIP3   OH226129   1.826   5.115   3.997  0.2084 -0.0068  0.5300
 8722TIP3    H126130   1.763   5.182   4.023  0.9177  0.4832  1.0064
 8722TIP3    H226131   1.903   5.131   4.051  1.5307  0.7072 -1.4563
 8723TIP3   OH226132   3.917   5.668   2.605  0.3462  0.0867  0.1376
 8723TIP3    H126133   3.995   5.699   2.560 -0.2285 -0.5116 -1.3530
 8723TIP3    H226134   3.885   5.596   2.551 -1.8841  1.0500  0.0393
 8724TIP3   OH226135   1.615   5.404   3.789  0.4921 -0.2034 -0.5870
 8724TIP3    H126136   1.524   5.391   3.815  0.2325  1.8411 -0.2822
 8724TIP3    H226137   1.654   5.317   3.796 -0.6895 -0.6469  2.2230
 8725TIP3   OH226138   0.321   2.486   3.858 -0.1560 -0.5522  0.3486
 8725TIP3    H126139   0.227   2.506   3.851  0.0826  0.6641  0.4970
 8725TIP3    H226140   0.344   2.509   3.948  0.2471 -1.0426  0.3722
 8726TIP3   OH226141   4.279   1.536   5.221 -0.3142 -0.0468 -0.0566
 8726TIP3    H126142   4.327   1.568   5.298 -0.3407 -0.1567  0.0060
 8726TIP3    H226143   4.189   1.566   5.235 -0.1406  0.6905 -0.4753
 8727TIP3   OH226144   5.072   4.901   0.625 -0.3007  0.3401  0.1384
 8727TIP3    H126145   5.006   4.919   0.691 -1.6631 -3.5933  0.0501
 8727TIP3    H226146   5.124   4.830   0.661  1.2433  0.5248 -1.5727
 8728TIP3   OH226147   4.798   5.352   0.843 -0.0204 -0.0550  0.4404
 8728TIP3    H126148   4.762   5.441   0.840  0.9823  0.3405 -0.8776
 8728TIP3    H226149   4.731   5.297   0.802 -0.3326  0.1989  0.6025
 8729TIP3   OH226150   0.710   0.389   0.059  0.4765  0.1052 -0.6078
 8729TIP3    H126151   0.685   0.458   0.121  2.1501  0.2112 -0.0013
 8729TIP3    H226152   0.723   0.436  -0.024  3.9736  1.0741  0.3171
 8730TIP3   OH226153   0.723   0.089   5.071 -0.2877 -0.0783  0.1891
 8730TIP3    H126154   0.776   0.075   5.150 -0.1081 -0.7761 -0.0495
 8730TIP3    H226155   0.651   0.026   5.079  0.7168 -1.4804 -1.0646
 8731TIP3   OH226156   0.964   2.559   5.423 -0.2917  0.5514  0.1316
 8731TIP3    H126157   0.901   2.488   5.434  0.3620 -0.1250 -0.4029
 8731TIP3    H226158   0.929   2.631   5.476 -1.8442  0.4219 -0.6533
 8732TIP3   OH226159   0.907   2.637   1.448  0.4196 -0.1597 -0.4886
 8732TIP3    H126160   0.968   2.563   1.454 -0.7150 -1.1364 -0.6381
 8732TIP3    H226161   0.822   2.600   1.474 -0.5162  0.6670 -2.2048
 8733TIP3   OH226162   3.317   4.143   1.928  0.5868 -0.0107 -0.5494
 8733TIP3    H126163   3.274   4.202   1.989  0.3270 -0.3215 -0.4263
 8733TIP3    H226164   3.379   4.198   1.880 -1.1291  0.7986 -1.9146
 8734TIP3   OH226165   3.820   5.877   0.623 -0.1891  0.1780  0.2140
 8734TIP3    H126166   3.770   5.904   0.699 -1.4050  3.2966 -1.4959
 8734TIP3    H226167   3.755   5.850   0.559  0.7070 -0.9592 -0.2646
 8735TIP3   OH226168   1.391   4.626   1.799 -0.3240  0.0879 -0.3629
 8735TIP3    H126169   1.459   4.670   1.747 -0.1059 -0.0672 -0.2117
 8735TIP3    H226170   1.309   4.654   1.760 -0.1469 -2.0198 -2.4908
 8736TIP3   OH226171   5.109   0.158   4.623 -0.0231  0.7226 -0.7119
 8736TIP3    H126172   5.086   0.131   4.712  1.4856  0.5067 -0.3560
 8736TIP3    H226173   5.176   0.226   4.635  0.1619  0.7303 -1.6893
 8737TIP3   OH226174   7.165   0.669   2.742 -0.0389  0.4456 -0.2245
 8737TIP3    H126175   7.248   0.621   2.739 -0.5596 -0.5761  0.8336
 8737TIP3    H226176   7.170   0.730   2.668  1.3435 -0.0896 -0.6124
 8738TIP3   OH226177   4.400   3.564   2.229 -0.4806 -0.4779  0.7153
 8738TIP3    H126178   4.407   3.527   2.317 -0.2629 -0.4199  0.7228
 8738TIP3    H226179   4.444   3.649   2.235  2.8311 -1.9849 -0.3304
 8739TIP3   OH226180   4.236   2.925   0.145 -0.5768 -0.2719  0.5173
 8739TIP3    H126181   4.160   2.909   0.201 -1.1936  2.1481  0.4900
 8739TIP3    H226182   4.276   3.005   0.181  0.7478 -0.3317 -0.7116
 8740TIP3   OH226183   6.331   0.956   0.917 -0.3266  0.9761  0.1272
 8740TIP3    H126184   6.422   0.982   0.928 -0.2903  0.9960 -0.1917
 8740TIP3    H226185   6.281   1.019   0.969 -0.2375  1.6952 -0.6457
 8741TIP3   OH226186   3.617   0.278   2.419 -0.0674  0.0220 -0.3138
 8741TIP3    H126187   3.549   0.227   2.375  0.7994 -0.1120 -1.5428
 8741TIP3    H226188   3.619   0.361   2.372  1.5888 -0.5157 -1.2851
 8742TIP3   OH226189   4.568   6.776   0.165  0.1669  0.0476  0.6918
 8742TIP3    H126190   4.514   6.698   0.151  0.0989  0.4366 -1.5987
 8742TIP3    H226191   4.605   6.764   0.252 -1.9174 -1.2630  1.4785
 8743TIP3   OH226192   4.176   2.544   0.592 -0.1611 -0.1581 -0.4999
 8743TIP3    H126193   4.214   2.584   0.513 -0.1252  1.3191  0.2246
 8743TIP3    H226194   4.083   2.539   0.574 -0.2246  0.6872 -0.4396
 8744TIP3   OH226195   6.676   1.906   5.391 -0.4408  0.2111  0.3127
 8744TIP3    H126196   6.662   1.998   5.412 -2.3920 -0.1367  0.7429
 8744TIP3    H226197   6.703   1.907   5.299  0.8620  1.2638  0.6722
 8745TIP3   OH226198   7.172   3.190   5.836  0.3737  0.1151 -0.0746
 8745TIP3    H126199   7.227   3.153   5.767 -0.7292  1.9696 -2.0951
 8745TIP3    H226200   7.126   3.263   5.793 -0.2803  1.4560  2.6872
 8746TIP3   OH226201   4.250   3.897   0.112  0.2214 -0.4555 -0.1784
 8746TIP3    H126202   4.287   3.829   0.169 -1.5516 -0.1900  1.3830
 8746TIP3    H226203   4.278   3.980   0.152 -0.6292 -0.2669  0.0407
 8747TIP3   OH226204   0.911   2.460   5.781 -0.0782 -0.1945  0.0189
 8747TIP3    H126205   0.986   2.466   5.722 -0.0721 -0.5397 -0.0081
 8747TIP3    H226206   0.841   2.424   5.727 -0.5189  0.9264 -0.1921
 8748TIP3   OH226207   3.301   3.533   4.609 -0.9258  0.6630 -0.2992
 8748TIP3    H126208   3.348   3.455   4.580 -0.1137  0.8943  0.3353
 8748TIP3    H226209   3.224   3.499   4.656 -1.5397  0.2840 -1.5542
 8749TIP3   OH226210   5.538   1.219   2.592  0.1846 -0.4682 -0.1899
 8749TIP3    H126211   5.623   1.182   2.569 -0.4945 -1.1706 -1.7274
 8749TIP3    H226212   5.539   1.307   2.555  0.4229 -0.2976  0.2222
 8750TIP3   OH226213   5.997   2.855   1.468  0.1515  0.2843  0.2895
 8750TIP3    H126214   6.074   2.800   1.480  0.2193  0.0462 -1.0628
 8750TIP3    H226215   5.924   2.794   1.463 -0.0352  0.4598  0.7865
 8751TIP3   OH226216   4.081   2.914   4.955 -0.2395 -0.0103 -0.5024
 8751TIP3    H126217   3.996   2.956   4.964 -0.4563 -0.3707 -0.8564
 8751TIP3    H226218   4.132   2.975   4.902  0.3217  1.0652  1.1614
 8752TIP3   OH226219   4.980   2.235   2.709  0.1684 -0.2080 -0.1042
 8752TIP3    H126220   5.054   2.266   2.762  0.1447 -1.9606  1.0303
 8752TIP3    H226221   5.019   2.177   2.644 -0.0131  0.3882 -0.7480
 8753TIP3   OH226222   5.546   0.396   3.980 -0.3100  0.6414  0.4917
 8753TIP3    H126223   5.462   0.436   4.002 -0.2323  0.2890  1.4791
 8753TIP3    H226224   5.568   0.431   3.894 -0.8910  1.6667  0.7507
 8754TIP3   OH226225   1.400   4.357   4.851 -0.1494  0.4858  0.1300
 8754TIP3    H126226   1.432   4.267   4.847 -0.8921  0.1775  0.9198
 8754TIP3    H226227   1.452   4.404   4.785  0.1492 -0.5451 -0.3850
 8755TIP3   OH226228   3.059   4.835   5.104  0.0329 -0.0537 -0.2368
 8755TIP3    H126229   3.146   4.801   5.088  0.0684  0.2229 -0.6281
 8755TIP3    H226230   3.026   4.860   5.018 -1.1911 -1.9447 -0.3697
 8756TIP3   OH226231   1.578   6.018   3.010 -0.0102  0.2170 -0.4268
 8756TIP3    H126232   1.637   6.026   3.084  1.3352 -1.2626 -1.2585
 8756TIP3    H226233   1.523   5.942   3.031 -0.8952  0.9088 -0.1585
 8757TIP3   OH226234   6.768   3.429   5.496  0.2765 -0.4841  0.1440
 8757TIP3    H126235   6.795   3.361   5.434 -1.0892 -1.1902  0.2847
 8757TIP3    H226236   6.764   3.384   5.580 -0.3975 -0.1618  0.2858
 8758TIP3   OH226237   1.372   3.756   3.642  0.0175 -0.4640 -0.5849
 8758TIP3    H126238   1.422   3.820   3.591 -0.0002 -1.2781 -1.6574
 8758TIP3    H226239   1.407   3.764   3.731  0.9433  0.0999 -0.9863
 8759TIP3   OH226240   3.893   5.871   5.035  0.0808 -0.4228 -0.6747
 8759TIP3    H126241   3.855   5.832   4.957 -1.2521 -0.6524  0.0628
 8759TIP3    H226242   3.819   5.887   5.093  1.0840 -0.7680  0.7719
 8760TIP3   OH226243   1.413   1.628   5.731 -0.2469 -0.3378 -0.3668
 8760TIP3    H126244   1.340   1.691   5.725 -1.1232 -1.2817  0.0114
 8760TIP3    H226245   1.370   1.543   5.733  0.9720 -1.0077 -1.7843
 8761TIP3   OH226246   4.969   3.963   5.304 -0.9014  0.7269 -0.3733
 8761TIP3    H126247   5.011   4.037   5.260  0.5434  0.2406  0.1295
 8761TIP3    H226248   5.011   3.958   5.389 -1.4667 -0.2504 -0.1346
 8762TIP3   OH226249   0.075   3.843   0.711  0.3216  0.2760 -0.2209
 8762TIP3    H126250   0.143   3.907   0.732  0.5473 -0.4249  1.3269
 8762TIP3    H226251  -0.006   3.894   0.707  0.8381  1.0453 -1.6319
 8763TIP3   OH226252   3.994   0.115   5.441 -0.1191  0.0854 -1.0918
 8763TIP3    H126253   4.073   0.091   5.490 -0.0783  1.4449 -0.4301
 8763TIP3    H226254   3.940   0.161   5.506 -1.6153 -1.1073 -1.4447
 8764TIP3   OH226255   1.598   2.090   1.063 -0.0664  0.4205 -0.9566
 8764TIP3    H126256   1.662   2.160   1.050 -0.1201  0.3966 -1.3439
 8764TIP3    H226257   1.524   2.133   1.105  0.8044  0.1716  0.9735
 8765TIP3   OH226258   5.548   2.287   1.578  0.0629  0.0294 -0.4644
 8765TIP3    H126259   5.510   2.202   1.602 -0.2465  0.4912  0.7754
 8765TIP3    H226260   5.498   2.315   1.501  0.1461 -0.8899 -0.8632
 8766TIP3   OH226261   1.418   6.345   0.817 -0.6646  0.2179  0.2183
 8766TIP3    H126262   1.378   6.260   0.802 -0.5179 -0.4392  3.0309
 8766TIP3    H226263   1.345   6.401   0.846 -0.5341  0.7178 -0.3835
 8767TIP3   OH226264   4.981   4.083   0.529 -0.5868  0.1863  0.0365
 8767TIP3    H126265   4.947   4.170   0.510 -0.8796  0.2955  1.0144
 8767TIP3    H226266   4.955   4.066   0.620 -1.0811 -1.1622 -0.3200
 8768TIP3   OH226267   6.953   2.524   1.558  0.2993 -0.0278  0.3628
 8768TIP3    H126268   6.948   2.505   1.652  0.8815 -1.3294  0.1571
 8768TIP3    H226269   6.943   2.438   1.516 -0.6399  0.6188 -0.7965
 8769TIP3   OH226270   3.220   6.457   3.616 -0.5708  0.4484 -0.5390
 8769TIP3    H126271   3.226   6.531   3.555  1.8630 -0.2414 -1.2483
 8769TIP3    H226272   3.179   6.387   3.566 -0.4832  0.5235 -0.7164
 8770TIP3   OH226273   6.187   2.020   1.426  0.0324  0.0086 -0.3095
 8770TIP3    H126274   6.269   2.065   1.448 -0.0239  1.1020 -2.1619
 8770TIP3    H226275   6.215   1.948   1.369 -0.2965  0.4965 -1.0970
 8771TIP3   OH226276   4.007   3.228   0.049  0.5669 -0.0494  0.1931
 8771TIP3    H126277   3.976   3.295  -0.012  0.6574  0.1851  0.4029
 8771TIP3    H226278   4.059   3.276   0.114  1.3968 -0.4445 -0.1709
 8772TIP3   OH226279   5.127   5.823   0.043 -0.5518  0.1245  0.7278
 8772TIP3    H126280   5.111   5.733   0.014  1.6083  0.2596 -1.1908
 8772TIP3    H226281   5.142   5.817   0.137 -0.2042 -1.5783  0.5821
 8773TIP3   OH226282   7.130   1.614   1.897  0.1225 -0.8131  0.5052
 8773TIP3    H126283   7.053   1.606   1.953  0.2224  0.7640  0.8996
 8773TIP3    H226284   7.095   1.637   1.811  0.0991 -1.1647  0.4182
 8774TIP3   OH226285   1.788   2.615   0.199 -0.3506  0.8173  0.0347
 8774TIP3    H126286   1.810   2.677   0.129 -0.4093 -1.0183 -1.6814
 8774TIP3    H226287   1.705   2.647   0.234 -0.7011  1.3677 -1.2427
 8775TIP3   OH226288   4.767   0.011   3.865 -0.3102 -0.4399  0.0736
 8775TIP3    H126289   4.767   0.106   3.859  1.2515 -0.4196 -0.0868
 8775TIP3    H226290   4.738  -0.008   3.955 -1.6423  0.1167 -0.2111
 8776TIP3   OH226291   2.563   5.110   0.319  0.1048  0.0137 -0.0941
 8776TIP3    H126292   2.603   5.183   0.271 -0.3138  0.6029  0.4291
 8776TIP3    H226293   2.601   5.115   0.406 -0.4146  0.0110  0.1344
 8777TIP3   OH226294   1.803   1.923   2.724 -0.4765  0.1509 -0.1040
 8777TIP3    H126295   1.819   1.885   2.638 -1.3127 -0.3980 -0.0291
 8777TIP3    H226296   1.745   1.998   2.708  0.1672  0.6561 -0.1164
 8778TIP3   OH226297   4.157   2.618   4.492 -0.4400  0.5176  0.5686
 8778TIP3    H126298   4.211   2.644   4.567 -0.9931 -0.6948  1.4091
 8778TIP3    H226299   4.112   2.699   4.467  1.5885  1.5287 -0.0515
 8779TIP3   OH226300   3.306   6.364   4.860 -0.3274  0.0993  0.6527
 8779TIP3    H126301   3.333   6.285   4.814 -2.6673 -1.5490  1.8858
 8779TIP3    H226302   3.300   6.432   4.792 -0.9247 -1.5003 -0.9659
 8780TIP3   OH226303   1.904   4.267   0.539 -0.0252 -0.7725  0.1651
 8780TIP3    H126304   1.827   4.214   0.559  0.2360 -1.3403 -0.3034
 8780TIP3    H226305   1.956   4.263   0.620 -0.3526 -0.6181  0.3858
 8781TIP3   OH226306   7.139   6.173   2.083  0.2591  0.0763  0.1517
 8781TIP3    H126307   7.146   6.268   2.074 -0.0996  0.1381  0.5114
 8781TIP3    H226308   7.120   6.158   2.175  0.1944 -0.3399  0.0768
 8782TIP3   OH226309   6.028   4.649   4.509 -0.2330 -0.1465  0.1120
 8782TIP3    H126310   6.075   4.714   4.562  0.7280 -0.1308 -0.7537
 8782TIP3    H226311   6.003   4.697   4.430 -0.6855 -0.4805  0.0516
 8783TIP3   OH226312   0.548   0.519   1.289 -0.2812 -0.6131  0.0338
 8783TIP3    H126313   0.608   0.580   1.331 -0.0141  0.1593 -1.3946
 8783TIP3    H226314   0.471   0.572   1.267 -0.5458 -1.0698 -0.1615
 8784TIP3   OH226315   6.124   4.730   1.078  0.3746 -0.3385 -0.2629
 8784TIP3    H126316   6.086   4.752   1.164  0.9777 -1.0421  0.1941
 8784TIP3    H226317   6.189   4.799   1.063 -1.5705  1.3710 -1.4393
 8785TIP3   OH226318   5.446   3.511   3.133 -0.2624 -0.2782  0.0463
 8785TIP3    H126319   5.512   3.572   3.166  0.2082 -0.6077 -0.2674
 8785TIP3    H226320   5.465   3.503   3.040  0.1397 -1.4333  0.2059
 8786TIP3   OH226321   3.828   0.580   3.696 -0.7042  0.4650 -0.3575
 8786TIP3    H126322   3.841   0.494   3.736  0.2314  0.5782 -0.3792
 8786TIP3    H226323   3.807   0.638   3.769  0.5180  0.5727 -0.0588
 8787TIP3   OH226324   3.257   2.144   1.494 -0.0163 -0.4872  0.0420
 8787TIP3    H126325   3.206   2.140   1.414  0.3504 -1.2509 -0.1569
 8787TIP3    H226326   3.281   2.053   1.513  0.0090 -0.3035  0.9453
 8788TIP3   OH226327   6.523   4.275   1.345  0.1017 -0.3290  0.0188
 8788TIP3    H126328   6.507   4.318   1.262  0.8649  1.0197  0.5408
 8788TIP3    H226329   6.568   4.340   1.398 -1.0214 -0.8791  1.7610
 8789TIP3   OH226330   5.561   0.948   0.772 -0.3357  0.3407 -0.2961
 8789TIP3    H126331   5.480   0.998   0.763  0.2969  1.7148  1.1631
 8789TIP3    H226332   5.631   1.011   0.755  0.4712 -0.1901  0.8414
 8790TIP3   OH226333   0.743   0.257   2.048  0.7138  0.4329 -0.4972
 8790TIP3    H126334   0.772   0.168   2.071 -1.5726 -0.1194  0.5952
 8790TIP3    H226335   0.678   0.244   1.980 -0.5079  1.1165  0.4835
 8791TIP3   OH226336   5.967   3.405   2.053 -0.1563  0.3551  0.0645
 8791TIP3    H126337   5.936   3.457   1.979 -0.4683  0.8437  0.5327
 8791TIP3    H226338   6.051   3.443   2.075  0.0735  0.0203 -0.2214
 8792TIP3   OH226339   0.511   6.624   0.138 -0.3103  0.0636 -0.1763
 8792TIP3    H126340   0.532   6.532   0.155 -0.4937  0.1071  0.2946
 8792TIP3    H226341   0.534   6.637   0.046 -1.0218 -0.6779 -0.4767
 8793TIP3   OH226342   4.112   2.476   2.870  0.2479 -0.1234  0.0138
 8793TIP3    H126343   4.105   2.519   2.955 -1.9001  0.6610 -0.4968
 8793TIP3    H226344   4.091   2.384   2.887 -2.2008  0.3723  0.1285
 8794TIP3   OH226345   5.232   5.954   5.739 -0.5530  0.4973 -0.3344
 8794TIP3    H126346   5.153   6.008   5.731 -0.6952  0.3899  0.2989
 8794TIP3    H226347   5.244   5.942   5.834 -0.7398 -0.9076 -0.4736
 8795TIP3   OH226348   4.789   3.657   1.954 -0.0296 -0.6856 -0.1397
 8795TIP3    H126349   4.727   3.720   1.918  0.5834  0.0140  0.0064
 8795TIP3    H226350   4.772   3.577   1.905  0.2296  0.0160 -1.4195
 8796TIP3   OH226351   6.561   1.443   5.185  0.2033  0.5874  0.2548
 8796TIP3    H126352   6.466   1.431   5.186  0.1973  0.4982 -0.5282
 8796TIP3    H226353   6.592   1.400   5.265 -0.4347  0.8140  0.6288
 8797TIP3   OH226354   3.838   4.122   5.107 -0.3237 -0.2432 -0.9349
 8797TIP3    H126355   3.748   4.088   5.100  0.1012 -1.4895 -0.6474
 8797TIP3    H226356   3.883   4.058   5.163  1.2044 -0.5937 -2.4990
 8798TIP3   OH226357   6.413   4.195   5.820  0.1353  0.1531 -0.2635
 8798TIP3    H126358   6.389   4.209   5.911  0.9631  0.8836 -0.1507
 8798TIP3    H226359   6.509   4.204   5.818  0.0555  1.0101 -1.3397
 8799TIP3   OH226360   1.379   1.690   4.489  0.4286 -0.0043  0.0021
 8799TIP3    H126361   1.318   1.623   4.457  0.8083 -1.4150  2.0403
 8799TIP3    H226362   1.461   1.671   4.443  0.2200 -0.2009 -0.2953
 8800TIP3   OH226363   1.819   6.344   3.879 -0.6059 -0.0751 -0.5376
 8800TIP3    H126364   1.757   6.382   3.816  0.9396 -0.5287 -2.4204
 8800TIP3    H226365   1.879   6.416   3.900 -1.6094  0.3137  1.1431
 8801TIP3   OH226366   1.326   2.269   5.386 -0.2596  0.2089 -0.2956
 8801TIP3    H126367   1.392   2.325   5.426 -1.7379  1.0929  1.0436
 8801TIP3    H226368   1.285   2.225   5.460 -0.6923 -0.8756 -1.1554
 8802TIP3   OH226369   2.332   5.366   0.504 -0.4739  0.0095  0.3828
 8802TIP3    H126370   2.309   5.311   0.428 -0.1626 -0.8807  0.9139
 8802TIP3    H226371   2.275   5.443   0.496 -0.9166 -0.3815 -0.3942
 8803TIP3   OH226372   2.906   0.081   2.063  0.0796  0.2080  0.9815
 8803TIP3    H126373   2.971   0.096   1.995 -0.2297  3.1490  1.2067
 8803TIP3    H226374   2.839   0.026   2.022  1.5647 -1.0016  0.0696
 8804TIP3   OH226375   5.798   4.423   1.893  0.1244  0.8824 -0.0612
 8804TIP3    H126376   5.793   4.512   1.928 -2.0955  0.4382  0.9108
 8804TIP3    H226377   5.826   4.369   1.967  0.4516  0.6058 -0.3770
 8805TIP3   OH226378   6.863   2.176   3.812 -0.1405  0.1238  0.4250
 8805TIP3    H126379   6.941   2.222   3.844 -0.1524  1.0683 -0.7842
 8805TIP3    H226380   6.831   2.232   3.740 -1.2085 -0.8884  0.0831
 8806TIP3   OH226381   1.845   4.582   0.202 -0.0600  0.2276  0.5972
 8806TIP3    H126382   1.907   4.639   0.247  0.1532  0.0378  0.5432
 8806TIP3    H226383   1.868   4.493   0.230  0.7075  0.0244 -0.6469
 8807TIP3   OH226384   0.008   1.233   0.546  0.1650  0.5904  0.8685
 8807TIP3    H126385   0.047   1.213   0.462 -0.0932  0.9259  0.6664
 8807TIP3    H226386   0.032   1.324   0.563 -2.5973  1.6959 -0.4679
 8808TIP3   OH226387   4.511   0.669   0.491 -0.2815  0.3526  0.1173
 8808TIP3    H126388   4.564   0.747   0.477 -0.8065  0.4551 -1.4796
 8808TIP3    H226389   4.574   0.599   0.506  0.1899  1.1265  2.0810
 8809TIP3   OH226390   1.735   2.807   4.752 -0.2464 -0.4228  0.0882
 8809TIP3    H126391   1.718   2.878   4.690 -0.0090 -0.8528 -0.4841
 8809TIP3    H226392   1.779   2.740   4.699 -0.5454 -1.0264  0.5965
 8810TIP3   OH226393   6.465   0.185   4.316  0.9527  0.2332  0.9976
 8810TIP3    H126394   6.410   0.196   4.394 -0.6309 -0.9882  0.1319
 8810TIP3    H226395   6.543   0.237   4.333  0.0960  0.9787  2.8649
 8811TIP3   OH226396   6.381   2.633   5.479 -0.2056  0.2277 -0.2357
 8811TIP3    H126397   6.333   2.714   5.459  0.0536  0.1788 -1.0747
 8811TIP3    H226398   6.316   2.578   5.524 -0.0070  1.4016  1.5881
 8812TIP3   OH226399   0.810   4.702   0.650  0.4750  0.0915  0.0386
 8812TIP3    H126400   0.841   4.618   0.685  1.3971  0.5327  0.2988
 8812TIP3    H226401   0.870   4.722   0.579  0.6860  0.8671  0.4300
 8813TIP3   OH226402   7.069   2.786   0.251 -0.0347 -0.5285  0.4094
 8813TIP3    H126403   7.027   2.700   0.248  1.3556 -1.2223 -0.5239
 8813TIP3    H226404   7.157   2.768   0.282 -0.0927  0.7421  1.3659
 8814TIP3   OH226405   2.953   4.739   4.224  0.3198 -0.1360 -0.0195
 8814TIP3    H126406   2.994   4.824   4.205 -0.0752 -0.3034 -1.7526
 8814TIP3    H226407   3.017   4.674   4.196 -0.6408 -0.3959 -1.7391
 8815TIP3   OH226408   3.179   4.064   3.745  0.0622  0.7435  0.0472
 8815TIP3    H126409   3.202   3.978   3.782 -0.4278  0.2857 -0.6821
 8815TIP3    H226410   3.084   4.064   3.742  0.0774  0.6454 -1.4224
 8816TIP3   OH226411   2.948   5.441   0.284 -0.5014  0.1378  0.3383
 8816TIP3    H126412   3.019   5.381   0.307 -0.8572 -0.2488  0.4558
 8816TIP3    H226413   2.893   5.443   0.363 -0.7915  0.1750  0.1368
 8817TIP3   OH226414   0.446   2.098   1.155  0.6676  0.2001  0.0668
 8817TIP3    H126415   0.523   2.053   1.118  1.1655 -0.0827  1.3941
 8817TIP3    H226416   0.372   2.063   1.105  1.1676 -1.2998  0.3227
 8818TIP3   OH226417   6.820   6.711   5.382  0.2795  0.0565  0.3412
 8818TIP3    H126418   6.849   6.643   5.444  1.0741 -0.4984 -0.6020
 8818TIP3    H226419   6.831   6.793   5.431 -1.8853 -0.5210  1.9461
 8819TIP3   OH226420   2.958   1.318   4.237 -0.3402  0.1737 -0.4113
 8819TIP3    H126421   3.015   1.244   4.257  2.2502  1.9781 -0.5743
 8819TIP3    H226422   2.897   1.284   4.172  1.5708 -1.5115 -1.4496
 8820TIP3   OH226423   4.368   3.422   1.613 -0.3862 -0.0997 -0.1925
 8820TIP3    H126424   4.315   3.363   1.560 -0.2577  0.5954 -1.1293
 8820TIP3    H226425   4.407   3.483   1.550  0.1363  0.4790  0.6575
 8821TIP3   OH226426   1.895   1.582   5.108  0.4336  0.2399 -0.3579
 8821TIP3    H126427   1.952   1.597   5.183  3.1215 -2.2938 -1.6824
 8821TIP3    H226428   1.807   1.599   5.141  1.5586  0.2566  3.0478
 8822TIP3   OH226429   0.879   3.518   0.369  0.4616 -0.1529  0.0153
 8822TIP3    H126430   0.815   3.492   0.435 -0.6516  0.0719 -0.9439
 8822TIP3    H226431   0.964   3.509   0.413 -0.3161  1.9532  2.1504
 8823TIP3   OH226432   1.821   4.020   2.859  0.5656  0.2611 -0.3702
 8823TIP3    H126433   1.911   4.052   2.847  1.1154 -1.2297 -0.5503
 8823TIP3    H226434   1.806   3.965   2.782  0.0024 -0.5704  0.3151
 8824TIP3   OH226435   0.228   1.929   0.305 -0.2717  0.0274  0.0405
 8824TIP3    H126436   0.145   1.973   0.326 -0.9815 -1.0794 -0.3417
 8824TIP3    H226437   0.278   1.933   0.386 -0.0155  2.1268 -0.1717
 8825TIP3   OH226438   2.839   0.063   3.244 -0.2484 -0.5669  0.1357
 8825TIP3    H126439   2.801  -0.010   3.196  1.7647 -0.1274 -2.3657
 8825TIP3    H226440   2.838   0.136   3.181  1.7504  0.3032  1.0215
 8826TIP3   OH226441   3.514   5.985   1.577 -0.1655 -0.2281  0.0839
 8826TIP3    H126442   3.544   6.005   1.665  0.1502  0.7239 -0.2300
 8826TIP3    H226443   3.594   5.983   1.524 -0.3326 -0.9405 -0.1666
 8827TIP3   OH226444   5.954   3.478   5.439 -0.1779 -0.1060 -0.2256
 8827TIP3    H126445   5.954   3.444   5.529 -0.1829  1.0129  0.2125
 8827TIP3    H226446   5.896   3.554   5.443  1.6249  1.3481 -0.6219
 8828TIP3   OH226447   5.271   2.830   1.190 -0.4775 -0.3742  0.3514
 8828TIP3    H126448   5.181   2.836   1.224 -1.2941  0.1270 -1.7288
 8828TIP3    H226449   5.303   2.920   1.192 -0.2127 -0.4716  0.5749
 8829TIP3   OH226450   3.621   3.555   2.874  0.0302  0.7538  0.8839
 8829TIP3    H126451   3.690   3.544   2.940  0.5707  0.8546  0.3430
 8829TIP3    H226452   3.639   3.640   2.834 -0.7414  1.0332  1.1135
 8830TIP3   OH226453   5.283   2.434   0.830 -0.0616 -0.4595 -0.2302
 8830TIP3    H126454   5.241   2.482   0.902  0.4154  0.5045 -0.5841
 8830TIP3    H226455   5.377   2.443   0.847  0.0986  0.8247 -1.6237
 8831TIP3   OH226456   4.417   6.717   3.143  0.2028  0.1950  0.7122
 8831TIP3    H126457   4.453   6.659   3.210 -0.8289  0.4080  1.4855
 8831TIP3    H226458   4.414   6.803   3.185 -1.1055  0.1951  0.6658
 8832TIP3   OH226459   5.659   5.094   1.643 -0.4192  0.2174 -0.0854
 8832TIP3    H126460   5.674   5.008   1.603  1.8938 -0.0751  1.2381
 8832TIP3    H226461   5.694   5.156   1.579  0.3878 -0.0253  0.1131
 8833TIP3   OH226462   0.589   1.559   3.637 -0.2479 -0.2515  0.3014
 8833TIP3    H126463   0.584   1.539   3.731  0.9243 -0.3800  0.3396
 8833TIP3    H226464   0.570   1.653   3.632 -1.1358 -0.4059  0.5746
 8834TIP3   OH226465   3.735   4.509   1.543  0.4031  0.0508 -0.5024
 8834TIP3    H126466   3.783   4.585   1.508 -1.1821  1.6003  0.5072
 8834TIP3    H226467   3.802   4.442   1.556  1.7002  0.8720 -2.4541
 8835TIP3   OH226468   3.221   0.201   4.915  0.6831 -0.1535 -0.1623
 8835TIP3    H126469   3.241   0.220   5.007  0.8723 -2.4684  0.3351
 8835TIP3    H226470   3.292   0.242   4.866  1.3803 -0.1170  0.8383
 8836TIP3   OH226471   1.032   0.121   5.434  0.2043  0.4208  0.4225
 8836TIP3    H126472   1.028   0.061   5.509 -1.9208 -0.4647 -0.3278
 8836TIP3    H226473   0.958   0.180   5.446  0.4123  0.8806 -0.4933
 8837TIP3   OH226474   0.264   6.625   2.964 -0.2953 -0.4520  0.2736
 8837TIP3    H126475   0.217   6.709   2.962 -0.1370 -0.3227  1.4889
 8837TIP3    H226476   0.354   6.647   2.943 -0.6373 -0.6429 -1.6292
 8838TIP3   OH226477   7.064   1.421   4.781 -0.3483  0.0216  0.0662
 8838TIP3    H126478   7.001   1.460   4.720  1.3785 -0.5774 -2.2888
 8838TIP3    H226479   7.025   1.337   4.805 -1.1918  0.3803 -0.0214
 8839TIP3   OH226480   5.803   0.076   2.843  0.3795  0.1242  0.1977
 8839TIP3    H126481   5.754   0.066   2.925  1.1006  0.3000  0.6552
 8839TIP3    H226482   5.832  -0.013   2.822  1.3515  0.2805  0.8608
 8840TIP3   OH226483   4.090   2.396   3.555 -0.2055 -0.0299 -0.0937
 8840TIP3    H126484   4.143   2.321   3.580 -1.4787 -0.5560  1.1373
 8840TIP3    H226485   4.152   2.459   3.519  1.2047 -0.7067  1.0876
 8841TIP3   OH226486   5.978   0.772   2.702  0.3983 -0.1427 -0.6148
 8841TIP3    H126487   5.932   0.760   2.619  0.1259  0.6821 -0.5859
 8841TIP3    H226488   5.990   0.683   2.735 -2.5886 -0.3492  0.1716
 8842TIP3   OH226489   1.725   2.793   1.188 -0.5271 -0.0411 -0.2112
 8842TIP3    H126490   1.680   2.877   1.183 -2.4326 -1.0532 -1.1455
 8842TIP3    H226491   1.709   2.762   1.278  1.4239  1.1854  0.6200
 8843TIP3   OH226492   4.962   5.325   2.996  0.1543 -0.1224 -0.3788
 8843TIP3    H126493   4.879   5.298   2.956  0.1459  2.6062 -2.5515
 8843TIP3    H226494   5.026   5.319   2.925  1.6178 -1.0590  0.9478
 8844TIP3   OH226495   0.550   5.491   2.064 -0.6764 -0.1165  0.2867
 8844TIP3    H126496   0.484   5.478   1.995 -0.7179  1.2259  0.0435
 8844TIP3    H226497   0.531   5.423   2.129 -0.9327 -1.1107 -0.7935
 8845TIP3   OH226498   1.204   0.796   0.315 -0.1988  0.8090 -0.2756
 8845TIP3    H126499   1.148   0.850   0.259  0.2660  1.2278 -0.3395
 8845TIP3    H226500   1.187   0.830   0.404 -0.3597  0.6552 -0.2469
 8846TIP3   OH226501   4.773   0.192   0.345 -0.5094  0.2746  0.5352
 8846TIP3    H126502   4.832   0.246   0.292  0.0343  0.1865  1.0382
 8846TIP3    H226503   4.831   0.138   0.398 -1.0470 -0.6045  0.2544
 8847TIP3   OH226504   2.963   1.387   3.288 -0.6445 -0.1784  0.5616
 8847TIP3    H126505   2.905   1.427   3.353  0.1750  1.9749  0.0511
 8847TIP3    H226506   3.031   1.344   3.341 -1.3841 -0.7174  1.1174
 8848TIP3   OH226507   3.251   1.519   1.625  0.4146 -0.0673  0.5643
 8848TIP3    H126508   3.183   1.541   1.561  0.2140 -1.1520  0.3774
 8848TIP3    H226509   3.313   1.592   1.620  1.3138 -0.8668 -2.1537
 8849TIP3   OH226510   1.192   4.618   0.803  0.0824  0.1759  0.2167
 8849TIP3    H126511   1.151   4.694   0.761 -1.6624 -0.3980  0.8306
 8849TIP3    H226512   1.286   4.633   0.790 -0.2837  0.5784 -2.9274
 8850TIP3   OH226513   1.885   4.520   4.626 -0.5829 -0.4437  0.0281
 8850TIP3    H126514   1.889   4.446   4.686 -1.0150 -0.4745  0.0187
 8850TIP3    H226515   1.924   4.487   4.545 -1.3867 -0.8643 -0.1900
 8851TIP3   OH226516   5.816   3.786   4.232 -0.5285  0.1850 -0.0666
 8851TIP3    H126517   5.885   3.803   4.297  1.1336  0.2305 -1.7402
 8851TIP3    H226518   5.821   3.692   4.215 -2.7267 -0.3424  1.6615
 8852TIP3   OH226519   6.622   0.073   0.198  0.4070 -0.6376  0.1698
 8852TIP3    H126520   6.650   0.157   0.234  1.6651 -1.2838  0.7415
 8852TIP3    H226521   6.574   0.031   0.269  0.7214 -0.8572  0.2533
 8853TIP3   OH226522   3.674   4.390   2.821 -0.3014  0.4398 -0.2465
 8853TIP3    H126523   3.642   4.300   2.815  0.5075  0.0705  0.6961
 8853TIP3    H226524   3.603   4.438   2.862  0.2188 -0.3358  1.6750
 8854TIP3   OH226525   5.802   4.019   0.233 -0.2195  0.0436 -0.2302
 8854TIP3    H126526   5.830   3.927   0.237  0.1476  0.1671  0.0972
 8854TIP3    H226527   5.747   4.024   0.155  1.2379 -0.0546 -1.3065
 8855TIP3   OH226528   0.439   5.154   3.127  0.0556 -0.0214  0.4516
 8855TIP3    H126529   0.388   5.075   3.109 -1.1989  1.0134 -0.7433
 8855TIP3    H226530   0.516   5.146   3.071 -0.1673 -0.3036  0.1832
 8856TIP3   OH226531   6.797   4.381   5.780 -0.1248  0.0210 -0.5270
 8856TIP3    H126532   6.741   4.403   5.706  1.1844  1.4725 -1.1392
 8856TIP3    H226533   6.783   4.452   5.843  3.0121  2.0409 -1.8733
 8857TIP3   OH226534   3.831   6.635   4.320 -0.0453 -0.0346  0.0009
 8857TIP3    H126535   3.797   6.660   4.406  0.9005  0.6655  0.1795
 8857TIP3    H226536   3.806   6.543   4.311 -0.2538 -0.0876  0.9760
 8858TIP3   OH226537   6.969   3.131   1.422  0.0976 -0.1837 -0.0596
 8858TIP3    H126538   6.940   3.128   1.513 -0.0834 -2.4833 -0.1150
 8858TIP3    H226539   6.914   3.198   1.382  0.3309  1.0257  1.5515
 8859TIP3   OH226540   5.718   6.533   5.029 -0.1796  0.8368  0.2043
 8859TIP3    H126541   5.634   6.546   4.986 -0.0967 -2.1469 -1.0790
 8859TIP3    H226542   5.697   6.534   5.122 -1.6793  0.0184 -0.0905
 8860TIP3   OH226543   1.383   2.507   5.894  0.4144  0.5463  0.5031
 8860TIP3    H126544   1.415   2.524   5.805  0.5651 -1.1309  0.2032
 8860TIP3    H226545   1.460   2.520   5.950 -0.2257  4.2087  0.8300
 8861TIP3   OH226546   1.146   5.436   4.020  0.1752 -0.0978 -0.3822
 8861TIP3    H126547   1.203   5.426   3.944  1.1211  2.1261 -0.0410
 8861TIP3    H226548   1.076   5.371   4.007  1.9997 -1.9495 -1.5094
 8862TIP3   OH226549   0.303   4.653   3.347 -0.3578  0.1388 -0.1654
 8862TIP3    H126550   0.299   4.689   3.436  1.4070  0.6075 -0.2490
 8862TIP3    H226551   0.257   4.718   3.293  0.1801  0.7734  0.1346
 8863TIP3   OH226552   6.733   2.223   4.062  0.6166 -0.8696  0.1154
 8863TIP3    H126553   6.721   2.318   4.063  0.3923 -0.8061 -2.1257
 8863TIP3    H226554   6.794   2.208   3.990  1.5483 -2.3769  1.1663
 8864TIP3   OH226555   4.774   3.424   2.881 -0.4988  0.6586 -0.0672
 8864TIP3    H126556   4.868   3.410   2.877 -0.6720 -0.6433  0.0237
 8864TIP3    H226557   4.744   3.416   2.790 -0.4023  2.1481 -0.2556
 8865TIP3   OH226558   3.378   1.255   0.283  0.5217 -0.4000  0.5583
 8865TIP3    H126559   3.378   1.163   0.308  1.0053 -0.1528  1.5318
 8865TIP3    H226560   3.468   1.284   0.297 -0.0914  0.7757  2.5578
 8866TIP3   OH226561   7.022   1.471   3.232 -0.1302  0.3541 -0.3454
 8866TIP3    H126562   7.009   1.565   3.228  1.3690  0.5609 -2.4366
 8866TIP3    H226563   6.937   1.433   3.209 -0.8362  1.1437  0.8636
 8867TIP3   OH226564   3.610   0.146   0.951 -0.1580  0.1466 -0.0387
 8867TIP3    H126565   3.536   0.154   0.890 -0.0591 -0.0118 -0.1772
 8867TIP3    H226566   3.591   0.211   1.019  0.5263  1.4631 -1.0502
 8868TIP3   OH226567   6.232   3.251   4.446  0.7688 -0.1553  0.8484
 8868TIP3    H126568   6.185   3.183   4.495 -0.4238 -0.2865 -0.4191
 8868TIP3    H226569   6.216   3.331   4.496 -0.3350 -0.3045  0.7475
 8869TIP3   OH226570   4.206   6.225   0.396 -0.0535 -0.6782 -0.1170
 8869TIP3    H126571   4.147   6.205   0.469 -1.3792 -0.7342 -1.1702
 8869TIP3    H226572   4.151   6.273   0.334  0.6154 -1.9458 -1.7521
 8870TIP3   OH226573   7.174   4.684   0.685 -0.1917 -0.3580  0.0880
 8870TIP3    H126574   7.269   4.694   0.693 -0.2166  0.5732 -0.6539
 8870TIP3    H226575   7.149   4.746   0.617 -1.1920 -1.3846 -0.5063
 8871TIP3   OH226576   4.799   5.137   2.689 -0.1909  1.0350  0.1691
 8871TIP3    H126577   4.825   5.103   2.603  2.5216 -0.5762  1.4934
 8871TIP3    H226578   4.797   5.232   2.677 -2.7385  0.8135 -2.3151
 8872TIP3   OH226579   6.429   0.313   5.707 -0.1830 -0.0727 -0.5908
 8872TIP3    H126580   6.348   0.363   5.693 -0.1776  0.1828  0.1829
 8872TIP3    H226581   6.452   0.333   5.798  0.6786 -0.2482 -0.7690
 8873TIP3   OH226582   5.123   5.779   3.844 -0.3112 -0.7239  0.3227
 8873TIP3    H126583   5.096   5.689   3.825 -0.7852 -0.5725  0.2781
 8873TIP3    H226584   5.043   5.823   3.871  0.4496 -1.1869  3.8423
 8874TIP3   OH226585   5.988   5.222   5.520  0.6959 -0.5359  0.4453
 8874TIP3    H126586   5.941   5.282   5.462 -0.4929 -1.7647  0.0948
 8874TIP3    H226587   6.073   5.263   5.532  0.1434  0.9060 -0.2885
 8875TIP3   OH226588   6.953   1.824   2.758  0.2586  0.1817 -0.2063
 8875TIP3    H126589   6.999   1.787   2.833 -3.2875  0.2634  2.2488
 8875TIP3    H226590   6.938   1.750   2.700  1.9476 -0.1501 -0.2622
 8876TIP3   OH226591   0.030   4.147   2.036  0.2748  0.2770  0.0372
 8876TIP3    H126592  -0.011   4.124   1.953 -0.2222  1.5391 -0.0953
 8876TIP3    H226593   0.112   4.190   2.012  1.8053 -2.3239  0.3059
 8877TIP3   OH226594   5.200   4.912   5.729 -0.4699  0.2054 -0.1416
 8877TIP3    H126595   5.262   4.838   5.726  1.1155  1.4834 -0.4951
 8877TIP3    H226596   5.172   4.923   5.638 -1.8513 -0.8280  0.1210
 8878TIP3   OH226597   3.610   2.154   3.441 -0.1814 -0.0201  0.5676
 8878TIP3    H126598   3.561   2.166   3.360 -1.4086  0.4722  1.3549
 8878TIP3    H226599   3.545   2.160   3.510  0.5351 -2.1336  1.5488
 8879TIP3   OH226600   2.431   3.440   1.652 -0.3078 -0.2974 -0.4447
 8879TIP3    H126601   2.391   3.391   1.580  1.5862  0.9996 -2.4944
 8879TIP3    H226602   2.362   3.445   1.718 -4.4310  3.3397 -4.3706
 8880TIP3   OH226603   1.139   0.785   3.564  0.3420  0.2687 -0.7723
 8880TIP3    H126604   1.061   0.836   3.588  0.9337  1.1932 -0.7526
 8880TIP3    H226605   1.115   0.695   3.584 -0.6736  0.5490 -0.6265
 8881TIP3   OH226606   3.333   0.285   5.676 -0.1349 -0.2993  0.0356
 8881TIP3    H126607   3.425   0.260   5.682  0.0266  0.5377  1.8137
 8881TIP3    H226608   3.291   0.234   5.746 -0.6159  0.9544  0.6763
 8882TIP3   OH226609   1.422   4.271   5.738  0.2544  0.4368  0.6583
 8882TIP3    H126610   1.465   4.333   5.680 -0.5541 -1.1221 -1.7610
 8882TIP3    H226611   1.476   4.192   5.734 -1.4909 -0.7564 -0.5667
 8883TIP3   OH226612   0.744   3.817   1.398  0.4615  0.2552 -0.0483
 8883TIP3    H126613   0.753   3.876   1.322 -1.6756 -0.3526 -0.8553
 8883TIP3    H226614   0.789   3.863   1.469  2.5430  0.8488 -1.6479
 8884TIP3   OH226615   2.387   5.150   4.916 -0.1143 -0.6038 -0.1362
 8884TIP3    H126616   2.304   5.166   4.870  0.8793 -0.5072 -1.9983
 8884TIP3    H226617   2.452   5.144   4.846  1.0933 -3.1910  1.0973
 8885TIP3   OH226618   6.617   2.007   3.556 -0.1942  0.6783  0.0928
 8885TIP3    H126619   6.646   2.075   3.617  0.5931 -0.3026  0.8546
 8885TIP3    H226620   6.638   1.925   3.601 -1.7463 -0.0783 -0.5047
 8886TIP3   OH226621   3.614   4.926   4.196 -0.0176 -0.3911 -0.7695
 8886TIP3    H126622   3.679   4.857   4.181 -1.0559 -1.9254  1.2804
 8886TIP3    H226623   3.535   4.895   4.150 -0.7665 -1.1044  0.9180
 8887TIP3   OH226624   0.763   4.706   3.865  0.4256 -0.3422 -0.1453
 8887TIP3    H126625   0.711   4.626   3.853 -0.8975  0.2883  1.0040
 8887TIP3    H226626   0.853   4.675   3.872  0.0890 -1.6068 -0.9461
 8888TIP3   OH226627   2.237   0.182   5.064  0.3937 -0.3006 -0.0938
 8888TIP3    H126628   2.212   0.090   5.052 -1.5640 -0.2092  2.3860
 8888TIP3    H226629   2.303   0.180   5.133 -0.3020  0.1859  0.5982
 8889TIP3   OH226630   3.159   1.255   3.428 -0.7897 -0.0541 -0.3230
 8889TIP3    H126631   3.112   1.207   3.496 -1.5519  1.1144 -0.0023
 8889TIP3    H226632   3.223   1.192   3.394 -0.8368 -0.8585  1.0197
 8890TIP3   OH226633   6.803   1.208   3.459  0.0891  0.0660 -0.0892
 8890TIP3    H126634   6.796   1.115   3.439  1.0316 -0.0107 -0.0895
 8890TIP3    H226635   6.897   1.225   3.462 -0.0346  1.4140 -1.9510
 8891TIP3   OH226636   6.624   5.154   2.898  0.3048  0.3617 -0.6053
 8891TIP3    H126637   6.540   5.112   2.882  1.1807 -1.1892 -1.4908
 8891TIP3    H226638   6.667   5.097   2.962  0.9160  0.7883 -0.6290
 8892TIP3   OH226639   6.877   6.436   2.215  0.0458 -0.1997  0.0257
 8892TIP3    H126640   6.886   6.403   2.304  0.0643  1.9867  0.8990
 8892TIP3    H226641   6.798   6.394   2.181 -0.8010  0.0181  1.6253
 8893TIP3   OH226642   3.825   4.719   1.360  1.1115 -0.5670  0.2237
 8893TIP3    H126643   3.920   4.714   1.370  1.2652 -0.7878 -1.1707
 8893TIP3    H226644   3.812   4.769   1.279  0.0292 -0.0527  0.7032
 8894TIP3   OH226645   5.028   3.081   5.800  0.2427 -0.0439 -0.2740
 8894TIP3    H126646   5.003   3.035   5.720  0.3442  0.6865 -0.7279
 8894TIP3    H226647   5.040   3.172   5.774  1.1002  0.0575  0.3995
 8895TIP3   OH226648   3.580   0.638   0.770  0.4690 -0.3856 -0.2558
 8895TIP3    H126649   3.589   0.591   0.688  1.1396 -2.3369  0.8654
 8895TIP3    H226650   3.494   0.614   0.803  0.3554  0.0854 -0.1999
 8896TIP3   OH226651   6.299   0.758   3.605 -0.1225  0.7352  0.0673
 8896TIP3    H126652   6.279   0.761   3.512  0.5191 -1.9174 -0.2375
 8896TIP3    H226653   6.221   0.721   3.646 -0.9316  3.1472  0.8340
 8897TIP3   OH226654   6.192   5.412   2.563  0.5496 -0.6071  0.2373
 8897TIP3    H126655   6.244   5.416   2.643  2.5026  1.5492 -0.9898
 8897TIP3    H226656   6.253   5.382   2.496 -0.9450 -2.0493 -0.5447
 8898TIP3   OH226657   0.161   5.747   2.132 -0.9619  0.4876  0.1401
 8898TIP3    H126658   0.127   5.796   2.207 -0.6548  1.0546 -0.0864
 8898TIP3    H226659   0.114   5.783   2.057 -0.9888  0.1896  0.0127
 8899TIP3   OH226660   4.578   0.679   5.069 -0.2086  0.3513 -0.2178
 8899TIP3    H126661   4.594   0.773   5.080 -0.9349  0.3861  0.7326
 8899TIP3    H226662   4.488   0.667   5.101  0.0270 -0.7318  0.0545
 8900TIP3   OH226663   3.119   4.343   2.606  0.4090 -0.1463 -0.4299
 8900TIP3    H126664   3.213   4.354   2.619  0.1623  0.0579  1.4358
 8900TIP3    H226665   3.098   4.261   2.651 -0.1594 -0.7503 -1.7389
 8901TIP3   OH226666   3.661   3.480   3.722 -0.2671  0.2953 -0.3248
 8901TIP3    H126667   3.581   3.496   3.672 -0.9205 -0.4396  0.4751
 8901TIP3    H226668   3.710   3.563   3.715 -1.9762  1.4530  0.7984
 8902TIP3   OH226669   3.688   6.046   1.795  0.9289 -0.4891  0.2617
 8902TIP3    H126670   3.760   6.061   1.733  0.3143  0.9016 -0.1744
 8902TIP3    H226671   3.723   6.076   1.879  0.5092  1.4143 -0.1756
 8903TIP3   OH226672   4.452   2.423   2.843 -0.5935 -0.3096 -0.1458
 8903TIP3    H126673   4.513   2.437   2.915 -1.5716  0.1272  0.6171
 8903TIP3    H226674   4.377   2.480   2.863 -1.2100 -0.7483 -1.1122
 8904TIP3   OH226675   6.481   0.788   3.178  0.1974 -0.6788  0.3873
 8904TIP3    H126676   6.571   0.762   3.198  1.2979  2.9837  1.0239
 8904TIP3    H226677   6.434   0.781   3.262  0.5580 -0.3687  0.6193
 8905TIP3   OH226678   3.436   1.866   1.131 -0.0030  0.4696  1.0271
 8905TIP3    H126679   3.363   1.819   1.169  0.0475 -0.6857 -0.2224
 8905TIP3    H226680   3.405   1.956   1.121 -0.3004  0.6046  2.9238
 8906TIP3   OH226681   0.525   6.621   1.174  0.3801  0.1175  0.2989
 8906TIP3    H126682   0.601   6.580   1.215 -0.9643  0.5527  3.5124
 8906TIP3    H226683   0.551   6.712   1.158  0.9806 -0.1028  0.0062
 8907TIP3   OH226684   2.662   0.780   3.598 -0.5144  0.2307 -0.3350
 8907TIP3    H126685   2.634   0.866   3.629  0.8693  0.3553  0.6549
 8907TIP3    H226686   2.714   0.799   3.520 -1.6248  0.1411 -1.1126
 8908TIP3   OH226687   5.296   3.895   1.816  0.3917 -0.2504  0.7121
 8908TIP3    H126688   5.303   3.914   1.910 -1.0830  0.5994  0.6791
 8908TIP3    H226689   5.326   3.976   1.773 -2.2852  0.7458  0.5310
 8909TIP3   OH226690   5.321   3.309   4.031 -0.4909 -0.6806 -0.6178
 8909TIP3    H126691   5.328   3.216   4.013  1.1024 -0.8560  0.7307
 8909TIP3    H226692   5.371   3.351   3.961 -1.2944 -0.8173 -1.2818
 8910TIP3   OH226693   3.648   1.081   0.833  0.1067 -0.2194  0.1575
 8910TIP3    H126694   3.725   1.102   0.886  0.6849  2.0002 -1.3951
 8910TIP3    H226695   3.682   1.028   0.761 -0.3135 -1.4638  0.8515
 8911TIP3   OH226696   7.000   1.015   5.122 -0.3559 -0.0827 -0.1281
 8911TIP3    H126697   6.971   1.077   5.189 -1.3273  0.5111 -1.0802
 8911TIP3    H226698   7.095   1.010   5.135 -0.3886  0.8057  0.6297
 8912TIP3   OH226699   2.121   1.792   3.461  0.2204 -0.2938  0.1253
 8912TIP3    H126700   2.084   1.711   3.425 -3.0213  1.4869 -0.8832
 8912TIP3    H226701   2.069   1.808   3.540 -1.0938  2.1505 -1.1569
 8913TIP3   OH226702   0.160   6.133   4.206  0.1577  0.6877 -0.0981
 8913TIP3    H126703   0.188   6.103   4.119  0.1737 -2.0525  0.7476
 8913TIP3    H226704   0.065   6.137   4.201  0.1067 -0.2685 -0.0385
 8914TIP3   OH226705   5.095  -0.009   2.710  0.2430 -0.1645 -0.5455
 8914TIP3    H126706   5.132   0.007   2.623 -1.5486  0.7570 -1.2009
 8914TIP3    H226707   5.151   0.042   2.770  1.1794 -0.3791 -1.2152
 8915TIP3   OH226708   4.663   0.506   4.879 -0.0426  0.1046  0.2280
 8915TIP3    H126709   4.633   0.575   4.938 -0.9524  1.6215 -1.8904
 8915TIP3    H226710   4.709   0.553   4.809  0.0977 -1.5228 -0.8237
 8916TIP3   OH226711   3.198   3.884   3.473  0.6124  0.5536 -0.5424
 8916TIP3    H126712   3.107   3.866   3.494  0.7648  1.1139  0.6594
 8916TIP3    H226713   3.209   3.851   3.383 -0.7379  0.4159 -0.6750
 8917TIP3   OH226714   4.624   2.400   5.825 -0.1124 -0.2694  0.0991
 8917TIP3    H126715   4.576   2.344   5.886  0.9621 -1.4029 -0.0498
 8917TIP3    H226716   4.699   2.432   5.876 -1.5328  2.3975  0.6821
 8918TIP3   OH226717   0.808   1.691   4.574  0.0429  0.1853  0.6201
 8918TIP3    H126718   0.714   1.707   4.589  0.1378  0.1321  1.3198
 8918TIP3    H226719   0.851   1.732   4.648  0.6836  1.3344 -0.3647
 8919TIP3   OH226720   1.692   3.008   3.217 -0.6154  0.5315  0.2166
 8919TIP3    H126721   1.625   2.958   3.172  0.4424 -0.3630 -0.4233
 8919TIP3    H226722   1.737   2.944   3.272  1.0959  0.6117 -0.9999
 8920TIP3   OH226723   1.257   5.662   0.031  0.0219  0.7099  0.5127
 8920TIP3    H126724   1.170   5.696   0.054 -0.1223 -0.7086  2.2825
 8920TIP3    H226725   1.318   5.716   0.081  0.0495  0.6662  0.5260
 8921TIP3   OH226726   5.219   4.746   3.371  0.3631 -0.0628 -0.9132
 8921TIP3    H126727   5.293   4.686   3.358  1.0951  0.2715  1.3486
 8921TIP3    H226728   5.222   4.768   3.464 -1.8751  0.9391 -1.0278
 8922TIP3   OH226729   0.769   2.836   1.766 -0.8067 -0.1162  0.6308
 8922TIP3    H126730   0.696   2.775   1.778  0.2801 -1.7542 -0.6386
 8922TIP3    H226731   0.841   2.782   1.735  0.2027  1.8212 -0.6565
 8923TIP3   OH226732   4.548   0.928   4.969  0.2725  0.0929 -0.2034
 8923TIP3    H126733   4.478   0.993   4.978 -0.9483 -1.0296 -1.1336
 8923TIP3    H226734   4.553   0.911   4.875 -0.8802 -2.5722  0.1035
 8924TIP3   OH226735   4.173   0.627   3.823  0.1390  0.3474 -0.2107
 8924TIP3    H126736   4.143   0.667   3.742 -1.4782 -1.4346 -0.5401
 8924TIP3    H226737   4.259   0.668   3.839 -0.5607  2.4902 -1.4847
 8925TIP3   OH226738   5.730   0.258   0.025  0.4692  0.6536  0.1743
 8925TIP3    H126739   5.734   0.263   0.120  1.3924  0.2790  0.1638
 8925TIP3    H226740   5.638   0.239   0.006  0.5980 -1.1667  1.1075
 8926TIP3   OH226741   3.585   5.292   2.316  0.3512  0.1152  0.0720
 8926TIP3    H126742   3.569   5.229   2.386  0.9130  1.1013  1.1156
 8926TIP3    H226743   3.582   5.377   2.360  1.1067  0.7265 -1.0374
 8927TIP3   OH226744   0.028   4.759   4.169 -0.3637 -0.3516  0.0311
 8927TIP3    H126745   0.018   4.795   4.257 -4.2383  0.8384 -0.7109
 8927TIP3    H226746  -0.006   4.670   4.175  0.3026 -0.6265 -0.1136
 8928TIP3   OH226747   0.375   3.159   0.767  0.2424  0.7411  0.0100
 8928TIP3    H126748   0.339   3.229   0.713 -1.7645  1.3107  1.9585
 8928TIP3    H226749   0.360   3.079   0.716  0.1072  1.4389 -1.0652
 8929TIP3   OH226750   6.173   6.495   0.996  0.1433 -0.5662  0.5393
 8929TIP3    H126751   6.170   6.410   0.953 -0.4725 -0.2726 -0.0102
 8929TIP3    H226752   6.217   6.478   1.080  3.7059 -0.6903 -1.1834
 8930TIP3   OH226753   6.270   5.315   5.492  0.4418 -0.6392  0.2236
 8930TIP3    H126754   6.224   5.398   5.499  2.0572  0.3159 -0.0272
 8930TIP3    H226755   6.288   5.305   5.399  2.0815 -0.2157  0.4732
 8931TIP3   OH226756   4.303   5.910   2.493  0.3259 -0.3217 -0.4338
 8931TIP3    H126757   4.217   5.875   2.469  0.4137  0.0537 -1.3543
 8931TIP3    H226758   4.299   5.922   2.588 -0.1611 -1.5702 -0.2796
 8932TIP3   OH226759   0.156   3.044   3.293 -0.3436 -1.0448  0.0256
 8932TIP3    H126760   0.119   2.957   3.278 -3.5195  0.2115 -0.0243
 8932TIP3    H226761   0.142   3.091   3.211  1.9154 -0.5883 -0.1753
 8933TIP3   OH226762   4.400   0.408   4.908  0.3283 -0.3671  0.3000
 8933TIP3    H126763   4.491   0.418   4.881  0.2495  0.4359  0.3173
 8933TIP3    H226764   4.369   0.497   4.924  0.4100 -0.7807  3.2481
 8934TIP3   OH226765   5.277   2.624   4.625  0.8735 -0.0305  0.1132
 8934TIP3    H126766   5.236   2.683   4.689  1.9604 -0.2766  1.0694
 8934TIP3    H226767   5.354   2.589   4.670  1.6397 -0.2673 -1.3129
 8935TIP3   OH226768   6.552   4.346   2.626 -0.4963  0.1299  0.2253
 8935TIP3    H126769   6.545   4.297   2.544  1.3028  0.2874 -0.0658
 8935TIP3    H226770   6.616   4.415   2.608  0.5282 -0.2956  1.9600
 8936TIP3   OH226771   3.576   4.130   5.081 -0.3868 -0.1808 -0.6648
 8936TIP3    H126772   3.580   4.147   4.987 -0.6695 -0.5317 -0.7418
 8936TIP3    H226773   3.571   4.217   5.121  2.1603  0.1267 -0.8201
 8937TIP3   OH226774   4.204   3.232   4.890 -0.2325 -0.2004  0.2990
 8937TIP3    H126775   4.245   3.317   4.881 -1.3262  0.1778 -2.0606
 8937TIP3    H226776   4.112   3.247   4.867  0.1455 -2.4314 -3.7617
 8938TIP3   OH226777   6.043   6.343   5.421  0.1181 -0.4454  0.2608
 8938TIP3    H126778   6.015   6.426   5.460 -1.6912  0.1530 -2.1261
 8938TIP3    H226779   6.067   6.289   5.496  1.1107  2.1044  1.9189
 8939TIP3   OH226780   0.322   5.013   1.674  0.1407 -0.5013  0.2725
 8939TIP3    H126781   0.404   5.014   1.722 -0.3937  0.0888  1.2066
 8939TIP3    H226782   0.335   5.076   1.603  0.9482 -1.4083 -0.4059
 8940TIP3   OH226783   1.062   2.800   1.816  0.1002 -0.1439 -0.0936
 8940TIP3    H126784   1.003   2.835   1.884 -0.9418 -1.6243 -0.2001
 8940TIP3    H226785   1.044   2.855   1.739 -1.8997 -1.1761 -0.4125
 8941TIP3   OH226786   3.719   0.216   1.732  0.1872 -0.0719  0.0321
 8941TIP3    H126787   3.637   0.247   1.770 -0.5509 -1.0709 -0.7231
 8941TIP3    H226788   3.717   0.247   1.642  1.8449  2.1199  0.6528
 8942TIP3   OH226789   3.693   1.880   3.567  0.4394  0.5163 -0.1823
 8942TIP3    H126790   3.715   1.922   3.650  0.9232  0.3386 -0.2206
 8942TIP3    H226791   3.657   1.951   3.513  1.8024  1.0307 -0.4615
 8943TIP3   OH226792   1.598   5.183   0.892  0.1035  0.1670  0.0052
 8943TIP3    H126793   1.581   5.164   0.800 -0.3909 -1.4298  0.3949
 8943TIP3    H226794   1.564   5.272   0.905 -0.7398  0.0271 -1.1076
 8944TIP3   OH226795   3.473   2.437   5.886 -0.8119  0.1214 -0.4739
 8944TIP3    H126796   3.401   2.483   5.929 -0.3295  0.6393 -0.2115
 8944TIP3    H226797   3.434   2.401   5.806 -1.5591 -0.3130  0.0768
 8945TIP3   OH226798   5.095   1.452   5.281  0.5178 -0.4130  0.3603
 8945TIP3    H126799   5.049   1.370   5.294  0.2694 -0.3580 -0.1498
 8945TIP3    H226800   5.123   1.450   5.189 -2.2275  1.4160 -0.6489
 8946TIP3   OH226801   0.273   3.879   2.737  0.6171 -0.4841 -0.3893
 8946TIP3    H126802   0.243   3.875   2.646  0.5270 -1.9798 -0.3259
 8946TIP3    H226803   0.288   3.972   2.754  0.2018 -0.1418 -1.7888
 8947TIP3   OH226804   4.846   2.194   5.796  0.1854  0.1511  0.0504
 8947TIP3    H126805   4.860   2.242   5.715  0.6039  1.0491  0.6384
 8947TIP3    H226806   4.924   2.210   5.848  0.5360 -1.5390  0.1082
 8948TIP3   OH226807   1.904   4.391   4.992  0.3612 -0.5035  0.5466
 8948TIP3    H126808   1.938   4.354   4.910  0.3483 -2.1750  1.2588
 8948TIP3    H226809   1.809   4.398   4.976  0.5445  0.7603 -0.1464
 8949TIP3   OH226810   1.922   1.858   0.696  0.4025 -0.3565 -0.3819
 8949TIP3    H126811   1.899   1.909   0.619  0.6976  1.6847  0.8033
 8949TIP3    H226812   2.017   1.855   0.696  0.3918 -0.6956 -0.3187
 8950TIP3   OH226813   3.201   5.501   3.850 -0.9032 -0.1234  0.4691
 8950TIP3    H126814   3.164   5.588   3.841 -1.2148 -0.3219 -0.2151
 8950TIP3    H226815   3.229   5.477   3.762 -2.4634 -1.4339  0.2834
 8951TIP3   OH226816   2.971   0.020   2.335 -0.2338 -0.2399 -0.0137
 8951TIP3    H126817   2.936   0.068   2.259  0.2048 -0.3691 -0.3002
 8951TIP3    H226818   2.904  -0.046   2.353 -0.7215  0.3036  0.2196
 8952TIP3   OH226819   6.020   2.409   1.270  0.2658 -0.6218 -0.3221
 8952TIP3    H126820   6.070   2.389   1.349  1.1736  2.1875 -0.0456
 8952TIP3    H226821   6.075   2.377   1.198  1.0573 -0.2638  0.1018
 8953TIP3   OH226822   1.173   1.954   4.929  0.1914  0.3949  0.7171
 8953TIP3    H126823   1.121   1.895   4.875  0.1664 -0.0948  1.2685
 8953TIP3    H226824   1.263   1.943   4.898 -0.1362  2.1717 -1.1021
 8954TIP3   OH226825   0.361   1.684   0.013  0.0455  0.8449 -0.7517
 8954TIP3    H126826   0.301   1.751   0.046  0.4967  0.7698  0.2800
 8954TIP3    H226827   0.376   1.627   0.089  0.2281 -0.0116 -1.4153
 8955TIP3   OH226828   1.038   0.671   1.419  0.3856 -0.5408  0.0572
 8955TIP3    H126829   0.978   0.742   1.395 -0.9495 -1.6315  0.0438
 8955TIP3    H226830   0.990   0.591   1.397  1.4566 -1.4673  0.9865
 8956TIP3   OH226831   0.424   1.265   4.874  0.3761  0.1681  0.0592
 8956TIP3    H126832   0.387   1.344   4.835 -0.4653  0.2342  0.9400
 8956TIP3    H226833   0.436   1.287   4.966 -1.8559 -1.3502  0.7981
 8957TIP3   OH226834   0.043   1.170   2.728  0.6516  0.4622 -0.3062
 8957TIP3    H126835  -0.026   1.169   2.661  3.1480 -0.1214 -3.0453
 8957TIP3    H226836   0.045   1.261   2.757  2.0086  1.7968 -3.9934
 8958TIP3   OH226837   6.126   3.755   4.176 -0.2463 -0.2385  0.3714
 8958TIP3    H126838   6.081   3.690   4.122 -0.3984  0.2772 -0.1280
 8958TIP3    H226839   6.084   3.748   4.262  0.1904 -1.2570  0.5133
 8959TIP3   OH226840   0.582   5.848   0.677  0.2331 -0.7652 -0.0471
 8959TIP3    H126841   0.595   5.856   0.582  0.4400 -0.1923  0.0271
 8959TIP3    H226842   0.601   5.936   0.711  0.8838 -1.1577  0.6162
 8960TIP3   OH226843   5.753   4.061   5.797  0.2014 -0.0319 -0.1626
 8960TIP3    H126844   5.815   3.995   5.766  0.6385  0.0022  0.6076
 8960TIP3    H226845   5.790   4.091   5.881  0.4667  1.8085 -0.8871
 8961TIP3   OH226846   1.230   0.604   0.647 -0.0336 -0.2466 -0.7981
 8961TIP3    H126847   1.301   0.666   0.632  0.4959  0.5691  3.6418
 8961TIP3    H226848   1.273   0.530   0.690 -1.6321 -0.1927  1.0111
 8962TIP3   OH226849   0.571   3.400   1.714 -0.1021  0.1171 -0.2681
 8962TIP3    H126850   0.578   3.308   1.690 -0.2404  0.3395 -1.2163
 8962TIP3    H226851   0.654   3.421   1.757 -0.9191 -1.0048  2.0165
 8963TIP3   OH226852   6.726   0.875   1.932  0.0209 -0.0042  0.0812
 8963TIP3    H126853   6.742   0.817   1.858  2.1268 -0.5833  0.9239
 8963TIP3    H226854   6.714   0.961   1.893 -2.6254 -0.8249 -1.1549
 8964TIP3   OH226855   0.040   6.624   0.712  0.6769  0.1474 -0.1751
 8964TIP3    H126856  -0.047   6.592   0.737  0.8190 -1.4647 -1.5641
 8964TIP3    H226857   0.100   6.583   0.774  0.5662  0.1550 -0.0642
 8965TIP3   OH226858   1.962   3.606   3.359  0.1778  0.3631 -0.0091
 8965TIP3    H126859   1.951   3.585   3.267 -1.2229  0.0378  0.2081
 8965TIP3    H226860   2.056   3.608   3.373  0.3936  0.0239 -1.3525
 8966TIP3   OH226861   2.791   5.865   5.624  0.0339 -0.6817 -0.2728
 8966TIP3    H126862   2.765   5.923   5.553 -0.3924 -0.4235  0.0892
 8966TIP3    H226863   2.852   5.917   5.677  0.0139 -0.7246 -0.2067
 8967TIP3   OH226864   2.753   6.512   3.588 -0.4354  0.1273  0.3322
 8967TIP3    H126865   2.677   6.569   3.599 -1.5614 -1.1299 -0.5641
 8967TIP3    H226866   2.758   6.463   3.670 -0.2995  0.5399  0.5740
 8968TIP3   OH226867   2.337   4.647   2.117 -0.0754 -0.2882 -0.1702
 8968TIP3    H126868   2.371   4.692   2.194  2.2387 -2.7124  0.3656
 8968TIP3    H226869   2.347   4.710   2.046  1.7116  0.5684  0.7723
 8969TIP3   OH226870   4.654   3.248   3.462 -0.2631  0.6297 -0.4242
 8969TIP3    H126871   4.606   3.268   3.382  1.5219  0.9876 -1.4613
 8969TIP3    H226872   4.705   3.170   3.440 -0.1533  0.4202  0.5386
 8970TIP3   OH226873   7.009   6.636   4.145  0.2305 -0.3335  0.1354
 8970TIP3    H126874   6.981   6.709   4.090 -1.1014 -0.9311 -0.0120
 8970TIP3    H226875   7.036   6.568   4.083 -2.1588 -1.3605  0.1124
 8971TIP3   OH226876   5.554   0.684   0.750 -1.2230  0.4145 -0.0464
 8971TIP3    H126877   5.579   0.771   0.782  1.9609  0.3054 -1.7903
 8971TIP3    H226878   5.462   0.674   0.775 -0.7534  2.8145  3.2604
 8972TIP3   OH226879   2.642   6.056   4.051  0.2476 -0.5602 -0.5347
 8972TIP3    H126880   2.558   6.100   4.065  0.2615 -1.0130  1.2734
 8972TIP3    H226881   2.634   6.016   3.965 -1.7264 -1.2891 -0.0607
 8973TIP3   OH226882   0.496   1.094   3.789 -0.5093  0.1701 -0.2987
 8973TIP3    H126883   0.454   1.179   3.775 -0.8923  0.0910  0.3471
 8973TIP3    H226884   0.424   1.031   3.788 -0.3134 -0.0617 -0.0403
 8974TIP3   OH226885   6.696   4.769   4.774 -0.0610  0.1725  0.3318
 8974TIP3    H126886   6.710   4.703   4.842  1.5578 -0.5179 -0.6274
 8974TIP3    H226887   6.783   4.784   4.737 -0.6265  1.8848 -0.3595
 8975TIP3   OH226888   3.234   0.144   0.461  0.5416 -0.2131 -0.1081
 8975TIP3    H126889   3.199   0.067   0.416 -1.9514 -0.0480  1.3981
 8975TIP3    H226890   3.262   0.112   0.546  1.8233  0.1336 -0.3776
 8976TIP3   OH226891   0.806   2.601   4.067  0.4317  0.0652 -0.1928
 8976TIP3    H126892   0.812   2.694   4.043  0.2162  0.2743  0.5181
 8976TIP3    H226893   0.777   2.557   3.987 -2.0357  0.9764  0.0957
 8977TIP3   OH226894   2.859   2.463   0.099 -0.4366 -0.7386  0.3287
 8977TIP3    H126895   2.932   2.405   0.078 -0.2266 -0.1786 -0.5205
 8977TIP3    H226896   2.852   2.459   0.195  0.9430 -0.4983  0.4521
 8978TIP3   OH226897   6.217   0.047   0.129  0.0190 -0.1156 -0.6155
 8978TIP3    H126898   6.219   0.143   0.125 -0.3570 -0.0580  0.3788
 8978TIP3    H226899   6.127   0.025   0.105  0.4833 -0.3231 -2.3154
 8979TIP3   OH226900   2.194   6.687   1.184 -0.5324 -1.1061  0.2751
 8979TIP3    H126901   2.284   6.662   1.162 -0.5064 -0.4750 -0.3988
 8979TIP3    H226902   2.200   6.725   1.272 -0.1923 -1.3754  0.3693
 8980TIP3   OH226903   5.588   4.691   2.583  0.4907 -0.0511  0.2783
 8980TIP3    H126904   5.538   4.747   2.643  0.5185 -2.3268  2.6175
 8980TIP3    H226905   5.673   4.734   2.574 -1.1731  3.1249 -2.5946
 8981TIP3   OH226906   2.897   1.774   4.516 -0.1477 -0.3076  0.1753
 8981TIP3    H126907   2.921   1.693   4.471  2.0342  0.2041  0.3039
 8981TIP3    H226908   2.894   1.749   4.608  3.5684  0.2302  0.6171
 8982TIP3   OH226909   5.668   2.579   3.858  0.3214 -0.8497  0.1335
 8982TIP3    H126910   5.600   2.570   3.792  0.3696  2.1072 -0.4847
 8982TIP3    H226911   5.634   2.647   3.917  1.0113 -2.2302  2.2110
 8983TIP3   OH226912   4.215   6.209   4.599 -0.0357 -0.0663 -0.7194
 8983TIP3    H126913   4.177   6.295   4.583 -1.3122 -0.1042  1.5668
 8983TIP3    H226914   4.142   6.148   4.587 -0.5095 -0.2822  2.3397
 8984TIP3   OH226915   0.275   2.248   3.230 -0.3207 -0.3561  0.3872
 8984TIP3    H126916   0.329   2.179   3.192  0.5339  0.5405 -0.0929
 8984TIP3    H226917   0.185   2.222   3.210  0.0685  0.1953 -2.6373
 8985TIP3   OH226918   0.795   1.023   0.022 -0.1764 -0.2022  0.2294
 8985TIP3    H126919   0.888   1.011   0.040  0.4222  1.9143 -1.0768
 8985TIP3    H226920   0.767   1.088   0.087 -0.4229  0.0620 -0.1338
 8986TIP3   OH226921   5.428   4.567   3.331  0.3020  0.4234  0.1714
 8986TIP3    H126922   5.436   4.515   3.251  0.4624  1.4024 -0.4658
 8986TIP3    H226923   5.386   4.509   3.394  0.5874 -0.5108 -0.4838
 8987TIP3   OH226924   0.976   4.814   5.274 -0.0998  0.1302 -0.5474
 8987TIP3    H126925   1.035   4.818   5.199 -0.5941  0.2885 -0.9397
 8987TIP3    H226926   0.938   4.902   5.280 -0.0628  0.1186 -0.1105
 8988TIP3   OH226927   1.974   2.615   1.418 -0.1146 -0.5113  0.0459
 8988TIP3    H126928   1.983   2.690   1.358 -0.4934 -0.1930  0.3809
 8988TIP3    H226929   1.972   2.655   1.505 -0.7375 -0.8829  0.2013
 8989TIP3   OH226930   6.765   5.537   3.900  0.0481 -0.3710  0.1480
 8989TIP3    H126931   6.730   5.510   3.815 -1.4164  0.4510  0.4493
 8989TIP3    H226932   6.740   5.629   3.907  0.4453 -0.3456  1.3225
 8990TIP3   OH226933   4.074   3.073   3.441 -0.4765 -0.0610 -0.0266
 8990TIP3    H126934   4.094   3.065   3.534 -1.8524 -2.0213  0.1594
 8990TIP3    H226935   3.983   3.044   3.433 -0.5080  0.3975 -1.9477
 8991TIP3   OH226936   2.548   6.754   5.771 -0.5686 -0.4625 -0.5354
 8991TIP3    H126937   2.580   6.787   5.687  1.1191 -0.2676  0.1498
 8991TIP3    H226938   2.503   6.673   5.749 -1.2210  0.1907 -1.7541
 8992TIP3   OH226939   6.439   3.105   5.380 -0.3367 -0.1352 -0.5722
 8992TIP3    H126940   6.362   3.049   5.389 -1.1863  1.0048 -0.5142
 8992TIP3    H226941   6.455   3.138   5.468 -0.5046  0.5422 -0.7878
 8993TIP3   OH226942   6.060   4.140   5.358 -0.4380 -0.1659 -0.3471
 8993TIP3    H126943   6.091   4.060   5.400  0.6379 -0.3353 -1.3924
 8993TIP3    H226944   6.112   4.147   5.278 -1.6430  0.7280 -1.0946
 8994TIP3   OH226945   3.304   5.036   1.076  0.3245  0.0434  0.0911
 8994TIP3    H126946   3.272   5.115   1.119  1.1187 -0.6381  2.0484
 8994TIP3    H226947   3.227   4.981   1.067  0.0645  0.3869  0.1961
 8995TIP3   OH226948   4.442   2.320   5.640 -0.0818  0.0180  0.1888
 8995TIP3    H126949   4.356   2.339   5.677 -0.1507 -1.5829  0.9372
 8995TIP3    H226950   4.504   2.354   5.704 -0.1898 -1.0382  0.8718
 8996TIP3   OH226951   1.002   2.013   0.310  0.0345  0.6231  0.5934
 8996TIP3    H126952   0.951   2.084   0.348  1.1377  1.5395  0.4128
 8996TIP3    H226953   0.942   1.972   0.247 -1.2983  0.0430  2.1696
 8997TIP3   OH226954   4.230   0.733   0.342 -0.2722  0.6537 -0.3667
 8997TIP3    H126955   4.317   0.769   0.361  0.2009 -0.3164 -0.6013
 8997TIP3    H226956   4.248   0.658   0.285 -1.3046  0.7084 -0.7763
 8998TIP3   OH226957   4.061   6.614   2.332 -0.1393  0.6141  0.0403
 8998TIP3    H126958   4.014   6.615   2.415  1.6189 -1.0504  1.1454
 8998TIP3    H226959   4.028   6.537   2.287 -0.8981  1.3655 -0.7179
 8999TIP3   OH226960   6.733   0.692   0.986  0.2722  0.8631  0.3303
 8999TIP3    H126961   6.719   0.740   0.905  0.8497 -1.7293 -1.4028
 8999TIP3    H226962   6.826   0.667   0.984  0.4223  1.1079  2.0486
 9000TIP3   OH226963   2.136   3.605   4.552 -0.5751 -0.4950  0.0781
 9000TIP3    H126964   2.209   3.658   4.521 -1.3224  0.2098 -0.5134
 9000TIP3    H226965   2.061   3.635   4.501 -1.1026 -1.8471  0.0279
 9001TIP3   OH226966   4.232   3.056   4.402 -0.6332 -0.2772  0.2729
 9001TIP3    H126967   4.208   3.032   4.313 -3.6230 -0.0014  0.8993
 9001TIP3    H226968   4.256   3.148   4.396  1.5750 -0.8559 -0.5797
 9002TIP3   OH226969   3.941   6.289   0.789  0.2185 -0.8834 -0.3246
 9002TIP3    H126970   4.022   6.314   0.834 -0.8915  1.5858  0.5098
 9002TIP3    H226971   3.970   6.244   0.710  2.5505  1.9162 -1.2173
 9003TIP3   OH226972   1.816   1.792   2.475 -0.5116  0.3683 -0.1819
 9003TIP3    H126973   1.825   1.853   2.402  0.7735  1.2399  0.6590
 9003TIP3    H226974   1.874   1.719   2.452 -0.1874  0.5940 -0.0872
 9004TIP3   OH226975   1.501   3.882   4.596 -0.2446  0.3779 -0.1664
 9004TIP3    H126976   1.574   3.832   4.633 -0.7198  0.2228  0.5867
 9004TIP3    H226977   1.423   3.836   4.627 -0.6873  1.4711  0.3781
 9005TIP3   OH226978   1.505   6.582   1.752 -0.0289 -0.1692 -0.0154
 9005TIP3    H126979   1.527   6.602   1.843 -0.6040 -2.1848  0.6318
 9005TIP3    H226980   1.551   6.500   1.734  0.4240  0.4193 -1.7168
 9006TIP3   OH226981   2.757   5.761   2.633 -0.3776 -0.1955  0.0063
 9006TIP3    H126982   2.714   5.841   2.604 -1.4804 -0.3720  1.0534
 9006TIP3    H226983   2.730   5.751   2.724  1.0875 -0.8800  0.3970
 9007TIP3   OH226984   3.096   4.486   0.244  0.4344  0.2490 -0.7697
 9007TIP3    H126985   3.099   4.494   0.340  0.0291  1.5181 -0.8437
 9007TIP3    H226986   3.129   4.569   0.212  0.2739 -0.0465 -1.7417
 9008TIP3   OH226987   3.206   6.476   1.804  0.3961 -0.7108 -0.6439
 9008TIP3    H126988   3.231   6.411   1.870  1.2553  1.1525  0.9828
 9008TIP3    H226989   3.113   6.460   1.787  0.2179 -1.3879  0.8655
 9009TIP3   OH226990   4.904   6.104   2.458  0.3972 -0.1009  0.7490
 9009TIP3    H126991   4.876   6.165   2.526 -0.2983 -0.0312  0.4004
 9009TIP3    H226992   4.979   6.059   2.497 -0.8752 -1.0991  2.1554
 9010TIP3   OH226993   0.867   0.127   0.607  0.2244 -0.4181  0.1699
 9010TIP3    H126994   0.930   0.188   0.568  2.5351 -1.4872  1.9782
 9010TIP3    H226995   0.914   0.089   0.681 -1.3034 -3.9147 -0.4614
 9011TIP3   OH226996   0.896   0.428   1.300 -0.0903  0.2502  0.3152
 9011TIP3    H126997   0.990   0.410   1.299 -0.0822  0.3009 -0.2406
 9011TIP3    H226998   0.879   0.473   1.217 -0.9652 -1.6009 -0.5641
 9012TIP3   OH226999   6.162   2.360   1.482  0.0895 -0.1444 -0.0317
 9012TIP3    H127000   6.176   2.303   1.557 -0.5995  0.7355  0.7946
 9012TIP3    H227001   6.196   2.446   1.511  0.8672 -0.0567 -1.1459
 9013TIP3   OH227002   6.426   3.730   2.926  0.3376 -0.0483 -0.4830
 9013TIP3    H127003   6.406   3.795   2.994 -0.4279 -0.1040 -0.6486
 9013TIP3    H227004   6.514   3.698   2.949  0.4934  0.6465 -0.0891
 9014TIP3   OH227005   2.872   4.768   5.339  0.3639 -0.3434  0.4723
 9014TIP3    H127006   2.916   4.814   5.267 -0.1441 -1.9031 -0.8778
 9014TIP3    H227007   2.798   4.824   5.362  2.0530  1.5316  1.7109
 9015TIP3   OH227008   4.668   1.029   3.312  0.1702 -0.1188  0.1041
 9015TIP3    H127009   4.618   1.106   3.284  0.8553  0.4711  0.4569
 9015TIP3    H227010   4.626   0.956   3.268  0.7226  0.6793 -1.9014
 9016TIP3   OH227011   3.050   1.076   0.576 -0.4632 -0.1951  0.0041
 9016TIP3    H127012   3.103   1.149   0.543 -1.6489  0.7445  0.0939
 9016TIP3    H227013   3.087   1.055   0.661 -1.2812  1.6452  0.8725
 9017TIP3   OH227014   0.930   1.457   1.547  0.1544 -0.0743 -0.6076
 9017TIP3    H127015   1.025   1.462   1.553  0.0233  1.6866  0.4194
 9017TIP3    H227016   0.899   1.472   1.636 -1.1072 -0.2928 -0.9919
 9018TIP3   OH227017   5.360   5.343   2.318 -0.2922 -0.2709 -0.4867
 9018TIP3    H127018   5.418   5.310   2.250 -0.3057 -0.0012 -0.6284
 9018TIP3    H227019   5.355   5.437   2.303 -1.9018 -0.4610 -1.3709
 9019TIP3   OH227020   6.105   2.331   5.238  0.4345  0.2533  0.1145
 9019TIP3    H127021   6.049   2.353   5.313  0.5389  0.1062  0.2361
 9019TIP3    H227022   6.133   2.241   5.254 -0.1441 -0.0433 -0.4751
 9020TIP3   OH227023   2.972   0.290   3.090 -0.4620 -0.0206 -0.1912
 9020TIP3    H127024   2.915   0.321   3.160 -0.3457  0.8779 -0.4823
 9020TIP3    H227025   3.058   0.280   3.131 -0.4167  0.4092 -0.1816
 9021TIP3   OH227026   6.278   0.785   5.153 -0.0690 -0.3041  0.8820
 9021TIP3    H127027   6.253   0.873   5.180  0.0273 -0.3739  1.1978
 9021TIP3    H227028   6.251   0.780   5.061  0.9597  0.4499  0.5197
 9022TIP3   OH227029   5.156   0.146   4.968 -0.4572 -0.6929  0.2724
 9022TIP3    H127030   5.105   0.093   4.908  1.8253 -2.0512 -0.5992
 9022TIP3    H227031   5.151   0.100   5.052 -0.1573 -1.1716  0.0306
 9023TIP3   OH227032   5.511   4.783   0.621 -0.9532 -0.3060 -0.2953
 9023TIP3    H127033   5.438   4.838   0.591 -0.8495 -0.5181 -0.9652
 9023TIP3    H227034   5.469   4.713   0.670 -1.1498 -0.0718 -0.1250
 9024TIP3   OH227035  -0.022  -0.000   1.314  0.2987  0.0178 -0.4340
 9024TIP3    H127036   0.029   0.008   1.395  0.0463 -1.3232 -0.1063
 9024TIP3    H227037   0.043   0.002   1.244  0.6305  0.0704 -0.1252
 9025TIP3   OH227038   5.042   5.145   1.778 -0.0493 -0.2445  0.0054
 9025TIP3    H127039   5.050   5.064   1.829  0.5120  0.5628  1.2353
 9025TIP3    H227040   4.953   5.141   1.741 -0.3898 -0.9538  0.8632
 9026TIP3   OH227041   1.975   0.300   3.064  0.4056 -0.3854  0.1132
 9026TIP3    H127042   2.048   0.266   3.116 -0.2457  0.2860  1.5214
 9026TIP3    H227043   1.968   0.392   3.089  0.0984 -0.0168 -1.2283
 9027TIP3   OH227044   3.721   0.951   1.136  0.1896  0.4447  0.3180
 9027TIP3    H127045   3.785   0.890   1.099  1.2846 -0.1043  2.8756
 9027TIP3    H227046   3.747   1.037   1.103  0.8517 -0.0510 -0.4780
 9028TIP3   OH227047   4.306   5.167   2.844  0.3834  0.1302 -0.3387
 9028TIP3    H127048   4.278   5.242   2.791  0.9087  1.1349  0.7776
 9028TIP3    H227049   4.402   5.166   2.835  0.3931 -0.3140 -0.2151
 9029TIP3   OH227050   0.982   4.649   1.064  0.6512 -0.0367 -0.1500
 9029TIP3    H127051   1.001   4.741   1.083  2.5863  0.2650 -2.9378
 9029TIP3    H227052   1.056   4.620   1.011 -0.8043 -2.6877 -0.8849
 9030TIP3   OH227053   6.167   0.399   5.627  0.0863  0.0086  0.1059
 9030TIP3    H127054   6.147   0.340   5.554  0.2917 -0.2661  0.2748
 9030TIP3    H227055   6.213   0.472   5.586  0.5903 -0.3507  0.0159
 9031TIP3   OH227056   2.276   0.263   4.180  0.3140 -0.3708  0.3812
 9031TIP3    H127057   2.367   0.234   4.185  0.7877  0.9674 -0.0435
 9031TIP3    H227058   2.268   0.331   4.247  0.4277  1.4740 -1.3846
 9032TIP3   OH227059   6.409   5.549   3.815  0.2088  0.2273 -0.4497
 9032TIP3    H127060   6.477   5.602   3.774 -0.2725  0.2521 -1.2321
 9032TIP3    H227061   6.327   5.578   3.774 -0.3355  0.5151  0.7973
 9033TIP3   OH227062   1.362   3.815   0.243 -0.8925 -0.3355 -0.6103
 9033TIP3    H127063   1.302   3.740   0.240 -0.5247 -0.6256 -2.9102
 9033TIP3    H227064   1.334   3.871   0.171 -1.7691  2.3175  1.6555
 9034TIP3   OH227065   0.573   1.588   5.448  0.0168 -0.1333  0.0161
 9034TIP3    H127066   0.587   1.583   5.353  0.2552  0.1681  0.0331
 9034TIP3    H227067   0.510   1.518   5.467 -1.8028  1.2185 -0.6966
 9035TIP3   OH227068   3.959   3.958   0.168  0.0293  0.4621 -0.1804
 9035TIP3    H127069   3.954   4.036   0.224 -0.2363  0.2988  0.0222
 9035TIP3    H227070   4.051   3.953   0.142  1.3709 -2.1419  4.0627
 9036TIP3   OH227071   3.152   4.936   4.166 -0.6081  0.7629  0.3245
 9036TIP3    H127072   3.163   5.010   4.106  1.4572  1.7512  1.8270
 9036TIP3    H227073   3.229   4.882   4.152 -0.9331  0.1263  0.9213
 9037TIP3   OH227074   3.860   0.840   0.177  0.2177  0.0879 -0.1420
 9037TIP3    H127075   3.779   0.831   0.126  0.5737  0.2221 -0.7322
 9037TIP3    H227076   3.830   0.863   0.265 -0.3892  0.1169 -0.3533
 9038TIP3   OH227077   1.210   2.313   5.804  0.4029 -0.0296  0.9129
 9038TIP3    H127078   1.168   2.287   5.886  1.5051  1.6333  2.0936
 9038TIP3    H227079   1.289   2.359   5.832  0.9594  0.3488 -1.1173
 9039TIP3   OH227080   4.268   1.506   5.847 -0.5250  0.0685  0.3486
 9039TIP3    H127081   4.242   1.491   5.756 -1.5742 -2.5818  1.0143
 9039TIP3    H227082   4.356   1.544   5.840 -0.9742  0.8610 -1.7703
 9040TIP3   OH227083   0.133   3.309   1.426  0.4979  0.4447  0.1683
 9040TIP3    H127084   0.065   3.363   1.466 -1.9883 -1.6509 -0.9111
 9040TIP3    H227085   0.136   3.337   1.334  0.3928 -0.1123 -0.0100
 9041TIP3   OH227086   2.356   2.189   5.787 -0.2655  0.4745  0.2002
 9041TIP3    H127087   2.406   2.245   5.728  1.3520 -0.6238  0.4653
 9041TIP3    H227088   2.338   2.244   5.863  0.8124  0.8345  0.2188
 9042TIP3   OH227089   6.079   2.356   1.855 -0.0468  0.1377  0.1529
 9042TIP3    H127090   6.099   2.286   1.793  1.3559 -0.1393  0.8759
 9042TIP3    H227091   6.016   2.412   1.809 -2.1249 -2.1608 -0.0349
 9043TIP3   OH227092   4.498   1.747   0.254  0.2928 -0.0898 -0.3516
 9043TIP3    H127093   4.551   1.770   0.177  1.1019  3.6312  1.0759
 9043TIP3    H227094   4.525   1.811   0.320 -2.9775 -0.7680  1.8551
 9044TIP3   OH227095   4.167   0.434   4.669 -0.1805 -0.4933  0.0325
 9044TIP3    H127096   4.146   0.435   4.576  1.7106 -0.4658 -0.4317
 9044TIP3    H227097   4.247   0.486   4.677  0.2898 -1.3623  1.5051
 9045TIP3   OH227098   6.912   0.499   4.183 -0.2374 -0.3464  0.7153
 9045TIP3    H127099   6.987   0.491   4.123  1.2370 -0.7758  2.5339
 9045TIP3    H227100   6.839   0.526   4.127  1.1433 -0.4287 -1.2083
 9046TIP3   OH227101   5.588   5.530   4.394  0.6695 -0.1269  0.1811
 9046TIP3    H127102   5.667   5.485   4.361  0.3242 -1.4706  1.0777
 9046TIP3    H227103   5.540   5.461   4.441  1.3139  1.6496  3.8463
 9047TIP3   OH227104   5.359   1.416   2.757  0.3484  0.5129  0.2159
 9047TIP3    H127105   5.387   1.371   2.677 -0.1123  0.6394 -0.0253
 9047TIP3    H227106   5.348   1.346   2.821 -0.5807  0.2316 -0.2183
 9048TIP3   OH227107   2.119   0.323   0.203  0.4713  0.6583 -0.0531
 9048TIP3    H127108   2.049   0.315   0.139  0.7410 -1.2720 -0.1717
 9048TIP3    H227109   2.075   0.357   0.282 -0.5568 -0.2572 -0.2077
 9049TIP3   OH227110   1.164   2.787   0.517 -0.1021  0.7093 -0.2816
 9049TIP3    H127111   1.240   2.815   0.567 -0.3002 -0.0950  0.4962
 9049TIP3    H227112   1.094   2.847   0.544 -0.3391 -0.0313  0.8226
 9050TIP3   OH227113   0.827   3.083   1.684  0.2343  0.1312  0.4450
 9050TIP3    H127114   0.841   3.001   1.731  1.4729 -0.1820 -0.4250
 9050TIP3    H227115   0.733   3.101   1.694 -0.4275 -2.2772 -0.7346
 9051TIP3   OH227116   6.576   6.128   4.468  0.2545  0.2632 -0.1537
 9051TIP3    H127117   6.603   6.213   4.433 -1.2128  0.6035 -0.5085
 9051TIP3    H227118   6.550   6.147   4.558  1.4607 -0.1239  0.2945
 9052TIP3   OH227119   2.131   0.866   2.944  0.7998  0.1299  0.1719
 9052TIP3    H127120   2.108   0.783   2.987 -1.7943  0.9778  0.6034
 9052TIP3    H227121   2.221   0.883   2.972  0.5010 -1.2475  2.2480
 9053TIP3   OH227122   4.012   1.578   5.176 -0.1111 -0.3963  0.1724
 9053TIP3    H127123   3.969   1.544   5.254  1.1403  2.7152  2.4309
 9053TIP3    H227124   3.951   1.643   5.141 -0.7651 -1.9156 -1.7244
 9054TIP3   OH227125   4.996   6.041   5.851  0.1883 -0.6502  0.0895
 9054TIP3    H127126   4.993   6.024   5.945 -0.6072 -0.5589  0.0895
 9054TIP3    H227127   4.904   6.039   5.824  0.4224 -0.7994 -0.7060
 9055TIP3   OH227128   7.028   4.506   2.604 -0.5134 -0.1218 -0.0470
 9055TIP3    H127129   7.094   4.573   2.586 -0.0891 -0.2177  1.0446
 9055TIP3    H227130   7.064   4.457   2.678 -1.2584 -0.9512 -0.2210
 9056TIP3   OH227131   1.076   2.524   2.208  0.2001  0.1494 -0.0659
 9056TIP3    H127132   1.081   2.446   2.153  1.1679  1.5324 -2.0493
 9056TIP3    H227133   1.167   2.547   2.225 -0.0600  1.3286 -0.2400
 9057TIP3   OH227134   0.137   1.996   3.948 -0.1147  0.1878  0.4844
 9057TIP3    H127135   0.087   1.915   3.954  0.8105 -0.4675 -0.4175
 9057TIP3    H227136   0.176   2.006   4.035  1.0634 -1.2063  0.1434
 9058TIP3   OH227137   6.971   5.997   1.886  0.3569 -0.5469  0.2253
 9058TIP3    H127138   7.026   5.975   1.961  2.8043 -0.1443 -1.3504
 9058TIP3    H227139   6.890   6.032   1.925  2.3890  1.8319  2.7357
 9059TIP3   OH227140   6.116   1.715   1.067  0.4348 -0.2206 -0.1631
 9059TIP3    H127141   6.174   1.654   1.113 -0.0476  0.6643  1.7549
 9059TIP3    H227142   6.068   1.759   1.138 -1.1471  0.4675 -1.6004
 9060TIP3   OH227143   5.737   4.290   3.368 -0.1258 -0.3324 -0.2420
 9060TIP3    H127144   5.716   4.384   3.368 -3.0894 -0.8769 -0.8962
 9060TIP3    H227145   5.787   4.277   3.288 -0.0777  0.6212 -0.3860
 9061TIP3   OH227146   6.765   6.009   2.743  0.4743  0.3156  0.1028
 9061TIP3    H127147   6.693   6.072   2.743  0.5772  0.4329  0.0562
 9061TIP3    H227148   6.785   5.995   2.836  0.0514 -0.1069  0.1355
 9062TIP3   OH227149   3.041   5.731   2.756  0.2951  0.2277  0.4976
 9062TIP3    H127150   2.957   5.742   2.712  0.0037 -0.4592  0.8664
 9062TIP3    H227151   3.052   5.636   2.764  0.3458  0.3224  1.8548
 9063TIP3   OH227152   4.642   0.912   2.607  0.1159  0.6962  0.3582
 9063TIP3    H127153   4.597   0.905   2.692  0.5290  0.8321  0.5900
 9063TIP3    H227154   4.609   0.994   2.570 -0.4438  0.3910  0.1578
 9064TIP3   OH227155   3.069   3.695   4.139 -0.2217  0.0119 -0.2769
 9064TIP3    H127156   3.122   3.697   4.218  1.2074  2.4320 -1.1875
 9064TIP3    H227157   2.978   3.693   4.171  0.3303  0.6823  1.4211
 9065TIP3   OH227158   3.003   4.542   3.835  0.6020  0.2454  0.0551
 9065TIP3    H127159   2.996   4.446   3.827 -0.5974  0.4029 -1.2196
 9065TIP3    H227160   2.946   4.564   3.908  1.8649 -0.1066  1.1775
 9066TIP3   OH227161   0.045   2.356   4.463  0.0952 -0.0599  0.2359
 9066TIP3    H127162   0.033   2.451   4.474 -1.0097  0.0924 -1.8496
 9066TIP3    H227163   0.002   2.318   4.540 -1.0660  1.0855  0.1939
 9067TIP3   OH227164   7.176   0.426   0.198 -0.3929 -0.1659 -0.1278
 9067TIP3    H127165   7.168   0.509   0.244 -0.5856  0.4273 -1.2169
 9067TIP3    H227166   7.124   0.365   0.250  1.8080 -0.2638  2.1342
 9068TIP3   OH227167   4.154   6.431   4.081 -0.1136  0.0015  0.0074
 9068TIP3    H127168   4.116   6.382   4.154 -0.5268  0.3619  0.0374
 9068TIP3    H227169   4.085   6.491   4.053 -0.0252 -0.2713 -0.8166
 9069TIP3   OH227170   3.747   1.939   3.815  0.3623 -0.4076  0.1720
 9069TIP3    H127171   3.831   1.904   3.846  1.7741  1.5582 -1.2063
 9069TIP3    H227172   3.709   1.982   3.892  0.2466 -1.8953  0.9810
 9070TIP3   OH227173   1.372   3.841   3.082  0.2759  0.0123 -0.0036
 9070TIP3    H127174   1.409   3.911   3.136 -0.1456 -0.3960  0.8376
 9070TIP3    H227175   1.283   3.872   3.062  0.3668  0.0776 -0.3066
 9071TIP3   OH227176   3.356   1.050   3.101 -0.0841 -0.1081 -0.4979
 9071TIP3    H127177   3.367   1.143   3.080 -3.6728  0.6013  0.0907
 9071TIP3    H227178   3.419   1.005   3.046 -0.1658  2.5047 -2.9326
 9072TIP3   OH227179   6.757   2.040   1.129 -0.5382 -0.3615  0.3693
 9072TIP3    H127180   6.689   2.062   1.065  1.2646  0.1087 -1.4845
 9072TIP3    H227181   6.806   1.969   1.089  0.8721  0.1839  1.0487
 9073TIP3   OH227182   5.131   5.602   5.346  0.2195 -0.1050 -0.5011
 9073TIP3    H127183   5.158   5.653   5.422  2.2512 -0.2974 -1.0254
 9073TIP3    H227184   5.042   5.632   5.327  0.8515  2.3139  0.0074
 9074TIP3   OH227185   0.010   0.917   3.561 -0.0870 -0.4966 -0.1438
 9074TIP3    H127186  -0.006   0.827   3.532  0.7240 -0.4127 -0.9399
 9074TIP3    H227187   0.088   0.910   3.617  1.1187 -0.0924 -1.6898
 9075TIP3   OH227188   4.279   6.676   3.717 -0.5193  0.6503 -0.1998
 9075TIP3    H127189   4.322   6.699   3.634  0.4580  1.9088  0.6198
 9075TIP3    H227190   4.232   6.756   3.743  0.0593  0.6262  0.9788
 9076TIP3   OH227191   5.752   6.239   2.168  0.5619 -0.6429 -0.1339
 9076TIP3    H127192   5.715   6.175   2.107  1.4696 -1.3461  0.0372
 9076TIP3    H227193   5.724   6.324   2.133  0.2755 -1.0772 -0.9910
 9077TIP3   OH227194   1.961   6.630   4.443  0.0474  0.3592  0.0738
 9077TIP3    H127195   2.011   6.550   4.425 -0.3209  0.3399 -0.9328
 9077TIP3    H227196   1.948   6.670   4.357 -0.3640  1.1505  0.4948
 9078TIP3   OH227197   5.328   3.342   0.099 -0.3943  0.8302 -0.4344
 9078TIP3    H127198   5.256   3.327   0.161  1.9914 -0.8429  2.1585
 9078TIP3    H227199   5.324   3.268   0.039 -0.7725  0.7121 -0.2673
 9079TIP3   OH227200   4.337   2.468   1.524  0.1083  0.0139 -0.1752
 9079TIP3    H127201   4.270   2.477   1.456 -0.4554 -1.1948  0.1861
 9079TIP3    H227202   4.327   2.548   1.577 -1.4234 -0.3643  0.1745
 9080TIP3   OH227203   5.987   5.677   3.814  0.3858  0.1744 -0.2200
 9080TIP3    H127204   5.948   5.640   3.735 -0.2779  1.5997 -0.6024
 9080TIP3    H227205   6.081   5.671   3.799  0.2641  0.7123 -1.2815
 9081TIP3   OH227206   1.007   5.326   1.365 -0.0870 -0.4209  0.5757
 9081TIP3    H127207   1.102   5.314   1.365 -0.1014 -0.5344  0.7217
 9081TIP3    H227208   0.988   5.366   1.450 -0.5157 -3.1105  1.8476
 9082TIP3   OH227209   4.605   1.846   1.144  0.0541  0.3991 -0.4097
 9082TIP3    H127210   4.627   1.922   1.197  0.5059  0.4289 -0.6308
 9082TIP3    H227211   4.530   1.806   1.188  0.8911 -0.0067  0.6744
 9083TIP3   OH227212   3.425   6.709   0.751  0.2076 -0.1022  0.6460
 9083TIP3    H127213   3.467   6.625   0.769 -0.1603 -0.3585  0.3201
 9083TIP3    H227214   3.495   6.762   0.712  0.4241 -0.2800  0.7891
 9084TIP3   OH227215   3.593   3.373   0.800 -0.2477  0.1679  0.3026
 9084TIP3    H127216   3.546   3.302   0.843  0.5961 -0.7144 -0.2005
 9084TIP3    H227217   3.535   3.399   0.728  0.6681 -2.0081 -1.3269
 9085TIP3   OH227218   3.181   6.590   4.581  0.3476 -0.0610 -0.1038
 9085TIP3    H127219   3.170   6.589   4.486  1.5550  0.3596 -0.2571
 9085TIP3    H227220   3.214   6.677   4.601 -1.2677  0.3720  0.8908
 9086TIP3   OH227221   3.044   2.221   5.407 -0.0679  0.2629  0.1111
 9086TIP3    H127222   3.039   2.163   5.483  3.6390  1.0865  1.2042
 9086TIP3    H227223   3.061   2.162   5.333 -0.1958 -0.3191  0.5381
 9087TIP3   OH227224   3.631   5.428   3.815 -0.3147  0.1619  0.3750
 9087TIP3    H127225   3.661   5.406   3.727 -0.6434  0.9976  0.0448
 9087TIP3    H227226   3.597   5.517   3.808  0.8309  0.7456  1.6147
 9088TIP3   OH227227   4.384   0.601   0.713  0.1445 -0.4442  0.0667
 9088TIP3    H127228   4.432   0.518   0.711 -0.1825 -0.6510  0.5463
 9088TIP3    H227229   4.408   0.645   0.631  0.3718 -0.9835 -0.1603
 9089TIP3   OH227230   2.182   4.376   5.639 -0.4567  0.3756  0.2972
 9089TIP3    H127231   2.235   4.299   5.661 -0.3997  0.3238 -0.0160
 9089TIP3    H227232   2.195   4.388   5.545 -2.0278 -0.4424 -0.0696
 9090TIP3   OH227233   6.962   3.846   2.154  0.0913  0.4043 -0.4277
 9090TIP3    H127234   6.924   3.795   2.225  1.0084 -0.2154 -0.3587
 9090TIP3    H227235   6.917   3.930   2.157 -0.7892 -0.0769  0.0536
 9091TIP3   OH227236   4.769   4.515   1.363 -0.0486 -0.4870 -0.1239
 9091TIP3    H127237   4.791   4.604   1.391  0.2325 -0.0192 -1.7243
 9091TIP3    H227238   4.698   4.489   1.421 -0.1642  0.7977  0.3614
 9092TIP3   OH227239   6.398   1.675   3.767 -0.4687  0.2655 -0.4488
 9092TIP3    H127240   6.486   1.659   3.733 -0.6576  0.0371 -0.8347
 9092TIP3    H227241   6.374   1.593   3.811  0.3285  1.0111  1.5024
 9093TIP3   OH227242   1.445   2.257   2.469 -0.2309 -0.1729  0.1368
 9093TIP3    H127243   1.441   2.167   2.437 -0.0973 -0.1890  0.1647
 9093TIP3    H227244   1.360   2.271   2.512  0.2044 -0.6918  1.2100
 9094TIP3   OH227245   6.002   0.054   0.558  0.0084  0.0765 -0.1844
 9094TIP3    H127246   6.060   0.056   0.481 -1.3671  0.0482 -1.2531
 9094TIP3    H227247   6.004   0.143   0.592  2.0957 -0.3249  0.9300
 9095TIP3   OH227248   3.612   5.545   5.490 -0.2197 -0.0680  0.0253
 9095TIP3    H127249   3.565   5.462   5.502  0.9938 -0.7696 -0.0208
 9095TIP3    H227250   3.577   5.601   5.560 -2.1444 -0.0862 -0.8551
 9096TIP3   OH227251   1.482   1.282   5.495  0.4625 -0.3197  0.1554
 9096TIP3    H127252   1.393   1.317   5.497  0.5751 -0.0481  1.2760
 9096TIP3    H227253   1.530   1.343   5.438 -0.2450 -0.9711 -1.1891
 9097TIP3   OH227254   0.990   5.452   0.056  0.1891  0.9866  0.2224
 9097TIP3    H127255   1.053   5.380   0.051  0.0060  0.8465 -0.1034
 9097TIP3    H227256   0.994   5.481   0.147  0.2008  0.5050  0.3785
 9098TIP3   OH227257   0.914   5.686   2.935  0.1602  0.1156  0.7160
 9098TIP3    H127258   0.860   5.708   3.010 -0.3908 -1.9250  0.9684
 9098TIP3    H227259   0.864   5.717   2.859  0.2106  1.1978  1.1165
 9099TIP3   OH227260   0.123   0.156   3.555 -0.1322 -0.0861 -0.3462
 9099TIP3    H127261   0.139   0.231   3.497 -0.3550 -0.5294 -1.0014
 9099TIP3    H227262   0.210   0.122   3.575 -0.0696 -1.3086 -2.3150
 9100TIP3   OH227263   0.403   2.280   2.154 -0.3537 -0.3248 -0.2604
 9100TIP3    H127264   0.485   2.320   2.127  0.3549  0.0461  2.1855
 9100TIP3    H227265   0.428   2.191   2.182 -0.9494 -0.5329 -0.3723
 9101TIP3   OH227266   6.648   1.628   0.841  0.1759 -0.1236  0.4032
 9101TIP3    H127267   6.618   1.611   0.751 -1.0280 -0.9924  0.9373
 9101TIP3    H227268   6.599   1.566   0.894 -1.6738  2.5525  2.0793
 9102TIP3   OH227269   0.673   6.312   4.383  0.6271 -0.0517 -0.4029
 9102TIP3    H127270   0.721   6.230   4.371  0.9884  0.0699  0.1640
 9102TIP3    H227271   0.679   6.329   4.477 -0.4002  0.0464 -0.3484
 9103TIP3   OH227272   3.580   1.647   0.473 -0.1589  0.1938  0.3728
 9103TIP3    H127273   3.670   1.625   0.497 -0.4297  1.2517  2.6269
 9103TIP3    H227274   3.588   1.722   0.415  0.4273  0.0869  0.3074
 9104TIP3   OH227275   0.148   3.055   2.741 -0.1842  0.3179 -0.2244
 9104TIP3    H127276   0.176   3.039   2.651 -0.3705  0.4365 -0.3039
 9104TIP3    H227277   0.205   3.125   2.772 -1.4690  1.7332 -0.9374
 9105TIP3   OH227278   3.296   3.402   0.721 -0.0894 -0.4046  0.6307
 9105TIP3    H127279   3.293   3.490   0.758  0.1972 -0.3613  0.5583
 9105TIP3    H227280   3.205   3.373   0.719 -0.1703 -0.1643  0.7851
 9106TIP3   OH227281   5.419   1.280   4.067  0.0457 -0.0954  0.0892
 9106TIP3    H127282   5.493   1.298   4.009  1.1010 -1.7909  0.8029
 9106TIP3    H227283   5.419   1.351   4.131  0.0599  0.7545 -0.8413
 9107TIP3   OH227284   0.503   6.005   2.580  0.2917  0.0765  0.5918
 9107TIP3    H127285   0.578   6.032   2.528  0.3523 -0.4830  0.3758
 9107TIP3    H227286   0.434   6.068   2.558  0.4353  0.0779  0.1226
 9108TIP3   OH227287   6.336   4.672   0.286 -0.4446  0.1677 -0.2061
 9108TIP3    H127288   6.345   4.596   0.229 -0.3088 -1.1227  1.4742
 9108TIP3    H227289   6.265   4.650   0.346  0.5921  0.7068  1.2720
 9109TIP3   OH227290   6.792   6.341   3.169  0.2668 -0.0211 -0.3680
 9109TIP3    H127291   6.738   6.315   3.094  0.5706 -0.1981 -0.5266
 9109TIP3    H227292   6.741   6.315   3.245  0.7956 -1.5970 -0.5188
 9110TIP3   OH227293   3.031   5.868   4.108 -0.2218 -0.0092  0.4873
 9110TIP3    H127294   3.051   5.904   4.194 -1.1809 -1.5908  1.4314
 9110TIP3    H227295   2.958   5.808   4.124  0.6296 -1.5624 -1.1596
 9111TIP3   OH227296   3.686   5.406   0.528 -0.3403  0.1042  0.4607
 9111TIP3    H127297   3.653   5.466   0.595 -0.5245 -0.4417  0.8587
 9111TIP3    H227298   3.614   5.346   0.511  0.4182 -1.1019  1.3394
 9112TIP3   OH227299   5.237   3.080   1.741  0.0052  0.1752  0.1762
 9112TIP3    H127300   5.161   3.132   1.715  0.5405 -0.8546 -4.2474
 9112TIP3    H227301   5.311   3.140   1.736  0.0830  0.0213 -0.7146
 9113TIP3   OH227302   5.630   3.787   5.850  0.1509  0.0134  0.5194
 9113TIP3    H127303   5.560   3.735   5.890  0.1585  0.1019  0.6460
 9113TIP3    H227304   5.612   3.877   5.877  1.1304 -0.1386  1.7481
 9114TIP3   OH227305   2.947   4.854   4.801  0.2027 -0.0416 -0.0282
 9114TIP3    H127306   2.971   4.764   4.780  0.0560 -0.3189  0.9433
 9114TIP3    H227307   2.855   4.849   4.829  0.1165  0.4491 -0.2113
 9115TIP3   OH227308   2.366   1.844   1.298 -0.0283 -0.3476  0.0135
 9115TIP3    H127309   2.336   1.853   1.207 -1.8740 -2.3287  0.3449
 9115TIP3    H227310   2.320   1.913   1.345  0.1233  0.0285 -0.3823
 9116TIP3   OH227311   0.568   5.488   2.377 -0.6918  0.2370 -0.7212
 9116TIP3    H127312   0.484   5.532   2.361 -1.3371  0.0349  1.7753
 9116TIP3    H227313   0.579   5.491   2.472  2.2557  0.4369 -0.9766
 9117TIP3   OH227314   0.259   0.819   0.353  0.1931 -0.1431  0.0522
 9117TIP3    H127315   0.174   0.839   0.393 -0.0827 -1.4942  0.2100
 9117TIP3    H227316   0.240   0.813   0.259  0.0533 -0.6624  0.1084
 9118TIP3   OH227317   4.558   0.937   1.246 -0.4735 -0.4274 -0.4656
 9118TIP3    H127318   4.510   0.900   1.172 -2.5349 -0.9307  1.0512
 9118TIP3    H227319   4.493   0.946   1.315  1.0050  1.6559  0.7658
 9119TIP3   OH227320   4.732   3.006   3.304  0.4168 -0.4876  0.4153
 9119TIP3    H127321   4.695   3.043   3.223  0.3217 -0.1390  0.6154
 9119TIP3    H227322   4.825   2.994   3.284  0.6853  0.9260  0.7128
 9120TIP3   OH227323   2.627   3.341   2.360 -0.2748 -0.6207 -0.2048
 9120TIP3    H127324   2.682   3.386   2.424 -0.2025 -0.8233 -0.1235
 9120TIP3    H227325   2.541   3.381   2.371 -0.0442 -0.0086 -0.6320
 9121TIP3   OH227326   2.543   0.321   4.033  0.1671  0.3335  0.6437
 9121TIP3    H127327   2.570   0.268   3.958  3.1116  2.1921  0.2371
 9121TIP3    H227328   2.474   0.378   3.998 -0.9322 -1.1212  0.3318
 9122TIP3   OH227329   4.155   0.036   3.538 -0.3784  0.4471  0.0565
 9122TIP3    H127330   4.088   0.083   3.490 -0.5301  0.4493  0.2672
 9122TIP3    H227331   4.238   0.069   3.503 -0.4687  1.4355  0.7182
 9123TIP3   OH227332   1.957   2.142   1.151  0.6127  0.3927 -0.2174
 9123TIP3    H127333   1.894   2.209   1.124 -1.3459 -1.2898 -0.1045
 9123TIP3    H227334   1.997   2.113   1.069  1.1842  1.4138 -0.3072
 9124TIP3   OH227335   6.157   1.128   4.081 -0.1845  0.2642  0.2152
 9124TIP3    H127336   6.182   1.129   3.989  0.2775 -1.9093  0.2648
 9124TIP3    H227337   6.061   1.124   4.080 -0.1528 -0.5812 -0.2068
 9125TIP3   OH227338   5.042   2.331   4.735  0.3335  0.0839 -0.3771
 9125TIP3    H127339   4.970   2.345   4.797  0.2268  0.0550 -0.4941
 9125TIP3    H227340   5.119   2.320   4.790  0.6248  2.2007 -0.2650
 9126TIP3   OH227341   2.119   5.207   2.351  0.2466  0.5807  0.1333
 9126TIP3    H127342   2.113   5.302   2.363 -0.4675  0.4142  1.1996
 9126TIP3    H227343   2.054   5.187   2.284  1.8152  1.0669 -1.6558
 9127TIP3   OH227344   5.114   3.253   0.526  0.3247 -0.1555  0.4998
 9127TIP3    H127345   5.036   3.262   0.580  0.7259  2.3682  0.7855
 9127TIP3    H227346   5.130   3.159   0.522 -0.6113 -0.5492  3.4973
 9128TIP3   OH227347   1.375   3.034   5.291  0.3352 -0.4377  0.4958
 9128TIP3    H127348   1.449   3.089   5.319  1.2088 -1.2618 -0.1478
 9128TIP3    H227349   1.371   3.045   5.196  0.6045 -1.5836  0.3388
 9129TIP3   OH227350   0.518   5.174   0.879 -0.1286  0.4937 -0.2023
 9129TIP3    H127351   0.433   5.216   0.869 -0.7321 -0.7528 -0.4982
 9129TIP3    H227352   0.498   5.081   0.887  1.3150 -0.0182 -1.9690
 9130TIP3   OH227353   0.792   1.216   5.182 -0.0504  0.1179  0.3847
 9130TIP3    H127354   0.816   1.199   5.273 -1.9916  4.4533  1.9503
 9130TIP3    H227355   0.698   1.202   5.179 -0.1243  0.7541 -0.7508
 9131TIP3   OH227356   0.854   0.831   4.755 -0.0663  0.6834  0.4141
 9131TIP3    H127357   0.918   0.866   4.693 -1.8711  1.3808 -1.1170
 9131TIP3    H227358   0.845   0.900   4.821  0.4178  0.7623  0.4031
 9132TIP3   OH227359   6.410   1.702   0.441 -0.0475 -0.1101 -0.4879
 9132TIP3    H127360   6.346   1.765   0.407  1.0810  0.4818 -1.6272
 9132TIP3    H227361   6.419   1.637   0.372  1.1428  0.2589 -0.7119
 9133TIP3   OH227362   3.520   3.417   3.096 -0.0994 -0.2166 -0.0478
 9133TIP3    H127363   3.498   3.486   3.033  0.8674  0.2286  0.0703
 9133TIP3    H227364   3.504   3.335   3.049  0.2542  0.1056 -0.7501
 9134TIP3   OH227365   6.769   4.124   3.875 -0.0820 -0.5644  0.0845
 9134TIP3    H127366   6.700   4.061   3.855 -0.4981 -0.4492  1.1229
 9134TIP3    H227367   6.820   4.129   3.794 -0.5181 -1.6191 -0.2739
 9135TIP3   OH227368   5.594   4.031   0.029  0.0601 -0.3023  0.3986
 9135TIP3    H127369   5.538   3.955   0.014  0.8298 -1.1964  1.8965
 9135TIP3    H227370   5.541   4.090   0.081  0.0424 -0.5583  0.6737
 9136TIP3   OH227371   3.905   2.039   1.346  0.2611  0.1016 -0.0551
 9136TIP3    H127372   3.844   2.074   1.280  1.4072 -0.9961 -1.7832
 9136TIP3    H227373   3.962   2.113   1.367 -0.3357  0.5605 -0.0338
 9137TIP3   OH227374   2.187   4.836   1.847  0.3281  0.3636 -0.3500
 9137TIP3    H127375   2.257   4.877   1.796  0.8696 -0.7589 -0.5444
 9137TIP3    H227376   2.181   4.747   1.813 -0.9370  0.3139 -0.0647
 9138TIP3   OH227377   1.154   4.638   2.363  0.3366 -0.1324 -0.4882
 9138TIP3    H127378   1.105   4.585   2.300 -0.4789 -0.8588  0.7244
 9138TIP3    H227379   1.211   4.576   2.408  0.5540  0.2983 -0.1584
 9139TIP3   OH227380   5.608   0.566   0.085  0.0579  0.3705  0.8547
 9139TIP3    H127381   5.596   0.640   0.025 -0.8812  1.6055  2.4976
 9139TIP3    H227382   5.556   0.496   0.046 -0.0292  0.9518 -0.1128
 9140TIP3   OH227383   6.014   2.200   3.861 -0.5805 -0.1964  0.8354
 9140TIP3    H127384   6.086   2.215   3.923  0.3910  0.9056 -0.5022
 9140TIP3    H227385   5.953   2.271   3.878 -0.1060  0.3565  0.2506
 9141TIP3   OH227386   0.963   5.907   1.012 -0.6729  0.5570 -0.6827
 9141TIP3    H127387   1.021   5.946   1.077  0.5257  0.1485 -1.4787
 9141TIP3    H227388   0.888   5.967   1.008 -0.2545  1.1667  0.2659
 9142TIP3   OH227389   4.823   5.093   0.522 -0.0656  0.4184 -0.6050
 9142TIP3    H127390   4.857   5.054   0.603  1.8429  0.7261 -1.2084
 9142TIP3    H227391   4.768   5.166   0.551 -0.5056 -0.2991  0.4277
 9143TIP3   OH227392   1.229   6.082   3.454  0.5270  0.1453 -0.2421
 9143TIP3    H127393   1.194   6.029   3.382  0.5806 -0.1860 -0.0251
 9143TIP3    H227394   1.321   6.057   3.459  0.3259 -0.4675  0.5060
 9144TIP3   OH227395   0.610   0.337   1.063  0.5268 -0.2396 -0.0253
 9144TIP3    H127396   0.553   0.397   1.113 -0.6328 -1.8419  0.6803
 9144TIP3    H227397   0.697   0.377   1.068 -0.3441  1.8407 -0.3678
 9145TIP3   OH227398   2.521   4.422   3.854 -0.1281  0.4212 -0.9634
 9145TIP3    H127399   2.455   4.424   3.784  0.7341  1.8254 -1.7863
 9145TIP3    H227400   2.599   4.460   3.814  0.4586  1.0554  0.7047
 9146TIP3   OH227401   3.705   0.975   3.526  1.1390 -0.2827 -0.1574
 9146TIP3    H127402   3.742   0.888   3.514  0.4986 -0.8109  1.3762
 9146TIP3    H227403   3.704   0.987   3.621 -1.3837  0.2164 -0.1791
 9147TIP3   OH227404   3.273   4.692   1.185  0.1463  0.2461 -0.6564
 9147TIP3    H127405   3.354   4.657   1.147  0.9122  1.8426 -0.6057
 9147TIP3    H227406   3.260   4.641   1.265  1.8108  0.7296 -0.0150
 9148TIP3   OH227407   0.922   0.553   4.802  0.1793  0.0459 -0.1891
 9148TIP3    H127408   0.874   0.629   4.769 -0.0996 -0.6855 -1.5392
 9148TIP3    H227409   0.869   0.521   4.875 -1.1315 -0.4352 -1.3217
 9149TIP3   OH227410   3.565   2.908   4.855 -0.3561  0.1925  0.3787
 9149TIP3    H127411   3.642   2.958   4.882 -1.0110  0.4485  1.8686
 9149TIP3    H227412   3.504   2.973   4.821  0.3440 -0.0950 -1.5600
 9150TIP3   OH227413   4.659   2.030   2.771  0.3414 -0.8290 -0.0288
 9150TIP3    H127414   4.567   2.054   2.782  0.5709  0.1165 -0.1428
 9150TIP3    H227415   4.656   1.935   2.756 -0.7520 -0.5797 -1.6460
 9151TIP3   OH227416   4.481   5.889   0.559  0.1521  0.7320 -0.2537
 9151TIP3    H127417   4.426   5.824   0.601  2.3750 -1.5790 -0.6604
 9151TIP3    H227418   4.446   5.898   0.471  0.5552 -0.9078 -0.5976
 9152TIP3   OH227419   5.511   0.715   3.860 -0.4583  0.1123 -0.3854
 9152TIP3    H127420   5.523   0.807   3.837 -0.0729  0.1319 -0.1128
 9152TIP3    H227421   5.515   0.713   3.956  0.0936 -0.2626 -0.4079
 9153TIP3   OH227422   2.306   0.515   1.062 -0.1675 -0.7974 -0.5084
 9153TIP3    H127423   2.393   0.548   1.087 -0.2536 -0.3138 -0.8251
 9153TIP3    H227424   2.295   0.544   0.972 -0.7791 -0.6053 -0.3718
 9154TIP3   OH227425   6.894   6.341   2.516  0.8715 -0.0983 -0.0431
 9154TIP3    H127426   6.945   6.355   2.595 -0.2774 -1.5631  1.0057
 9154TIP3    H227427   6.868   6.249   2.520  0.3027 -0.0544 -1.8352
 9155TIP3   OH227428   3.691   5.679   4.930  0.2951 -0.3796  0.1317
 9155TIP3    H127429   3.738   5.599   4.953  0.0690 -0.7102 -0.5511
 9155TIP3    H227430   3.628   5.691   5.002 -0.3659 -1.3726 -0.2659
 9156TIP3   OH227431   0.913   1.431   2.934 -0.2373 -0.1203  0.2436
 9156TIP3    H127432   0.922   1.427   2.839  0.1845 -0.9126  0.3076
 9156TIP3    H227433   0.863   1.511   2.950  1.1184  0.9515 -0.5558
 9157TIP3   OH227434   0.019   1.552   5.771 -0.4978  0.5912  0.5042
 9157TIP3    H127435   0.092   1.574   5.713 -0.4380 -1.0753 -0.1161
 9157TIP3    H227436  -0.025   1.479   5.728 -2.6417  1.6264  0.8034
 9158TIP3   OH227437   6.890   6.535   5.862  0.7121 -0.0126  0.0939
 9158TIP3    H127438   6.827   6.489   5.807  0.1961 -0.9445  1.4001
 9158TIP3    H227439   6.838   6.567   5.936  1.2445  1.8405 -0.2588
 9159TIP3   OH227440   1.625   1.470   5.323 -0.3078  0.6667 -0.2670
 9159TIP3    H127441   1.564   1.544   5.333 -0.3354  0.9594 -2.2624
 9159TIP3    H227442   1.614   1.442   5.232 -1.3800 -2.7976  0.7751
 9160TIP3   OH227443   1.693   5.279   2.898  0.0152  0.2676  0.2401
 9160TIP3    H127444   1.739   5.302   2.979  1.5350 -1.4559 -0.0669
 9160TIP3    H227445   1.623   5.220   2.926  1.6071 -1.7293  0.2021
 9161TIP3   OH227446   2.588   3.652   2.538  0.2378  0.0936  0.0173
 9161TIP3    H127447   2.671   3.609   2.518  0.9460  1.2251  0.4342
 9161TIP3    H227448   2.522   3.599   2.493  1.4006  0.4596 -2.2489
 9162TIP3   OH227449   6.424   3.482   0.308 -0.4173  0.2616  0.3309
 9162TIP3    H127450   6.508   3.454   0.344  1.0479  4.0944  0.3137
 9162TIP3    H227451   6.374   3.510   0.385 -0.4868  0.7945  0.0938
 9163TIP3   OH227452   7.118   6.764   3.460 -0.0569 -0.0418 -0.2693
 9163TIP3    H127453   7.035   6.765   3.508 -0.0101  0.3116 -0.1928
 9163TIP3    H227454   7.179   6.720   3.519 -0.2165 -0.4182 -0.3777
 9164TIP3   OH227455   0.977   1.060   2.809 -0.2774  0.1139  0.1810
 9164TIP3    H127456   0.988   0.996   2.878  0.3134 -1.4855 -1.3276
 9164TIP3    H227457   1.059   1.108   2.806 -0.9368  1.4355  1.7186
 9165TIP3   OH227458   4.878   5.775   2.918  0.0065 -0.3526 -0.5545
 9165TIP3    H127459   4.853   5.722   2.994 -0.1828 -0.3298 -0.5993
 9165TIP3    H227460   4.891   5.712   2.848  4.2202 -0.8810  0.4291
 9166TIP3   OH227461   6.082   5.967   3.793 -0.0359 -0.1345  0.4221
 9166TIP3    H127462   6.040   5.881   3.800 -0.9512  0.3854  1.6862
 9166TIP3    H227463   6.057   6.000   3.707 -0.0412 -0.9369  0.1070
 9167TIP3   OH227464   3.436   5.423   5.161 -0.1513 -1.0892 -0.1122
 9167TIP3    H127465   3.483   5.340   5.155  0.7670 -0.6084  0.2633
 9167TIP3    H227466   3.382   5.415   5.240 -0.3792 -1.4860 -0.3098
 9168TIP3   OH227467   6.693   3.630   2.714  0.0250  0.8544  0.1284
 9168TIP3    H127468   6.780   3.652   2.679 -0.6097  1.4399 -1.1384
 9168TIP3    H227469   6.656   3.569   2.651 -0.1161 -0.2127  1.1947
 9169TIP3   OH227470   6.660   6.278   2.167  0.4953 -0.4994  0.0335
 9169TIP3    H127471   6.651   6.213   2.237 -1.7458 -0.6182 -0.2737
 9169TIP3    H227472   6.572   6.315   2.158  1.8051  3.2510  0.7876
 9170TIP3   OH227473   4.866   5.853   1.425 -0.3242  0.7397  0.0665
 9170TIP3    H127474   4.952   5.812   1.421 -0.4695  0.2826  1.2272
 9170TIP3    H227475   4.871   5.926   1.364  0.4383 -0.1014 -0.9027
 9171TIP3   OH227476   2.868   6.230   0.300 -0.2993 -0.3475  0.1836
 9171TIP3    H127477   2.905   6.141   0.299  2.1053  0.5525  0.8276
 9171TIP3    H227478   2.886   6.263   0.388  0.6256  1.4210 -0.6100
 9172TIP3   OH227479   3.975   2.042   0.083  0.4947  0.4497 -0.3813
 9172TIP3    H127480   4.033   2.004   0.016  1.6376  1.5418 -0.0504
 9172TIP3    H227481   3.897   2.069   0.035  0.0028 -1.4670 -0.7663
 9173TIP3   OH227482   2.260   4.553   4.143 -0.5636 -0.2189  0.0900
 9173TIP3    H127483   2.331   4.617   4.139 -2.0095  1.5594  1.4010
 9173TIP3    H227484   2.304   4.469   4.157  1.2930  0.8159  0.7467
 9174TIP3   OH227485   7.140   3.675   4.043  0.2389  0.1398  0.1352
 9174TIP3    H127486   7.089   3.698   4.121 -1.1772 -3.3640  0.4279
 9174TIP3    H227487   7.205   3.613   4.075  2.1600  1.4929 -0.9413
 9175TIP3   OH227488   5.018   0.606   3.517  0.6217  0.6615  0.0561
 9175TIP3    H127489   5.001   0.634   3.607  1.0989  0.6045  0.1675
 9175TIP3    H227490   4.955   0.654   3.464  1.2998  1.8033  0.2592
 9176TIP3   OH227491   1.613   4.634   3.069 -0.1562 -0.3929  0.4776
 9176TIP3    H127492   1.622   4.546   3.034 -2.7256 -0.5424  0.0128
 9176TIP3    H227493   1.531   4.667   3.032  1.3015  2.6921 -0.3622
 9177TIP3   OH227494   1.049   1.017   5.727  0.1766 -0.3609 -1.1069
 9177TIP3    H127495   1.134   1.043   5.691  2.0025 -3.0210  0.8670
 9177TIP3    H227496   1.011   0.959   5.661 -0.2642  0.9981 -2.0863
 9178TIP3   OH227497   6.643   1.034   1.589 -0.4029 -0.1370 -0.2686
 9178TIP3    H127498   6.667   1.053   1.680  0.6143 -0.6998 -0.4012
 9178TIP3    H227499   6.590   0.954   1.595 -0.4290 -0.1132 -0.1703
 9179TIP3   OH227500   6.985   6.507   0.783  0.0371 -0.0113  0.3897
 9179TIP3    H127501   6.904   6.525   0.830 -0.7629  0.1770 -0.9982
 9179TIP3    H227502   6.969   6.423   0.740  0.4201  0.2334 -0.2318
 9180TIP3   OH227503   6.002   4.050   3.389  0.5839 -0.0634  0.1046
 9180TIP3    H127504   5.921   4.018   3.351  0.0559 -0.0361  1.1581
 9180TIP3    H227505   6.010   4.002   3.471  1.7191 -0.1776 -0.0644
 9181TIP3   OH227506   2.993   5.894   3.462 -0.5148  0.3788 -0.4381
 9181TIP3    H127507   2.975   5.825   3.398  0.1273 -1.2857  1.1002
 9181TIP3    H227508   2.913   5.900   3.514 -0.2518  0.1614 -0.0076
 9182TIP3   OH227509   4.211   1.425   5.578 -0.4520  0.4969 -0.2740
 9182TIP3    H127510   4.253   1.387   5.501 -1.2177  1.2587 -1.0827
 9182TIP3    H227511   4.146   1.486   5.543 -0.6629  1.0227  0.9737
 9183TIP3   OH227512   1.211   1.804   5.765  0.3629  0.0834  0.3109
 9183TIP3    H127513   1.126   1.765   5.783  0.5736 -0.2376  0.6253
 9183TIP3    H227514   1.209   1.888   5.811  0.1227  0.1904  0.1067
 9184TIP3   OH227515   3.279   5.587   2.109  0.5207  0.0048 -0.0856
 9184TIP3    H127516   3.304   5.495   2.116  0.5142 -0.0057 -0.1999
 9184TIP3    H227517   3.188   5.585   2.081 -0.1737  0.0156  1.9622
 9185TIP3   OH227518   6.709   3.320   3.403 -0.0143 -0.3662  0.4221
 9185TIP3    H127519   6.653   3.306   3.327  0.6864 -0.0244 -0.1735
 9185TIP3    H227520   6.648   3.325   3.477 -0.6429 -1.5102  0.0044
 9186TIP3   OH227521   3.014   6.302   2.067  0.5148 -0.2169  0.6251
 9186TIP3    H127522   2.960   6.338   2.137 -0.0120  0.2487 -0.0094
 9186TIP3    H227523   2.951   6.267   2.003  0.9300  0.7574 -0.3453
 9187TIP3   OH227524   5.673   0.837   3.650 -0.1885 -0.7133 -0.3293
 9187TIP3    H127525   5.598   0.889   3.621  0.6349  0.7730  0.0967
 9187TIP3    H227526   5.749   0.893   3.636  0.8631 -2.1406 -0.6492
 9188TIP3   OH227527   3.175   5.890   1.140  0.2213 -0.3516  0.4604
 9188TIP3    H127528   3.116   5.815   1.143  1.2544 -1.1796  0.7167
 9188TIP3    H227529   3.148   5.944   1.215 -0.3422 -0.6075  0.4498
 9189TIP3   OH227530   3.265   1.032   3.348  0.2423 -0.7151  0.7174
 9189TIP3    H127531   3.300   1.051   3.262 -0.4554 -0.2849  0.5190
 9189TIP3    H227532   3.234   0.941   3.342 -0.2611 -0.5210  0.3574
 9190TIP3   OH227533   4.862   4.593   5.636  0.3965  0.2563 -0.0425
 9190TIP3    H127534   4.943   4.608   5.685 -0.2392  1.2165  0.7494
 9190TIP3    H227535   4.810   4.536   5.693  0.6088 -0.6178 -0.6847
 9191TIP3   OH227536   3.405   2.323   4.270  0.3810 -0.0167  0.0576
 9191TIP3    H127537   3.334   2.386   4.284 -0.9605 -1.1086 -1.4895
 9191TIP3    H227538   3.474   2.352   4.330 -1.9257  0.1732  2.8373
 9192TIP3   OH227539   6.943   2.762   5.294 -0.0564 -0.3086 -0.0912
 9192TIP3    H127540   6.859   2.800   5.268  0.2165  0.8124  0.5688
 9192TIP3    H227541   7.007   2.832   5.277  1.1524 -1.9025 -2.8058
 9193TIP3   OH227542   6.094   4.102   2.192  0.3006  0.1271  0.0709
 9193TIP3    H127543   6.069   4.014   2.219  3.5156 -0.7269  0.6493
 9193TIP3    H227544   6.091   4.154   2.273  2.0914 -0.4415  0.5361
 9194TIP3   OH227545   6.383   6.466   3.091  0.0725  0.4293 -0.3709
 9194TIP3    H127546   6.382   6.381   3.136  0.7123  0.4471 -0.3216
 9194TIP3    H227547   6.321   6.454   3.018  0.2365 -0.1137 -0.4296
 9195TIP3   OH227548   1.796   3.507   5.050  0.2622  0.2072  0.4450
 9195TIP3    H127549   1.872   3.561   5.072  0.8721  0.7290 -2.5525
 9195TIP3    H227550   1.827   3.449   4.980 -1.3703 -1.5369  1.0942
 9196TIP3   OH227551   2.237   2.232   1.738 -0.2609 -0.1220  0.0053
 9196TIP3    H127552   2.205   2.261   1.824 -2.5430 -0.1451 -0.7791
 9196TIP3    H227553   2.326   2.267   1.733 -1.0447  2.2494  1.2598
 9197TIP3   OH227554   4.146   2.935   3.933 -0.1727 -0.1581  0.2952
 9197TIP3    H127555   4.068   2.987   3.915  0.0304 -0.0746 -0.3480
 9197TIP3    H227556   4.168   2.895   3.849  0.0333 -0.7922  0.6440
 9198TIP3   OH227557   2.737   6.669   2.205 -0.2415  0.1119 -0.3605
 9198TIP3    H127558   2.792   6.593   2.226  1.2912  1.0436 -0.8588
 9198TIP3    H227559   2.764   6.736   2.267 -0.8000  0.6007 -0.6361
 9199TIP3   OH227560   5.369   3.227   5.763 -0.4887 -0.3164 -0.0635
 9199TIP3    H127561   5.301   3.215   5.697 -0.5369 -1.1089  0.1246
 9199TIP3    H227562   5.450   3.200   5.719 -0.5806 -1.2569  0.3222
 9200TIP3   OH227563   0.290   2.284   1.907 -0.3631 -0.2324 -0.4625
 9200TIP3    H127564   0.330   2.277   1.994  1.6568 -0.2597 -1.3448
 9200TIP3    H227565   0.213   2.228   1.912 -0.6728  0.2961  1.5066
 9201TIP3   OH227566   4.046   1.322   1.246  0.2436 -0.0005  0.2319
 9201TIP3    H127567   4.065   1.415   1.232  1.0476  0.0090  1.2220
 9201TIP3    H227568   3.982   1.320   1.317  1.7240 -0.2164  1.6391
 9202TIP3   OH227569   4.995   0.111   0.043 -0.0400 -0.4636 -0.4682
 9202TIP3    H127570   5.009   0.040  -0.020 -1.3547 -0.5690 -0.6611
 9202TIP3    H227571   4.982   0.188  -0.011 -0.8286 -0.4895 -0.3235
 9203TIP3   OH227572   5.324   6.349   2.482  0.3911 -0.5419 -0.3022
 9203TIP3    H127573   5.319   6.254   2.486  0.3789 -0.5080  0.7219
 9203TIP3    H227574   5.389   6.367   2.414  1.9146 -1.3228  0.8934
 9204TIP3   OH227575   4.327   3.116   3.369  0.0276  0.4024 -0.5356
 9204TIP3    H127576   4.335   3.043   3.308 -0.8479  0.0489 -0.2484
 9204TIP3    H227577   4.236   3.112   3.398 -0.1819  1.9129 -0.8952
 9205TIP3   OH227578   1.661   4.134   0.608  0.0525  0.2161 -0.4744
 9205TIP3    H127579   1.614   4.201   0.558  1.7274  0.1851 -2.1725
 9205TIP3    H227580   1.591   4.087   0.654 -1.5187  0.7697 -2.1354
 9206TIP3   OH227581   1.851   3.320   3.300 -0.3033  0.4107 -0.0204
 9206TIP3    H127582   1.934   3.364   3.315  0.5432 -0.4638 -1.8333
 9206TIP3    H227583   1.786   3.374   3.345  1.2136  1.1296  1.4047
 9207TIP3   OH227584   4.212   6.634   0.841 -0.6391 -0.6144 -0.0069
 9207TIP3    H127585   4.285   6.598   0.891 -0.5328 -0.7456 -0.2535
 9207TIP3    H227586   4.198   6.721   0.878  1.5793  0.6605 -1.8594
 9208TIP3   OH227587   1.139   4.953   0.903  0.3037 -0.1931 -0.2519
 9208TIP3    H127588   1.190   5.031   0.927  0.0659 -0.4294  1.0945
 9208TIP3    H227589   1.121   4.910   0.986 -1.9481 -0.2161 -0.6912
 9209TIP3   OH227590   4.320   2.369   4.474 -0.4258 -0.2149 -0.2674
 9209TIP3    H127591   4.236   2.414   4.469 -0.0856  0.3834 -0.6453
 9209TIP3    H227592   4.377   2.417   4.415  0.3730 -0.2241  0.4800
 9210TIP3   OH227593   3.832   4.218   1.728 -0.1984 -0.8183  0.0536
 9210TIP3    H127594   3.832   4.124   1.711  0.8915 -0.4367 -2.5055
 9210TIP3    H227595   3.884   4.255   1.658  0.9318  1.5673  2.0055
 9211TIP3   OH227596   0.143  -0.017   0.334  0.1499  0.2055  0.0807
 9211TIP3    H127597   0.150   0.045   0.407 -0.1173  0.9359 -0.5020
 9211TIP3    H227598   0.179   0.030   0.259  0.8487 -0.7031 -0.1765
 9212TIP3   OH227599   1.361   4.051   2.866  0.1511  0.2557  0.0641
 9212TIP3    H127600   1.310   4.039   2.786  1.3652 -0.0949 -0.6750
 9212TIP3    H227601   1.411   3.970   2.876  0.2948  0.4444  0.9837
 9213TIP3   OH227602   5.118   0.756   3.150 -0.2131  0.2076 -0.4796
 9213TIP3    H127603   5.070   0.706   3.084 -0.8426  0.9653 -0.6159
 9213TIP3    H227604   5.164   0.823   3.100 -0.1740  0.3780 -0.2156
 9214TIP3   OH227605   6.367   5.102   1.788  0.1315  0.3642 -0.6192
 9214TIP3    H127606   6.304   5.080   1.857  0.9079  1.7954  0.5979
 9214TIP3    H227607   6.425   5.027   1.784 -0.3977 -0.0771 -0.2725
 9215TIP3   OH227608   2.142   6.000   2.728 -0.6366 -0.4187  0.4608
 9215TIP3    H127609   2.120   6.092   2.709 -0.6249 -0.8201 -1.6944
 9215TIP3    H227610   2.215   6.006   2.789 -0.1139  1.0337 -0.2469
 9216TIP3   OH227611   0.205   0.738   1.801  0.0602 -0.1836  0.3978
 9216TIP3    H127612   0.213   0.833   1.796 -1.4573 -0.0745 -0.4055
 9216TIP3    H227613   0.294   0.708   1.821  0.3649  1.4479  1.7854
 9217TIP3   OH227614   2.756   4.634   3.333  0.2665 -0.6122  0.0872
 9217TIP3    H127615   2.664   4.627   3.360  0.3750 -3.5373 -0.0034
 9217TIP3    H227616   2.805   4.587   3.400  1.2728 -2.0575 -1.5460
 9218TIP3   OH227617   3.647   6.397   5.769 -0.1497 -0.3841  0.1133
 9218TIP3    H127618   3.731   6.443   5.765 -0.3360  0.2189  2.0246
 9218TIP3    H227619   3.582   6.464   5.751 -0.2768 -0.5789 -0.1475
 9219TIP3   OH227620   4.637   2.451   3.391  0.6088 -0.1558 -0.5243
 9219TIP3    H127621   4.653   2.528   3.336 -0.3614  0.9571  0.7016
 9219TIP3    H227622   4.670   2.378   3.339  1.0970  1.0189 -1.9411
 9220TIP3   OH227623   1.726   1.200   1.363 -0.1768 -0.4102 -0.1073
 9220TIP3    H127624   1.675   1.120   1.374  0.8109 -1.1456 -0.6893
 9220TIP3    H227625   1.805   1.172   1.317  0.5613  0.7640  0.3937
 9221TIP3   OH227626   2.997   6.227   3.675  0.3233 -0.5278  0.4018
 9221TIP3    H127627   2.908   6.205   3.646  0.1121  1.2611 -0.4619
 9221TIP3    H227628   2.987   6.309   3.724  1.6815  0.8404 -1.4394
 9222TIP3   OH227629   1.986   1.339   1.708 -0.2991  0.6930 -0.0843
 9222TIP3    H127630   2.005   1.395   1.633 -0.5075 -0.3641 -0.9647
 9222TIP3    H227631   2.072   1.307   1.736 -0.3369 -0.1850 -0.9201
 9223TIP3   OH227632   4.562   1.131   1.015 -0.4235  0.1457 -0.0233
 9223TIP3    H127633   4.487   1.122   0.957 -0.4040 -1.0565  0.1051
 9223TIP3    H227634   4.567   1.047   1.061  0.5796  0.4584  0.4786
 9224TIP3   OH227635   4.448   2.554   5.153  0.5547  0.4323 -0.8638
 9224TIP3    H127636   4.360   2.532   5.121  0.4754  0.8736 -0.9597
 9224TIP3    H227637   4.507   2.502   5.099  0.2756 -1.7656  0.7865
 9225TIP3   OH227638   1.323   0.402   2.514 -0.0268  0.0823 -0.0819
 9225TIP3    H127639   1.369   0.468   2.566 -1.2118  1.2672 -0.5007
 9225TIP3    H227640   1.316   0.326   2.572  2.0886 -0.0141  0.1269
 9226TIP3   OH227641   5.714   5.180   1.035  0.1217 -0.2857 -0.2786
 9226TIP3    H127642   5.768   5.221   1.103  1.1319  0.3437 -1.4316
 9226TIP3    H227643   5.641   5.142   1.084  1.5777 -1.1769  1.3367
 9227TIP3   OH227644   3.607   4.206   1.544 -0.4651  0.0597 -0.1041
 9227TIP3    H127645   3.569   4.288   1.512 -0.6022 -0.1379 -0.4559
 9227TIP3    H227646   3.657   4.232   1.621  0.0394  0.5797 -0.5945
 9228TIP3   OH227647   6.252   6.006   4.183  0.1390  0.0658  0.6204
 9228TIP3    H127648   6.164   6.044   4.184  0.5386  1.0042  0.8083
 9228TIP3    H227649   6.272   5.995   4.090 -0.1543 -0.0990  0.5760
 9229TIP3   OH227650   0.320   4.060   4.743 -0.4249  0.3788  0.2457
 9229TIP3    H127651   0.338   4.067   4.837 -1.9362  2.2812  0.4347
 9229TIP3    H227652   0.407   4.061   4.702  0.2944 -1.2188  1.6068
 9230TIP3   OH227653   2.550   4.532   2.360  0.2694  0.8833 -0.6834
 9230TIP3    H127654   2.578   4.477   2.432 -1.4981  0.5493 -0.2166
 9230TIP3    H227655   2.582   4.487   2.281  2.4908  1.4166 -0.1647
 9231TIP3   OH227656   4.857   2.972   1.854  0.3037 -0.1105 -0.1704
 9231TIP3    H127657   4.838   2.944   1.943 -0.5165 -1.2695 -0.6854
 9231TIP3    H227658   4.788   3.034   1.832  0.7534  0.5144  0.1294
 9232TIP3   OH227659   6.078   0.436   2.373 -0.5794  0.1044  0.3822
 9232TIP3    H127660   6.062   0.346   2.400 -0.3021 -0.3298 -0.8408
 9232TIP3    H227661   6.079   0.433   2.278  1.2737  1.0606  0.3235
 9233TIP3   OH227662   4.544   3.881   3.948  0.1865  0.0182  0.4941
 9233TIP3    H127663   4.499   3.848   3.870 -0.2226  1.8184 -0.0776
 9233TIP3    H227664   4.628   3.913   3.915 -0.8144  2.7293  0.3332
 9234TIP3   OH227665   6.002   4.000   4.523  0.4568  0.0986 -0.0550
 9234TIP3    H127666   6.060   3.965   4.591  0.2079 -0.3312 -0.0548
 9234TIP3    H227667   6.048   4.075   4.487  1.0845 -0.3320 -0.1610
 9235TIP3   OH227668   3.030   3.788   0.133  0.5083 -0.8859 -0.0788
 9235TIP3    H127669   2.989   3.705   0.156 -0.2475 -0.7159 -0.7439
 9235TIP3    H227670   3.061   3.824   0.216  0.9043 -1.8578  0.2025
 9236TIP3   OH227671   0.767   1.441   0.816  0.3349  0.6482  0.2447
 9236TIP3    H127672   0.830   1.505   0.783 -0.0562  1.4079  0.9399
 9236TIP3    H227673   0.808   1.405   0.895  0.6192 -0.0833 -0.2242
 9237TIP3   OH227674   3.794   1.606   1.104  0.2354  0.2536 -0.0729
 9237TIP3    H127675   3.782   1.687   1.154 -0.2823  1.4544 -2.0173
 9237TIP3    H227676   3.715   1.555   1.120  0.9719 -0.3392  1.9049
 9238TIP3   OH227677   3.232   6.676   2.532  0.3565 -0.0001  0.0481
 9238TIP3    H127678   3.267   6.744   2.474  0.5916  0.1779  0.3986
 9238TIP3    H227679   3.290   6.677   2.608  0.2173 -0.4295  0.1604
 9239TIP3   OH227680   5.514   5.351   1.341  0.0744  0.4061  0.4360
 9239TIP3    H127681   5.576   5.421   1.322  0.0748  0.7521  1.6287
 9239TIP3    H227682   5.568   5.272   1.348  0.1337  0.3639 -0.4138
 9240TIP3   OH227683   4.670   4.433   4.494  0.0261  0.2627  0.1675
 9240TIP3    H127684   4.740   4.370   4.476 -0.6580 -0.0754 -1.5406
 9240TIP3    H227685   4.614   4.389   4.558 -0.4852 -0.9619 -1.0518
 9241TIP3   OH227686   6.119   0.177   4.977 -0.2957  0.1092  0.2699
 9241TIP3    H127687   6.149   0.254   4.929 -1.2444  0.1725 -0.2273
 9241TIP3    H227688   6.190   0.159   5.039  1.1976 -0.2990 -1.4864
 9242TIP3   OH227689   0.260   2.230   0.199 -0.3902 -0.0156  0.1388
 9242TIP3    H127690   0.165   2.240   0.196 -0.4450  2.0492  3.5999
 9242TIP3    H227691   0.294   2.311   0.161  0.0663 -0.9837 -1.6034
 9243TIP3   OH227692   2.229   1.514   5.768 -0.2001 -0.4927 -0.0376
 9243TIP3    H127693   2.167   1.511   5.695 -0.9873 -2.1048  0.6298
 9243TIP3    H227694   2.289   1.442   5.751  1.4389  0.9459 -0.5810
 9244TIP3   OH227695   4.585   2.017   1.928  0.0771  0.1955 -0.5894
 9244TIP3    H127696   4.521   2.016   1.857 -0.0052 -0.9474 -0.5109
 9244TIP3    H227697   4.669   2.009   1.885 -0.0340 -1.7424 -0.5282
 9245TIP3   OH227698   4.433   0.586   3.623  0.1129 -0.2190 -0.4968
 9245TIP3    H127699   4.404   0.618   3.538  0.7906  0.9457 -0.3156
 9245TIP3    H227700   4.385   0.504   3.636 -1.5100  0.5897 -1.0982
 9246TIP3   OH227701   1.469   3.521   1.475  0.0250 -0.3078 -0.0759
 9246TIP3    H127702   1.472   3.429   1.451 -0.2512 -0.0658 -1.0976
 9246TIP3    H227703   1.503   3.567   1.398 -1.0699  0.5106 -0.1024
 9247TIP3   OH227704   6.190   1.043   3.363  0.1264 -0.4049 -0.4539
 9247TIP3    H127705   6.174   1.094   3.283 -0.2427  0.7761  0.3451
 9247TIP3    H227706   6.153   1.097   3.433  0.8381 -1.2138  0.5648
 9248TIP3   OH227707   6.200   2.062   2.292  1.1166  0.2498  0.0775
 9248TIP3    H127708   6.239   1.992   2.344  2.7618  1.6512  0.8562
 9248TIP3    H227709   6.269   2.090   2.233  0.0539  0.3393 -1.1621
 9249TIP3   OH227710   4.647   4.250   1.456  0.0243  0.5758 -0.4303
 9249TIP3    H127711   4.628   4.241   1.363 -0.4647  0.5929 -0.3334
 9249TIP3    H227712   4.710   4.181   1.474 -0.3950  0.1374 -0.6282
 9250TIP3   OH227713   6.659   0.319   4.930 -0.1802 -0.3138 -0.0483
 9250TIP3    H127714   6.748   0.352   4.917  0.0335 -0.5184  0.7955
 9250TIP3    H227715   6.663   0.276   5.016 -0.5454 -2.1599 -0.9059
 9251TIP3   OH227716   3.463   5.689   1.269 -0.1717 -0.2562 -0.6410
 9251TIP3    H127717   3.392   5.711   1.330  0.1628  0.4890 -0.5018
 9251TIP3    H227718   3.504   5.611   1.307 -0.3663 -0.1726 -0.2459
 9252TIP3   OH227719   5.111   3.358   0.274  0.7150 -0.1579 -0.0468
 9252TIP3    H127720   5.139   3.443   0.309 -0.5460 -0.1047  0.9145
 9252TIP3    H227721   5.116   3.298   0.348 -2.1901 -0.0037  0.3991
 9253TIP3   OH227722   6.546   4.818   0.374  0.3945 -0.4637  0.3047
 9253TIP3    H127723   6.488   4.744   0.356  1.2919 -1.3930  1.1035
 9253TIP3    H227724   6.624   4.800   0.322  0.7759 -0.2804  0.8094
 9254TIP3   OH227725   1.787   3.666   4.037  0.0652 -0.1863  0.2098
 9254TIP3    H127726   1.777   3.760   4.027 -1.3016 -0.4430 -1.3057
 9254TIP3    H227727   1.867   3.645   3.989 -0.7139 -0.0256 -1.1959
 9255TIP3   OH227728   4.804   1.012   4.942  0.1682  0.1553  0.1939
 9255TIP3    H127729   4.723   0.963   4.953  0.0554  0.4651  0.7526
 9255TIP3    H227730   4.826   1.044   5.029 -0.5237  2.2986 -0.3506
 9256TIP3   OH227731   3.199   6.709   2.034 -0.1630 -0.2363  0.1029
 9256TIP3    H127732   3.128   6.773   2.033  0.5848  0.6685  1.5546
 9256TIP3    H227733   3.278   6.762   2.038  0.5235 -1.2424  0.1204
 9257TIP3   OH227734   2.402   4.349   2.141  0.1812 -0.1127 -0.3843
 9257TIP3    H127735   2.383   4.439   2.114 -2.5118 -0.7751 -1.0003
 9257TIP3    H227736   2.327   4.324   2.195  1.1804 -1.7890  0.2987
 9258TIP3   OH227737   0.541   0.391   3.079 -0.6203  0.5374  0.3902
 9258TIP3    H127738   0.543   0.429   2.991 -0.9022 -1.1442 -0.4022
 9258TIP3    H227739   0.461   0.337   3.080 -0.6196  0.5229  1.6849
 9259TIP3   OH227740   2.502   3.752   3.887  0.0149 -0.0970 -0.3456
 9259TIP3    H127741   2.586   3.732   3.928 -0.1224  1.1111  0.5732
 9259TIP3    H227742   2.507   3.710   3.801  1.3793 -0.4098 -0.1407
 9260TIP3   OH227743   2.572   3.097   4.220 -0.0576  0.2075 -0.5064
 9260TIP3    H127744   2.531   3.178   4.191  1.0812  1.3662  0.9439
 9260TIP3    H227745   2.663   3.104   4.189 -0.1513 -0.9455 -1.1204
 9261TIP3   OH227746   5.826   5.310   5.745  0.1530 -0.0695  0.2527
 9261TIP3    H127747   5.900   5.286   5.690 -0.8208 -1.3647 -0.5415
 9261TIP3    H227748   5.763   5.239   5.733 -1.0605  0.8060  1.2045
 9262TIP3   OH227749   5.544   1.920   4.604  0.2599 -0.1834  0.7400
 9262TIP3    H127750   5.483   1.960   4.666 -0.2371  0.1139  0.0685
 9262TIP3    H227751   5.592   1.855   4.656 -0.1132  0.0912  1.4430
 9263TIP3   OH227752   5.103   4.231   1.936  0.1619  0.0289 -0.0399
 9263TIP3    H127753   5.078   4.142   1.962 -1.4498  0.3503 -0.3682
 9263TIP3    H227754   5.020   4.279   1.930  1.0544  1.9262  1.4152
 9264TIP3   OH227755   1.348   6.117   4.340  0.2814 -0.3295 -0.5286
 9264TIP3    H127756   1.297   6.198   4.341  1.9900  0.8322 -1.2015
 9264TIP3    H227757   1.417   6.132   4.405  0.6414 -1.2470 -0.6835
 9265TIP3   OH227758   0.057   6.297   5.525 -0.9389  0.1297 -0.7649
 9265TIP3    H127759  -0.024   6.245   5.520 -0.7158 -0.3535  0.3176
 9265TIP3    H227760   0.120   6.239   5.568 -0.6315  1.2309  0.3188
 9266TIP3   OH227761   4.820   2.662   5.135  0.6797 -0.4663 -0.4983
 9266TIP3    H127762   4.828   2.740   5.190  1.2603 -1.4811  0.8992
 9266TIP3    H227763   4.883   2.676   5.065 -1.1262  1.5358 -1.8686
 9267TIP3   OH227764   1.278   3.081   3.218 -0.3186  0.6195  0.0275
 9267TIP3    H127765   1.312   3.065   3.129  1.4204 -2.3238  1.0762
 9267TIP3    H227766   1.193   3.037   3.219 -0.6013  1.1490 -0.3259
 9268TIP3   OH227767   6.649   3.023   4.436  0.1293 -0.0120 -0.4007
 9268TIP3    H127768   6.677   3.064   4.354 -0.0842  0.4315 -0.2563
 9268TIP3    H227769   6.698   2.941   4.440  0.0114 -0.1188 -1.0555
 9269TIP3   OH227770   6.198   2.178   1.694 -0.1197  0.5278  0.1748
 9269TIP3    H127771   6.293   2.171   1.701 -0.1505  0.5304  0.6283
 9269TIP3    H227772   6.168   2.087   1.688 -0.2200  0.4112  1.9626
 9270TIP3   OH227773   6.410   2.040   0.447  0.1265 -0.4871 -0.3210
 9270TIP3    H127774   6.493   2.048   0.493 -0.2747  0.0372  0.3381
 9270TIP3    H227775   6.344   2.033   0.516 -0.3940 -0.7387 -0.8251
 9271TIP3   OH227776   1.751   3.005   4.536  0.0718 -0.2474 -0.2726
 9271TIP3    H127777   1.727   3.068   4.468 -0.1111 -0.4407 -0.3891
 9271TIP3    H227778   1.823   3.047   4.583  0.1296 -0.0665 -0.5193
 9272TIP3   OH227779   1.178   6.030   5.259  0.0733  0.3901 -0.4429
 9272TIP3    H127780   1.263   6.040   5.217 -0.4795 -0.7367 -1.9057
 9272TIP3    H227781   1.183   5.945   5.304 -0.0725  0.6188  0.0179
 9273TIP3   OH227782   7.092   1.152   3.522  0.0332  0.5879  0.0166
 9273TIP3    H127783   7.145   1.225   3.488  1.0280 -1.0719 -2.1956
 9273TIP3    H227784   7.152   1.077   3.523 -1.9750 -1.1612 -1.7282
 9274TIP3   OH227785   4.215   4.079   4.955  0.6600 -0.2016  0.0696
 9274TIP3    H127786   4.231   4.155   5.012  1.0734  0.6371 -1.1217
 9274TIP3    H227787   4.281   4.015   4.982  0.3877 -0.1054  1.0056
 9275TIP3   OH227788   6.525   5.509   1.786 -0.3420 -0.7261 -0.2796
 9275TIP3    H127789   6.545   5.417   1.806  0.7899 -0.8004 -1.5892
 9275TIP3    H227790   6.598   5.538   1.731 -1.0564  0.7476 -0.5039
 9276TIP3   OH227791   2.052   6.563   1.567  0.3889 -0.1616  0.4588
 9276TIP3    H127792   2.070   6.473   1.542  1.8123  0.2227 -0.0068
 9276TIP3    H227793   1.967   6.560   1.612  1.0325 -1.9280  1.6555
 9277TIP3   OH227794   3.903   2.417   0.042 -0.6295  0.0049  0.2458
 9277TIP3    H127795   3.810   2.394   0.039 -0.7887  0.6461  0.1739
 9277TIP3    H227796   3.911   2.490  -0.019 -0.1412  0.1839  0.5212
 9278TIP3   OH227797   6.011   5.030   2.657 -0.2541 -0.0832 -0.0048
 9278TIP3    H127798   6.012   5.107   2.601  1.4207 -0.9479 -1.2800
 9278TIP3    H227799   6.040   5.061   2.742 -2.7378  1.2368  0.4576
 9279TIP3   OH227800   4.791   2.223   2.910  0.2550 -0.5964  0.2805
 9279TIP3    H127801   4.750   2.141   2.882 -0.3915  0.3463 -1.7295
 9279TIP3    H227802   4.863   2.236   2.848  0.4685  0.2463  0.6877
 9280TIP3   OH227803   5.936   4.554   4.234 -0.2034  0.2480 -0.1403
 9280TIP3    H127804   5.993   4.631   4.241  1.5843 -0.9395 -0.9744
 9280TIP3    H227805   5.972   4.504   4.161 -1.2772 -1.4310  0.4291
 9281TIP3   OH227806   4.677   3.604   3.046 -0.2378  0.2320  0.1225
 9281TIP3    H127807   4.675   3.562   3.132  2.7777  0.2741  0.3220
 9281TIP3    H227808   4.702   3.533   2.986 -2.5522  0.1469 -0.8272
 9282TIP3   OH227809   4.232   2.693   5.571  0.5542  0.3106 -0.2141
 9282TIP3    H127810   4.326   2.680   5.579  0.9094  1.4880 -1.8512
 9282TIP3    H227811   4.208   2.645   5.491 -0.5709 -1.3798  1.0831
 9283TIP3   OH227812   2.284   4.635   4.631  0.7356 -0.5580  1.2468
 9283TIP3    H127813   2.320   4.583   4.560 -0.4139 -0.6487  0.7038
 9283TIP3    H227814   2.262   4.719   4.591 -1.6152 -1.2235  1.0118
 9284TIP3   OH227815   6.405   2.437   2.511  0.1995 -0.0642  0.0622
 9284TIP3    H127816   6.380   2.521   2.473 -0.5453 -0.1640  0.3060
 9284TIP3    H227817   6.338   2.376   2.479  1.1453 -0.7287 -0.7121
 9285TIP3   OH227818   1.876   0.317   3.470 -0.2651  0.3980  0.5944
 9285TIP3    H127819   1.936   0.265   3.416 -0.8568  0.1448  0.1659
 9285TIP3    H227820   1.833   0.253   3.526 -0.5345  0.5035  0.5106
 9286TIP3   OH227821   6.411   1.258   0.753  0.2263  0.9068 -0.2077
 9286TIP3    H127822   6.417   1.196   0.826 -0.7139  0.5675 -0.3989
 9286TIP3    H227823   6.386   1.204   0.678  0.9302  1.2926 -0.7329
 9287TIP3   OH227824   5.427   4.225   0.218 -0.7754  0.0502  0.3603
 9287TIP3    H127825   5.342   4.216   0.262 -1.1059  1.8670  0.1755
 9287TIP3    H227826   5.426   4.314   0.183  2.1648  1.0331  2.4013
 9288TIP3   OH227827   3.117   2.398   3.836  0.3785 -0.6861  0.0925
 9288TIP3    H127828   3.144   2.368   3.750  1.0138  1.7597 -0.6230
 9288TIP3    H227829   3.191   2.448   3.869 -0.7216  0.3800  1.0454
 9289TIP3   OH227830   0.019   5.361   4.088 -0.6135 -0.4571 -0.1242
 9289TIP3    H127831   0.040   5.328   4.175 -2.1424 -0.5900  0.2391
 9289TIP3    H227832   0.017   5.456   4.097  1.0177 -0.3625 -0.4840
 9290TIP3   OH227833   6.007   1.195   0.744 -0.2213 -0.6901  0.0658
 9290TIP3    H127834   5.996   1.288   0.764 -0.4942 -0.4716 -1.0318
 9290TIP3    H227835   6.005   1.152   0.830  1.6552  0.4563  0.7693
 9291TIP3   OH227836   6.707   4.849   2.696 -0.2463  0.2097  0.4900
 9291TIP3    H127837   6.632   4.906   2.681 -1.4793 -1.2872  0.8471
 9291TIP3    H227838   6.673   4.760   2.689  1.3614 -0.5153  1.2785
 9292TIP3   OH227839   3.421   3.915   4.065 -0.0133 -0.2268  0.1578
 9292TIP3    H127840   3.433   3.917   4.160 -1.0734 -1.1099  0.3472
 9292TIP3    H227841   3.328   3.936   4.053  0.4001  1.2149 -0.7960
 9293TIP3   OH227842   6.791   5.008   4.961 -0.3352 -0.8139 -0.4579
 9293TIP3    H127843   6.748   4.990   4.877  0.9227 -1.6890 -0.9425
 9293TIP3    H227844   6.750   5.089   4.992 -1.7568 -1.1878 -1.2693
 9294TIP3   OH227845   5.859   0.402   1.137  0.2152  0.0555  0.1482
 9294TIP3    H127846   5.786   0.345   1.161 -0.1855 -0.2543 -1.7052
 9294TIP3    H227847   5.818   0.475   1.091  0.9400  0.7518  0.5815
 9295TIP3   OH227848   2.445   0.451   1.859  0.3735 -0.1353 -0.1790
 9295TIP3    H127849   2.492   0.435   1.941 -0.5584  0.2611  0.4551
 9295TIP3    H227850   2.353   0.461   1.886  0.1996  1.0977 -1.1418
 9296TIP3   OH227851   3.769   1.208   5.384 -0.3541  0.3719  0.4165
 9296TIP3    H127852   3.700   1.186   5.322  0.6337  1.6140 -1.2085
 9296TIP3    H227853   3.830   1.134   5.378 -0.4002  0.3580  0.0860
 9297TIP3   OH227854   3.268   1.257   1.296  0.2818 -0.0736 -0.3814
 9297TIP3    H127855   3.206   1.308   1.245 -0.8474 -0.7516  0.2806
 9297TIP3    H227856   3.324   1.215   1.231 -1.1683 -0.9632 -1.1049
 9298TIP3   OH227857   1.709   3.000   2.412  0.4617 -0.2995 -0.6039
 9298TIP3    H127858   1.661   2.957   2.342  0.1346 -0.3982 -0.3241
 9298TIP3    H227859   1.706   2.938   2.485 -0.9419  0.6130  0.1642
 9299TIP3   OH227860   1.254   4.482   2.981 -0.3023 -0.3013  0.0532
 9299TIP3    H127861   1.173   4.431   2.976 -0.3833 -0.1552 -0.1414
 9299TIP3    H227862   1.287   4.465   3.069 -0.4863 -0.4514  0.0952
 9300TIP3   OH227863   5.107   0.983   0.388  0.3141  0.2676  0.5054
 9300TIP3    H127864   5.104   1.077   0.404 -0.7702  0.1225  1.2969
 9300TIP3    H227865   5.194   0.967   0.351  0.6478  1.5209  0.7075
 9301TIP3   OH227866   6.840   3.104   0.755 -0.7084 -0.3576  0.6642
 9301TIP3    H127867   6.908   3.134   0.695 -2.6961  1.0132 -1.0559
 9301TIP3    H227868   6.887   3.083   0.836  1.7121  0.5913 -0.3899
 9302TIP3   OH227869   1.853   0.299   5.573  0.2534  0.2156 -0.2520
 9302TIP3    H127870   1.815   0.386   5.591  0.2939  0.1578  0.1219
 9302TIP3    H227871   1.818   0.243   5.643  1.1289  0.1874  0.1802
 9303TIP3   OH227872   2.512   0.491   0.819 -0.3832 -0.0426 -0.0875
 9303TIP3    H127873   2.556   0.470   0.737  0.1017 -0.1063  0.1888
 9303TIP3    H227874   2.440   0.429   0.825  1.2260 -1.9102  0.8913
 9304TIP3   OH227875   5.802   5.352   4.312 -0.1282  0.0928 -0.0556
 9304TIP3    H127876   5.750   5.287   4.358  0.3814  0.3273  0.8644
 9304TIP3    H227877   5.891   5.316   4.310 -0.3026 -0.3300 -1.6603
 9305TIP3   OH227878   0.820   3.065   3.129  0.4997 -0.6095 -0.4165
 9305TIP3    H127879   0.756   3.025   3.187 -0.8173  0.9498 -0.7034
 9305TIP3    H227880   0.841   3.149   3.171  0.2297  0.1254 -1.6861
 9306TIP3   OH227881   1.478   1.769   3.726 -1.0089  0.4600 -0.1075
 9306TIP3    H127882   1.510   1.753   3.815 -0.5400 -1.7604 -0.6027
 9306TIP3    H227883   1.448   1.683   3.696  0.5180  0.7270 -2.7031
 9307TIP3   OH227884   0.314   2.801   0.288  0.1871 -0.6011 -0.1852
 9307TIP3    H127885   0.338   2.780   0.378 -0.4430 -1.0685 -0.1158
 9307TIP3    H227886   0.387   2.851   0.255 -0.5821  1.7093  1.3633
 9308TIP3   OH227887   2.458   2.235   0.702  0.3077  0.6724 -0.0620
 9308TIP3    H127888   2.501   2.320   0.707  0.9530  0.3182  0.6705
 9308TIP3    H227889   2.428   2.217   0.792 -2.1143  1.2560 -0.6831
 9309TIP3   OH227890   1.072   1.963   3.211  0.2975  0.0117 -0.0828
 9309TIP3    H127891   1.122   2.031   3.256  0.2809  0.2986 -0.4958
 9309TIP3    H227892   1.133   1.890   3.201  0.2493 -0.1265  0.5632
 9310TIP3   OH227893   5.398   5.529   5.381 -0.0880  0.1026  0.2724
 9310TIP3    H127894   5.317   5.524   5.331  0.5352 -1.3874 -0.6428
 9310TIP3    H227895   5.463   5.559   5.318  0.2511  0.4782  0.7909
 9311TIP3   OH227896   0.494   2.965   1.350  0.5859 -0.4105 -0.0357
 9311TIP3    H127897   0.511   2.905   1.422  2.3673 -0.6203 -0.5916
 9311TIP3    H227898   0.405   2.944   1.321 -0.8313  0.7288  3.0375
 9312TIP3   OH227899   6.493   3.182   0.513  0.4282 -0.1220 -0.3746
 9312TIP3    H127900   6.486   3.087   0.503 -0.2491 -0.0696 -0.4900
 9312TIP3    H227901   6.432   3.203   0.584  1.3080  0.1170  0.3279
 9313TIP3   OH227902   1.937   6.274   4.663 -0.4114  0.1157  0.2747
 9313TIP3    H127903   2.016   6.320   4.694 -0.9731  1.4100 -0.1282
 9313TIP3    H227904   1.950   6.267   4.568  0.3581 -1.9707  0.4912
 9314TIP3   OH227905   2.598   0.841   5.165 -0.2774  0.1427  0.1536
 9314TIP3    H127906   2.549   0.895   5.228  0.3868  0.9745 -0.0276
 9314TIP3    H227907   2.561   0.864   5.080 -3.5576 -3.4056  0.3339
 9315TIP3   OH227908   4.215   5.461   1.206 -0.3817 -0.4209 -0.2037
 9315TIP3    H127909   4.223   5.403   1.282 -1.8358 -0.5021 -0.0813
 9315TIP3    H227910   4.294   5.444   1.155  0.7370 -0.2058  1.3743
 9316TIP3   OH227911   3.400   2.108   3.130 -0.6644  0.8901  0.0998
 9316TIP3    H127912   3.320   2.161   3.121 -0.6947  0.9453  0.6794
 9316TIP3    H227913   3.403   2.084   3.222 -0.5116  0.0855 -0.1119
 9317TIP3   OH227914   4.185   4.184   5.712  0.2117  0.2311 -0.7713
 9317TIP3    H127915   4.222   4.138   5.637  1.7923  0.3732 -0.1245
 9317TIP3    H227916   4.151   4.114   5.769  0.2303  0.0410 -0.9913
 9318TIP3   OH227917   4.128   2.522   2.043  0.0432  0.0525 -0.3161
 9318TIP3    H127918   4.206   2.575   2.029 -0.1355  0.6149  0.7195
 9318TIP3    H227919   4.130   2.502   2.137 -1.0690  0.0848 -0.2821
 9319TIP3   OH227920   3.409   2.725   5.024 -0.1609 -0.2079  0.4077
 9319TIP3    H127921   3.407   2.643   4.975  0.6861 -1.0774  1.7516
 9319TIP3    H227922   3.473   2.779   4.977 -1.0411 -0.1229 -0.7380
 9320TIP3   OH227923   6.382   1.824   3.996 -0.5666  0.4543  0.4439
 9320TIP3    H127924   6.347   1.778   4.072 -1.0962 -0.3063 -0.2382
 9320TIP3    H227925   6.347   1.776   3.921  0.8576  0.4853 -0.2839
 9321TIP3   OH227926   4.497   5.393   3.091  0.0252 -0.4179 -0.3526
 9321TIP3    H127927   4.469   5.481   3.067  0.0737 -0.7231 -1.5841
 9321TIP3    H227928   4.468   5.382   3.182  1.3013  1.4003  0.3452
 9322TIP3   OH227929   4.781   6.393   5.106  0.6527  0.1696 -0.0938
 9322TIP3    H127930   4.791   6.328   5.037  0.0407 -0.2888  0.2395
 9322TIP3    H227931   4.700   6.439   5.084 -1.7171 -2.5050  2.2901
 9323TIP3   OH227932   1.641   4.887   0.445 -0.5946  0.0244 -0.1189
 9323TIP3    H127933   1.702   4.877   0.372 -2.0152  1.5690 -1.6303
 9323TIP3    H227934   1.696   4.912   0.519  0.5609  3.3327 -1.8896
 9324TIP3   OH227935   7.138   3.518   0.561  0.4747  0.1289 -0.5351
 9324TIP3    H127936   7.184   3.512   0.477 -0.1596 -0.0527 -0.8724
 9324TIP3    H227937   7.067   3.580   0.545  1.4582  1.5568  0.3889
 9325TIP3   OH227938   3.519   4.901   2.574  0.2962  0.8326 -0.1915
 9325TIP3    H127939   3.578   4.940   2.510  0.5001  1.0092  0.1029
 9325TIP3    H227940   3.516   4.808   2.551  0.0670  0.9595 -0.6916
 9326TIP3   OH227941   0.362   0.547   2.215 -0.2500 -0.1470 -0.1629
 9326TIP3    H127942   0.289   0.531   2.154 -0.7332 -0.7252  0.5421
 9326TIP3    H227943   0.319   0.563   2.299  0.3559  1.6973 -0.1541
 9327TIP3   OH227944   4.462   0.153   1.504  0.0682 -0.0692  0.1004
 9327TIP3    H127945   4.461   0.098   1.583  0.0864 -1.8916 -1.0968
 9327TIP3    H227946   4.385   0.209   1.514 -0.0481 -0.4063  1.3175
 9328TIP3   OH227947   5.250   2.881   0.916  0.2641  0.5838  0.1163
 9328TIP3    H127948   5.235   2.972   0.889 -1.2853  0.2964 -0.0893
 9328TIP3    H227949   5.298   2.888   0.999  1.6063  1.5394 -0.6965
 9329TIP3   OH227950   3.104   1.226   5.562  0.8436  0.2765  0.1975
 9329TIP3    H127951   3.112   1.151   5.621 -1.3473  0.1488  0.4224
 9329TIP3    H227952   3.046   1.195   5.493 -0.1088  1.7532  0.3067
 9330TIP3   OH227953   2.720   6.178   5.512  0.2736  0.4145  0.2228
 9330TIP3    H127954   2.771   6.175   5.431  0.7474  1.6888  0.4428
 9330TIP3    H227955   2.630   6.196   5.483  0.3423  0.3067 -0.0584
 9331TIP3   OH227956   2.386   3.725   4.480 -0.3022  0.4775 -0.0417
 9331TIP3    H127957   2.411   3.741   4.389 -0.3000  0.5718 -0.0247
 9331TIP3    H227958   2.442   3.785   4.530  0.6220 -0.4809  0.1125
 9332TIP3   OH227959   5.174   5.828   2.727 -0.2666 -0.0759 -0.3606
 9332TIP3    H127960   5.129   5.912   2.718 -0.2644 -0.0126  0.1958
 9332TIP3    H227961   5.251   5.847   2.781  0.9869  0.0185 -2.1112
 9333TIP3   OH227962   3.748   3.999   1.426  0.0688  0.1333 -0.0464
 9333TIP3    H127963   3.767   4.016   1.334 -2.9765  1.0909 -0.6211
 9333TIP3    H227964   3.704   4.078   1.457 -1.7046 -1.2973  1.3274
 9334TIP3   OH227965   4.386   1.272   1.569  0.6260 -0.5079 -0.0959
 9334TIP3    H127966   4.346   1.347   1.524  0.6661 -0.4027  0.0452
 9334TIP3    H227967   4.407   1.305   1.656  0.2225 -0.8140  0.1203
 9335TIP3   OH227968   4.211   1.725   4.460  0.4504 -0.3481 -0.2504
 9335TIP3    H127969   4.179   1.674   4.385  1.4493 -1.2448 -0.0933
 9335TIP3    H227970   4.261   1.796   4.420  0.2836 -0.3389 -0.4480
 9336TIP3   OH227971   3.091   4.873   2.239 -0.2144 -0.7336 -0.6671
 9336TIP3    H127972   3.004   4.909   2.218 -0.0138  0.0166 -0.2525
 9336TIP3    H227973   3.135   4.867   2.154 -0.6978 -1.1841 -0.8870
 9337TIP3   OH227974   0.456   4.583   0.137 -0.0759  0.1447 -0.4117
 9337TIP3    H127975   0.377   4.540   0.169 -0.4346  1.0609 -0.0119
 9337TIP3    H227976   0.461   4.561   0.044 -0.7334 -0.0178 -0.4068
 9338TIP3   OH227977   4.814   5.159   3.464 -0.1791  0.2989 -0.4056
 9338TIP3    H127978   4.856   5.172   3.379 -0.0650 -2.6017 -0.8934
 9338TIP3    H227979   4.765   5.240   3.479  1.2166  1.5966 -2.3651
 9339TIP3   OH227980   6.983   5.318   4.485  0.0330  0.4834  0.1288
 9339TIP3    H127981   6.910   5.300   4.426 -0.4063  1.0784  0.4798
 9339TIP3    H227982   6.969   5.258   4.558  0.4149 -0.0483 -0.2271
 9340TIP3   OH227983   1.426   6.128   1.178 -0.5141  0.6490 -0.1348
 9340TIP3    H127984   1.340   6.161   1.150 -2.1650 -0.8623  2.7031
 9340TIP3    H227985   1.489   6.186   1.135 -2.8989  1.7996 -2.3775
 9341TIP3   OH227986   3.712   4.897   3.392  0.8454  0.3976 -0.4772
 9341TIP3    H127987   3.786   4.932   3.442  0.8474 -1.0018  0.5640
 9341TIP3    H227988   3.740   4.905   3.300  1.8868  0.7710 -0.1484
 9342TIP3   OH227989   2.105   3.778   4.148  0.6607 -0.5369  0.7548
 9342TIP3    H127990   2.142   3.691   4.135 -0.8511 -1.1423  0.2549
 9342TIP3    H227991   2.153   3.834   4.086  0.4005 -1.4035 -0.2676
 9343TIP3   OH227992   1.048   4.935   5.883  0.1077 -0.1327  0.3148
 9343TIP3    H127993   1.066   4.841   5.880  0.4976 -0.0783  0.9869
 9343TIP3    H227994   1.089   4.970   5.804 -1.3671 -0.7436 -0.7771
 9344TIP3   OH227995   5.792   0.511   2.974  0.2503 -0.0481  0.1790
 9344TIP3    H127996   5.753   0.439   3.025 -1.1500  0.7154  0.2334
 9344TIP3    H227997   5.732   0.522   2.900  0.6438  0.8329 -0.0163
 9345TIP3   OH227998   0.913   5.363   3.159 -0.0128 -0.0446 -0.4395
 9345TIP3    H127999   0.835   5.410   3.131  0.1706  0.7102  0.2947
 9345TIP3    H228000   0.929   5.300   3.089 -2.1951 -1.3177  0.1012
 9346TIP3   OH228001   5.528   6.709   1.131  0.4750 -0.8072 -1.1233
 9346TIP3    H128002   5.615   6.747   1.145 -0.3882  0.7488  0.4065
 9346TIP3    H228003   5.489   6.763   1.064  0.6559 -1.5187 -1.8228
 9347TIP3   OH228004   5.212   4.023   4.690  0.3124  0.2813 -0.8589
 9347TIP3    H128005   5.138   4.050   4.744  1.5664 -0.6988  1.4682
 9347TIP3    H228006   5.172   3.980   4.614 -1.5143 -0.1401  0.2771
 9348TIP3   OH228007   6.017   5.327   3.756  0.3497  0.1250 -0.2214
 9348TIP3    H128008   6.050   5.301   3.670  1.4140  0.4059  0.0898
 9348TIP3    H228009   5.964   5.405   3.738 -0.4765 -0.5388 -0.7724
 9349TIP3   OH228010   4.029   3.788   1.992 -0.1127 -0.0892 -0.1470
 9349TIP3    H128011   4.042   3.700   2.029 -0.5422 -0.3537 -0.6276
 9349TIP3    H228012   4.006   3.842   2.068 -1.4133 -0.7157 -0.0799
 9350TIP3   OH228013   0.330   5.845   1.435 -0.5455  0.1433  0.2303
 9350TIP3    H128014   0.295   5.766   1.476 -1.5280  0.7620  0.6234
 9350TIP3    H228015   0.263   5.911   1.450  0.2994  1.0768 -0.0159
 9351TIP3   OH228016   0.106   0.089   1.545 -0.3180  0.3233 -0.9284
 9351TIP3    H128017   0.044   0.155   1.575  0.7832  1.3898 -0.9407
 9351TIP3    H228018   0.180   0.095   1.605  0.4530  0.1550 -1.8243
 9352TIP3   OH228019   1.757   2.983   3.636 -0.6823  0.1787  0.3994
 9352TIP3    H128020   1.674   2.939   3.654 -0.4960 -1.3080 -1.9249
 9352TIP3    H228021   1.770   2.973   3.542  2.0849  0.4355  0.6574
 9353TIP3   OH228022   3.213   3.446   2.193  0.0298 -0.2975 -0.2634
 9353TIP3    H128023   3.208   3.446   2.288 -2.6291  0.6196 -0.3206
 9353TIP3    H228024   3.212   3.539   2.169 -0.0762 -0.5308 -1.1952
 9354TIP3   OH228025   3.732   0.644   5.316  0.2724  0.7302  0.0773
 9354TIP3    H128026   3.828   0.645   5.316  0.2991 -0.1668 -0.5895
 9354TIP3    H228027   3.709   0.627   5.407  0.7833 -0.1615  0.0550
 9355TIP3   OH228028   3.545   1.476   1.218 -0.1887 -0.1457 -0.1957
 9355TIP3    H128029   3.454   1.505   1.215  0.2775  1.9327  2.3986
 9355TIP3    H228030   3.547   1.410   1.288  0.3493 -0.0413 -0.1089
 9356TIP3   OH228031   3.046   0.177   5.642  0.0303  0.1969  0.8569
 9356TIP3    H128032   3.136   0.156   5.619  0.4072  0.3347  2.0905
 9356TIP3    H228033   3.013   0.097   5.684  0.0182  0.5625  1.5694
 9357TIP3   OH228034   3.672   1.471   1.965  0.1732 -0.2348  0.4252
 9357TIP3    H128035   3.669   1.457   1.871  2.9393 -1.0441  0.3584
 9357TIP3    H228036   3.645   1.387   2.003 -0.1428 -0.1746  0.3287
 9358TIP3   OH228037   3.544   4.242   5.766  0.3094 -0.0743 -0.2828
 9358TIP3    H128038   3.571   4.152   5.747 -0.6937 -0.4590  0.0731
 9358TIP3    H228039   3.626   4.291   5.767  1.0136 -1.2055  0.7033
 9359TIP3   OH228040   0.287   0.703   3.497  0.0122  0.7352 -0.5756
 9359TIP3    H128041   0.363   0.663   3.455  0.3810 -0.6766  1.2706
 9359TIP3    H228042   0.308   0.796   3.503  0.4290  0.7888 -2.3829
 9360TIP3   OH228043   2.074   5.250   0.670 -0.0276  0.4132 -0.3218
 9360TIP3    H128044   2.021   5.229   0.747  0.5404  0.0462 -0.0281
 9360TIP3    H228045   2.018   5.307   0.618 -1.1110 -0.7406 -0.4930
 9361TIP3   OH228046   3.923   3.971   3.122 -0.3159 -0.0032 -0.3010
 9361TIP3    H128047   3.881   4.053   3.150  0.9624  0.1268  1.4066
 9361TIP3    H228048   3.937   3.923   3.203  1.2546 -0.7867 -1.0008
 9362TIP3   OH228049   4.788   6.375   5.619 -1.1317  0.2250  0.2355
 9362TIP3    H128050   4.777   6.469   5.612  0.4499  0.4250  0.1034
 9362TIP3    H228051   4.834   6.350   5.539 -1.2569 -0.6168  0.4114
 9363TIP3   OH228052   4.943   4.198   1.406 -0.1426  0.0592  0.2559
 9363TIP3    H128053   4.952   4.237   1.493  0.7521 -0.7195  0.5373
 9363TIP3    H228054   4.922   4.271   1.348 -0.0019  0.7059  1.0028
 9364TIP3   OH228055   3.961   3.761   3.902  0.1374 -0.0211 -0.3599
 9364TIP3    H128056   3.904   3.737   3.828  0.2132  0.4223 -0.5637
 9364TIP3    H228057   3.938   3.852   3.921  0.0697 -0.1548  0.2122
 9365TIP3   OH228058   4.715   2.891   4.953 -0.5270  0.4739 -0.2910
 9365TIP3    H128059   4.796   2.926   4.989  1.2152 -2.0229 -1.5311
 9365TIP3    H228060   4.680   2.835   5.022 -0.4963  0.4966 -0.2573
 9366TIP3   OH228061   7.128   1.981   4.528 -0.0096 -0.3366 -0.2359
 9366TIP3    H128062   7.187   2.030   4.586 -2.4021  2.3116  0.1716
 9366TIP3    H228063   7.099   1.906   4.581  1.8080 -0.8766  0.0531
 9367TIP3   OH228064   6.416   2.367   3.995  0.2393 -0.4839  0.4832
 9367TIP3    H128065   6.340   2.424   3.989  0.7289  0.0630 -0.8274
 9367TIP3    H228066   6.391   2.287   3.949  0.6624 -0.0510 -0.5248
 9368TIP3   OH228067   0.797   5.236   5.583  0.0671 -0.3585  0.0283
 9368TIP3    H128068   0.847   5.244   5.664  1.2177 -0.5620 -0.6319
 9368TIP3    H228069   0.857   5.268   5.515 -1.1485  0.5652 -0.6598
 9369TIP3   OH228070   3.418   5.259   2.958  0.5469  0.1390  0.6884
 9369TIP3    H128071   3.461   5.256   3.043  2.3215 -0.6333 -0.1665
 9369TIP3    H228072   3.476   5.313   2.904  0.0951 -0.3706 -0.3277
 9370TIP3   OH228073   6.936   6.783   1.931  0.1259  0.3174  0.7082
 9370TIP3    H128074   7.001   6.770   2.000  0.7163 -1.4414 -0.1110
 9370TIP3    H228075   6.970   6.734   1.856 -1.8605 -0.2251  0.0857
 9371TIP3   OH228076   6.997   0.254   0.912  0.7389  0.9431 -0.6753
 9371TIP3    H128077   6.996   0.309   0.991  1.1974  0.1874 -0.1282
 9371TIP3    H228078   6.944   0.302   0.849 -0.6757  0.9722  0.4968
 9372TIP3   OH228079   3.105   2.688   3.940  0.0638 -0.3353 -0.0600
 9372TIP3    H128080   3.014   2.704   3.915 -0.3225  1.2321  1.9793
 9372TIP3    H228081   3.102   2.606   3.989 -0.0462 -0.8504 -0.9178
 9373TIP3   OH228082   5.345   1.382   2.441 -0.4592  0.1884  0.7042
 9373TIP3    H128083   5.255   1.403   2.466 -0.6293  1.7156 -0.9606
 9373TIP3    H228084   5.344   1.382   2.345  1.2990  0.1927  0.6515
 9374TIP3   OH228085   7.094   2.735   2.871  0.4501 -0.1576  0.1772
 9374TIP3    H128086   7.047   2.726   2.954  2.3578 -0.3136  1.2969
 9374TIP3    H228087   7.170   2.678   2.881  1.8846  1.5117 -0.7913
 9375TIP3   OH228088   3.562   6.171   4.189 -0.3613  0.0347  0.2609
 9375TIP3    H128089   3.528   6.260   4.185 -0.2119  0.0993  0.4594
 9375TIP3    H228090   3.525   6.128   4.111  0.3171  0.5277 -0.3400
 9376TIP3   OH228091   5.314   1.764   5.569 -0.0502  0.1677 -0.2585
 9376TIP3    H128092   5.341   1.674   5.552  1.4098  0.4786  0.2243
 9376TIP3    H228093   5.225   1.770   5.535  0.3672 -1.0505 -1.6588
 9377TIP3   OH228094   5.642   4.009   0.898  0.8799 -0.4225  0.2928
 9377TIP3    H128095   5.567   4.005   0.958  1.1952 -2.1061  0.6398
 9377TIP3    H228096   5.624   4.083   0.841 -0.3873  0.0238  1.2352
 9378TIP3   OH228097   6.677   3.644   3.008 -0.6610 -0.3549 -0.1316
 9378TIP3    H128098   6.705   3.735   3.023 -1.5707  0.1479 -1.3838
 9378TIP3    H228099   6.697   3.628   2.916  1.6532 -2.2454  0.5832
 9379TIP3   OH228100   0.567   4.371   1.155 -0.7580  0.6570 -0.6411
 9379TIP3    H128101   0.615   4.438   1.107  1.5442 -0.5740 -0.1848
 9379TIP3    H228102   0.518   4.420   1.222  1.6002  1.8802  0.2861
 9380TIP3   OH228103   3.714   4.239   3.800  0.4440  0.4298 -0.0214
 9380TIP3    H128104   3.731   4.273   3.712  0.6668  3.3249  1.0421
 9380TIP3    H228105   3.764   4.296   3.858  0.1533 -1.2867  2.0338
 9381TIP3   OH228106   2.497   3.071   3.175 -0.2547  1.3087  0.3804
 9381TIP3    H128107   2.545   3.112   3.103  0.4529  1.0684  0.7105
 9381TIP3    H228108   2.479   2.982   3.144  0.0650  1.1997  0.5008
 9382TIP3   OH228109   6.870   5.056   4.081 -0.2337  0.3352 -0.3598
 9382TIP3    H128110   6.825   4.975   4.057  0.1396 -0.0021  0.0614
 9382TIP3    H228111   6.872   5.106   4.000  0.3955 -0.4908 -0.8759
 9383TIP3   OH228112   1.277   3.381   4.563  0.9720 -0.1863 -0.2407
 9383TIP3    H128113   1.195   3.414   4.525  0.7030 -1.9305 -1.2815
 9383TIP3    H228114   1.296   3.301   4.514  2.6650 -0.4834  0.8075
 9384TIP3   OH228115   5.666   1.229   5.320 -0.2599  0.4146  0.1216
 9384TIP3    H128116   5.576   1.248   5.291 -0.1849  2.6576  1.1410
 9384TIP3    H228117   5.721   1.266   5.251 -0.1334  1.3006  0.6759
 9385TIP3   OH228118   4.551   2.714   5.695 -0.2728  0.5860  0.5252
 9385TIP3    H128119   4.614   2.776   5.732 -1.0901  1.6919  0.1075
 9385TIP3    H228120   4.495   2.690   5.769  0.2318  0.0745  0.7570
 9386TIP3   OH228121   1.094   3.944   3.085  0.5431  0.1256 -0.0355
 9386TIP3    H128122   1.006   3.913   3.104  0.6101 -0.1595 -0.1919
 9386TIP3    H228123   1.084   3.999   3.007  0.8927 -2.0300 -1.6896
 9387TIP3   OH228124   3.454   5.165   4.252  0.0088 -0.2316 -0.3629
 9387TIP3    H128125   3.451   5.202   4.164 -1.5055 -3.9345 -2.0641
 9387TIP3    H228126   3.534   5.112   4.254  1.2800  1.5574  1.4435
 9388TIP3   OH228127   2.420   6.355   1.083 -0.1280  0.5084  0.0148
 9388TIP3    H128128   2.409   6.439   1.039 -0.5158  1.2125  1.3789
 9388TIP3    H228129   2.512   6.353   1.110 -0.1417  0.5367  0.0638
 9389TIP3   OH228130   1.499   4.666   4.908 -0.7891 -0.0061 -0.3619
 9389TIP3    H128131   1.561   4.687   4.839  0.0545  0.2472  0.4465
 9389TIP3    H228132   1.414   4.697   4.875 -0.0178  2.3627 -0.2907
 9390TIP3   OH228133   5.716   1.186   3.816  0.3244 -0.2614  0.6542
 9390TIP3    H128134   5.648   1.139   3.865 -1.5559 -0.0732 -1.5881
 9390TIP3    H228135   5.690   1.278   3.822 -1.5547 -0.4053 -2.6865
 9391TIP3   OH228136   3.607   5.214   5.161  0.5401  0.1859  0.5146
 9391TIP3    H128137   3.593   5.138   5.104  1.3749  0.4165 -0.0135
 9391TIP3    H228138   3.620   5.176   5.248  0.7542 -0.2625  0.2905
 9392TIP3   OH228139   4.497   4.321   4.701  0.4160  0.4931  0.0040
 9392TIP3    H128140   4.522   4.293   4.790  0.3816  0.7385  0.0907
 9392TIP3    H228141   4.407   4.290   4.691 -0.8643  3.3749  1.3398
 9393TIP3   OH228142   2.938   2.767   1.047  0.5243 -0.1246  0.3758
 9393TIP3    H128143   3.025   2.807   1.047  0.9107 -0.8469 -1.3489
 9393TIP3    H228144   2.886   2.824   0.990  0.5282 -0.9476 -0.4702
 9394TIP3   OH228145   6.385   5.271   2.406  0.3767  0.3671  0.2849
 9394TIP3    H128146   6.422   5.314   2.329  1.0840 -0.5631  0.0742
 9394TIP3    H228147   6.461   5.234   2.452 -0.0201  1.0307  1.5224
 9395TIP3   OH228148   5.731   2.002   3.576 -0.9111  0.5650  0.2026
 9395TIP3    H128149   5.752   2.020   3.484 -1.5102  1.5217  0.2352
 9395TIP3    H228150   5.651   2.053   3.592 -1.5963 -0.6762  0.8723
 9396TIP3   OH228151   5.038   2.891   4.106 -0.3103  0.1867 -0.0877
 9396TIP3    H128152   5.059   2.969   4.054  0.1717  1.3940  1.8222
 9396TIP3    H228153   4.976   2.842   4.051 -1.1714  2.2468 -1.0690
 9397TIP3   OH228154   0.569   3.955   3.262  0.5211  0.4857 -0.3011
 9397TIP3    H128155   0.519   3.976   3.341  1.3836  0.7195  0.2004
 9397TIP3    H228156   0.581   3.860   3.266 -0.1350  0.3866 -0.5851
 9398TIP3   OH228157   2.575   2.580   3.778  0.7698  0.5072  0.5796
 9398TIP3    H128158   2.539   2.507   3.728 -0.8059  0.8510  1.1556
 9398TIP3    H228159   2.670   2.573   3.765  0.5668 -0.8270 -0.4662
 9399TIP3   OH228160   6.005   4.611   5.042 -0.1434  0.3224  0.5573
 9399TIP3    H128161   6.018   4.655   5.126  0.2502  0.4287  0.4452
 9399TIP3    H228162   6.025   4.519   5.061 -1.2316  0.1311  0.8553
 9400TIP3   OH228163   3.407   0.080   3.819 -0.8992  0.7094 -0.0930
 9400TIP3    H128164   3.378   0.088   3.728 -0.8623  1.2698 -0.0623
 9400TIP3    H228165   3.499   0.105   3.818 -0.2304 -1.5632 -0.2701
 9401TIP3   OH228166   1.681   0.350   3.251 -0.1620  0.0826  0.3401
 9401TIP3    H128167   1.720   0.313   3.331  0.5828 -0.0998 -0.1042
 9401TIP3    H228168   1.670   0.275   3.193 -0.6842  0.2205  0.2564
 9402TIP3   OH228169   2.499   1.962   1.937 -0.4699 -0.1369 -0.4273
 9402TIP3    H128170   2.586   1.991   1.912  0.2530 -0.7275  1.2142
 9402TIP3    H228171   2.481   2.007   2.020 -0.3402 -2.3453  0.9058
 9403TIP3   OH228172   1.625   5.902   1.694  0.2358  0.2928 -0.3159
 9403TIP3    H128173   1.701   5.877   1.746 -0.8422 -1.8766  0.3244
 9403TIP3    H228174   1.646   5.874   1.605  0.6102  0.7182 -0.3666
 9404TIP3   OH228175   6.208   1.064   1.390  0.0927 -0.6177  0.1251
 9404TIP3    H128176   6.271   1.111   1.445 -1.8917 -1.5156  3.4618
 9404TIP3    H228177   6.262   1.001   1.341  2.3718  2.5506 -1.8839
 9405TIP3   OH228178   4.568   2.426   4.094 -0.5584 -0.3078 -0.1212
 9405TIP3    H128179   4.633   2.390   4.034  1.3916 -0.2725  1.8370
 9405TIP3    H228180   4.514   2.351   4.119 -0.4615 -0.5998 -0.7687
 9406TIP3   OH228181   0.129   1.748   4.796  0.2407  0.0863 -0.0465
 9406TIP3    H128182   0.112   1.794   4.878 -0.9906 -0.4417  0.0165
 9406TIP3    H228183   0.188   1.806   4.747  0.8843  0.4571  1.1469
 9407TIP3   OH228184   0.891   4.020   5.379 -0.1405  0.2935  0.5799
 9407TIP3    H128185   0.889   4.027   5.475 -0.0032  1.3834  0.5192
 9407TIP3    H228186   0.942   3.941   5.362 -1.6544 -0.9352  1.4179
 9408TIP3   OH228187   2.948   1.396   1.205 -0.0698  0.5098  0.4509
 9408TIP3    H128188   2.952   1.313   1.253  0.2427  0.0594 -0.3388
 9408TIP3    H228189   2.864   1.434   1.229 -0.3679 -0.2013  0.5464
 9409TIP3   OH228190   2.960   5.562   3.569 -0.2334  0.4942 -0.1367
 9409TIP3    H128191   3.023   5.519   3.511  1.1760  0.3689  1.4133
 9409TIP3    H228192   2.883   5.575   3.514  0.1890 -1.6934 -1.3898
 9410TIP3   OH228193   4.424   1.462   4.808  0.4732 -0.3736  0.1054
 9410TIP3    H128194   4.477   1.397   4.854  0.1729  0.7317  2.1437
 9410TIP3    H228195   4.465   1.470   4.722  2.2104 -1.2333  0.8037
 9411TIP3   OH228196   4.125   3.835   4.698  0.4868  0.6109  0.1110
 9411TIP3    H128197   4.206   3.817   4.746  0.0655  1.9572  1.3979
 9411TIP3    H228198   4.067   3.875   4.763 -1.1518 -0.1269 -0.8347
 9412TIP3   OH228199   6.811   3.215   1.638  0.3271  0.0862 -0.0110
 9412TIP3    H128200   6.725   3.178   1.616 -0.3350  1.6223 -0.1750
 9412TIP3    H228201   6.795   3.266   1.718  1.4892 -0.9836  0.9420
 9413TIP3   OH228202   4.758   3.745   2.270  0.0288 -0.1808  0.1650
 9413TIP3    H128203   4.685   3.778   2.218  1.0070 -0.1177 -1.2288
 9413TIP3    H228204   4.816   3.820   2.281  0.8974 -0.7170 -0.5816
 9414TIP3   OH228205   5.330   4.609   4.301  0.7699 -0.3328  0.2682
 9414TIP3    H128206   5.360   4.657   4.224 -0.1986  0.9657  0.6732
 9414TIP3    H228207   5.357   4.663   4.375  2.1488 -1.8122  0.9161
 9415TIP3   OH228208   3.082   1.829   0.055 -0.2750  0.0444 -0.2376
 9415TIP3    H128209   2.997   1.792   0.029 -0.3723  0.5733 -0.6948
 9415TIP3    H228210   3.146   1.783  -0.001 -0.0516 -1.5682  1.2620
 9416TIP3   OH228211   6.387   6.390   1.897 -0.0910 -0.1837  0.0259
 9416TIP3    H128212   6.430   6.471   1.923  0.0829 -0.4877  0.6963
 9416TIP3    H228213   6.350   6.410   1.811  0.0614  0.5628  0.1227
 9417TIP3   OH228214   4.415   1.820   3.666  0.3529  0.1797 -0.3591
 9417TIP3    H128215   4.444   1.780   3.585  0.9515  1.3009 -0.7237
 9417TIP3    H228216   4.484   1.883   3.688  0.4344 -0.4159  1.2676
 9418TIP3   OH228217   0.630   4.338   0.420 -0.4857  0.5047 -0.6081
 9418TIP3    H128218   0.701   4.339   0.356  1.0313  1.6750  1.0048
 9418TIP3    H228219   0.624   4.429   0.451 -0.3114 -0.2520  1.7922
 9419TIP3   OH228220   4.318   1.874   2.971  0.0959  0.1343 -0.2318
 9419TIP3    H128221   4.338   1.902   2.881 -1.8206 -1.2141 -1.1410
 9419TIP3    H228222   4.254   1.939   3.002 -1.0907 -0.7474 -0.7690
 9420TIP3   OH228223   6.900   0.896   1.155 -0.0846  0.4958 -0.1178
 9420TIP3    H128224   6.976   0.864   1.203  0.3912  1.1311 -0.4417
 9420TIP3    H228225   6.862   0.963   1.213 -0.0665  0.5811 -0.2036
 9421TIP3   OH228226   6.232   6.541   4.685 -0.6723 -0.5110  0.3562
 9421TIP3    H128227   6.165   6.526   4.618 -1.2601 -0.9869  1.0353
 9421TIP3    H228228   6.306   6.578   4.637 -0.9052 -1.2813 -0.6246
 9422TIP3   OH228229   6.576   4.134   0.300 -0.1892 -0.2247  0.6429
 9422TIP3    H128230   6.659   4.155   0.342 -0.0534  0.4625  0.0390
 9422TIP3    H228231   6.512   4.190   0.344  0.0123  0.7724 -0.2817
 9423TIP3   OH228232   0.063   5.582   5.304  0.1267 -0.7224 -0.0581
 9423TIP3    H128233   0.036   5.523   5.234  0.3356  1.3707 -2.0053
 9423TIP3    H228234  -0.019   5.612   5.342 -0.0015 -1.3715  0.2008
 9424TIP3   OH228235   2.309   4.702   0.655  0.4707 -0.2800 -0.1286
 9424TIP3    H128236   2.317   4.717   0.749 -3.1687  1.4904  0.0845
 9424TIP3    H228237   2.244   4.633   0.647 -0.4123  0.6325 -1.2668
 9425TIP3   OH228238   0.636   3.978   5.489  1.1972 -0.4568 -0.6034
 9425TIP3    H128239   0.638   3.892   5.532 -0.2518 -0.4978 -0.5735
 9425TIP3    H228240   0.698   3.970   5.417  0.7870 -1.6634 -0.8378
 9426TIP3   OH228241   0.335   4.790   4.134  0.2282 -0.1132  0.3620
 9426TIP3    H128242   0.292   4.749   4.208  0.6212 -0.8230  0.2068
 9426TIP3    H228243   0.277   4.861   4.108 -0.6358 -0.7858  0.4205
 9427TIP3   OH228244   0.925   2.547   3.609 -0.8277  0.2771  0.0294
 9427TIP3    H128245   0.924   2.633   3.651 -2.9756  0.2517  0.1772
 9427TIP3    H228246   0.836   2.537   3.574 -0.5143 -1.7232 -0.3268
 9428TIP3   OH228247   6.442   6.720   5.018  0.4767  0.3378 -0.3437
 9428TIP3    H128248   6.518   6.742   5.072  0.9011  2.2255 -1.5915
 9428TIP3    H228249   6.459   6.764   4.934 -0.4346 -1.9646 -1.8339
 9429TIP3   OH228250   1.647   2.825   2.612  0.5066 -0.6344  0.0564
 9429TIP3    H128251   1.667   2.768   2.686 -0.7085  0.7588  1.5182
 9429TIP3    H228252   1.628   2.765   2.540 -0.1738 -2.0712  1.3707
 9430TIP3   OH228253   2.198   0.832   5.595  0.1209 -0.1883  0.2386
 9430TIP3    H128254   2.244   0.914   5.576 -1.9284  0.8704 -0.4595
 9430TIP3    H228255   2.267   0.766   5.602  1.7207  1.3468 -0.5617
 9431TIP3   OH228256   4.956   4.743   3.300 -0.1520  0.0761 -0.5176
 9431TIP3    H128257   4.908   4.746   3.383 -0.8606 -0.7809 -0.8787
 9431TIP3    H228258   5.048   4.744   3.325 -0.3134 -2.4925  0.4375
 9432TIP3   OH228259   1.175   6.546   0.193  0.0045  0.2138 -0.5928
 9432TIP3    H128260   1.265   6.578   0.209 -0.2021  0.2595  0.5466
 9432TIP3    H228261   1.119   6.617   0.225 -0.4515 -0.7152  0.7417
 9433TIP3   OH228262   4.534   6.565   4.209  0.6737  0.3727 -0.4941
 9433TIP3    H128263   4.483   6.553   4.129  0.4328 -1.7037 -0.0867
 9433TIP3    H228264   4.530   6.480   4.253 -1.0932  1.9999  2.8776
 9434TIP3   OH228265   6.022   5.973   1.469  0.3576  0.4120  0.5145
 9434TIP3    H128266   6.115   5.970   1.448  0.6563  1.2397  1.6404
 9434TIP3    H228267   6.011   6.053   1.521 -0.3007 -1.4531  3.4703
 9435TIP3   OH228268   0.041   5.015   4.673  0.1621  0.6564 -0.2099
 9435TIP3    H128269   0.008   4.961   4.744 -0.3875 -0.5286 -1.3168
 9435TIP3    H228270   0.026   5.105   4.701 -1.4851  0.1868  0.5056
 9436TIP3   OH228271   2.085   1.416   3.025  0.3653 -0.1746  0.3436
 9436TIP3    H128272   2.166   1.423   2.974  0.5791 -0.2376  0.6704
 9436TIP3    H228273   2.035   1.348   2.981 -1.2623  2.4635 -2.2343
 9437TIP3   OH228274   1.132   6.061   0.487  0.0212  0.1396 -0.3630
 9437TIP3    H128275   1.101   6.104   0.407 -1.4883 -0.7974 -0.3158
 9437TIP3    H228276   1.188   5.990   0.455 -0.9332 -0.5074 -0.6123
 9438TIP3   OH228277   6.406   2.604   3.553  0.3661 -0.0518 -0.4271
 9438TIP3    H128278   6.425   2.694   3.581  0.3630  0.4017 -1.7978
 9438TIP3    H228279   6.414   2.607   3.458 -0.1493 -1.3928 -0.5275
 9439TIP3   OH228280   1.945   1.520   3.544 -0.4501  0.1988 -0.4916
 9439TIP3    H128281   1.897   1.587   3.496 -0.1226  1.4454  0.8402
 9439TIP3    H228282   1.967   1.562   3.628  2.1170 -0.6275 -0.6566
 9440TIP3   OH228283   5.705   1.943   0.789  0.3523  0.2512  0.0345
 9440TIP3    H128284   5.738   1.918   0.875  0.1560  1.9990  0.6561
 9440TIP3    H228285   5.691   1.860   0.743 -1.5601 -0.8492  2.4040
 9441TIP3   OH228286   0.665   5.728   0.416 -0.4391 -0.0628  0.0670
 9441TIP3    H128287   0.712   5.701   0.495  0.0254  0.5312  0.0055
 9441TIP3    H228288   0.734   5.738   0.350 -0.7615 -0.0478 -0.2689
 9442TIP3   OH228289   5.584   2.566   0.927 -0.0073  0.1074 -0.5080
 9442TIP3    H128290   5.568   2.619   1.005  2.7884  0.1588  0.1452
 9442TIP3    H228291   5.574   2.628   0.854 -2.8434  0.0071 -0.3249
 9443TIP3   OH228292   6.067   3.459   2.670  0.2814 -0.3627  0.2598
 9443TIP3    H128293   6.117   3.539   2.685 -0.9912  0.7511 -1.1869
 9443TIP3    H228294   6.133   3.394   2.646  1.2684  0.3941  0.8515
 9444TIP3   OH228295   1.894   5.716   2.014 -0.1604  0.3228 -0.5913
 9444TIP3    H128296   1.849   5.801   2.021  0.4568  0.6522 -0.5657
 9444TIP3    H228297   1.893   5.696   1.920  0.1755  0.6291 -0.6633
 9445TIP3   OH228298   2.840   6.265   2.284  0.0821  0.4526  0.6449
 9445TIP3    H128299   2.763   6.307   2.246  0.1771  0.2979  0.2853
 9445TIP3    H228300   2.809   6.181   2.317  0.3471 -0.1612 -0.6173
 9446TIP3   OH228301   5.732   3.582   5.701 -0.3053  0.0224 -0.3923
 9446TIP3    H128302   5.719   3.635   5.779  0.4337  0.0586 -0.2867
 9446TIP3    H228303   5.744   3.645   5.630 -0.0055  0.0008 -0.3641
 9447TIP3   OH228304   5.656   0.728   2.566 -0.0020  0.5066 -0.0805
 9447TIP3    H128305   5.648   0.666   2.638 -2.0411  2.0165  1.0998
 9447TIP3    H228306   5.583   0.789   2.578 -0.9507  0.4003 -3.8878
 9448TIP3   OH228307   7.099   0.090   5.101  0.2058  0.4149  0.3821
 9448TIP3    H128308   7.077   0.046   5.019  2.4963 -0.4966  0.1735
 9448TIP3    H228309   7.022   0.078   5.157  0.3456 -3.1332  0.0131
 9449TIP3   OH228310   6.772   1.849   0.926  0.2207  0.1904 -0.1047
 9449TIP3    H128311   6.728   1.764   0.914  2.4262 -1.1730  0.9318
 9449TIP3    H228312   6.782   1.883   0.837  1.0015 -1.5939 -0.7485
 9450TIP3   OH228313   6.225   0.403   3.238  0.1706  0.5514 -0.3006
 9450TIP3    H128314   6.211   0.409   3.332  0.5404 -0.2103 -0.1843
 9450TIP3    H228315   6.311   0.361   3.230  0.4016  1.1421 -0.9772
 9451TIP3   OH228316   3.237   5.317   1.162  0.0133  0.6889 -0.4176
 9451TIP3    H128317   3.224   5.329   1.068 -1.6628 -0.5983 -0.3767
 9451TIP3    H228318   3.206   5.399   1.200  1.6406  1.6311 -1.0092
 9452TIP3   OH228319   4.253   0.530   3.424  0.2465 -0.3285  0.1463
 9452TIP3    H128320   4.169   0.487   3.437  0.8986 -1.2156  1.6512
 9452TIP3    H228321   4.237   0.592   3.352 -1.6047 -0.6450  0.2312
 9453TIP3   OH228322   2.011   6.117   4.866  0.0982  0.1525 -0.4156
 9453TIP3    H128323   1.961   6.166   4.800  1.3131  0.1284 -1.4138
 9453TIP3    H228324   2.002   6.168   4.946 -0.0478  1.1154 -1.0270
 9454TIP3   OH228325   3.201   6.073   2.804  0.4079  0.4261  0.1789
 9454TIP3    H128326   3.184   6.036   2.717 -0.3333 -0.1433  0.5480
 9454TIP3    H228327   3.217   5.997   2.860 -1.9282  0.5333  1.1290
 9455TIP3   OH228328   7.125   5.722   0.556  0.2100 -0.2732 -0.1179
 9455TIP3    H128329   7.173   5.800   0.583  1.4379 -1.9273  2.8637
 9455TIP3    H228330   7.178   5.685   0.485 -0.3927  1.5037 -1.5727
 9456TIP3   OH228331   6.004   0.667   3.414  0.0007 -0.1638 -0.3979
 9456TIP3    H128332   5.969   0.642   3.329 -1.2293 -1.3345  0.4110
 9456TIP3    H228333   5.945   0.628   3.478  0.7015  0.9397  1.0178
 9457TIP3   OH228334   6.997   2.246   5.041  0.5269  0.4633 -0.0539
 9457TIP3    H128335   6.926   2.306   5.062  0.6474  0.6924 -0.2862
 9457TIP3    H228336   6.993   2.236   4.946  1.4413  1.3013 -0.2047
 9458TIP3   OH228337   0.751   5.655   0.937 -0.1820 -0.1069 -0.2363
 9458TIP3    H128338   0.802   5.627   0.861  1.5203 -0.4462  0.9888
 9458TIP3    H228339   0.810   5.710   0.988 -1.5983  0.9131  0.3891
 9459TIP3   OH228340   0.920   4.697   3.358  0.1390 -0.1130 -0.2222
 9459TIP3    H128341   0.854   4.629   3.352 -1.1621  1.0348  0.5330
 9459TIP3    H228342   0.999   4.652   3.389 -0.6473 -1.2925  0.0945
 9460TIP3   OH228343   0.415   0.702   4.283  0.0303  0.3192 -0.1203
 9460TIP3    H128344   0.416   0.770   4.350 -0.7367  0.2578 -0.0424
 9460TIP3    H228345   0.480   0.730   4.219 -0.4669  1.2481 -0.2216
 9461TIP3   OH228346   4.091   0.362   5.323 -0.1762  0.0174  0.4365
 9461TIP3    H128347   4.062   0.278   5.360  0.4617 -0.6313 -0.5091
 9461TIP3    H228348   4.136   0.339   5.243 -0.7228  1.3438 -0.2864
 9462TIP3   OH228349   3.726   5.574   4.196  0.0464 -0.4005  0.1699
 9462TIP3    H128350   3.768   5.498   4.155  0.5902 -0.4484  0.7987
 9462TIP3    H228351   3.668   5.536   4.262 -0.2454 -0.2976 -0.0285
 9463TIP3   OH228352   6.822   4.091   2.125 -0.2012  0.2471  0.0158
 9463TIP3    H128353   6.863   4.115   2.042 -0.4240 -0.3142 -0.2618
 9463TIP3    H228354   6.837   4.166   2.182 -0.9272  1.0735 -0.8451
 9464TIP3   OH228355   0.507   5.533   2.633 -1.1591 -0.3726  0.2431
 9464TIP3    H128356   0.537   5.621   2.656  0.8096 -0.5548 -1.4230
 9464TIP3    H228357   0.419   5.547   2.597 -0.6756  1.0080 -0.4938
 9465TIP3   OH228358   0.432   4.106   0.185  0.0822  0.4426  0.2065
 9465TIP3    H128359   0.403   4.017   0.203  0.6798  0.6857  2.7439
 9465TIP3    H228360   0.527   4.099   0.174  0.0246  0.6632 -0.4949
 9466TIP3   OH228361   1.999   5.705   3.474 -0.1523 -0.4340 -0.1811
 9466TIP3    H128362   1.940   5.773   3.506 -0.0489 -0.7365  0.6703
 9466TIP3    H228363   2.058   5.752   3.414  1.1255  0.6422  1.8071
 9467TIP3   OH228364   1.202   5.280   3.171 -0.3561 -0.0928  0.0882
 9467TIP3    H128365   1.212   5.375   3.163 -1.6130  0.2056  1.5855
 9467TIP3    H228366   1.126   5.260   3.116  0.5399 -0.4368 -1.0833
 9468TIP3   OH228367   6.890   4.988   0.297  0.6772 -0.4080 -0.0208
 9468TIP3    H128368   6.816   4.986   0.357 -0.4487  2.0358 -1.1688
 9468TIP3    H228369   6.951   4.923   0.331 -2.4358 -3.3948  0.3193
 9469TIP3   OH228370   6.457   0.096   5.377 -0.0662 -0.0326 -0.2303
 9469TIP3    H128371   6.478   0.156   5.449 -0.2018  1.0284 -1.0454
 9469TIP3    H228372   6.361   0.093   5.376 -0.0670  0.0508 -0.4350
 9470TIP3   OH228373   3.163   0.864   2.247 -0.0536  0.0546  0.3185
 9470TIP3    H128374   3.121   0.806   2.184  1.6978  1.0541 -1.9192
 9470TIP3    H228375   3.122   0.950   2.233  0.8017  0.4304  0.0369
 9471TIP3   OH228376   6.137   2.772   4.012 -0.0791  0.1546  0.2780
 9471TIP3    H128377   6.107   2.732   4.093  1.3518  0.2972  0.9083
 9471TIP3    H228378   6.224   2.808   4.033  0.1263  0.5974 -1.1855
 9472TIP3   OH228379   7.054   6.567   3.192 -0.1938 -0.1104  0.0107
 9472TIP3    H128380   7.120   6.637   3.193 -1.0715  0.7678 -0.9715
 9472TIP3    H228381   6.971   6.612   3.210 -0.5912 -1.1508  0.9026
 9473TIP3   OH228382   6.805   4.080   4.127 -0.3966 -0.2036  0.3257
 9473TIP3    H128383   6.774   4.111   4.042  0.4092  0.5962  0.3032
 9473TIP3    H228384   6.822   3.987   4.113 -1.7065 -0.4195  0.0439
 9474TIP3   OH228385   3.441   4.772  -0.000 -0.1824 -0.0661  0.3979
 9474TIP3    H128386   3.364   4.789   0.054 -0.3654  0.7189 -0.0980
 9474TIP3    H228387   3.513   4.761   0.062 -0.6174 -0.3821  0.8454
 9475TIP3   OH228388   6.313   5.412   2.799 -0.1238 -0.8515 -0.2318
 9475TIP3    H128389   6.315   5.333   2.853  1.5545  0.1620  1.3002
 9475TIP3    H228390   6.236   5.460   2.830  0.6912 -0.3894  1.1595
 9476TIP3   OH228391   0.778   3.658   5.065 -0.3146 -0.8634 -0.2293
 9476TIP3    H128392   0.816   3.571   5.050  1.3628 -0.4810  1.5038
 9476TIP3    H228393   0.797   3.677   5.157 -1.7966  0.8156 -0.2229
 9477TIP3   OH228394   1.827   0.007   5.174  0.3228 -0.1459  0.2853
 9477TIP3    H128395   1.867   0.092   5.155 -0.4422 -0.2544 -2.0689
 9477TIP3    H228396   1.870  -0.022   5.255 -0.2043  2.9594  1.8386
 9478TIP3   OH228397   6.012   6.772   4.163 -0.1432 -0.0946 -0.0574
 9478TIP3    H128398   6.027   6.694   4.108 -1.2078  0.7257 -1.5999
 9478TIP3    H228399   6.038   6.845   4.108 -1.8766  0.8035  0.2364
 9479TIP3   OH228400   1.004   0.337   2.103 -0.2695  0.3257 -0.0685
 9479TIP3    H128401   0.915   0.314   2.078 -0.1008  0.4226 -0.7964
 9479TIP3    H228402   1.057   0.265   2.070 -0.1414 -0.0289  0.8989
 9480TIP3   OH228403   3.664   6.498   1.512 -0.2980  0.0987 -0.4398
 9480TIP3    H128404   3.718   6.426   1.542  1.8556  1.9463  0.4487
 9480TIP3    H228405   3.577   6.481   1.549  0.6321 -1.0567  1.3242
 9481TIP3   OH228406   0.373   4.032   3.430  0.0111 -0.5550 -0.3021
 9481TIP3    H128407   0.296   4.036   3.373  0.4295  2.3776 -0.7950
 9481TIP3    H228408   0.337   4.045   3.518 -0.3542 -2.6355 -0.0822
 9482TIP3   OH228409   2.466   2.358   5.047 -0.0676  0.1141  0.2880
 9482TIP3    H128410   2.396   2.328   5.105 -0.4810 -1.2228 -0.8303
 9482TIP3    H228411   2.476   2.287   4.983  0.4049  1.4880 -1.2282
 9483TIP3   OH228412   2.427   4.050   4.815  0.1293  0.3051  0.2883
 9483TIP3    H128413   2.495   4.064   4.881 -0.2042  0.1891  0.6591
 9483TIP3    H228414   2.381   3.971   4.844  1.3077 -1.0154 -1.1796
 9484TIP3   OH228415   6.874   1.551   2.102 -0.3277  0.0009  0.0095
 9484TIP3    H128416   6.924   1.608   2.160 -0.6403  0.1141  0.1686
 9484TIP3    H228417   6.797   1.603   2.078 -0.5468 -0.3023  0.0493
 9485TIP3   OH228418   2.099   2.493   0.285 -0.3717 -0.0486 -0.3219
 9485TIP3    H128419   2.165   2.444   0.334 -2.1568  0.5074  2.8950
 9485TIP3    H228420   2.104   2.582   0.321 -1.1627  0.6641 -1.8725
 9486TIP3   OH228421   4.658   1.772   2.798  0.1194 -0.4960  0.3979
 9486TIP3    H128422   4.719   1.726   2.741  1.1277 -0.5986  1.5212
 9486TIP3    H228423   4.608   1.703   2.841  0.1614 -0.4638  0.4987
 9487TIP3   OH228424   4.462   0.507   3.150  0.3539  0.4489  0.3190
 9487TIP3    H128425   4.454   0.536   3.060 -0.7443  0.6474  0.4684
 9487TIP3    H228426   4.521   0.571   3.191  2.0709 -0.4677 -0.5768
 9488TIP3   OH228427   0.945   4.174   2.377  0.0395  0.5338  0.6461
 9488TIP3    H128428   0.992   4.219   2.447 -0.3395 -0.1586  1.3683
 9488TIP3    H228429   0.999   4.098   2.357  0.0474  0.6255  0.3123
 9489TIP3   OH228430   5.403   6.436   4.764  0.5251 -0.7973  0.3507
 9489TIP3    H128431   5.322   6.391   4.788  0.0849 -0.2441 -0.0442
 9489TIP3    H228432   5.431   6.393   4.683  0.9006 -1.3207  0.7592
 9490TIP3   OH228433   4.952   0.017   0.748 -0.2408 -0.1635  0.2209
 9490TIP3    H128434   4.984   0.106   0.765 -0.1941 -0.2529  0.5976
 9490TIP3    H228435   4.871   0.030   0.698 -1.1781  0.1488  1.7590
 9491TIP3   OH228436   5.093   6.443   2.611  0.1646 -0.2071  0.5612
 9491TIP3    H128437   5.113   6.524   2.564  0.4850 -0.3559  0.4363
 9491TIP3    H228438   5.150   6.377   2.571 -0.5442 -0.6328  0.2329
 9492TIP3   OH228439   3.305   2.380   5.067 -0.0651  0.2230 -0.7666
 9492TIP3    H128440   3.254   2.427   5.133 -1.5549  1.3981 -2.6673
 9492TIP3    H228441   3.392   2.418   5.073  0.2684 -0.7033  1.4510
 9493TIP3   OH228442   4.916   1.061   5.587 -0.9383 -0.0894  0.1878
 9493TIP3    H128443   4.927   1.078   5.680  0.4237  0.0048  0.0329
 9493TIP3    H228444   4.907   0.966   5.580 -0.2216 -0.1719  0.3516
 9494TIP3   OH228445   5.233   5.607   0.853 -0.2623  0.0664 -0.7482
 9494TIP3    H128446   5.142   5.577   0.845 -0.5755  0.7477  0.0742
 9494TIP3    H228447   5.285   5.527   0.854 -1.0804 -0.5125  1.4455
 9495TIP3   OH228448   6.764   0.744   3.136 -0.1638 -0.2191 -0.0978
 9495TIP3    H128449   6.831   0.754   3.204 -1.0399  0.8054  0.6607
 9495TIP3    H228450   6.728   0.832   3.126 -1.8522 -0.8687  0.0186
 9496TIP3   OH228451   1.357   4.735   2.592 -0.1225 -0.3596  0.5308
 9496TIP3    H128452   1.273   4.777   2.607 -0.1431  0.5600 -1.7878
 9496TIP3    H228453   1.422   4.803   2.608 -0.0193 -0.1310 -0.7769
 9497TIP3   OH228454   7.091   4.030   5.710  0.4159 -0.3962  0.2616
 9497TIP3    H128455   7.172   4.045   5.759  1.3191 -2.0513 -0.6219
 9497TIP3    H228456   7.068   3.939   5.729 -1.3000  0.0751  0.5540
 9498TIP3   OH228457   2.436   3.749   3.308 -0.5023  0.2655 -0.2988
 9498TIP3    H128458   2.396   3.835   3.325  1.6860  0.7167  3.8477
 9498TIP3    H228459   2.510   3.767   3.250  0.1043  1.2816  0.7600
 9499TIP3   OH228460   2.313   1.636   0.158 -0.9071  0.3274  0.1030
 9499TIP3    H128461   2.320   1.653   0.252 -0.2867 -1.9978  0.5553
 9499TIP3    H228462   2.362   1.706   0.117  0.2377  0.4647  1.6269
 9500TIP3   OH228463   0.109   5.526   3.219 -0.0824 -0.7878  0.0112
 9500TIP3    H128464   0.033   5.468   3.209 -0.7681  0.0862 -0.0058
 9500TIP3    H228465   0.090   5.600   3.162  0.9753 -0.7289 -0.2876
 9501TIP3   OH228466   1.540   4.894   5.389  0.1349  0.8083 -0.0946
 9501TIP3    H128467   1.558   4.920   5.299  0.0067  1.4719  0.0692
 9501TIP3    H228468   1.506   4.973   5.431  1.3912  0.8765  0.8808
 9502TIP3   OH228469   5.566   6.561   5.649 -0.9432  0.4350  0.1279
 9502TIP3    H128470   5.593   6.473   5.624 -1.4166  0.5082 -0.6638
 9502TIP3    H228471   5.487   6.578   5.598 -1.2134  1.0823  0.7381
 9503TIP3   OH228472   2.354   5.308   1.718 -1.2916  0.1249 -0.3113
 9503TIP3    H128473   2.416   5.251   1.672 -1.6843 -0.3599 -0.2476
 9503TIP3    H228474   2.407   5.355   1.781 -0.7263  0.8460 -1.2896
 9504TIP3   OH228475   0.096   4.150   0.541 -0.6601 -0.4043 -0.1133
 9504TIP3    H128476   0.148   4.099   0.603  0.8597  0.4085 -0.6624
 9504TIP3    H228477   0.063   4.224   0.593 -1.0100 -0.7605  0.1709
 9505TIP3   OH228478   5.459   6.148   4.135 -0.2413  0.0642 -0.0585
 9505TIP3    H128479   5.421   6.093   4.203  0.7125 -0.3793  0.1318
 9505TIP3    H228480   5.495   6.223   4.183  0.1620 -0.1001 -0.1011
 9506TIP3   OH228481   6.604   5.594   5.254 -0.1502  1.1276  0.3864
 9506TIP3    H128482   6.592   5.688   5.265 -2.0882  0.6908  2.8013
 9506TIP3    H228483   6.661   5.568   5.326 -0.5113  0.3105  0.3933
 9507TIP3   OH228484   5.976   6.215   2.535  1.0327  0.4806 -0.0560
 9507TIP3    H128485   5.973   6.283   2.602 -0.3238  0.3268  0.0743
 9507TIP3    H228486   5.884   6.200   2.512  1.4921  1.2636 -2.7210
 9508TIP3   OH228487   0.586   2.791   5.106  0.2012 -0.4197 -0.5728
 9508TIP3    H128488   0.564   2.851   5.034  0.3659 -1.7231 -1.7432
 9508TIP3    H228489   0.655   2.836   5.154 -1.3314  1.4182  0.0589
 9509TIP3   OH228490   2.517   2.170   0.353 -0.5115  0.2864 -0.1292
 9509TIP3    H128491   2.440   2.224   0.374  0.3683  1.3005  0.5672
 9509TIP3    H228492   2.520   2.172   0.257 -2.4073 -1.3185 -0.2874
 9510TIP3   OH228493   2.147   2.805   4.568  0.4974  0.5517  0.3571
 9510TIP3    H128494   2.172   2.875   4.629  1.7231 -0.0188  0.5338
 9510TIP3    H228495   2.190   2.829   4.485  2.1600 -0.6956  0.7966
 9511TIP3   OH228496   1.131   0.768   1.666  0.5218  0.1782  0.3336
 9511TIP3    H128497   1.106   0.750   1.575 -0.9873  0.3308  0.6921
 9511TIP3    H228498   1.130   0.682   1.708  0.7674  0.1653  0.3137
 9512TIP3   OH228499   4.622   2.668   0.031  0.1059 -0.2670  0.1584
 9512TIP3    H128500   4.658   2.747   0.071  0.1111 -0.0048 -0.3550
 9512TIP3    H228501   4.695   2.606   0.031 -0.0624 -0.4942  1.1145
 9513TIP3   OH228502   2.103   1.547   3.322  0.2291 -0.6572  0.1431
 9513TIP3    H128503   2.038   1.508   3.380 -0.0340 -1.1349 -0.4651
 9513TIP3    H228504   2.129   1.476   3.264 -0.0813 -0.0012 -0.8228
 9514TIP3   OH228505   1.835   3.066   5.263 -0.2814 -0.4595 -0.0989
 9514TIP3    H128506   1.826   3.015   5.343 -0.3306 -0.6413 -0.2200
 9514TIP3    H228507   1.913   3.029   5.220 -0.1037 -0.1926 -0.0096
 9515TIP3   OH228508   3.285   1.985   3.652  0.0710  0.5719  0.7505
 9515TIP3    H128509   3.286   1.894   3.625 -1.3691  1.2834 -2.0143
 9515TIP3    H228510   3.194   2.002   3.677  0.0337  1.5409  0.0292
 9516TIP3   OH228511   2.242   3.923   3.938  0.1761 -1.0499 -0.3437
 9516TIP3    H128512   2.294   3.993   3.898  0.8395 -1.5618 -0.3848
 9516TIP3    H228513   2.153   3.937   3.904  0.2458 -0.0828 -0.1609
 9517TIP3   OH228514   4.031   3.277   2.250  0.6368 -0.2451  0.0315
 9517TIP3    H128515   4.103   3.250   2.192  2.1087  0.0075  1.6507
 9517TIP3    H228516   4.059   3.362   2.285 -1.3515  0.7858 -0.7026
 9518TIP3   OH228517   4.934   0.743   1.235 -0.4671 -0.0603 -0.7120
 9518TIP3    H128518   4.881   0.772   1.161 -1.3880 -0.3170 -0.1694
 9518TIP3    H228519   4.873   0.742   1.309 -0.3523 -2.8187 -0.5630
 9519TIP3   OH228520   2.129   1.629   1.962  0.5645  0.0177  0.1370
 9519TIP3    H128521   2.197   1.567   1.990 -0.3351 -0.4769  1.2927
 9519TIP3    H228522   2.164   1.715   1.984  1.5978 -0.0799 -0.9949
 9520TIP3   OH228523   4.725   4.245   3.961  0.6133  0.1376 -0.2101
 9520TIP3    H128524   4.643   4.257   3.914  0.5712  1.8501  0.2083
 9520TIP3    H228525   4.788   4.301   3.914  1.3692 -0.6169 -0.1172
 9521TIP3   OH228526   4.399   1.302   4.215 -0.3318  0.4669 -0.1576
 9521TIP3    H128527   4.328   1.253   4.255 -0.2278 -1.0650 -1.7589
 9521TIP3    H228528   4.389   1.391   4.249 -2.1077 -0.0556  0.7772
 9522TIP3   OH228529   5.281   2.550   1.614  0.5428 -0.1836 -0.4365
 9522TIP3    H128530   5.222   2.624   1.633  1.3726  0.5283 -0.5773
 9522TIP3    H228531   5.320   2.530   1.699  1.3906  0.4929 -0.6546
 9523TIP3   OH228532   4.293   1.315   2.200 -0.4817 -0.1892 -0.2399
 9523TIP3    H128533   4.284   1.410   2.188 -1.2347 -0.1968  0.2497
 9523TIP3    H228534   4.336   1.306   2.285 -0.2466 -0.2872 -0.3686
 9524TIP3   OH228535   5.654   4.288   2.165 -0.6645 -0.6881 -0.1028
 9524TIP3    H128536   5.609   4.318   2.085  0.8662  2.8191  0.1637
 9524TIP3    H228537   5.742   4.264   2.135 -1.3198 -3.5803 -0.0032
 9525TIP3   OH228538   6.324   2.663   0.622  0.3616 -0.3193 -0.0446
 9525TIP3    H128539   6.394   2.678   0.559  1.2560 -2.5256  0.3278
 9525TIP3    H228540   6.290   2.576   0.600 -0.2840 -0.5147  1.5853
 9526TIP3   OH228541   0.036   2.433   1.878  0.1683  0.1133  0.2744
 9526TIP3    H128542  -0.012   2.363   1.923  0.3422 -1.0076 -1.2402
 9526TIP3    H228543   0.121   2.436   1.921  0.3079 -0.8965  0.0744
 9527TIP3   OH228544   6.159   4.661   5.770 -0.2996  0.4458 -0.3564
 9527TIP3    H128545   6.068   4.632   5.778  0.4434 -1.7708  0.7339
 9527TIP3    H228546   6.189   4.622   5.688  0.0049  0.1695 -0.1150
 9528TIP3   OH228547   4.382   5.269   3.305 -0.2281 -0.1912 -0.2295
 9528TIP3    H128548   4.356   5.223   3.384 -0.5277  3.4467  2.0294
 9528TIP3    H228549   4.303   5.316   3.278  1.2170  3.3692  1.0524
 9529TIP3   OH228550   6.663   0.921   0.680 -0.2798  0.4356  0.4764
 9529TIP3    H128551   6.724   0.958   0.744  0.2672  0.8702 -0.2838
 9529TIP3    H228552   6.639   0.995   0.624 -1.1869  0.1793  0.5008
 9530TIP3   OH228553   3.348   5.120   2.550  0.4998 -0.5982  0.5065
 9530TIP3    H128554   3.263   5.119   2.594  0.6687 -1.6894  0.8486
 9530TIP3    H228555   3.384   5.033   2.567  1.0661 -0.6508 -0.8587
 9531TIP3   OH228556   0.597   6.160   4.827 -0.0619  0.6350  0.6301
 9531TIP3    H128557   0.564   6.154   4.916 -1.4416  1.7737  0.2251
 9531TIP3    H228558   0.657   6.235   4.829 -0.7965  1.2412  0.4139
 9532TIP3   OH228559   1.634   4.371   5.041  0.0095  0.5809  0.2204
 9532TIP3    H128560   1.657   4.434   5.109  0.2065  0.6762  0.0657
 9532TIP3    H228561   1.575   4.418   4.982  2.6574  1.7064 -1.7270
 9533TIP3   OH228562   2.082   3.857   0.850 -0.1706 -0.5236  0.2115
 9533TIP3    H128563   2.170   3.860   0.888  0.3412 -0.3618 -0.9563
 9533TIP3    H228564   2.067   3.764   0.831 -0.1409 -0.5150  0.1464
 9534TIP3   OH228565   4.119   5.330   4.140  0.5325  0.4768 -0.4929
 9534TIP3    H128566   4.157   5.264   4.198  1.1386 -0.1200 -1.5452
 9534TIP3    H228567   4.160   5.412   4.167 -0.6426  0.5549  1.1966
 9535TIP3   OH228568   1.780   3.105   4.126  0.1550 -0.2542 -0.0033
 9535TIP3    H128569   1.752   3.107   4.034  0.4088 -1.1690 -0.1073
 9535TIP3    H228570   1.874   3.091   4.122  0.1233 -0.5960  0.4024
 9536TIP3   OH228571   0.827   4.872   2.095 -0.6032  0.0144 -0.4803
 9536TIP3    H128572   0.898   4.845   2.037 -0.3333 -0.0545 -0.1183
 9536TIP3    H228573   0.822   4.802   2.161  0.2005  0.9075  0.5527
 9537TIP3   OH228574   0.823   3.921   2.343  0.1353 -0.5229 -0.0484
 9537TIP3    H128575   0.785   3.948   2.260 -0.4301 -0.5241  0.2071
 9537TIP3    H228576   0.861   3.835   2.326  0.1816 -0.4426 -0.3498
 9538TIP3   OH228577   4.023   6.103   5.850 -0.1893  0.1366 -0.2034
 9538TIP3    H128578   3.981   6.123   5.934  0.2942 -1.0789  0.3542
 9538TIP3    H228579   4.017   6.008   5.843  0.2840  0.1785 -1.2864
 9539TIP3   OH228580   1.376   3.420   0.122  0.1119  0.6522  0.3461
 9539TIP3    H128581   1.460   3.434   0.078 -1.1388  0.2793 -2.4182
 9539TIP3    H228582   1.378   3.328   0.149 -0.0184  0.1173 -1.3229
 9540TIP3   OH228583   1.908   1.235   0.640 -0.1064  1.3264 -0.5848
 9540TIP3    H128584   1.981   1.288   0.671 -0.9148  2.3610 -0.4239
 9540TIP3    H228585   1.917   1.235   0.544  1.6268 -0.7835 -0.4982
 9541TIP3   OH228586   0.318   1.782   1.140 -0.4866  0.1924  0.4443
 9541TIP3    H128587   0.411   1.760   1.135 -0.1569  1.6431 -0.5024
 9541TIP3    H228588   0.287   1.772   1.050 -1.2769 -0.3670  0.7719
 9542TIP3   OH228589   3.951   1.991   1.042  0.1044  0.4509 -0.2948
 9542TIP3    H128590   3.904   1.943   0.973 -0.7049  3.0692 -1.7314
 9542TIP3    H228591   3.883   2.015   1.105 -0.0024  1.7135 -0.8520
 9543TIP3   OH228592   6.114   3.341   1.364  0.1142  0.2297 -0.2672
 9543TIP3    H128593   6.172   3.269   1.335 -1.2852 -0.2143 -2.1450
 9543TIP3    H228594   6.049   3.298   1.419  1.3705  0.7021  1.6889
 9544TIP3   OH228595   4.625   1.050   5.296  0.4614  0.2385  0.3669
 9544TIP3    H128596   4.586   1.135   5.316  1.4831  0.6715  0.5792
 9544TIP3    H228597   4.708   1.071   5.253  0.8748 -0.6439  0.7026
 9545TIP3   OH228598   2.956   2.825   2.940 -0.0246  0.0526  0.0489
 9545TIP3    H128599   2.936   2.870   2.858  1.5848 -0.6051 -0.7531
 9545TIP3    H228600   2.915   2.879   3.008 -1.1525  0.7650 -1.1439
 9546TIP3   OH228601   4.528   6.660   1.445  0.2336 -0.6070 -0.0183
 9546TIP3    H128602   4.505   6.602   1.518 -2.8929 -1.5043 -1.5234
 9546TIP3    H228603   4.594   6.611   1.395 -0.6816 -1.9089 -0.0097
 9547TIP3   OH228604   3.758   2.847   2.560  0.3141  0.0473  0.2253
 9547TIP3    H128605   3.819   2.827   2.631 -0.4549  2.1121  1.5486
 9547TIP3    H228606   3.693   2.776   2.563 -0.3592  0.6897  2.3992
 9548TIP3   OH228607   6.387   6.643   2.081 -0.0059 -0.6642  0.2731
 9548TIP3    H128608   6.471   6.662   2.039 -0.0595 -0.8280  0.0955
 9548TIP3    H228609   6.406   6.569   2.139 -0.4652 -1.9699 -1.1939
 9549TIP3   OH228610   4.073   4.237   0.358  0.1956 -0.5511 -0.2686
 9549TIP3    H128611   4.030   4.188   0.428  0.6643  0.8895  1.0929
 9549TIP3    H228612   4.004   4.291   0.321  0.4646  0.6859  0.9449
 9550TIP3   OH228613   0.084   2.950   3.981 -0.0609 -0.0736 -0.6014
 9550TIP3    H128614   0.092   2.906   4.066  1.1627  0.5261 -0.3811
 9550TIP3    H228615   0.097   2.880   3.917  3.3978  0.0539 -0.2593
 9551TIP3   OH228616   6.625   3.631   0.083  0.1718 -0.0485  0.6433
 9551TIP3    H128617   6.576   3.590   0.154 -1.4131 -0.3270 -0.5499
 9551TIP3    H228618   6.624   3.724   0.102  0.5498 -0.1988  1.4363
 9552TIP3   OH228619   5.232   5.614   1.983  1.1478  0.1327 -0.0647
 9552TIP3    H128620   5.305   5.580   1.931  1.5132  1.6647 -0.6088
 9552TIP3    H228621   5.170   5.648   1.918  0.3853 -0.2810  0.4314
 9553TIP3   OH228622   1.942   0.207   1.981 -0.0396  0.0098  0.2910
 9553TIP3    H128623   2.025   0.172   1.948  1.1427  1.0366  1.9756
 9553TIP3    H228624   1.915   0.145   2.049 -0.1961  0.1216  0.3312
 9554TIP3   OH228625   3.705   0.557   5.644 -0.1558  0.0939 -0.3461
 9554TIP3    H128626   3.785   0.510   5.666 -0.1019 -0.2857 -1.2942
 9554TIP3    H228627   3.678   0.599   5.726  1.6048  1.1435 -0.2517
 9555TIP3   OH228628   4.041   5.798   0.412 -0.2245  0.4485  0.0302
 9555TIP3    H128629   3.961   5.759   0.448 -0.8132 -0.7514 -2.3272
 9555TIP3    H228630   4.092   5.825   0.488 -2.3508  0.1664  1.6321
 9556TIP3   OH228631   3.849   1.642   0.565 -0.0899  0.2504  0.4958
 9556TIP3    H128632   3.866   1.732   0.539 -0.4176  0.0975 -0.2754
 9556TIP3    H228633   3.884   1.635   0.654  2.5999  0.3290 -0.4673
 9557TIP3   OH228634   0.946   5.286   4.099 -0.4032  0.1250  0.2589
 9557TIP3    H128635   0.891   5.208   4.095 -0.6806  0.3013  0.4684
 9557TIP3    H228636   0.888   5.357   4.071 -0.3629  0.3524  0.7400
 9558TIP3   OH228637   2.603   2.550   0.250  0.2936  0.2202 -0.2399
 9558TIP3    H128638   2.570   2.570   0.337 -0.2188  1.4515 -0.7038
 9558TIP3    H228639   2.694   2.523   0.265  0.3276  0.7823  0.6273
 9559TIP3   OH228640   0.175   2.227   1.341 -0.0285  0.1281  0.3454
 9559TIP3    H128641   0.205   2.137   1.332 -0.0556  0.0845  0.6749
 9559TIP3    H228642   0.251   2.275   1.374 -0.6362 -0.2216  2.3914
 9560TIP3   OH228643   4.392   5.712   3.750 -0.2763 -0.1694 -0.3526
 9560TIP3    H128644   4.351   5.785   3.705  1.1791  1.0720  0.2670
 9560TIP3    H228645   4.333   5.692   3.823  0.7865  2.5130  1.3795
 9561TIP3   OH228646   4.600   1.080   0.662  0.2040  0.0559  0.7290
 9561TIP3    H128647   4.665   1.011   0.674 -0.1595 -0.5882 -0.7995
 9561TIP3    H228648   4.649   1.152   0.621 -0.3596 -1.2277 -2.5183
 9562TIP3   OH228649   3.958   3.546   3.206 -0.1879  0.2506  0.8585
 9562TIP3    H128650   3.937   3.617   3.267 -1.6882  0.1714  0.4940
 9562TIP3    H228651   3.954   3.467   3.259 -4.3707 -0.1705  0.3178
 9563TIP3   OH228652   1.838   2.384   0.819  0.8942 -0.1886  0.1136
 9563TIP3    H128653   1.912   2.349   0.867 -0.1576  0.1013  2.0604
 9563TIP3    H228654   1.777   2.311   0.811  0.7616 -0.0505 -0.1834
 9564TIP3   OH228655   4.691   5.865   2.221 -0.2840 -0.0180 -0.5151
 9564TIP3    H128656   4.738   5.825   2.294 -0.9263  0.7988  0.3630
 9564TIP3    H228657   4.760   5.908   2.169  0.2685 -1.2846 -0.8563
 9565TIP3   OH228658   5.640   1.630   3.017 -0.1357 -0.3663 -0.3227
 9565TIP3    H128659   5.640   1.726   3.011  0.4201 -0.3697 -0.3973
 9565TIP3    H228660   5.626   1.612   3.110  2.5284 -0.1610  0.1891
 9566TIP3   OH228661   1.787   6.469   0.261  0.1509 -0.2022 -0.2340
 9566TIP3    H128662   1.756   6.408   0.328  1.8712 -1.4228 -0.4883
 9566TIP3    H228663   1.754   6.434   0.178  2.3596 -1.7129 -0.5462
 9567TIP3   OH228664   1.757   2.416   2.076 -0.0761  0.4194  0.1270
 9567TIP3    H128665   1.729   2.359   2.005  1.7984 -0.8002  0.2850
 9567TIP3    H228666   1.804   2.488   2.033  0.5026  0.0213  0.0833
 9568TIP3   OH228667   1.089   1.314   3.373  0.4326 -0.1587  0.2007
 9568TIP3    H128668   1.182   1.308   3.351  0.1720 -0.2435 -0.9132
 9568TIP3    H228669   1.048   1.240   3.327 -0.3299  0.4716 -0.1538
 9569TIP3   OH228670   3.908   3.900   2.200  0.2568  0.3251 -0.1264
 9569TIP3    H128671   3.858   3.827   2.236  1.1921 -0.0654  0.4061
 9569TIP3    H228672   3.853   3.977   2.217 -0.3798 -0.1528  0.0146
 9570TIP3   OH228673   5.006   4.972   0.117 -0.6922  0.5026 -0.0864
 9570TIP3    H128674   5.080   4.956   0.175 -1.5800  2.3001  1.7214
 9570TIP3    H228675   4.941   5.014   0.174 -1.6158  2.4639 -2.3911
 9571TIP3   OH228676   1.116   1.602   0.110  0.6660 -0.2064  0.1286
 9571TIP3    H128677   1.068   1.610   0.028  0.8696  1.2135  0.1290
 9571TIP3    H228678   1.179   1.531   0.093  1.3378  0.6757 -1.2684
 9572TIP3   OH228679   3.303   4.975   2.914 -0.2011 -0.3036  0.0301
 9572TIP3    H128680   3.220   5.008   2.948  0.9254  2.4590  0.3759
 9572TIP3    H228681   3.362   5.051   2.917  0.8589 -0.5124 -5.3622
 9573TIP3   OH228682   6.811   3.817   1.300 -0.0053  0.2926 -0.2905
 9573TIP3    H128683   6.763   3.894   1.270  0.6633 -0.2671 -3.1250
 9573TIP3    H228684   6.763   3.743   1.262  0.0961 -0.6368  1.2943
 9574TIP3   OH228685   0.038   4.228   0.290  0.0343 -0.2276  1.1521
 9574TIP3    H128686   0.097   4.299   0.264  0.1636 -1.1360 -1.2969
 9574TIP3    H228687   0.060   4.211   0.381  0.1887  2.6516  1.7573
 9575TIP3   OH228688   5.025   0.408   3.051 -0.3589 -0.2683 -0.1627
 9575TIP3    H128689   5.036   0.316   3.073 -0.1331 -0.2793 -0.3174
 9575TIP3    H228690   4.952   0.437   3.105  1.1661  0.1072  1.7817
 9576TIP3   OH228691   3.865   4.017   3.958 -0.1382 -0.0331  0.4830
 9576TIP3    H128692   3.783   3.975   3.931 -0.2111  0.7954 -0.6598
 9576TIP3    H228693   3.866   4.100   3.910  0.2955  1.0113  2.2121
 9577TIP3   OH228694   2.022   1.440   0.191 -0.5987 -0.0856  0.9837
 9577TIP3    H128695   2.061   1.357   0.165 -0.6683  0.0026  0.5941
 9577TIP3    H228696   2.094   1.487   0.234 -0.0583  0.3682 -0.3661
 9578TIP3   OH228697   1.768   6.749   4.627  1.2973 -0.1104 -0.5438
 9578TIP3    H128698   1.766   6.664   4.671  2.0176 -1.4884 -3.0065
 9578TIP3    H228699   1.851   6.750   4.580  1.8690  2.5221  0.3543
 9579TIP3   OH228700   5.252   0.526   1.887  0.7623 -0.0560  0.1464
 9579TIP3    H128701   5.175   0.576   1.859  1.2285 -0.0975 -1.2698
 9579TIP3    H228702   5.220   0.473   1.961 -0.0279  1.4452  0.9187
 9580TIP3   OH228703   0.900   5.886   5.418  0.1843 -0.2417 -0.8832
 9580TIP3    H128704   0.845   5.918   5.346 -0.0078  1.2559 -0.1305
 9580TIP3    H228705   0.837   5.860   5.486  0.3748  0.2956 -0.4929
 9581TIP3   OH228706   2.873   3.036   0.278 -0.0559  0.1647  0.5261
 9581TIP3    H128707   2.959   3.077   0.287 -0.3664  0.6578  1.3480
 9581TIP3    H228708   2.878   2.989   0.195  1.7650 -1.6474  1.5880
 9582TIP3   OH228709   3.941   4.156   5.497 -0.9987  0.0393 -0.2460
 9582TIP3    H128710   3.855   4.181   5.464 -0.6712  0.0836 -1.0751
 9582TIP3    H228711   3.939   4.060   5.502 -0.4811 -0.0925 -2.0269
 9583TIP3   OH228712   1.399   5.326   2.950  0.0905 -0.2749 -0.1468
 9583TIP3    H128713   1.363   5.299   2.865  0.2212  0.3005 -0.3872
 9583TIP3    H228714   1.372   5.256   3.010 -1.3270  0.0584 -0.3460
 9584TIP3   OH228715   5.116   5.263   2.573  0.1971 -0.1274 -0.4016
 9584TIP3    H128716   5.156   5.265   2.660  1.6840  2.7051 -1.0221
 9584TIP3    H228717   5.039   5.320   2.581 -0.6815 -1.2526 -0.5672
 9585TIP3   OH228718   2.928   5.439   0.925 -0.0432  0.2476  0.4713
 9585TIP3    H128719   3.012   5.395   0.938  0.1713  0.8628  1.2080
 9585TIP3    H228720   2.870   5.371   0.891  0.3601 -0.5456  1.3287
 9586TIP3   OH228721   3.878   4.510   5.564 -0.7415 -0.0649  0.0225
 9586TIP3    H128722   3.953   4.519   5.505  0.2246  0.4940  1.2950
 9586TIP3    H228723   3.816   4.456   5.515  0.2313 -0.0438 -1.3000
 9587TIP3   OH228724   2.825   2.073   4.415  0.3305  0.6270 -0.1646
 9587TIP3    H128725   2.798   1.987   4.448  1.4057 -0.0750 -1.0417
 9587TIP3    H228726   2.836   2.126   4.494  3.8417 -1.2924  0.8634
 9588TIP3   OH228727   6.134   5.771   5.635 -0.4102  0.1565  0.0393
 9588TIP3    H128728   6.092   5.844   5.591 -0.3803 -1.3072 -2.6255
 9588TIP3    H228729   6.224   5.801   5.651 -0.4914  0.8292 -0.7289
 9589TIP3   OH228730   2.376   3.042   1.341  0.5569  0.0055 -0.3783
 9589TIP3    H128731   2.350   2.964   1.391  0.3906  0.9776  1.1171
 9589TIP3    H228732   2.453   3.014   1.292  1.7275 -0.6095  1.6637
 9590TIP3   OH228733   5.721   1.748   4.744 -0.7815  0.3572  0.8632
 9590TIP3    H128734   5.760   1.826   4.782 -0.1527  0.0540  0.8567
 9590TIP3    H228735   5.791   1.707   4.694 -1.4035  0.3579 -0.0271
 9591TIP3   OH228736   3.841   1.970   5.111  0.1781 -0.1750  0.5122
 9591TIP3    H128737   3.871   1.961   5.202 -2.4346  0.6871  1.5468
 9591TIP3    H228738   3.890   1.903   5.064  4.1318  1.4780  1.8113
 9592TIP3   OH228739   4.671   5.104   1.610  0.7746  0.4542  0.0307
 9592TIP3    H128740   4.613   5.075   1.540 -1.9217  1.9669  1.5086
 9592TIP3    H228741   4.753   5.127   1.564 -0.3714  0.0256 -2.4071
 9593TIP3   OH228742   0.251   6.578   0.867 -0.9122 -0.2599 -0.3540
 9593TIP3    H128743   0.241   6.520   0.942 -1.6866 -0.6538 -0.7565
 9593TIP3    H228744   0.317   6.641   0.894 -0.6985 -0.8060  0.4084
 9594TIP3   OH228745   2.411   5.071   0.871  0.0507  0.1366  0.3345
 9594TIP3    H128746   2.465   5.004   0.913 -0.8566  0.2268  1.6833
 9594TIP3    H228747   2.336   5.022   0.837 -0.2433  0.3709  0.6546
 9595TIP3   OH228748   0.466   1.419   5.886 -0.5356  0.0089 -0.2178
 9595TIP3    H128749   0.391   1.438   5.942 -0.0591  0.2622  0.3589
 9595TIP3    H228750   0.429   1.406   5.799 -1.4500 -1.7760  0.3962
 9596TIP3   OH228751   6.960   6.601   1.707  0.1303 -0.2254 -0.0803
 9596TIP3    H128752   7.019   6.542   1.659  0.4939 -0.3088  0.4546
 9596TIP3    H228753   6.931   6.664   1.642  0.4069 -0.4958 -0.4717
 9597TIP3   OH228754   0.631   2.315   5.684 -0.5009  0.1974 -0.1016
 9597TIP3    H128755   0.621   2.269   5.767  0.4775  0.3178  0.0946
 9597TIP3    H228756   0.549   2.298   5.637 -0.8563 -0.2872  0.6792
 9598TIP3   OH228757   2.362   0.411   0.300 -0.0413  0.0824  0.1278
 9598TIP3    H128758   2.406   0.333   0.335  1.1532  1.4160  1.7374
 9598TIP3    H228759   2.284   0.376   0.256  2.4064 -2.3667 -2.7277
 9599TIP3   OH228760   3.100   3.745   1.656  0.1286 -0.1551 -0.3973
 9599TIP3    H128761   3.127   3.834   1.675 -0.2346  0.0367 -0.7442
 9599TIP3    H228762   3.127   3.694   1.732 -2.2538  0.7557  1.1792
 9600TIP3   OH228763   1.475   2.976   4.966  0.5777 -0.4575 -0.0523
 9600TIP3    H128764   1.561   3.008   4.993  0.7632 -0.0528 -1.0866
 9600TIP3    H228765   1.417   3.052   4.974  0.3094 -0.7225  0.6202
 9601TIP3   OH228766   4.595   2.307   0.122 -0.0148 -0.3943 -0.0361
 9601TIP3    H128767   4.541   2.373   0.166 -1.4497 -1.0598 -0.7063
 9601TIP3    H228768   4.684   2.341   0.127 -0.5098  0.8223  1.0055
 9602TIP3   OH228769   0.690   3.377   4.534  0.2841  1.1036  0.6308
 9602TIP3    H128770   0.684   3.456   4.480  0.0465  0.2789 -0.6129
 9602TIP3    H228771   0.753   3.321   4.487 -0.0469  0.3032  1.1273
 9603TIP3   OH228772   6.069   2.400   2.153  0.0463  0.2478 -0.8393
 9603TIP3    H128773   6.052   2.403   2.059 -0.1286  1.6516 -0.7823
 9603TIP3    H228774   6.160   2.370   2.161 -0.1109 -0.3788 -1.4333
 9604TIP3   OH228775   2.358   2.311   3.085  0.2272  0.2238  0.0528
 9604TIP3    H128776   2.329   2.251   3.016 -3.5262 -0.3967  1.9749
 9604TIP3    H228777   2.415   2.258   3.141  0.5214 -0.2224 -0.6526
 9605TIP3   OH228778   1.188   6.558   5.155  0.0476  0.0213 -0.1445
 9605TIP3    H128779   1.277   6.543   5.188  0.2794 -0.6743 -1.0245
 9605TIP3    H228780   1.153   6.628   5.210  0.5653 -0.7768  1.2352
 9606TIP3   OH228781   2.661   4.593   1.210  0.5638 -0.1626 -0.7110
 9606TIP3    H128782   2.602   4.655   1.253  2.1383  0.6655  0.3470
 9606TIP3    H228783   2.605   4.518   1.188 -0.8138  0.4674  0.4816
 9607TIP3   OH228784   3.277   2.401   5.435 -0.2037 -0.6885 -0.6052
 9607TIP3    H128785   3.255   2.485   5.396 -1.8503 -0.5243  0.5808
 9607TIP3    H228786   3.196   2.351   5.433  0.3370 -1.6435  0.1827
 9608TIP3   OH228787   6.885   3.638   4.627 -0.6798  0.2824  0.3513
 9608TIP3    H128788   6.959   3.578   4.630 -1.3769 -0.6136  0.0921
 9608TIP3    H228789   6.924   3.725   4.640  0.8358  0.2222 -2.8335
 9609TIP3   OH228790   5.093  -0.009   3.827 -0.4835  0.3124  0.0145
 9609TIP3    H128791   5.011   0.031   3.857  0.3319  1.4717  0.8159
 9609TIP3    H228792   5.147  -0.016   3.906 -0.7743 -3.0098  0.0366
 9610TIP3   OH228793   1.706   3.990   2.300  0.0846  0.3015 -0.2427
 9610TIP3    H128794   1.630   4.031   2.259 -1.4385 -2.3302 -0.2671
 9610TIP3    H228795   1.770   3.984   2.229 -0.9024 -0.2956 -1.1188
 9611TIP3   OH228796   1.024   5.388   1.050 -0.1901  0.5621  0.5811
 9611TIP3    H128797   1.074   5.469   1.063 -3.2677  2.4204  2.3666
 9611TIP3    H228798   0.995   5.364   1.138  0.2303 -2.2670  0.0135
 9612TIP3   OH228799   2.112   4.742   2.816  0.3807  0.5057 -0.3329
 9612TIP3    H128800   2.077   4.809   2.756 -1.6880 -0.9915 -0.9162
 9612TIP3    H228801   2.204   4.734   2.792  0.6814  3.0406 -0.3046
 9613TIP3   OH228802   6.453   5.921   1.665 -0.3066  0.2018 -0.4039
 9613TIP3    H128803   6.385   5.870   1.621  0.1104 -0.6640 -0.0577
 9613TIP3    H228804   6.504   5.959   1.594  0.0037 -0.7090 -0.6864
 9614TIP3   OH228805   1.751   5.500   2.127  0.1125 -0.0467  0.6772
 9614TIP3    H128806   1.794   5.563   2.070 -0.3169 -0.6767 -0.3757
 9614TIP3    H228807   1.725   5.550   2.204 -1.8564  1.5288 -0.9017
 9615TIP3   OH228808   4.982   0.561   5.417  0.1129  0.1103  0.5814
 9615TIP3    H128809   4.927   0.502   5.469 -0.6059  0.6236  0.4115
 9615TIP3    H228810   4.953   0.547   5.327 -1.0475  1.7260  0.6665
 9616TIP3   OH228811   4.880   5.222   4.180 -0.0275 -0.0945 -0.0599
 9616TIP3    H128812   4.931   5.295   4.145 -0.4390  0.0363 -0.4077
 9616TIP3    H228813   4.905   5.216   4.272 -0.0887  0.5776  0.0033
 9617TIP3   OH228814   4.355   0.159   0.636 -0.1859  0.8642  0.9545
 9617TIP3    H128815   4.351   0.108   0.555 -0.4578  1.1006  0.8150
 9617TIP3    H228816   4.282   0.125   0.688 -1.5678  2.3762  0.0951
 9618TIP3   OH228817   3.640   3.661   5.374  0.5643  0.1601 -0.4383
 9618TIP3    H128818   3.653   3.744   5.330 -0.0556 -0.0357 -1.0033
 9618TIP3    H228819   3.549   3.664   5.406  1.2051  0.6057  1.4992
 9619TIP3   OH228820   3.897   4.650   4.701  0.4611 -0.1047  0.3735
 9619TIP3    H128821   3.818   4.643   4.647  0.4512 -1.8350  0.5541
 9619TIP3    H228822   3.903   4.743   4.723 -1.6829  0.0364  0.5904
 9620TIP3   OH228823   1.143   6.311   0.335 -0.0808 -0.1583  0.5851
 9620TIP3    H128824   1.062   6.282   0.293 -0.6436 -0.1804  1.6291
 9620TIP3    H228825   1.158   6.399   0.299 -0.3743 -0.2996  0.1088
 9621TIP3   OH228826   5.870   2.476   1.014 -0.4279  0.3296 -0.2443
 9621TIP3    H128827   5.878   2.551   1.073 -0.6897  0.2674 -0.1292
 9621TIP3    H228828   5.927   2.409   1.053 -1.4122 -0.0884  0.5374
 9622TIP3   OH228829   2.103   4.679   0.083 -0.2960  0.2636  0.1724
 9622TIP3    H128830   2.078   4.606   0.139  1.0558 -0.1163  0.3291
 9622TIP3    H228831   2.132   4.747   0.144  0.2976  0.1889 -0.0122
 9623TIP3   OH228832   7.198   5.096   3.731 -0.2394  0.3284 -0.1171
 9623TIP3    H128833   7.161   5.010   3.748  1.8335 -0.6843 -0.4319
 9623TIP3    H228834   7.247   5.117   3.811 -1.9588  1.9604  0.5863
 9624TIP3   OH228835   1.563   6.219   4.467 -0.7048 -0.6196  0.1792
 9624TIP3    H128836   1.639   6.169   4.495 -0.8385  0.4000  2.5936
 9624TIP3    H228837   1.539   6.272   4.543 -2.2741  1.0098 -1.3298
 9625TIP3   OH228838   2.634   3.996   3.903 -0.0469 -0.5263  0.0164
 9625TIP3    H128839   2.565   3.934   3.879 -0.8828  0.3905  0.0056
 9625TIP3    H228840   2.713   3.942   3.913  0.2655 -1.1086 -4.0614
 9626TIP3   OH228841   5.275   0.706   5.614  0.7270  0.0479 -0.3765
 9626TIP3    H128842   5.276   0.722   5.519 -0.3077  0.6059 -0.3162
 9626TIP3    H228843   5.305   0.616   5.623  1.4330  0.1870 -1.1864
 9627TIP3   OH228844   7.182   4.050   1.759 -0.1189 -0.2693 -0.1509
 9627TIP3    H128845   7.114   4.084   1.701 -0.3475  3.0679  1.8205
 9627TIP3    H228846   7.251   4.018   1.700 -2.6104 -2.3216 -2.1823
 9628TIP3   OH228847   0.544   3.132   1.727 -0.0471  0.3582  0.4253
 9628TIP3    H128848   0.558   3.109   1.819 -0.0351  1.3929  0.7018
 9628TIP3    H228849   0.502   3.056   1.689 -0.2396 -0.0058  1.3443
 9629TIP3   OH228850   0.670   6.293   2.744 -0.0698 -0.0937  0.2814
 9629TIP3    H128851   0.641   6.318   2.656 -0.5461 -1.0759  0.1545
 9629TIP3    H228852   0.755   6.252   2.731  0.0727  0.1763  0.3397
 9630TIP3   OH228853   6.158   2.533   3.863 -0.5829  0.7213  0.5157
 9630TIP3    H128854   6.071   2.498   3.881 -0.8431  0.2744 -1.3933
 9630TIP3    H228855   6.158   2.620   3.903 -1.1924 -0.0322  2.2235
 9631TIP3   OH228856   5.178   6.034   1.799  0.2611  0.1113  0.2466
 9631TIP3    H128857   5.171   5.964   1.734  0.3893  0.5259 -0.2205
 9631TIP3    H228858   5.234   5.997   1.868  1.9102  0.3818 -0.8820
 9632TIP3   OH228859   2.388   6.691   0.219 -0.3618  0.1015 -0.5408
 9632TIP3    H128860   2.441   6.767   0.196  0.2579 -0.2430 -0.2817
 9632TIP3    H228861   2.378   6.643   0.137 -1.6368  0.9851 -0.9276
 9633TIP3   OH228862   1.302   0.817   1.319 -0.1190 -0.3704 -0.7356
 9633TIP3    H128863   1.208   0.822   1.337 -0.4413 -3.2436 -1.0204
 9633TIP3    H228864   1.309   0.835   1.225 -0.4085 -0.3236 -0.7495
 9634TIP3   OH228865   2.814   3.618   4.298  0.5785  0.5716  1.1760
 9634TIP3    H128866   2.764   3.696   4.272 -0.8662 -0.4336  0.8177
 9634TIP3    H228867   2.784   3.599   4.387 -0.4793 -0.6112  0.6013
 9635TIP3   OH228868   3.816   4.198   0.783  0.1881 -0.1089  0.3085
 9635TIP3    H128869   3.810   4.283   0.826 -0.9826 -0.5629  1.0962
 9635TIP3    H228870   3.879   4.149   0.837 -0.5701 -0.3642  0.9745
 9636TIP3   OH228871   1.842   1.822   5.816  0.3879  0.1491 -0.7060
 9636TIP3    H128872   1.788   1.875   5.758  0.3916 -2.2348 -3.0559
 9636TIP3    H228873   1.779   1.783   5.878 -0.1068  0.1495 -1.1975
 9637TIP3   OH228874   1.206   2.727   5.177 -0.0068 -0.4718  0.3369
 9637TIP3    H128875   1.226   2.640   5.211 -0.2889 -1.4664 -1.8460
 9637TIP3    H228876   1.114   2.742   5.200 -0.6209 -1.7398 -1.1080
 9638TIP3   OH228877   4.772   2.235   1.228 -0.0122  0.1409  0.3061
 9638TIP3    H128878   4.696   2.257   1.283 -0.1604  0.4816 -0.0262
 9638TIP3    H228879   4.750   2.272   1.143  0.6601  0.4989  0.2858
 9639TIP3   OH228880   1.472   0.898   5.643  0.2048 -0.0084  0.3485
 9639TIP3    H128881   1.388   0.859   5.667 -0.2618 -0.3627 -1.6918
 9639TIP3    H228882   1.496   0.952   5.718 -0.7920 -1.5566  1.8416
 9640TIP3   OH228883   3.650   6.438   2.610 -0.4532  0.1874  0.3310
 9640TIP3    H128884   3.641   6.384   2.531  0.9039  1.5797 -0.8403
 9640TIP3    H228885   3.744   6.453   2.618 -0.6330  0.7051  1.7961
 9641TIP3   OH228886   2.046   0.625   2.083 -0.2980  0.2148  0.4889
 9641TIP3    H128887   2.065   0.670   2.165  0.9740  0.0989  0.2888
 9641TIP3    H228888   1.989   0.552   2.108 -0.6074  0.6730  1.1342
 9642TIP3   OH228889   6.557   3.670   1.163  0.4848 -0.3770 -0.0571
 9642TIP3    H128890   6.463   3.679   1.177  0.3344 -2.2188  0.4105
 9642TIP3    H228891   6.578   3.733   1.094 -0.4982  2.2344  1.8666
 9643TIP3   OH228892   4.892   2.075   4.871 -0.4604 -0.2109 -0.1918
 9643TIP3    H128893   4.901   2.097   4.964 -0.7717 -1.2222  0.0987
 9643TIP3    H228894   4.946   1.996   4.860 -1.6536 -1.0057 -0.5038
 9644TIP3   OH228895   3.937   6.573   2.904  0.4096  0.5074 -0.6146
 9644TIP3    H128896   4.017   6.565   2.956 -1.1449  2.1709  2.2639
 9644TIP3    H228897   3.947   6.508   2.835  2.5218 -2.1479  1.9351
 9645TIP3   OH228898   3.110   5.758   3.804 -0.2177  0.2649 -0.7103
 9645TIP3    H128899   3.152   5.809   3.734  0.1091 -0.5732 -1.1299
 9645TIP3    H228900   3.026   5.802   3.817  0.1343  1.0240 -0.9393
 9646TIP3   OH228901   5.985   2.924   5.073 -0.2978 -0.2672  0.3893
 9646TIP3    H128902   5.939   3.007   5.085 -1.5066 -1.1041  1.9624
 9646TIP3    H228903   5.924   2.870   5.023  0.3063 -0.3534 -0.2621
 9647TIP3   OH228904   5.939   4.652   3.292 -0.4509 -0.6487 -0.1408
 9647TIP3    H128905   5.860   4.693   3.327 -1.5224 -1.7094 -1.2256
 9647TIP3    H228906   5.913   4.617   3.207  1.4118 -0.3109 -0.9108
 9648TIP3   OH228907   5.055   0.257   4.361 -0.0919 -0.3061 -0.3153
 9648TIP3    H128908   5.095   0.185   4.410 -0.7967  0.5316  1.6126
 9648TIP3    H228909   5.008   0.307   4.427 -1.2070  0.8569 -1.9149
 9649TIP3   OH228910   7.120   5.968   2.699 -0.8085 -0.0360 -0.3069
 9649TIP3    H128911   7.174   5.991   2.623  0.3087  2.2720  1.0492
 9649TIP3    H228912   7.079   6.050   2.724 -0.4143 -0.4966  2.0961
 9650TIP3   OH228913   5.837   5.783   2.070  0.2701  0.0081 -0.0470
 9650TIP3    H128914   5.743   5.789   2.090 -0.1021  0.2123 -1.7124
 9650TIP3    H228915   5.851   5.691   2.047  0.7389 -0.2721  1.2589
 9651TIP3   OH228916   1.439   0.995   3.871  0.0183 -0.5028 -0.6292
 9651TIP3    H128917   1.482   0.992   3.786 -0.0141 -2.0216 -0.6203
 9651TIP3    H228918   1.346   0.987   3.851  0.0208 -1.0176 -0.4563
 9652TIP3   OH228919   6.270   3.563   4.331 -0.1752 -0.0343  0.0840
 9652TIP3    H128920   6.192   3.511   4.353 -0.4316 -0.4624 -1.6556
 9652TIP3    H228921   6.236   3.634   4.276  0.7308 -0.6463 -1.3025
 9653TIP3   OH228922   2.162   6.198   3.016 -0.1195  0.2913  0.6892
 9653TIP3    H128923   2.255   6.179   3.023  0.6057  2.5654 -1.2445
 9653TIP3    H228924   2.119   6.113   3.013  2.1573 -0.8689 -1.0375
 9654TIP3   OH228925   6.357   5.812   4.885  0.2572  0.2738  0.4015
 9654TIP3    H128926   6.313   5.866   4.820 -0.5080 -0.6415  0.1291
 9654TIP3    H228927   6.407   5.748   4.834  1.1310  0.6875  0.7148
 9655TIP3   OH228928   6.462   2.864   3.186  0.9004 -0.6128 -0.0818
 9655TIP3    H128929   6.498   2.784   3.149 -0.2684 -0.8897 -0.6853
 9655TIP3    H228930   6.429   2.913   3.110 -0.4535 -0.6356  0.4596
 9656TIP3   OH228931   0.856   3.137   1.973  0.2179  0.0602 -0.2515
 9656TIP3    H128932   0.868   3.158   1.881  0.5110  0.4339 -0.1313
 9656TIP3    H228933   0.771   3.094   1.977 -0.1263  0.6916 -0.5961
 9657TIP3   OH228934   1.446   4.711   4.429  0.4133  0.1184  0.3276
 9657TIP3    H128935   1.423   4.780   4.366 -0.3161 -0.0765  0.3769
 9657TIP3    H228936   1.371   4.705   4.486  0.7224 -0.3137  0.6941
 9658TIP3   OH228937   0.231   2.933   1.307  0.0998  0.0121  0.2311
 9658TIP3    H128938   0.148   2.975   1.332  0.5249  1.5232 -0.8065
 9658TIP3    H228939   0.205   2.844   1.282 -1.0335  0.0859  1.0455
 9659TIP3   OH228940   2.727   5.611   5.505  0.3546 -0.1438 -0.2156
 9659TIP3    H128941   2.767   5.687   5.548 -0.0372  0.1802 -0.4105
 9659TIP3    H228942   2.798   5.570   5.457  0.6966 -0.2452  0.3704
 9660TIP3   OH228943   6.415   6.211   1.324 -0.0802  1.1085  0.2067
 9660TIP3    H128944   6.492   6.161   1.351 -1.0186  1.0228  3.0058
 9660TIP3    H228945   6.373   6.156   1.258  0.5250 -0.3719  1.0089
 9661TIP3   OH228946   6.213   2.400   3.322 -0.2558 -0.1393 -0.0761
 9661TIP3    H128947   6.291   2.455   3.308 -0.2565 -0.2448 -0.5076
 9661TIP3    H228948   6.148   2.461   3.358 -0.4304  0.2665 -1.0579
 9662TIP3   OH228949   5.184   4.906   4.135 -0.3592  0.1550 -0.0893
 9662TIP3    H128950   5.255   4.937   4.079 -1.2463  0.8721 -0.8384
 9662TIP3    H228951   5.130   4.851   4.078 -1.3061  0.9449  0.0160
 9663TIP3   OH228952   3.085   1.870   2.759 -0.3216  0.2064  0.3193
 9663TIP3    H128953   3.141   1.818   2.701 -0.5190  1.3797 -0.9589
 9663TIP3    H228954   3.146   1.904   2.825 -0.1221 -1.2564  0.9390
 9664TIP3   OH228955   1.008   1.547   0.779 -0.4358 -0.5052  0.1421
 9664TIP3    H128956   1.081   1.590   0.734 -0.3574  0.0254  0.7549
 9664TIP3    H228957   1.013   1.580   0.869 -1.8854  0.1162  0.0236
 9665TIP3   OH228958   6.772   1.692   1.728  0.5616  0.0437  0.0962
 9665TIP3    H128959   6.859   1.722   1.700  1.3874 -0.8973  1.5249
 9665TIP3    H228960   6.723   1.772   1.744  1.7064  0.6310  0.8214
 9666TIP3   OH228961   3.185   0.963   5.629 -0.0572 -0.1097  0.5483
 9666TIP3    H128962   3.155   0.881   5.589 -0.4002  1.0233 -1.7045
 9666TIP3    H228963   3.221   0.937   5.713  1.6237 -2.8727 -0.8670
 9667TIP3   OH228964   3.287   5.618   5.506 -0.7277  0.2679  0.2240
 9667TIP3    H128965   3.361   5.678   5.492 -1.5840  1.5437  0.9993
 9667TIP3    H228966   3.218   5.651   5.448 -1.6546  0.8488  1.6274
 9668TIP3   OH228967   2.146   2.242   3.239 -0.4990 -0.3477  0.0349
 9668TIP3    H128968   2.080   2.178   3.211  0.2959 -1.1973  0.0737
 9668TIP3    H228969   2.208   2.247   3.166  0.4467 -1.0093  0.7714
 9669TIP3   OH228970   2.399   5.935   4.286  0.0182 -0.1987  0.1898
 9669TIP3    H128971   2.410   5.848   4.323 -1.2446  0.2929  1.9234
 9669TIP3    H228972   2.319   5.929   4.234 -0.8285  0.1811  1.3867
 9670TIP3   OH228973   4.652   6.253   0.441 -0.5816 -0.4269  0.1005
 9670TIP3    H128974   4.589   6.324   0.433 -0.8554 -0.5025  1.3553
 9670TIP3    H228975   4.730   6.284   0.394 -0.5041  0.9379  1.0792
 9671TIP3   OH228976   6.059   4.198   4.329  0.0446 -0.4079 -0.7840
 9671TIP3    H128977   5.971   4.202   4.290  0.1063  0.9303 -0.8330
 9671TIP3    H228978   6.091   4.288   4.326  0.8461 -0.6100  0.5763
 9672TIP3   OH228979   5.250   3.683   5.095 -0.0348 -0.1849  0.0306
 9672TIP3    H128980   5.212   3.627   5.028 -1.3327  0.0221  0.5585
 9672TIP3    H228981   5.241   3.772   5.061  0.6484 -0.1773 -0.1485
 9673TIP3   OH228982   3.834   5.319   0.809 -0.1959  0.6247  0.0973
 9673TIP3    H128983   3.765   5.382   0.788 -1.7260 -1.0875 -0.2818
 9673TIP3    H228984   3.842   5.264   0.731 -0.8409 -1.3122  1.3140
 9674TIP3   OH228985   3.152   6.249   2.568 -0.2254 -0.2849  0.0778
 9674TIP3    H128986   3.236   6.212   2.594 -0.0218 -0.4186 -0.7367
 9674TIP3    H228987   3.088   6.211   2.628  0.5294  1.2955  1.9842
 9675TIP3   OH228988   4.475   3.889   2.728 -0.1732  0.3902 -0.5638
 9675TIP3    H128989   4.515   3.951   2.666 -0.8113  0.5681 -0.8083
 9675TIP3    H228990   4.409   3.843   2.677 -1.4483  1.2708  0.2029
 9676TIP3   OH228991   5.722   6.562   1.538 -0.5874  0.3641  0.0118
 9676TIP3    H128992   5.654   6.559   1.470  0.2810  0.6060 -0.8794
 9676TIP3    H228993   5.682   6.518   1.614 -1.8720  0.8300 -0.3705
 9677TIP3   OH228994   2.545   4.144   2.258 -0.4756 -0.5112 -0.2572
 9677TIP3    H128995   2.524   4.222   2.207 -0.6172 -0.6717 -0.4451
 9677TIP3    H228996   2.496   4.155   2.340  0.0573 -0.0674  0.0109
 9678TIP3   OH228997   3.077   5.891   0.845  0.1562  0.6624 -0.0370
 9678TIP3    H128998   3.069   5.972   0.794 -1.0740  0.6009  0.0266
 9678TIP3    H228999   3.113   5.920   0.929 -0.7138  1.2232  0.1527
 9679TIP3   OH229000   5.961   6.666   4.465 -0.1264 -0.0302  0.4156
 9679TIP3    H129001   5.952   6.745   4.412  0.7524  0.0495  0.3683
 9679TIP3    H229002   6.045   6.628   4.438  0.2957 -0.0523  1.6539
 9680TIP3   OH229003   4.379   0.859   3.060 -0.4894 -0.0562  0.3320
 9680TIP3    H129004   4.305   0.832   3.114  0.2852 -1.6428  0.6466
 9680TIP3    H229005   4.454   0.812   3.097 -0.0779 -2.0034 -2.6711
 9681TIP3   OH229006   4.843   0.319   2.587  0.6338 -0.3959  0.4718
 9681TIP3    H129007   4.790   0.377   2.532 -0.4604 -1.1016  0.7553
 9681TIP3    H229008   4.782   0.251   2.615  1.6574 -1.1171  0.9743
 9682TIP3   OH229009   7.189   5.679   0.905 -0.6934 -0.2361  0.4608
 9682TIP3    H129010   7.203   5.615   0.836 -0.6976 -0.5464  0.7494
 9682TIP3    H229011   7.094   5.689   0.910 -0.6951 -0.2615  0.4714
 9683TIP3   OH229012   3.871   3.313   0.795 -0.1802 -0.4829 -0.1904
 9683TIP3    H129013   3.848   3.328   0.887  2.5741  0.3578  0.4508
 9683TIP3    H229014   3.788   3.320   0.748 -1.6008 -0.5008  2.1681
 9684TIP3   OH229015   0.112   3.122   4.374  0.1663  0.2616 -0.3727
 9684TIP3    H129016   0.201   3.150   4.353  0.4029  0.3750  0.7157
 9684TIP3    H229017   0.056   3.175   4.318  0.8116 -0.4437 -1.7216
 9685TIP3   OH229018   4.774   3.017   1.287 -0.2250  0.4181  0.0174
 9685TIP3    H129019   4.846   3.057   1.237  0.3884 -2.3117 -1.4806
 9685TIP3    H229020   4.703   3.007   1.224  0.8647 -3.9056 -0.8652
 9686TIP3   OH229021   4.605   6.142   0.697 -0.2501  0.3503  0.1661
 9686TIP3    H129022   4.575   6.051   0.687 -0.5133  0.4241  0.2953
 9686TIP3    H229023   4.609   6.176   0.608 -0.1725  0.2178  0.1188
 9687TIP3   OH229024   5.832   4.819   2.626  0.0941  0.4533 -0.3880
 9687TIP3    H129025   5.895   4.888   2.645  0.3744 -0.2192  1.3032
 9687TIP3    H229026   5.884   4.738   2.628 -0.3329  0.1130 -1.7437
 9688TIP3   OH229027   6.100   1.557   4.003  0.0957 -0.1050  0.1369
 9688TIP3    H129028   6.183   1.529   3.963 -0.2008  0.5338 -0.9662
 9688TIP3    H229029   6.122   1.573   4.095  1.2342  0.2346 -0.1799
 9689TIP3   OH229030   6.143   2.786   1.156  0.5130  0.6692 -0.6567
 9689TIP3    H129031   6.211   2.780   1.223  1.0389  1.1652 -1.1327
 9689TIP3    H229032   6.183   2.747   1.078 -0.0623  0.1670 -0.7030
 9690TIP3   OH229033   3.921   2.340   4.686  0.5201  0.0244  0.3422
 9690TIP3    H129034   3.830   2.368   4.701  0.2509  0.0669 -1.2503
 9690TIP3    H229035   3.959   2.410   4.634  0.9492 -0.8028 -0.4828
 9691TIP3   OH229036   2.509   0.817   4.039  1.0537  0.1225 -0.4978
 9691TIP3    H129037   2.597   0.824   4.003  0.0905  0.8969 -2.8510
 9691TIP3    H229038   2.457   0.776   3.970 -0.4512 -0.3168  0.8281
 9692TIP3   OH229039   1.595   0.559   1.274 -0.0985  0.0520  0.4546
 9692TIP3    H129040   1.546   0.615   1.334  1.5861  0.9518  1.0562
 9692TIP3    H229041   1.624   0.485   1.328  0.4066  0.2586  0.4763
 9693TIP3   OH229042   0.550   5.784   2.713 -0.5564  0.0129 -0.5845
 9693TIP3    H129043   0.640   5.805   2.688 -0.6941  0.6075 -0.6040
 9693TIP3    H229044   0.497   5.848   2.665 -1.0389 -0.7947 -1.1314
 9694TIP3   OH229045   6.756   4.705   1.835 -0.5255 -0.6945 -0.3781
 9694TIP3    H129046   6.697   4.699   1.910  0.8061  3.8120  1.4166
 9694TIP3    H229047   6.838   4.665   1.865 -0.5363 -0.5018 -0.0866
 9695TIP3   OH229048   4.964   0.864   5.319  0.4473 -0.3447 -0.7887
 9695TIP3    H129049   4.909   0.940   5.336 -0.9270 -1.1837 -1.2566
 9695TIP3    H229050   4.972   0.820   5.404  1.4089  0.4129 -0.4785
 9696TIP3   OH229051   6.793   5.893   2.994 -0.3709  0.4243 -0.4187
 9696TIP3    H129052   6.747   5.947   3.058 -0.7925  0.8621 -1.0802
 9696TIP3    H229053   6.854   5.841   3.046 -2.1439 -0.7525  0.5744
 9697TIP3   OH229054   6.318   4.138   2.022 -0.1941  0.3113  0.3697
 9697TIP3    H129055   6.397   4.098   2.060  0.0297 -1.9858 -2.1754
 9697TIP3    H229056   6.246   4.102   2.075  0.1033 -2.8576 -1.1092
 9698TIP3   OH229057   4.080   3.967   1.797  0.7448 -0.6499 -0.7220
 9698TIP3    H129058   4.036   3.905   1.855  1.7523 -2.8722 -2.2131
 9698TIP3    H229059   4.069   4.052   1.841 -1.9848 -1.5888  0.6510
 9699TIP3   OH229060   6.317   0.379   1.475  0.3038 -0.3583 -0.1939
 9699TIP3    H129061   6.395   0.413   1.431  1.1641 -2.4658 -0.4329
 9699TIP3    H229062   6.279   0.319   1.411 -1.0521 -0.0020  0.2508
 9700TIP3   OH229063   2.779   2.156   3.241  0.2580  0.0081 -0.2306
 9700TIP3    H129064   2.741   2.174   3.328 -0.8568 -1.6707 -0.3320
 9700TIP3    H229065   2.807   2.242   3.210 -1.5093  1.0205  0.7863
 9701TIP3   OH229066   0.606   5.017   2.665  0.9445 -0.4634 -0.0441
 9701TIP3    H129067   0.637   4.927   2.671 -0.0052 -0.8569 -0.7911
 9701TIP3    H229068   0.610   5.037   2.571  1.9959  0.5962  0.1973
 9702TIP3   OH229069   3.199   1.500   1.065  0.3017 -0.4943 -0.1292
 9702TIP3    H129070   3.209   1.496   0.970 -0.2921 -0.7565 -0.1837
 9702TIP3    H229071   3.113   1.460   1.082  0.5188 -0.6908  0.5361
 9703TIP3   OH229072   1.657   4.874   4.032  0.1721  0.4863  0.2467
 9703TIP3    H129073   1.724   4.940   4.017  2.0703 -1.1425  1.0617
 9703TIP3    H229074   1.601   4.912   4.100 -0.2006  2.1528 -0.9315
 9704TIP3   OH229075   0.001   5.430   1.155 -0.3311  0.3593  0.2625
 9704TIP3    H129076  -0.069   5.388   1.104 -0.7526  2.8890 -1.4484
 9704TIP3    H229077   0.070   5.449   1.091  0.8556  0.1413  1.4332
 9705TIP3   OH229078   2.623   3.363   1.886 -0.1202 -0.6460 -0.3847
 9705TIP3    H129079   2.584   3.405   1.962 -0.2542  0.9218 -1.2918
 9705TIP3    H229080   2.624   3.430   1.819  4.3981 -0.4364 -0.3820
 9706TIP3   OH229081   7.050   5.038   5.082 -0.5713  0.5835  0.1243
 9706TIP3    H129082   6.971   5.016   5.033 -0.8063  1.3112  0.1645
 9706TIP3    H229083   7.040   4.992   5.165 -1.1772  1.0414  0.3126
 9707TIP3   OH229084   4.327   3.053   1.082 -0.0297  0.2271 -0.7219
 9707TIP3    H129085   4.236   3.070   1.106  0.2392  0.1744  0.3917
 9707TIP3    H229086   4.327   2.964   1.048 -0.2912 -0.0034 -0.1281
 9708TIP3   OH229087   1.964   4.212   5.716 -0.2896  0.2539 -0.2214
 9708TIP3    H129088   2.043   4.265   5.722 -1.1076  1.5236 -0.4602
 9708TIP3    H229089   1.996   4.121   5.720  1.1321  0.7466  0.0539
 9709TIP3   OH229090   6.326   1.430   3.864  0.3102  0.4411  0.6534
 9709TIP3    H129091   6.276   1.349   3.852  2.6321 -0.9345 -0.3704
 9709TIP3    H229092   6.392   1.409   3.929  0.8475  1.5621  0.4999
 9710TIP3   OH229093   3.480   5.054   2.157  0.4659  0.7487  0.3036
 9710TIP3    H129094   3.396   5.081   2.194 -0.5144  1.1429 -1.9902
 9710TIP3    H229095   3.476   5.085   2.066  1.3981 -2.7053 -1.0459
 9711TIP3   OH229096   0.815   5.190   4.962  0.0481 -0.0024  0.0961
 9711TIP3    H129097   0.892   5.204   5.016  0.8697  0.1291 -1.0807
 9711TIP3    H229098   0.811   5.095   4.949  0.0541 -0.0016  0.0888
 9712TIP3   OH229099   5.611   1.379   2.366 -0.2601 -0.4269 -0.0052
 9712TIP3    H129100   5.583   1.304   2.314 -0.5349  0.8936 -1.8827
 9712TIP3    H229101   5.529   1.420   2.395 -0.1139 -0.7718  0.9370
 9713TIP3   OH229102   6.500   6.232   4.184  0.5980  0.8571  0.0319
 9713TIP3    H129103   6.507   6.290   4.108  0.2756  1.5470  0.5146
 9713TIP3    H229104   6.559   6.271   4.249  1.5603 -0.2320 -0.1711
 9714TIP3   OH229105   1.167   0.970   0.547  0.4094  0.1415  0.0823
 9714TIP3    H129106   1.248   1.010   0.579  2.1227 -1.3684 -2.0250
 9714TIP3    H229107   1.144   0.905   0.614  1.7164 -0.3027  0.1266
 9715TIP3   OH229108   6.649   2.637   5.017  0.9172 -0.4524 -0.1601
 9715TIP3    H129109   6.682   2.726   5.007  2.0165 -0.7468  0.5685
 9715TIP3    H229110   6.586   2.642   5.089  1.2233 -0.3156  0.1004
 9716TIP3   OH229111   3.912   4.083   0.544  0.3317 -0.1323 -0.3580
 9716TIP3    H129112   3.917   4.127   0.629 -0.8972  1.9135 -1.2954
 9716TIP3    H229113   3.834   4.027   0.551 -0.0605  0.4187 -0.3188
 9717TIP3   OH229114   3.237   3.886   0.953 -0.8637  0.5446  0.3287
 9717TIP3    H129115   3.241   3.901   1.047  0.8658 -0.7884  0.5036
 9717TIP3    H229116   3.293   3.810   0.938 -0.7159  1.0256 -1.8361
 9718TIP3   OH229117   6.096   2.146   3.298  0.3377  0.2553  0.1442
 9718TIP3    H129118   6.132   2.234   3.288  0.9496  0.1478  1.2766
 9718TIP3    H229119   6.107   2.126   3.390 -1.9990 -0.0688  0.4081
 9719TIP3   OH229120   6.776   4.026   5.719  0.2447  0.0868  0.1511
 9719TIP3    H129121   6.863   4.056   5.745  0.9734 -1.2467 -0.6365
 9719TIP3    H229122   6.781   4.019   5.624 -1.5100  2.2678 -0.1826
 9720TIP3   OH229123   0.441   5.210   2.575  0.0848  0.4580 -0.0910
 9720TIP3    H129124   0.496   5.173   2.644 -0.4655  0.5261  0.3875
 9720TIP3    H229125   0.448   5.305   2.587 -2.7438  0.5140  2.1252
 9721TIP3   OH229126   1.146   5.869   5.501  0.0483  0.3876 -0.1339
 9721TIP3    H129127   1.056   5.878   5.472 -0.1165 -0.6409  0.0516
 9721TIP3    H229128   1.142   5.880   5.596 -0.3135 -2.3966  0.2511
 9722TIP3   OH229129   0.885   6.339   1.673  0.1976 -0.4527  0.4285
 9722TIP3    H129130   0.816   6.364   1.613 -1.1789 -2.5099  1.0256
 9722TIP3    H229131   0.840   6.319   1.755  1.1883 -3.4459  0.3775
 9723TIP3   OH229132   4.659   5.780   0.052 -0.1232 -0.0262  0.7271
 9723TIP3    H129133   4.572   5.808   0.080  0.1577  0.1394  1.4539
 9723TIP3    H229134   4.695   5.856   0.006 -1.0325 -0.6860 -1.1698
 9724TIP3   OH229135   3.832   2.848   3.230  0.3716 -0.0531 -0.1332
 9724TIP3    H129136   3.750   2.892   3.248  0.5409  0.0525  0.3939
 9724TIP3    H229137   3.885   2.914   3.185  0.1464 -0.1416 -0.5293
 9725TIP3   OH229138   3.977   1.053   0.528  0.3097 -0.7613 -0.2414
 9725TIP3    H129139   3.969   1.130   0.583  2.9933 -1.9567  2.0919
 9725TIP3    H229140   4.068   1.053   0.499 -0.5314 -1.2250 -3.2344
 9726TIP3   OH229141   1.772   2.390   5.425  0.6481 -0.6849  0.7384
 9726TIP3    H129142   1.719   2.316   5.394  1.0564 -1.2817  1.4507
 9726TIP3    H229143   1.719   2.467   5.405 -0.9680 -1.3153  2.3107
 9727TIP3   OH229144   4.441   0.507   2.898 -0.9905 -0.1066  0.1820
 9727TIP3    H129145   4.371   0.459   2.853  0.2052 -0.0221 -1.9094
 9727TIP3    H229146   4.521   0.475   2.857  0.0548  1.3013  1.0518
 9728TIP3   OH229147   1.130   5.695   0.514 -0.2762  0.4589  0.2572
 9728TIP3    H129148   1.148   5.632   0.584  0.9772  1.2237  0.6686
 9728TIP3    H229149   1.207   5.753   0.514 -0.7895  1.1834 -0.9806
 9729TIP3   OH229150   2.561   3.398   2.815  0.2576  0.0937 -0.1325
 9729TIP3    H129151   2.611   3.432   2.741 -0.2299  2.5027  0.5640
 9729TIP3    H229152   2.472   3.430   2.800 -0.6687 -2.2823 -0.2221
 9730TIP3   OH229153   0.698   3.438   2.277  0.4006 -0.4143 -0.3205
 9730TIP3    H129154   0.646   3.385   2.217 -0.1091 -0.3429  0.0502
 9730TIP3    H229155   0.691   3.394   2.362 -0.3400  0.4229  0.0797
 9731TIP3   OH229156   0.403   4.645   5.623 -0.0630  0.2339 -0.0954
 9731TIP3    H129157   0.344   4.685   5.686 -1.0944 -1.1871 -0.1025
 9731TIP3    H229158   0.465   4.595   5.676 -0.9363 -0.9684 -0.1689
 9732TIP3   OH229159   2.899   1.587   2.579  0.3990 -0.3258  0.0103
 9732TIP3    H129160   2.959   1.607   2.507 -0.2984  0.3278 -0.4027
 9732TIP3    H229161   2.953   1.595   2.658  0.8804  0.1724 -0.3582
 9733TIP3   OH229162   4.655   5.551   4.689  0.1288 -0.0386 -0.1491
 9733TIP3    H129163   4.683   5.503   4.611  1.6711  1.3063 -0.4712
 9733TIP3    H229164   4.675   5.643   4.669 -1.0116  0.5407  1.1783
 9734TIP3   OH229165   2.026   5.581   1.598 -0.0002  0.4664 -0.1566
 9734TIP3    H129166   2.023   5.565   1.504 -2.2616 -0.3351  0.0005
 9734TIP3    H229167   2.044   5.495   1.636 -1.4899  0.2994  0.2195
 9735TIP3   OH229168   6.640   4.651   0.870  1.1012  0.3089  0.0507
 9735TIP3    H129169   6.679   4.567   0.893  0.0511 -0.0567  0.5783
 9735TIP3    H229170   6.590   4.634   0.790 -0.5908 -0.0450  1.1380
 9736TIP3   OH229171   1.126   1.461   0.353 -0.2979 -0.1177  0.1378
 9736TIP3    H129172   1.179   1.493   0.426  0.0320 -1.0491  0.3189
 9736TIP3    H229173   1.144   1.523   0.282  1.4290 -0.6572  0.0387
 9737TIP3   OH229174   1.076   6.331   5.034  0.6255  0.0974 -0.2792
 9737TIP3    H129175   1.152   6.282   5.002  1.5998  1.7323 -0.6118
 9737TIP3    H229176   1.108   6.421   5.043 -1.7343  1.2750 -2.2348
 9738TIP3   OH229177   5.029   0.930   4.500 -0.0254 -0.6299  0.3430
 9738TIP3    H129178   4.939   0.935   4.532 -0.1407 -0.8084  0.0570
 9738TIP3    H229179   5.026   0.971   4.413  0.6136  1.3428  1.1995
 9739TIP3   OH229180   2.450   2.856   0.419 -0.3190  0.0270  1.0615
 9739TIP3    H129181   2.508   2.784   0.444 -1.1108 -0.8294  0.5293
 9739TIP3    H229182   2.509   2.925   0.389  0.4670 -0.3280  1.7498
 9740TIP3   OH229183   0.782   0.454   2.572 -0.0883  0.7115 -0.0182
 9740TIP3    H129184   0.691   0.424   2.565  0.6291 -1.3360 -1.7615
 9740TIP3    H229185   0.825   0.385   2.623  0.9601  0.3258 -1.3645
 9741TIP3   OH229186   4.072   1.461   4.413  0.2582 -0.1176  0.0955
 9741TIP3    H129187   4.065   1.504   4.328 -1.4410  0.1999  0.3697
 9741TIP3    H229188   4.046   1.370   4.397 -0.7639  0.1133  0.3959
 9742TIP3   OH229189   5.949   6.514   1.813 -0.5037  0.0109  0.2363
 9742TIP3    H129190   5.920   6.605   1.814  0.8063  0.4673 -0.5532
 9742TIP3    H229191   5.959   6.494   1.720  1.6137 -0.1098  0.4463
 9743TIP3   OH229192   4.407   5.591   4.845  0.3961 -0.2573  0.2865
 9743TIP3    H129193   4.413   5.649   4.921 -0.4087  0.3096 -0.0687
 9743TIP3    H229194   4.496   5.589   4.810  0.7221 -0.3396  1.1110
 9744TIP3   OH229195   5.114   4.239   4.053  0.0165 -0.4856 -0.1397
 9744TIP3    H129196   5.098   4.322   4.098  3.1103  1.0835 -1.6375
 9744TIP3    H229197   5.144   4.180   4.122 -1.3595 -0.1424  0.7956
 9745TIP3   OH229198   2.953   3.689   1.423  0.5966 -0.0782 -0.2114
 9745TIP3    H129199   2.987   3.698   1.512  0.1357 -0.7847  0.0429
 9745TIP3    H229200   3.024   3.720   1.367  1.0950 -0.1398  0.3757
 9746TIP3   OH229201   5.946   3.121   0.908 -0.0166  0.0258  0.1276
 9746TIP3    H129202   5.904   3.198   0.871  0.8535  1.0365  1.1523
 9746TIP3    H229203   5.878   3.080   0.961 -0.5662 -0.0755 -0.6457
 9747TIP3   OH229204   3.440   3.026   5.193  0.0084  0.8081  0.0163
 9747TIP3    H129205   3.409   3.099   5.139  0.3025  0.7099 -0.2928
 9747TIP3    H229206   3.518   2.995   5.147 -1.1042 -0.8485 -0.8198
 9748TIP3   OH229207   2.310   0.842   1.031  1.1989  0.1520  0.6362
 9748TIP3    H129208   2.322   0.931   1.065  0.1933  0.8255 -0.6689
 9748TIP3    H229209   2.381   0.830   0.968 -0.1072  1.0519 -1.0889
 9749TIP3   OH229210   0.052   5.573   3.506  0.1006  0.0933 -0.1834
 9749TIP3    H129211   0.070   5.508   3.439 -2.1530 -1.0937  0.2567
 9749TIP3    H229212   0.069   5.527   3.589  2.6164  1.4605  0.1433
   7.20731   6.79513   5.88474   0.00000   0.00000  -2.40244   0.00000  -2.40244  -3.39757
