Title t=  64.00000 step= 32000
44389
    1GLY      N    1   5.789   3.764   1.665
    1GLY    HT1    2   5.710   3.791   1.603
    1GLY    HT2    3   5.811   3.670   1.627
    1GLY    HT3    4   5.867   3.831   1.652
    1GLY     CA    5   5.737   3.764   1.806
    1GLY    HA1    6   5.655   3.833   1.822
    1GLY    HA2    7   5.811   3.799   1.877
    1GLY      C    8   5.701   3.623   1.852
    1GLY      O    9   5.696   3.537   1.764
    2PRO      N   10   5.671   3.601   1.983
    2PRO     CD   11   5.666   3.712   2.088
    2PRO    HD1   12   5.576   3.775   2.078
    2PRO    HD2   13   5.760   3.771   2.083
    2PRO     CA   14   5.638   3.469   2.037
    2PRO     HA   15   5.729   3.410   2.039
    2PRO     CB   16   5.587   3.503   2.177
    2PRO    HB1   17   5.597   3.413   2.242
    2PRO    HB2   18   5.480   3.534   2.170
    2PRO     CG   19   5.657   3.628   2.216
    2PRO    HG1   20   5.594   3.672   2.295
    2PRO    HG2   21   5.759   3.607   2.256
    2PRO      C   22   5.547   3.388   1.960
    2PRO      O   23   5.439   3.435   1.920
    3GLY      N   24   5.582   3.263   1.917
    3GLY     HN   25   5.668   3.226   1.951
    3GLY     CA   26   5.499   3.175   1.840
    3GLY    HA1   27   5.407   3.169   1.898
    3GLY    HA2   28   5.544   3.077   1.837
    3GLY      C   29   5.457   3.216   1.699
    3GLY      O   30   5.521   3.300   1.631
    4ASP      N   31   5.366   3.128   1.650
    4ASP     HN   32   5.337   3.053   1.709
    4ASP     CA   33   5.313   3.113   1.515
    4ASP     HA   34   5.318   3.009   1.489
    4ASP     CB   35   5.166   3.140   1.533
    4ASP    HB1   36   5.115   3.132   1.435
    4ASP    HB2   37   5.152   3.243   1.572
    4ASP     CG   38   5.089   3.046   1.621
    4ASP    OD1   39   5.141   2.943   1.667
    4ASP    OD2   40   4.965   3.071   1.638
    4ASP      C   41   5.366   3.208   1.401
    4ASP      O   42   5.332   3.325   1.394
    5PRO      N   43   5.448   3.150   1.313
    5PRO     CD   44   5.520   3.028   1.341
    5PRO    HD1   45   5.459   2.936   1.323
    5PRO    HD2   46   5.559   3.039   1.444
    5PRO     CA   47   5.463   3.194   1.181
    5PRO     HA   48   5.515   3.288   1.177
    5PRO     CB   49   5.560   3.092   1.121
    5PRO    HB1   50   5.640   3.134   1.057
    5PRO    HB2   51   5.502   3.009   1.073
    5PRO     CG   52   5.630   3.020   1.237
    5PRO    HG1   53   5.659   2.914   1.228
    5PRO    HG2   54   5.709   3.081   1.286
    5PRO      C   55   5.331   3.214   1.102
    5PRO      O   56   5.229   3.147   1.120
    6GLY      N   57   5.339   3.311   1.006
    6GLY     HN   58   5.426   3.355   0.990
    6GLY     CA   59   5.219   3.338   0.930
    6GLY    HA1   60   5.170   3.247   0.900
    6GLY    HA2   61   5.247   3.400   0.846
    6GLY      C   62   5.114   3.423   0.997
    6GLY      O   63   5.141   3.494   1.090
    7SER      N   64   4.986   3.421   0.950
    7SER     HN   65   4.975   3.388   0.857
    7SER     CA   66   4.868   3.499   0.988
    7SER     HA   67   4.902   3.601   0.993
    7SER     CB   68   4.742   3.486   0.897
    7SER    HB1   69   4.663   3.555   0.935
    7SER    HB2   70   4.711   3.380   0.895
    7SER     OG   71   4.782   3.522   0.766
    7SER    HG1   72   4.837   3.454   0.727
    7SER      C   73   4.833   3.464   1.130
    7SER      O   74   4.844   3.353   1.172
    8GLY      N   75   4.780   3.563   1.198
    8GLY     HN   76   4.771   3.654   1.158
    8GLY     CA   77   4.716   3.549   1.333
    8GLY    HA1   78   4.680   3.647   1.364
    8GLY    HA2   79   4.795   3.521   1.400
    8GLY      C   80   4.596   3.466   1.348
    8GLY      O   81   4.528   3.438   1.249
    9ASN      N   82   4.558   3.421   1.469
    9ASN     HN   83   4.613   3.434   1.551
    9ASN     CA   84   4.440   3.338   1.498
    9ASN     HA   85   4.449   3.240   1.453
    9ASN     CB   86   4.444   3.312   1.653
    9ASN    HB1   87   4.428   3.405   1.712
    9ASN    HB2   88   4.542   3.266   1.680
    9ASN     CG   89   4.346   3.208   1.692
    9ASN    OD1   90   4.269   3.158   1.608
    9ASN    ND2   91   4.339   3.166   1.822
    9ASN   HD21   92   4.274   3.092   1.841
    9ASN   HD22   93   4.367   3.224   1.899
    9ASN      C   94   4.319   3.424   1.463
    9ASN      O   95   4.304   3.534   1.517
   10PRO      N   96   4.223   3.390   1.372
   10PRO     CD   97   4.235   3.260   1.296
   10PRO    HD1   98   4.198   3.169   1.347
   10PRO    HD2   99   4.337   3.234   1.260
   10PRO     CA  100   4.092   3.449   1.364
   10PRO     HA  101   4.104   3.551   1.328
   10PRO     CB  102   4.019   3.357   1.264
   10PRO    HB1  103   3.949   3.427   1.213
   10PRO    HB2  104   3.953   3.287   1.320
   10PRO     CG  105   4.131   3.291   1.188
   10PRO    HG1  106   4.093   3.202   1.133
   10PRO    HG2  107   4.173   3.364   1.115
   10PRO      C  108   4.019   3.465   1.499
   10PRO      O  109   4.057   3.400   1.595
   11GLY      N  110   3.926   3.563   1.508
   11GLY     HN  111   3.900   3.614   1.427
   11GLY     CA  112   3.857   3.613   1.625
   11GLY    HA1  113   3.879   3.542   1.704
   11GLY    HA2  114   3.755   3.619   1.590
   11GLY      C  115   3.909   3.748   1.673
   11GLY      O  116   4.011   3.797   1.625
   12SER      N  117   3.845   3.812   1.768
   12SER     HN  118   3.762   3.770   1.804
   12SER     CA  119   3.883   3.947   1.809
   12SER     HA  120   3.979   3.974   1.767
   12SER     CB  121   3.781   4.053   1.760
   12SER    HB1  122   3.778   4.036   1.651
   12SER    HB2  123   3.809   4.159   1.772
   12SER     OG  124   3.642   4.039   1.800
   12SER    HG1  125   3.645   4.089   1.882
   12SER      C  126   3.902   3.963   1.957
   12SER      O  127   3.905   4.074   1.997
   13GLY      N  128   3.926   3.859   2.037
   13GLY     HN  129   3.964   3.773   2.003
   13GLY     CA  130   3.925   3.871   2.174
   13GLY    HA1  131   3.978   3.963   2.196
   13GLY    HA2  132   3.977   3.789   2.221
   13GLY      C  133   3.790   3.882   2.246
   13GLY      O  134   3.692   3.943   2.206
   14ASP      N  135   3.785   3.800   2.353
   14ASP     HN  136   3.875   3.767   2.381
   14ASP     CA  137   3.668   3.777   2.429
   14ASP     HA  138   3.595   3.732   2.363
   14ASP     CB  139   3.702   3.661   2.539
   14ASP    HB1  140   3.618   3.662   2.612
   14ASP    HB2  141   3.792   3.695   2.595
   14ASP     CG  142   3.723   3.520   2.477
   14ASP    OD1  143   3.693   3.512   2.360
   14ASP    OD2  144   3.770   3.430   2.548
   14ASP      C  145   3.599   3.907   2.494
   14ASP      O  146   3.673   3.997   2.546
   15PRO      N  147   3.469   3.918   2.491
   15PRO     CD  148   3.370   3.819   2.450
   15PRO    HD1  149   3.338   3.752   2.532
   15PRO    HD2  150   3.402   3.746   2.372
   15PRO     CA  151   3.397   4.034   2.551
   15PRO     HA  152   3.446   4.124   2.517
   15PRO     CB  153   3.249   4.003   2.522
   15PRO    HB1  154   3.193   4.098   2.507
   15PRO    HB2  155   3.194   3.961   2.608
   15PRO     CG  156   3.256   3.904   2.409
   15PRO    HG1  157   3.169   3.842   2.378
   15PRO    HG2  158   3.289   3.957   2.317
   15PRO      C  159   3.416   4.050   2.706
   15PRO    OT1  160   3.429   3.951   2.781
   15PRO    OT2  161   3.408   4.164   2.755
   16SOD    SOD  162   4.700   4.180   1.331
   17SOD    SOD  163   1.846   3.642   1.338
   18SOD    SOD  164   2.481   5.706   4.035
   19SOD    SOD  165   6.590   3.810   4.413
   20SOD    SOD  166   3.489   1.556   2.105
   21SOD    SOD  167   6.655   1.040   5.742
   22SOD    SOD  168   5.601   4.612   5.642
   23SOD    SOD  169   2.216   0.346   4.848
   24SOD    SOD  170   0.086   6.812   0.517
   25SOD    SOD  171   5.529   6.243   5.457
   26SOD    SOD  172   0.711   3.534   4.714
   27SOD    SOD  173   0.329   3.639   5.690
   28SOD    SOD  174   0.092   1.591   5.212
   29SOD    SOD  175   5.042   3.609   6.672
   30SOD    SOD  176   2.203   0.253   3.693
   31SOD    SOD  177   3.632   3.902   0.166
   32SOD    SOD  178   4.671   0.191   4.736
   33SOD    SOD  179   6.361   4.734   2.350
   34SOD    SOD  180   5.461   1.529   0.465
   35SOD    SOD  181   7.594   5.040   1.054
   36SOD    SOD  182   1.571   3.209   0.053
   37SOD    SOD  183   6.944   4.470   3.386
   38SOD    SOD  184   7.511   1.081   5.255
   39SOD    SOD  185   3.539   3.567   2.875
   40SOD    SOD  186   3.051   4.203   6.188
   41SOD    SOD  187   7.483   1.599   1.790
   42SOD    SOD  188   0.240   6.082   3.152
   43SOD    SOD  189   6.172   3.216   4.722
   44SOD    SOD  190   0.071   1.101   6.513
   45SOD    SOD  191   3.318   2.832   0.846
   46SOD    SOD  192   2.677   2.960   4.533
   47SOD    SOD  193   5.086   5.761   2.563
   48SOD    SOD  194   2.952   1.145   4.815
   49SOD    SOD  195   8.160   0.564   1.452
   50SOD    SOD  196   4.347   3.732   5.193
   51SOD    SOD  197   8.081   7.766   5.573
   52SOD    SOD  198   4.556   5.374   5.931
   53SOD    SOD  199   8.246   4.471   6.522
   54SOD    SOD  200   0.036   3.863   3.927
   55SOD    SOD  201   1.274   5.678   4.049
   56SOD    SOD  202   2.185   2.973   3.455
   57SOD    SOD  203   6.441   0.218   4.932
   58SOD    SOD  204   7.631   7.615   0.831
   59SOD    SOD  205   2.547   4.836   2.841
   60CLA    CLA  206   3.680   0.408   2.404
   61CLA    CLA  207   4.969   0.407   4.186
   62CLA    CLA  208   1.404   1.765   6.212
   63CLA    CLA  209   3.146   0.750   0.456
   64CLA    CLA  210   7.449   2.916   5.780
   65CLA    CLA  211   7.826   5.273   6.446
   66CLA    CLA  212   1.429   6.377   2.207
   67CLA    CLA  213   6.158   0.961   5.315
   68CLA    CLA  214   4.712   4.854   5.536
   69CLA    CLA  215   3.469   4.855   1.276
   70CLA    CLA  216   0.889   0.527   3.028
   71CLA    CLA  217   5.432   0.086   5.440
   72CLA    CLA  218   3.005   3.938   0.347
   73CLA    CLA  219   0.467   5.149   4.174
   74CLA    CLA  220   6.447   5.283   5.048
   75CLA    CLA  221   0.269   7.713   5.030
   76CLA    CLA  222   6.769   1.423   0.902
   77CLA    CLA  223   6.275   7.624   0.609
   78CLA    CLA  224   3.972   1.903   5.226
   79CLA    CLA  225   4.312   4.464   1.234
   80CLA    CLA  226   1.380   3.849   5.899
   81CLA    CLA  227   3.160   1.539   3.514
   82CLA    CLA  228   0.002   4.561   4.946
   83CLA    CLA  229   7.802   6.262   4.909
   84CLA    CLA  230   6.942   3.688   4.073
   85CLA    CLA  231   2.110   0.275   6.572
   86CLA    CLA  232   7.714   7.050   2.820
   87CLA    CLA  233   0.272   2.652   6.639
   88CLA    CLA  234   0.393   6.345   3.550
   89CLA    CLA  235   3.833   2.448   2.860
   90CLA    CLA  236   4.905   4.892   2.385
   91CLA    CLA  237   5.686   6.521   1.201
   92CLA    CLA  238   6.751   0.623   2.213
   93CLA    CLA  239   6.585   4.703   2.809
   94CLA    CLA  240   4.438   4.879   6.623
   95CLA    CLA  241   1.416   4.127   4.264
   96CLA    CLA  242   1.470   6.673   4.132
   97CLA    CLA  243   6.178   7.727   3.956
   98CLA    CLA  244   7.220   7.089   3.753
   99CLA    CLA  245   3.419   4.863   3.974
  100CLA    CLA  246   2.812   7.242   4.342
  101CLA    CLA  247   6.744   0.800   4.786
  102TIP3   OH2  248   6.077   6.244   2.992
  102TIP3    H1  249   5.989   6.205   2.990
  102TIP3    H2  250   6.073   6.310   3.061
  103TIP3   OH2  251   3.470   2.770   5.263
  103TIP3    H1  252   3.535   2.839   5.251
  103TIP3    H2  253   3.397   2.813   5.308
  104TIP3   OH2  254   4.223   6.119   4.944
  104TIP3    H1  255   4.199   6.068   4.867
  104TIP3    H2  256   4.139   6.142   4.985
  105TIP3   OH2  257   1.746   2.199   5.008
  105TIP3    H1  258   1.692   2.120   5.008
  105TIP3    H2  259   1.695   2.262   5.060
  106TIP3   OH2  260   6.492   4.842   2.540
  106TIP3    H1  261   6.477   4.935   2.552
  106TIP3    H2  262   6.513   4.810   2.628
  107TIP3   OH2  263   6.460   3.653   4.535
  107TIP3    H1  264   6.523   3.602   4.587
  107TIP3    H2  265   6.386   3.666   4.594
  108TIP3   OH2  266   6.500   0.465   1.843
  108TIP3    H1  267   6.483   0.497   1.932
  108TIP3    H2  268   6.559   0.390   1.856
  109TIP3   OH2  269   5.399   2.618   0.888
  109TIP3    H1  270   5.450   2.630   0.968
  109TIP3    H2  271   5.308   2.617   0.917
  110TIP3   OH2  272   5.656   6.599   3.807
  110TIP3    H1  273   5.673   6.692   3.795
  110TIP3    H2  274   5.639   6.566   3.719
  111TIP3   OH2  275   5.517   4.056   1.088
  111TIP3    H1  276   5.593   4.085   1.038
  111TIP3    H2  277   5.488   4.134   1.136
  112TIP3   OH2  278   3.821   3.048   3.237
  112TIP3    H1  279   3.909   3.059   3.272
  112TIP3    H2  280   3.827   2.972   3.179
  113TIP3   OH2  281   4.039   2.886   1.323
  113TIP3    H1  282   4.033   2.872   1.228
  113TIP3    H2  283   3.967   2.946   1.342
  114TIP3   OH2  284   6.028   1.831   3.718
  114TIP3    H1  285   6.051   1.924   3.722
  114TIP3    H2  286   6.112   1.786   3.718
  115TIP3   OH2  287   0.965   0.870   5.813
  115TIP3    H1  288   1.010   0.850   5.895
  115TIP3    H2  289   0.928   0.786   5.785
  116TIP3   OH2  290   2.509   4.967   5.563
  116TIP3    H1  291   2.504   4.910   5.486
  116TIP3    H2  292   2.599   4.999   5.563
  117TIP3   OH2  293   3.174   7.488   0.943
  117TIP3    H1  294   3.200   7.550   1.011
  117TIP3    H2  295   3.079   7.485   0.948
  118TIP3   OH2  296   5.585   1.906   2.570
  118TIP3    H1  297   5.551   1.834   2.623
  118TIP3    H2  298   5.670   1.927   2.609
  119TIP3   OH2  299   3.716   2.239   6.594
  119TIP3    H1  300   3.649   2.304   6.617
  119TIP3    H2  301   3.774   2.286   6.533
  120TIP3   OH2  302   3.767   3.325   1.929
  120TIP3    H1  303   3.735   3.415   1.923
  120TIP3    H2  304   3.716   3.285   1.999
  121TIP3   OH2  305   1.331   4.775   1.880
  121TIP3    H1  306   1.256   4.750   1.935
  121TIP3    H2  307   1.332   4.871   1.885
  122TIP3   OH2  308   1.229   2.858   1.082
  122TIP3    H1  309   1.322   2.877   1.069
  122TIP3    H2  310   1.184   2.932   1.042
  123TIP3   OH2  311   6.211   1.365   1.353
  123TIP3    H1  312   6.235   1.273   1.339
  123TIP3    H2  313   6.181   1.394   1.267
  124TIP3   OH2  314   8.211   4.788   1.375
  124TIP3    H1  315   8.143   4.776   1.442
  124TIP3    H2  316   8.292   4.759   1.418
  125TIP3   OH2  317   4.494   2.891   4.068
  125TIP3    H1  318   4.433   2.896   4.142
  125TIP3    H2  319   4.455   2.946   4.001
  126TIP3   OH2  320   1.213   5.765   6.520
  126TIP3    H1  321   1.168   5.849   6.525
  126TIP3    H2  322   1.269   5.773   6.443
  127TIP3   OH2  323   0.269   3.619   3.375
  127TIP3    H1  324   0.290   3.584   3.288
  127TIP3    H2  325   0.176   3.599   3.387
  128TIP3   OH2  326   0.530   5.850   2.723
  128TIP3    H1  327   0.465   5.818   2.785
  128TIP3    H2  328   0.539   5.943   2.744
  129TIP3   OH2  329   4.375   2.148   1.370
  129TIP3    H1  330   4.364   2.212   1.440
  129TIP3    H2  331   4.448   2.181   1.319
  130TIP3   OH2  332   6.713   7.408   1.597
  130TIP3    H1  333   6.725   7.454   1.514
  130TIP3    H2  334   6.714   7.315   1.574
  131TIP3   OH2  335   5.990   6.894   4.554
  131TIP3    H1  336   6.076   6.904   4.595
  131TIP3    H2  337   5.969   6.801   4.566
  132TIP3   OH2  338   6.108   0.307   6.581
  132TIP3    H1  339   6.202   0.304   6.561
  132TIP3    H2  340   6.066   0.312   6.495
  133TIP3   OH2  341   1.505   7.205   1.516
  133TIP3    H1  342   1.512   7.301   1.519
  133TIP3    H2  343   1.434   7.188   1.455
  134TIP3   OH2  344   5.623   1.822   2.312
  134TIP3    H1  345   5.579   1.870   2.382
  134TIP3    H2  346   5.650   1.739   2.352
  135TIP3   OH2  347   3.408   5.748   1.736
  135TIP3    H1  348   3.339   5.697   1.695
  135TIP3    H2  349   3.488   5.698   1.720
  136TIP3   OH2  350   2.090   6.484   1.874
  136TIP3    H1  351   2.085   6.570   1.833
  136TIP3    H2  352   2.060   6.498   1.964
  137TIP3   OH2  353   3.681   0.349   6.361
  137TIP3    H1  354   3.693   0.440   6.333
  137TIP3    H2  355   3.586   0.335   6.356
  138TIP3   OH2  356   4.924   0.905   3.924
  138TIP3    H1  357   4.947   0.838   3.989
  138TIP3    H2  358   4.956   0.987   3.962
  139TIP3   OH2  359   4.567   4.579   3.853
  139TIP3    H1  360   4.519   4.661   3.842
  139TIP3    H2  361   4.500   4.515   3.877
  140TIP3   OH2  362   2.039   3.332   2.558
  140TIP3    H1  363   2.008   3.421   2.572
  140TIP3    H2  364   2.004   3.307   2.472
  141TIP3   OH2  365   2.834   4.774   4.279
  141TIP3    H1  366   2.908   4.743   4.332
  141TIP3    H2  367   2.850   4.867   4.267
  142TIP3   OH2  368   1.371   5.684   1.993
  142TIP3    H1  369   1.387   5.764   2.041
  142TIP3    H2  370   1.458   5.648   1.975
  143TIP3   OH2  371   6.018   1.247   5.790
  143TIP3    H1  372   6.013   1.341   5.807
  143TIP3    H2  373   6.049   1.241   5.700
  144TIP3   OH2  374   3.796   2.373   4.183
  144TIP3    H1  375   3.769   2.346   4.270
  144TIP3    H2  376   3.716   2.409   4.143
  145TIP3   OH2  377   6.848   2.711   1.835
  145TIP3    H1  378   6.832   2.617   1.849
  145TIP3    H2  379   6.925   2.713   1.778
  146TIP3   OH2  380   5.515   6.667   1.884
  146TIP3    H1  381   5.571   6.611   1.829
  146TIP3    H2  382   5.531   6.637   1.973
  147TIP3   OH2  383   0.524   6.998   0.182
  147TIP3    H1  384   0.434   6.974   0.201
  147TIP3    H2  385   0.555   6.932   0.120
  148TIP3   OH2  386   7.558   1.923   1.686
  148TIP3    H1  387   7.645   1.963   1.682
  148TIP3    H2  388   7.526   1.925   1.596
  149TIP3   OH2  389   3.205   4.262   5.492
  149TIP3    H1  390   3.223   4.208   5.569
  149TIP3    H2  391   3.110   4.260   5.483
  150TIP3   OH2  392   7.584   2.297   4.306
  150TIP3    H1  393   7.510   2.280   4.365
  150TIP3    H2  394   7.594   2.216   4.256
  151TIP3   OH2  395   6.320   5.279   1.512
  151TIP3    H1  396   6.281   5.339   1.576
  151TIP3    H2  397   6.245   5.237   1.470
  152TIP3   OH2  398   1.814   1.510   4.871
  152TIP3    H1  399   1.727   1.492   4.908
  152TIP3    H2  400   1.871   1.445   4.911
  153TIP3   OH2  401   0.396   2.926   0.153
  153TIP3    H1  402   0.457   2.996   0.128
  153TIP3    H2  403   0.377   2.882   0.071
  154TIP3   OH2  404   4.875   7.659   5.069
  154TIP3    H1  405   4.928   7.665   5.148
  154TIP3    H2  406   4.869   7.750   5.038
  155TIP3   OH2  407   2.547   3.797   4.974
  155TIP3    H1  408   2.471   3.821   4.921
  155TIP3    H2  409   2.522   3.714   5.014
  156TIP3   OH2  410   5.427   2.815   2.075
  156TIP3    H1  411   5.444   2.722   2.089
  156TIP3    H2  412   5.514   2.855   2.071
  157TIP3   OH2  413   0.396   4.612   2.761
  157TIP3    H1  414   0.444   4.654   2.832
  157TIP3    H2  415   0.333   4.555   2.806
  158TIP3   OH2  416   6.214   5.188   4.134
  158TIP3    H1  417   6.218   5.092   4.130
  158TIP3    H2  418   6.131   5.210   4.090
  159TIP3   OH2  419   4.027   0.106   6.589
  159TIP3    H1  420   4.072   0.177   6.544
  159TIP3    H2  421   3.941   0.141   6.611
  160TIP3   OH2  422   4.554   4.548   1.444
  160TIP3    H1  423   4.500   4.533   1.366
  160TIP3    H2  424   4.491   4.569   1.513
  161TIP3   OH2  425   7.207   6.614   3.934
  161TIP3    H1  426   7.144   6.673   3.893
  161TIP3    H2  427   7.292   6.652   3.912
  162TIP3   OH2  428   7.247   6.459   1.389
  162TIP3    H1  429   7.271   6.370   1.413
  162TIP3    H2  430   7.247   6.460   1.294
  163TIP3   OH2  431   6.941   6.118   3.113
  163TIP3    H1  432   6.937   6.171   3.192
  163TIP3    H2  433   6.869   6.149   3.059
  164TIP3   OH2  434   2.812   5.207   1.547
  164TIP3    H1  435   2.850   5.125   1.578
  164TIP3    H2  436   2.875   5.240   1.483
  165TIP3   OH2  437   0.998   4.672   2.561
  165TIP3    H1  438   1.010   4.767   2.557
  165TIP3    H2  439   0.949   4.651   2.481
  166TIP3   OH2  440   1.549   0.618   2.298
  166TIP3    H1  441   1.516   0.661   2.378
  166TIP3    H2  442   1.471   0.582   2.257
  167TIP3   OH2  443   4.458   2.458   5.284
  167TIP3    H1  444   4.390   2.525   5.280
  167TIP3    H2  445   4.452   2.413   5.200
  168TIP3   OH2  446   3.952   1.147   3.441
  168TIP3    H1  447   3.972   1.053   3.444
  168TIP3    H2  448   3.953   1.168   3.347
  169TIP3   OH2  449   6.982   5.717   2.690
  169TIP3    H1  450   6.966   5.626   2.717
  169TIP3    H2  451   6.917   5.768   2.739
  170TIP3   OH2  452   3.319   3.192   3.254
  170TIP3    H1  453   3.365   3.166   3.334
  170TIP3    H2  454   3.240   3.139   3.253
  171TIP3   OH2  455   2.325   7.386   5.914
  171TIP3    H1  456   2.378   7.378   5.994
  171TIP3    H2  457   2.341   7.475   5.883
  172TIP3   OH2  458   6.110   1.048   4.603
  172TIP3    H1  459   6.165   0.992   4.550
  172TIP3    H2  460   6.139   1.137   4.583
  173TIP3   OH2  461   0.188   4.424   5.359
  173TIP3    H1  462   0.226   4.399   5.275
  173TIP3    H2  463   0.095   4.439   5.340
  174TIP3   OH2  464   3.828   1.784   4.079
  174TIP3    H1  465   3.851   1.712   4.138
  174TIP3    H2  466   3.900   1.788   4.017
  175TIP3   OH2  467   5.732   6.961   2.938
  175TIP3    H1  468   5.809   7.007   2.904
  175TIP3    H2  469   5.762   6.872   2.954
  176TIP3   OH2  470   6.982   2.206   3.595
  176TIP3    H1  471   7.048   2.139   3.579
  176TIP3    H2  472   7.033   2.284   3.618
  177TIP3   OH2  473   3.102   7.762   4.397
  177TIP3    H1  474   3.128   7.706   4.325
  177TIP3    H2  475   3.184   7.795   4.434
  178TIP3   OH2  476   6.987   2.962   0.100
  178TIP3    H1  477   7.024   2.903   0.166
  178TIP3    H2  478   7.009   2.920   0.016
  179TIP3   OH2  479   4.024   5.561   0.290
  179TIP3    H1  480   4.082   5.545   0.364
  179TIP3    H2  481   4.073   5.530   0.213
  180TIP3   OH2  482   3.608   2.139   1.530
  180TIP3    H1  483   3.656   2.202   1.585
  180TIP3    H2  484   3.521   2.136   1.568
  181TIP3   OH2  485   7.282   5.201   5.986
  181TIP3    H1  486   7.342   5.163   5.922
  181TIP3    H2  487   7.314   5.290   5.999
  182TIP3   OH2  488   3.971   1.904   2.392
  182TIP3    H1  489   4.019   1.985   2.407
  182TIP3    H2  490   3.887   1.917   2.436
  183TIP3   OH2  491   4.914   5.845   5.411
  183TIP3    H1  492   4.891   5.853   5.318
  183TIP3    H2  493   4.898   5.933   5.447
  184TIP3   OH2  494   4.650   2.740   2.082
  184TIP3    H1  495   4.742   2.714   2.077
  184TIP3    H2  496   4.648   2.830   2.049
  185TIP3   OH2  497   3.893   0.380   3.302
  185TIP3    H1  498   3.890   0.342   3.391
  185TIP3    H2  499   3.940   0.462   3.313
  186TIP3   OH2  500   4.313   4.251   2.673
  186TIP3    H1  501   4.268   4.314   2.618
  186TIP3    H2  502   4.244   4.212   2.728
  187TIP3   OH2  503   2.154   6.325   2.899
  187TIP3    H1  504   2.099   6.404   2.901
  187TIP3    H2  505   2.120   6.275   2.825
  188TIP3   OH2  506   1.527   0.072   1.493
  188TIP3    H1  507   1.550  -0.020   1.480
  188TIP3    H2  508   1.434   0.077   1.470
  189TIP3   OH2  509   3.363   4.901   4.297
  189TIP3    H1  510   3.356   4.807   4.309
  189TIP3    H2  511   3.398   4.912   4.209
  190TIP3   OH2  512   3.189   2.211   0.124
  190TIP3    H1  513   3.179   2.154   0.047
  190TIP3    H2  514   3.256   2.168   0.177
  191TIP3   OH2  515   6.595   1.786   5.571
  191TIP3    H1  516   6.641   1.827   5.498
  191TIP3    H2  517   6.506   1.819   5.565
  192TIP3   OH2  518   8.166   3.248   3.191
  192TIP3    H1  519   8.119   3.258   3.108
  192TIP3    H2  520   8.132   3.320   3.245
  193TIP3   OH2  521   4.685   7.567   4.481
  193TIP3    H1  522   4.596   7.602   4.486
  193TIP3    H2  523   4.712   7.582   4.390
  194TIP3   OH2  524   6.463   4.547   2.454
  194TIP3    H1  525   6.541   4.561   2.508
  194TIP3    H2  526   6.472   4.457   2.423
  195TIP3   OH2  527   6.432   2.998   0.103
  195TIP3    H1  528   6.491   2.962   0.037
  195TIP3    H2  529   6.489   3.015   0.178
  196TIP3   OH2  530   4.841   5.587   1.369
  196TIP3    H1  531   4.887   5.581   1.453
  196TIP3    H2  532   4.844   5.498   1.333
  197TIP3   OH2  533   6.597   1.810   2.507
  197TIP3    H1  534   6.690   1.831   2.501
  197TIP3    H2  535   6.566   1.814   2.416
  198TIP3   OH2  536   7.700   1.383   2.300
  198TIP3    H1  537   7.793   1.402   2.306
  198TIP3    H2  538   7.682   1.379   2.206
  199TIP3   OH2  539   5.561   5.799   1.202
  199TIP3    H1  540   5.582   5.705   1.199
  199TIP3    H2  541   5.466   5.801   1.209
  200TIP3   OH2  542   7.910   2.227   3.188
  200TIP3    H1  543   7.960   2.165   3.242
  200TIP3    H2  544   7.872   2.288   3.251
  201TIP3   OH2  545   7.521   6.543   0.912
  201TIP3    H1  546   7.451   6.494   0.868
  201TIP3    H2  547   7.482   6.572   0.995
  202TIP3   OH2  548   6.296   0.776   5.556
  202TIP3    H1  549   6.242   0.818   5.489
  202TIP3    H2  550   6.235   0.721   5.605
  203TIP3   OH2  551   0.308   5.960   4.250
  203TIP3    H1  552   0.366   5.968   4.326
  203TIP3    H2  553   0.238   6.023   4.266
  204TIP3   OH2  554   7.933   7.013   3.696
  204TIP3    H1  555   7.995   7.007   3.769
  204TIP3    H2  556   7.876   6.937   3.706
  205TIP3   OH2  557   2.243   4.513   4.626
  205TIP3    H1  558   2.200   4.430   4.605
  205TIP3    H2  559   2.204   4.577   4.566
  206TIP3   OH2  560   1.471   2.435   4.231
  206TIP3    H1  561   1.532   2.505   4.253
  206TIP3    H2  562   1.510   2.391   4.155
  207TIP3   OH2  563   7.889   4.089   5.169
  207TIP3    H1  564   7.855   4.042   5.093
  207TIP3    H2  565   7.919   4.021   5.229
  208TIP3   OH2  566   3.021   3.870   6.518
  208TIP3    H1  567   2.972   3.875   6.601
  208TIP3    H2  568   3.065   3.786   6.522
  209TIP3   OH2  569   2.221   2.684   1.177
  209TIP3    H1  570   2.277   2.718   1.108
  209TIP3    H2  571   2.281   2.663   1.249
  210TIP3   OH2  572   6.744   5.492   4.814
  210TIP3    H1  573   6.770   5.539   4.894
  210TIP3    H2  574   6.654   5.462   4.832
  211TIP3   OH2  575   6.985   6.379   1.536
  211TIP3    H1  576   6.921   6.342   1.475
  211TIP3    H2  577   6.998   6.469   1.506
  212TIP3   OH2  578   5.588   5.532   4.003
  212TIP3    H1  579   5.520   5.546   4.069
  212TIP3    H2  580   5.541   5.522   3.921
  213TIP3   OH2  581   1.127   6.037   3.793
  213TIP3    H1  582   1.060   6.065   3.855
  213TIP3    H2  583   1.191   6.108   3.792
  214TIP3   OH2  584   0.829   3.364   6.286
  214TIP3    H1  585   0.896   3.296   6.284
  214TIP3    H2  586   0.864   3.431   6.344
  215TIP3   OH2  587   3.917   4.813   4.814
  215TIP3    H1  588   3.973   4.855   4.748
  215TIP3    H2  589   3.875   4.741   4.768
  216TIP3   OH2  590   0.547   2.272   0.867
  216TIP3    H1  591   0.580   2.358   0.893
  216TIP3    H2  592   0.491   2.244   0.939
  217TIP3   OH2  593   0.697   5.771   3.763
  217TIP3    H1  594   0.603   5.769   3.744
  217TIP3    H2  595   0.733   5.831   3.698
  218TIP3   OH2  596   6.426   6.342   2.563
  218TIP3    H1  597   6.354   6.308   2.616
  218TIP3    H2  598   6.498   6.356   2.626
  219TIP3   OH2  599   1.133   7.385   1.001
  219TIP3    H1  600   1.203   7.407   0.939
  219TIP3    H2  601   1.169   7.314   1.053
  220TIP3   OH2  602   0.551   1.625   1.614
  220TIP3    H1  603   0.521   1.701   1.665
  220TIP3    H2  604   0.489   1.619   1.542
  221TIP3   OH2  605   3.086   3.027   3.220
  221TIP3    H1  606   3.070   2.972   3.143
  221TIP3    H2  607   3.120   2.966   3.285
  222TIP3   OH2  608   2.631   0.789   1.481
  222TIP3    H1  609   2.625   0.728   1.555
  222TIP3    H2  610   2.578   0.750   1.412
  223TIP3   OH2  611   5.422   2.168   4.112
  223TIP3    H1  612   5.406   2.148   4.020
  223TIP3    H2  613   5.394   2.089   4.159
  224TIP3   OH2  614   1.869   7.010   1.932
  224TIP3    H1  615   1.922   7.078   1.890
  224TIP3    H2  616   1.931   6.939   1.950
  225TIP3   OH2  617   5.177   4.499   3.913
  225TIP3    H1  618   5.115   4.541   3.854
  225TIP3    H2  619   5.263   4.517   3.874
  226TIP3   OH2  620   7.300   5.891   3.993
  226TIP3    H1  621   7.238   5.964   3.994
  226TIP3    H2  622   7.375   5.923   4.043
  227TIP3   OH2  623   3.422   0.266   6.349
  227TIP3    H1  624   3.380   0.248   6.433
  227TIP3    H2  625   3.450   0.180   6.318
  228TIP3   OH2  626   0.537   4.680   0.029
  228TIP3    H1  627   0.447   4.656   0.049
  228TIP3    H2  628   0.554   4.642  -0.057
  229TIP3   OH2  629   4.243   3.832   5.866
  229TIP3    H1  630   4.195   3.784   5.933
  229TIP3    H2  631   4.175   3.856   5.802
  230TIP3   OH2  632   7.849   4.950   3.415
  230TIP3    H1  633   7.857   5.045   3.417
  230TIP3    H2  634   7.755   4.934   3.408
  231TIP3   OH2  635   3.955   4.684   6.668
  231TIP3    H1  636   4.044   4.655   6.689
  231TIP3    H2  637   3.925   4.729   6.747
  232TIP3   OH2  638   7.083   0.315   1.151
  232TIP3    H1  639   7.118   0.232   1.183
  232TIP3    H2  640   7.055   0.296   1.061
  233TIP3   OH2  641   2.357   3.906   0.706
  233TIP3    H1  642   2.351   3.991   0.663
  233TIP3    H2  643   2.450   3.896   0.726
  234TIP3   OH2  644   0.361   1.579   1.806
  234TIP3    H1  645   0.318   1.547   1.726
  234TIP3    H2  646   0.314   1.659   1.828
  235TIP3   OH2  647   1.822   3.349   3.496
  235TIP3    H1  648   1.729   3.333   3.480
  235TIP3    H2  649   1.832   3.444   3.488
  236TIP3   OH2  650   4.166   2.558   3.985
  236TIP3    H1  651   4.094   2.598   3.936
  236TIP3    H2  652   4.241   2.615   3.969
  237TIP3   OH2  653   3.324   5.647   4.275
  237TIP3    H1  654   3.364   5.716   4.328
  237TIP3    H2  655   3.247   5.689   4.236
  238TIP3   OH2  656   0.261   4.192   5.491
  238TIP3    H1  657   0.193   4.146   5.442
  238TIP3    H2  658   0.273   4.274   5.444
  239TIP3   OH2  659   6.846   4.931   1.135
  239TIP3    H1  660   6.795   4.871   1.190
  239TIP3    H2  661   6.919   4.877   1.102
  240TIP3   OH2  662   8.233   3.060   0.290
  240TIP3    H1  663   8.268   3.013   0.214
  240TIP3    H2  664   8.309   3.072   0.347
  241TIP3   OH2  665   6.480   6.132   6.769
  241TIP3    H1  666   6.575   6.138   6.763
  241TIP3    H2  667   6.448   6.178   6.691
  242TIP3   OH2  668   1.198   6.656   3.059
  242TIP3    H1  669   1.229   6.582   3.006
  242TIP3    H2  670   1.165   6.616   3.139
  243TIP3   OH2  671   2.959   3.051   1.277
  243TIP3    H1  672   3.054   3.036   1.276
  243TIP3    H2  673   2.937   3.058   1.370
  244TIP3   OH2  674   4.231   7.013   6.099
  244TIP3    H1  675   4.267   6.930   6.130
  244TIP3    H2  676   4.300   7.051   6.045
  245TIP3   OH2  677   5.725   5.142   2.916
  245TIP3    H1  678   5.635   5.115   2.903
  245TIP3    H2  679   5.722   5.238   2.915
  246TIP3   OH2  680   2.042   7.681   1.694
  246TIP3    H1  681   2.086   7.736   1.630
  246TIP3    H2  682   2.060   7.722   1.778
  247TIP3   OH2  683   7.658   5.730   4.892
  247TIP3    H1  684   7.703   5.668   4.835
  247TIP3    H2  685   7.682   5.817   4.858
  248TIP3   OH2  686   7.262   0.267   0.586
  248TIP3    H1  687   7.307   0.350   0.573
  248TIP3    H2  688   7.177   0.279   0.542
  249TIP3   OH2  689   4.570   1.885   4.219
  249TIP3    H1  690   4.485   1.921   4.193
  249TIP3    H2  691   4.565   1.878   4.314
  250TIP3   OH2  692   2.965   0.639   3.964
  250TIP3    H1  693   2.988   0.546   3.976
  250TIP3    H2  694   2.905   0.658   4.037
  251TIP3   OH2  695   4.987   1.188   6.661
  251TIP3    H1  696   4.917   1.192   6.727
  251TIP3    H2  697   4.962   1.253   6.596
  252TIP3   OH2  698   3.096   6.324   1.505
  252TIP3    H1  699   3.103   6.380   1.582
  252TIP3    H2  700   3.100   6.235   1.540
  253TIP3   OH2  701   5.961   3.462   3.405
  253TIP3    H1  702   5.982   3.369   3.402
  253TIP3    H2  703   5.942   3.486   3.314
  254TIP3   OH2  704   0.887   7.157   2.341
  254TIP3    H1  705   0.798   7.180   2.366
  254TIP3    H2  706   0.942   7.191   2.411
  255TIP3   OH2  707   0.617   2.124   5.437
  255TIP3    H1  708   0.655   2.045   5.400
  255TIP3    H2  709   0.655   2.130   5.525
  256TIP3   OH2  710   7.312   5.613   4.305
  256TIP3    H1  711   7.377   5.545   4.324
  256TIP3    H2  712   7.362   5.685   4.267
  257TIP3   OH2  713   4.637   2.685   6.407
  257TIP3    H1  714   4.666   2.599   6.378
  257TIP3    H2  715   4.606   2.728   6.328
  258TIP3   OH2  716   4.525   6.728   1.662
  258TIP3    H1  717   4.430   6.740   1.660
  258TIP3    H2  718   4.540   6.668   1.734
  259TIP3   OH2  719   1.930   7.386   4.441
  259TIP3    H1  720   1.856   7.351   4.391
  259TIP3    H2  721   1.977   7.308   4.471
  260TIP3   OH2  722   3.193   3.278   2.639
  260TIP3    H1  723   3.283   3.256   2.663
  260TIP3    H2  724   3.141   3.256   2.716
  261TIP3   OH2  725   2.267   0.358   1.723
  261TIP3    H1  726   2.251   0.268   1.753
  261TIP3    H2  727   2.186   0.404   1.743
  262TIP3   OH2  728   7.577   6.072   1.877
  262TIP3    H1  729   7.564   6.123   1.797
  262TIP3    H2  730   7.519   6.113   1.941
  263TIP3   OH2  731   6.558   5.716   4.674
  263TIP3    H1  732   6.542   5.622   4.673
  263TIP3    H2  733   6.550   5.740   4.767
  264TIP3   OH2  734   6.389   1.936   2.264
  264TIP3    H1  735   6.311   1.937   2.320
  264TIP3    H2  736   6.365   1.992   2.189
  265TIP3   OH2  737   2.269   4.058   5.761
  265TIP3    H1  738   2.182   4.053   5.723
  265TIP3    H2  739   2.291   3.967   5.783
  266TIP3   OH2  740   5.619   3.393   6.058
  266TIP3    H1  741   5.654   3.358   5.976
  266TIP3    H2  742   5.693   3.391   6.118
  267TIP3   OH2  743   0.759   6.431   5.212
  267TIP3    H1  744   0.834   6.488   5.193
  267TIP3    H2  745   0.703   6.438   5.134
  268TIP3   OH2  746   0.958   5.092   5.074
  268TIP3    H1  747   0.971   5.017   5.132
  268TIP3    H2  748   1.045   5.130   5.064
  269TIP3   OH2  749   0.064   2.819   5.486
  269TIP3    H1  750  -0.022   2.803   5.526
  269TIP3    H2  751   0.125   2.771   5.542
  270TIP3   OH2  752   1.443   5.356   4.418
  270TIP3    H1  753   1.390   5.436   4.424
  270TIP3    H2  754   1.419   5.306   4.495
  271TIP3   OH2  755   1.206   4.301   3.588
  271TIP3    H1  756   1.184   4.211   3.612
  271TIP3    H2  757   1.302   4.303   3.585
  272TIP3   OH2  758   2.990   4.234   0.042
  272TIP3    H1  759   2.987   4.165   0.109
  272TIP3    H2  760   2.989   4.187  -0.041
  273TIP3   OH2  761   4.582   6.522   5.404
  273TIP3    H1  762   4.570   6.615   5.387
  273TIP3    H2  763   4.636   6.491   5.331
  274TIP3   OH2  764   1.663   5.166   6.673
  274TIP3    H1  765   1.584   5.115   6.652
  274TIP3    H2  766   1.637   5.221   6.746
  275TIP3   OH2  767   3.563   4.291   5.465
  275TIP3    H1  768   3.499   4.329   5.406
  275TIP3    H2  769   3.519   4.290   5.550
  276TIP3   OH2  770   2.345   6.094   2.180
  276TIP3    H1  771   2.291   6.015   2.177
  276TIP3    H2  772   2.362   6.115   2.089
  277TIP3   OH2  773   2.415   5.632   5.776
  277TIP3    H1  774   2.356   5.703   5.751
  277TIP3    H2  775   2.490   5.642   5.716
  278TIP3   OH2  776   1.298   5.836   0.149
  278TIP3    H1  777   1.229   5.827   0.214
  278TIP3    H2  778   1.380   5.824   0.198
  279TIP3   OH2  779   1.705   6.217   6.351
  279TIP3    H1  780   1.672   6.157   6.285
  279TIP3    H2  781   1.754   6.283   6.301
  280TIP3   OH2  782   2.095   1.899   4.201
  280TIP3    H1  783   2.169   1.873   4.146
  280TIP3    H2  784   2.109   1.991   4.219
  281TIP3   OH2  785   7.431   1.947   3.635
  281TIP3    H1  786   7.380   1.887   3.689
  281TIP3    H2  787   7.500   1.893   3.597
  282TIP3   OH2  788   4.416   5.478   0.231
  282TIP3    H1  789   4.453   5.566   0.229
  282TIP3    H2  790   4.420   5.448   0.141
  283TIP3   OH2  791   5.942   4.719   6.150
  283TIP3    H1  792   5.877   4.768   6.201
  283TIP3    H2  793   6.020   4.717   6.206
  284TIP3   OH2  794   8.056   3.217   4.399
  284TIP3    H1  795   8.126   3.228   4.463
  284TIP3    H2  796   7.983   3.179   4.448
  285TIP3   OH2  797   6.091   2.803   4.414
  285TIP3    H1  798   6.173   2.809   4.462
  285TIP3    H2  799   6.029   2.768   4.477
  286TIP3   OH2  800   1.950   3.378   5.362
  286TIP3    H1  801   1.893   3.370   5.439
  286TIP3    H2  802   1.961   3.472   5.350
  287TIP3   OH2  803   2.818   6.754   3.481
  287TIP3    H1  804   2.797   6.794   3.565
  287TIP3    H2  805   2.740   6.704   3.458
  288TIP3   OH2  806   1.164   1.183   4.488
  288TIP3    H1  807   1.100   1.190   4.417
  288TIP3    H2  808   1.218   1.261   4.480
  289TIP3   OH2  809   1.046   1.193   3.750
  289TIP3    H1  810   1.122   1.194   3.809
  289TIP3    H2  811   1.046   1.105   3.713
  290TIP3   OH2  812   7.107   3.670   3.286
  290TIP3    H1  813   7.069   3.669   3.374
  290TIP3    H2  814   7.039   3.706   3.231
  291TIP3   OH2  815   4.535   7.628   1.360
  291TIP3    H1  816   4.485   7.553   1.391
  291TIP3    H2  817   4.584   7.658   1.437
  292TIP3   OH2  818   1.759   6.742   3.092
  292TIP3    H1  819   1.744   6.664   3.039
  292TIP3    H2  820   1.671   6.776   3.110
  293TIP3   OH2  821   0.149   5.786   0.117
  293TIP3    H1  822   0.239   5.767   0.092
  293TIP3    H2  823   0.141   5.881   0.108
  294TIP3   OH2  824   6.326   6.255   6.295
  294TIP3    H1  825   6.321   6.207   6.212
  294TIP3    H2  826   6.389   6.207   6.347
  295TIP3   OH2  827   1.206   4.141   2.185
  295TIP3    H1  828   1.170   4.068   2.236
  295TIP3    H2  829   1.299   4.123   2.178
  296TIP3   OH2  830   1.196   5.067   5.562
  296TIP3    H1  831   1.221   5.115   5.641
  296TIP3    H2  832   1.147   5.130   5.509
  297TIP3   OH2  833   7.605   7.436   1.830
  297TIP3    H1  834   7.641   7.508   1.778
  297TIP3    H2  835   7.511   7.456   1.836
  298TIP3   OH2  836   7.766   6.166   5.228
  298TIP3    H1  837   7.720   6.083   5.243
  298TIP3    H2  838   7.746   6.188   5.137
  299TIP3   OH2  839   1.683   1.937   4.739
  299TIP3    H1  840   1.640   1.881   4.803
  299TIP3    H2  841   1.729   2.002   4.792
  300TIP3   OH2  842   0.399   4.237   1.299
  300TIP3    H1  843   0.338   4.236   1.372
  300TIP3    H2  844   0.423   4.329   1.288
  301TIP3   OH2  845   7.713   1.582   3.980
  301TIP3    H1  846   7.779   1.578   3.910
  301TIP3    H2  847   7.659   1.504   3.966
  302TIP3   OH2  848   1.240   3.001   1.337
  302TIP3    H1  849   1.328   2.992   1.299
  302TIP3    H2  850   1.183   3.018   1.262
  303TIP3   OH2  851   7.582   5.210   4.280
  303TIP3    H1  852   7.647   5.256   4.226
  303TIP3    H2  853   7.498   5.245   4.251
  304TIP3   OH2  854   3.993   5.301   5.490
  304TIP3    H1  855   3.971   5.236   5.556
  304TIP3    H2  856   3.909   5.322   5.448
  305TIP3   OH2  857   7.282   3.218   6.594
  305TIP3    H1  858   7.233   3.262   6.663
  305TIP3    H2  859   7.241   3.248   6.513
  306TIP3   OH2  860   2.249   5.716   0.512
  306TIP3    H1  861   2.214   5.765   0.437
  306TIP3    H2  862   2.190   5.642   0.521
  307TIP3   OH2  863   6.008   1.997   1.685
  307TIP3    H1  864   6.068   2.071   1.673
  307TIP3    H2  865   5.988   1.997   1.778
  308TIP3   OH2  866   7.186   6.877   1.793
  308TIP3    H1  867   7.188   6.959   1.843
  308TIP3    H2  868   7.118   6.825   1.835
  309TIP3   OH2  869   4.568   0.718   5.258
  309TIP3    H1  870   4.618   0.716   5.176
  309TIP3    H2  871   4.503   0.787   5.244
  310TIP3   OH2  872   2.739   7.095   3.556
  310TIP3    H1  873   2.720   7.009   3.594
  310TIP3    H2  874   2.804   7.134   3.614
  311TIP3   OH2  875   3.561   3.670   5.964
  311TIP3    H1  876   3.633   3.707   6.016
  311TIP3    H2  877   3.507   3.622   6.027
  312TIP3   OH2  878   7.537   0.935   4.540
  312TIP3    H1  879   7.459   0.903   4.494
  312TIP3    H2  880   7.552   1.023   4.505
  313TIP3   OH2  881   5.936   6.710   2.799
  313TIP3    H1  882   5.899   6.715   2.887
  313TIP3    H2  883   5.877   6.761   2.744
  314TIP3   OH2  884   1.092   5.999   4.742
  314TIP3    H1  885   1.045   6.075   4.710
  314TIP3    H2  886   1.024   5.941   4.776
  315TIP3   OH2  887   1.089   2.614   4.838
  315TIP3    H1  888   1.120   2.675   4.906
  315TIP3    H2  889   1.136   2.641   4.759
  316TIP3   OH2  890   6.767   6.912   1.503
  316TIP3    H1  891   6.727   6.827   1.485
  316TIP3    H2  892   6.861   6.897   1.496
  317TIP3   OH2  893   3.055   6.961   0.974
  317TIP3    H1  894   3.145   6.954   1.006
  317TIP3    H2  895   3.007   6.893   1.020
  318TIP3   OH2  896   7.361   4.344   2.344
  318TIP3    H1  897   7.297   4.355   2.275
  318TIP3    H2  898   7.314   4.366   2.425
  319TIP3   OH2  899   6.252   1.676   3.423
  319TIP3    H1  900   6.300   1.608   3.376
  319TIP3    H2  901   6.204   1.629   3.491
  320TIP3   OH2  902   5.308   6.176   4.256
  320TIP3    H1  903   5.306   6.157   4.350
  320TIP3    H2  904   5.247   6.249   4.245
  321TIP3   OH2  905   6.410   6.692   5.283
  321TIP3    H1  906   6.468   6.727   5.350
  321TIP3    H2  907   6.460   6.623   5.241
  322TIP3   OH2  908   4.450   1.265   5.311
  322TIP3    H1  909   4.510   1.282   5.383
  322TIP3    H2  910   4.380   1.212   5.350
  323TIP3   OH2  911   5.849   4.834   1.491
  323TIP3    H1  912   5.941   4.847   1.512
  323TIP3    H2  913   5.816   4.777   1.561
  324TIP3   OH2  914   5.806   6.580   4.026
  324TIP3    H1  915   5.748   6.595   3.951
  324TIP3    H2  916   5.747   6.562   4.099
  325TIP3   OH2  917   4.277   5.201   4.713
  325TIP3    H1  918   4.303   5.121   4.758
  325TIP3    H2  919   4.326   5.200   4.631
  326TIP3   OH2  920   7.713   2.945   1.018
  326TIP3    H1  921   7.672   2.871   0.973
  326TIP3    H2  922   7.787   2.906   1.065
  327TIP3   OH2  923   4.684   4.523   5.644
  327TIP3    H1  924   4.636   4.588   5.594
  327TIP3    H2  925   4.639   4.520   5.729
  328TIP3   OH2  926  -0.008   0.098   2.544
  328TIP3    H1  927   0.078   0.094   2.585
  328TIP3    H2  928   0.010   0.106   2.450
  329TIP3   OH2  929   1.431   6.019   0.745
  329TIP3    H1  930   1.526   6.029   0.738
  329TIP3    H2  931   1.397   6.056   0.663
  330TIP3   OH2  932   2.320   2.158   4.240
  330TIP3    H1  933   2.230   2.170   4.271
  330TIP3    H2  934   2.323   2.204   4.157
  331TIP3   OH2  935   4.827   2.414   3.686
  331TIP3    H1  936   4.823   2.486   3.749
  331TIP3    H2  937   4.851   2.338   3.739
  332TIP3   OH2  938   7.233   4.151   0.991
  332TIP3    H1  939   7.274   4.190   1.068
  332TIP3    H2  940   7.140   4.144   1.015
  333TIP3   OH2  941   7.619   6.034   2.244
  333TIP3    H1  942   7.686   5.980   2.202
  333TIP3    H2  943   7.649   6.047   2.333
  334TIP3   OH2  944   2.808   2.773   2.982
  334TIP3    H1  945   2.852   2.691   3.005
  334TIP3    H2  946   2.879   2.830   2.950
  335TIP3   OH2  947   0.360   2.148   0.330
  335TIP3    H1  948   0.339   2.142   0.236
  335TIP3    H2  949   0.412   2.228   0.338
  336TIP3   OH2  950   1.633   6.754   4.419
  336TIP3    H1  951   1.594   6.743   4.332
  336TIP3    H2  952   1.590   6.832   4.454
  337TIP3   OH2  953   5.046   4.540   5.788
  337TIP3    H1  954   4.994   4.619   5.773
  337TIP3    H2  955   5.075   4.513   5.700
  338TIP3   OH2  956   7.617   1.728   5.248
  338TIP3    H1  957   7.656   1.775   5.175
  338TIP3    H2  958   7.682   1.735   5.318
  339TIP3   OH2  959   5.335   6.600   4.574
  339TIP3    H1  960   5.379   6.538   4.515
  339TIP3    H2  961   5.386   6.680   4.568
  340TIP3   OH2  962   6.272   6.822   1.883
  340TIP3    H1  963   6.184   6.857   1.872
  340TIP3    H2  964   6.274   6.790   1.974
  341TIP3   OH2  965   3.908   7.174   3.340
  341TIP3    H1  966   3.985   7.154   3.393
  341TIP3    H2  967   3.839   7.117   3.374
  342TIP3   OH2  968   0.280   0.553   2.152
  342TIP3    H1  969   0.184   0.555   2.155
  342TIP3    H2  970   0.307   0.638   2.186
  343TIP3   OH2  971   3.461   4.884   3.190
  343TIP3    H1  972   3.509   4.850   3.266
  343TIP3    H2  973   3.416   4.962   3.223
  344TIP3   OH2  974   3.383   2.266   5.595
  344TIP3    H1  975   3.344   2.179   5.590
  344TIP3    H2  976   3.312   2.326   5.571
  345TIP3   OH2  977   5.687   1.997   0.141
  345TIP3    H1  978   5.734   1.991   0.058
  345TIP3    H2  979   5.743   1.951   0.204
  346TIP3   OH2  980   6.327   1.840   6.377
  346TIP3    H1  981   6.371   1.819   6.459
  346TIP3    H2  982   6.398   1.861   6.316
  347TIP3   OH2  983   7.973   4.995   1.937
  347TIP3    H1  984   8.039   5.060   1.962
  347TIP3    H2  985   8.023   4.920   1.906
  348TIP3   OH2  986   1.483   6.445   6.126
  348TIP3    H1  987   1.445   6.359   6.140
  348TIP3    H2  988   1.411   6.498   6.091
  349TIP3   OH2  989   3.448   3.205   2.754
  349TIP3    H1  990   3.474   3.145   2.824
  349TIP3    H2  991   3.483   3.290   2.780
  350TIP3   OH2  992   6.613   4.372   2.888
  350TIP3    H1  993   6.676   4.362   2.817
  350TIP3    H2  994   6.579   4.461   2.877
  351TIP3   OH2  995   6.486   2.800   5.300
  351TIP3    H1  996   6.442   2.715   5.299
  351TIP3    H2  997   6.568   2.784   5.348
  352TIP3   OH2  998   3.902   6.073   5.658
  352TIP3    H1  999   3.807   6.064   5.664
  352TIP3    H2 1000   3.936   6.030   5.737
  353TIP3   OH2 1001   6.449   5.551   0.938
  353TIP3    H1 1002   6.370   5.505   0.968
  353TIP3    H2 1003   6.451   5.537   0.843
  354TIP3   OH2 1004   7.546   3.445   6.766
  354TIP3    H1 1005   7.513   3.491   6.689
  354TIP3    H2 1006   7.469   3.425   6.818
  355TIP3   OH2 1007   4.224   1.448   1.096
  355TIP3    H1 1008   4.138   1.470   1.130
  355TIP3    H2 1009   4.281   1.518   1.128
  356TIP3   OH2 1010   6.668   1.893   2.234
  356TIP3    H1 1011   6.593   1.952   2.245
  356TIP3    H2 1012   6.723   1.937   2.170
  357TIP3   OH2 1013   3.426   2.550   3.237
  357TIP3    H1 1014   3.477   2.564   3.318
  357TIP3    H2 1015   3.353   2.611   3.244
  358TIP3   OH2 1016   5.044   1.169   6.086
  358TIP3    H1 1017   4.998   1.186   6.004
  358TIP3    H2 1018   5.134   1.197   6.069
  359TIP3   OH2 1019   1.570   1.692   2.156
  359TIP3    H1 1020   1.599   1.746   2.230
  359TIP3    H2 1021   1.621   1.611   2.164
  360TIP3   OH2 1022   0.873   1.883   3.223
  360TIP3    H1 1023   0.949   1.932   3.255
  360TIP3    H2 1024   0.910   1.813   3.171
  361TIP3   OH2 1025   3.410   6.081   1.574
  361TIP3    H1 1026   3.382   6.073   1.483
  361TIP3    H2 1027   3.348   6.028   1.624
  362TIP3   OH2 1028   4.618   6.427   6.067
  362TIP3    H1 1029   4.560   6.434   6.143
  362TIP3    H2 1030   4.682   6.496   6.079
  363TIP3   OH2 1031   0.027   6.636   1.288
  363TIP3    H1 1032   0.029   6.639   1.192
  363TIP3    H2 1033   0.110   6.675   1.314
  364TIP3   OH2 1034   7.827   5.171   4.615
  364TIP3    H1 1035   7.795   5.094   4.663
  364TIP3    H2 1036   7.753   5.231   4.614
  365TIP3   OH2 1037   1.985   4.209   1.479
  365TIP3    H1 1038   2.020   4.293   1.508
  365TIP3    H2 1039   2.013   4.146   1.546
  366TIP3   OH2 1040   4.182   6.102   4.071
  366TIP3    H1 1041   4.140   6.087   3.986
  366TIP3    H2 1042   4.189   6.198   4.077
  367TIP3   OH2 1043   7.650   7.316   1.254
  367TIP3    H1 1044   7.604   7.350   1.177
  367TIP3    H2 1045   7.582   7.305   1.320
  368TIP3   OH2 1046   6.205   1.600   3.118
  368TIP3    H1 1047   6.151   1.565   3.189
  368TIP3    H2 1048   6.146   1.602   3.042
  369TIP3   OH2 1049   7.085   2.979   5.338
  369TIP3    H1 1050   7.107   2.896   5.295
  369TIP3    H2 1051   7.017   3.017   5.283
  370TIP3   OH2 1052   8.052   0.592   0.805
  370TIP3    H1 1053   8.002   0.670   0.828
  370TIP3    H2 1054   8.076   0.554   0.890
  371TIP3   OH2 1055   8.233   3.934   6.727
  371TIP3    H1 1056   8.206   3.973   6.644
  371TIP3    H2 1057   8.307   3.987   6.756
  372TIP3   OH2 1058   5.922   7.708   4.135
  372TIP3    H1 1059   6.012   7.716   4.105
  372TIP3    H2 1060   5.869   7.708   4.055
  373TIP3   OH2 1061   5.190   3.024   4.901
  373TIP3    H1 1062   5.247   2.951   4.922
  373TIP3    H2 1063   5.227   3.099   4.948
  374TIP3   OH2 1064   4.402   2.228   4.350
  374TIP3    H1 1065   4.422   2.184   4.267
  374TIP3    H2 1066   4.308   2.243   4.347
  375TIP3   OH2 1067   5.537   3.448   4.776
  375TIP3    H1 1068   5.453   3.403   4.768
  375TIP3    H2 1069   5.597   3.382   4.810
  376TIP3   OH2 1070   5.862   1.175   0.026
  376TIP3    H1 1071   5.931   1.115   0.054
  376TIP3    H2 1072   5.781   1.131   0.051
  377TIP3   OH2 1073   1.254   0.082   5.859
  377TIP3    H1 1074   1.258   0.160   5.914
  377TIP3    H2 1075   1.344   0.050   5.855
  378TIP3   OH2 1076   4.562   4.817   0.156
  378TIP3    H1 1077   4.478   4.783   0.124
  378TIP3    H2 1078   4.541   4.906   0.186
  379TIP3   OH2 1079   1.666   7.412   6.190
  379TIP3    H1 1080   1.711   7.343   6.141
  379TIP3    H2 1081   1.728   7.486   6.190
  380TIP3   OH2 1082   1.814   7.092   5.172
  380TIP3    H1 1083   1.875   7.058   5.107
  380TIP3    H2 1084   1.853   7.175   5.201
  381TIP3   OH2 1085   0.448   1.529   2.063
  381TIP3    H1 1086   0.373   1.569   2.106
  381TIP3    H2 1087   0.439   1.553   1.971
  382TIP3   OH2 1088   7.590   1.890   6.324
  382TIP3    H1 1089   7.655   1.952   6.290
  382TIP3    H2 1090   7.524   1.945   6.366
  383TIP3   OH2 1091   3.037   0.412   3.513
  383TIP3    H1 1092   2.989   0.461   3.580
  383TIP3    H2 1093   3.086   0.346   3.563
  384TIP3   OH2 1094   0.301   4.974   2.597
  384TIP3    H1 1095   0.327   4.995   2.687
  384TIP3    H2 1096   0.279   5.058   2.558
  385TIP3   OH2 1097   0.749   4.332   3.050
  385TIP3    H1 1098   0.808   4.388   3.101
  385TIP3    H2 1099   0.807   4.270   3.006
  386TIP3   OH2 1100   4.025   7.774   4.791
  386TIP3    H1 1101   4.013   7.687   4.754
  386TIP3    H2 1102   4.110   7.802   4.758
  387TIP3   OH2 1103   6.860   6.862   5.743
  387TIP3    H1 1104   6.852   6.938   5.686
  387TIP3    H2 1105   6.921   6.804   5.697
  388TIP3   OH2 1106   2.226   6.696   3.527
  388TIP3    H1 1107   2.309   6.656   3.551
  388TIP3    H2 1108   2.197   6.741   3.607
  389TIP3   OH2 1109   2.708   0.696   5.838
  389TIP3    H1 1110   2.784   0.686   5.894
  389TIP3    H2 1111   2.634   0.669   5.893
  390TIP3   OH2 1112   0.641   0.332   4.159
  390TIP3    H1 1113   0.612   0.260   4.216
  390TIP3    H2 1114   0.567   0.348   4.101
  391TIP3   OH2 1115   1.429   6.141   1.004
  391TIP3    H1 1116   1.410   6.074   1.070
  391TIP3    H2 1117   1.407   6.100   0.921
  392TIP3   OH2 1118   3.276   0.382   1.368
  392TIP3    H1 1119   3.234   0.458   1.329
  392TIP3    H2 1120   3.224   0.307   1.338
  393TIP3   OH2 1121   7.757   7.577   2.308
  393TIP3    H1 1122   7.766   7.627   2.390
  393TIP3    H2 1123   7.847   7.555   2.285
  394TIP3   OH2 1124   5.264   4.603   0.813
  394TIP3    H1 1125   5.222   4.658   0.879
  394TIP3    H2 1126   5.257   4.653   0.732
  395TIP3   OH2 1127   4.018   4.644   4.089
  395TIP3    H1 1128   3.947   4.633   4.025
  395TIP3    H2 1129   3.974   4.651   4.173
  396TIP3   OH2 1130   6.153   4.231   4.483
  396TIP3    H1 1131   6.110   4.301   4.532
  396TIP3    H2 1132   6.139   4.152   4.535
  397TIP3   OH2 1133   1.296   0.735   3.047
  397TIP3    H1 1134   1.349   0.814   3.060
  397TIP3    H2 1135   1.338   0.669   3.102
  398TIP3   OH2 1136   2.134   6.032   2.940
  398TIP3    H1 1137   2.123   6.004   3.031
  398TIP3    H2 1138   2.136   6.127   2.945
  399TIP3   OH2 1139   0.298   0.619   2.907
  399TIP3    H1 1140   0.277   0.706   2.872
  399TIP3    H2 1141   0.377   0.593   2.860
  400TIP3   OH2 1142   7.947   0.208   1.902
  400TIP3    H1 1143   7.853   0.193   1.895
  400TIP3    H2 1144   7.955   0.296   1.938
  401TIP3   OH2 1145   2.249   3.202   3.518
  401TIP3    H1 1146   2.320   3.242   3.469
  401TIP3    H2 1147   2.196   3.276   3.549
  402TIP3   OH2 1148   5.274   4.900   1.849
  402TIP3    H1 1149   5.284   4.808   1.874
  402TIP3    H2 1150   5.361   4.925   1.816
  403TIP3   OH2 1151   0.179   6.979   1.149
  403TIP3    H1 1152   0.194   7.063   1.105
  403TIP3    H2 1153   0.161   7.002   1.240
  404TIP3   OH2 1154   0.727   6.934   4.679
  404TIP3    H1 1155   0.762   6.929   4.590
  404TIP3    H2 1156   0.634   6.913   4.669
  405TIP3   OH2 1157   7.652   7.324   6.266
  405TIP3    H1 1158   7.627   7.248   6.318
  405TIP3    H2 1159   7.586   7.391   6.286
  406TIP3   OH2 1160   0.979   2.358   0.684
  406TIP3    H1 1161   1.022   2.346   0.769
  406TIP3    H2 1162   1.035   2.311   0.623
  407TIP3   OH2 1163   2.952   1.473   5.608
  407TIP3    H1 1164   2.867   1.430   5.596
  407TIP3    H2 1165   2.978   1.500   5.520
  408TIP3   OH2 1166   8.287   5.125   2.445
  408TIP3    H1 1167   8.234   5.073   2.506
  408TIP3    H2 1168   8.234   5.130   2.365
  409TIP3   OH2 1169   2.570   4.056   5.895
  409TIP3    H1 1170   2.487   4.039   5.852
  409TIP3    H2 1171   2.627   3.983   5.868
  410TIP3   OH2 1172   5.460   2.945   3.725
  410TIP3    H1 1173   5.537   2.956   3.670
  410TIP3    H2 1174   5.495   2.939   3.814
  411TIP3   OH2 1175   5.220   1.136   5.749
  411TIP3    H1 1176   5.125   1.131   5.760
  411TIP3    H2 1177   5.244   1.224   5.779
  412TIP3   OH2 1178   0.989   0.208   6.129
  412TIP3    H1 1179   1.055   0.144   6.156
  412TIP3    H2 1180   0.988   0.202   6.033
  413TIP3   OH2 1181   0.168   2.941   3.180
  413TIP3    H1 1182   0.116   2.966   3.103
  413TIP3    H2 1183   0.156   2.846   3.187
  414TIP3   OH2 1184   4.478   0.666   6.507
  414TIP3    H1 1185   4.516   0.638   6.423
  414TIP3    H2 1186   4.472   0.761   6.500
  415TIP3   OH2 1187   4.118   7.081   2.292
  415TIP3    H1 1188   4.113   7.092   2.387
  415TIP3    H2 1189   4.146   6.990   2.280
  416TIP3   OH2 1190   1.310   4.806   0.105
  416TIP3    H1 1191   1.353   4.775   0.185
  416TIP3    H2 1192   1.239   4.742   0.090
  417TIP3   OH2 1193   5.625   4.941   3.113
  417TIP3    H1 1194   5.600   4.897   3.032
  417TIP3    H2 1195   5.713   4.908   3.131
  418TIP3   OH2 1196   2.057   4.708   4.050
  418TIP3    H1 1197   2.124   4.734   4.113
  418TIP3    H2 1198   1.995   4.656   4.101
  419TIP3   OH2 1199   0.455   6.263   6.223
  419TIP3    H1 1200   0.390   6.321   6.262
  419TIP3    H2 1201   0.539   6.304   6.245
  420TIP3   OH2 1202   5.509   1.054   2.506
  420TIP3    H1 1203   5.592   1.097   2.487
  420TIP3    H2 1204   5.470   1.106   2.576
  421TIP3   OH2 1205   3.538   2.700   0.793
  421TIP3    H1 1206   3.614   2.740   0.752
  421TIP3    H2 1207   3.508   2.634   0.731
  422TIP3   OH2 1208   3.569   3.249   2.393
  422TIP3    H1 1209   3.580   3.194   2.471
  422TIP3    H2 1210   3.615   3.330   2.413
  423TIP3   OH2 1211   4.851   5.978   5.721
  423TIP3    H1 1212   4.868   5.951   5.811
  423TIP3    H2 1213   4.937   6.005   5.688
  424TIP3   OH2 1214   8.086   0.795   4.868
  424TIP3    H1 1215   8.016   0.740   4.903
  424TIP3    H2 1216   8.111   0.752   4.786
  425TIP3   OH2 1217   1.934   5.907   4.607
  425TIP3    H1 1218   1.929   5.979   4.669
  425TIP3    H2 1219   2.024   5.906   4.577
  426TIP3   OH2 1220   3.876   1.771   5.636
  426TIP3    H1 1221   3.915   1.688   5.663
  426TIP3    H2 1222   3.950   1.832   5.634
  427TIP3   OH2 1223   2.290   4.220   5.332
  427TIP3    H1 1224   2.348   4.155   5.294
  427TIP3    H2 1225   2.224   4.169   5.379
  428TIP3   OH2 1226   2.156   1.556   2.339
  428TIP3    H1 1227   2.167   1.599   2.424
  428TIP3    H2 1228   2.167   1.463   2.358
  429TIP3   OH2 1229   7.938   1.530   5.103
  429TIP3    H1 1230   7.919   1.607   5.048
  429TIP3    H2 1231   7.981   1.469   5.043
  430TIP3   OH2 1232   3.308   2.397   1.784
  430TIP3    H1 1233   3.383   2.403   1.844
  430TIP3    H2 1234   3.329   2.322   1.728
  431TIP3   OH2 1235   4.968   1.236   0.814
  431TIP3    H1 1236   5.049   1.199   0.779
  431TIP3    H2 1237   4.930   1.284   0.740
  432TIP3   OH2 1238   1.052   4.916   2.841
  432TIP3    H1 1239   1.085   4.932   2.752
  432TIP3    H2 1240   0.971   4.967   2.846
  433TIP3   OH2 1241   2.420   2.027   5.299
  433TIP3    H1 1242   2.420   2.112   5.254
  433TIP3    H2 1243   2.348   1.978   5.257
  434TIP3   OH2 1244   5.954   5.359   5.009
  434TIP3    H1 1245   6.020   5.292   5.028
  434TIP3    H2 1246   5.957   5.371   4.915
  435TIP3   OH2 1247   6.729   5.126   4.998
  435TIP3    H1 1248   6.642   5.166   4.989
  435TIP3    H2 1249   6.754   5.105   4.908
  436TIP3   OH2 1250   6.862   6.242   3.822
  436TIP3    H1 1251   6.891   6.314   3.878
  436TIP3    H2 1252   6.785   6.206   3.867
  437TIP3   OH2 1253   1.339   6.136   1.720
  437TIP3    H1 1254   1.314   6.049   1.751
  437TIP3    H2 1255   1.256   6.182   1.706
  438TIP3   OH2 1256   4.910   6.843   1.561
  438TIP3    H1 1257   4.884   6.763   1.607
  438TIP3    H2 1258   4.851   6.910   1.594
  439TIP3   OH2 1259   2.094   6.597   6.072
  439TIP3    H1 1260   2.074   6.691   6.074
  439TIP3    H2 1261   2.029   6.560   6.013
  440TIP3   OH2 1262   5.618   0.706   1.265
  440TIP3    H1 1263   5.651   0.754   1.189
  440TIP3    H2 1264   5.528   0.737   1.276
  441TIP3   OH2 1265   2.010   0.225   1.048
  441TIP3    H1 1266   1.963   0.248   0.968
  441TIP3    H2 1267   2.079   0.166   1.018
  442TIP3   OH2 1268   2.611   6.987   0.944
  442TIP3    H1 1269   2.531   7.013   0.989
  442TIP3    H2 1270   2.586   6.910   0.893
  443TIP3   OH2 1271   3.168   0.244   3.713
  443TIP3    H1 1272   3.252   0.268   3.672
  443TIP3    H2 1273   3.150   0.156   3.681
  444TIP3   OH2 1274   3.305   6.476   1.830
  444TIP3    H1 1275   3.299   6.521   1.914
  444TIP3    H2 1276   3.219   6.489   1.789
  445TIP3   OH2 1277   6.198   7.545   3.370
  445TIP3    H1 1278   6.127   7.494   3.408
  445TIP3    H2 1279   6.234   7.595   3.443
  446TIP3   OH2 1280   6.103   3.745   0.052
  446TIP3    H1 1281   6.181   3.691   0.071
  446TIP3    H2 1282   6.039   3.682   0.020
  447TIP3   OH2 1283   2.613   0.045   3.069
  447TIP3    H1 1284   2.652   0.080   3.150
  447TIP3    H2 1285   2.686   0.005   3.023
  448TIP3   OH2 1286   1.714   4.206   4.347
  448TIP3    H1 1287   1.745   4.122   4.381
  448TIP3    H2 1288   1.625   4.188   4.316
  449TIP3   OH2 1289   5.741   6.159   5.360
  449TIP3    H1 1290   5.816   6.217   5.371
  449TIP3    H2 1291   5.775   6.072   5.378
  450TIP3   OH2 1292   4.734   2.087   2.409
  450TIP3    H1 1293   4.720   2.176   2.442
  450TIP3    H2 1294   4.700   2.031   2.478
  451TIP3   OH2 1295   0.363   1.312   2.237
  451TIP3    H1 1296   0.370   1.230   2.189
  451TIP3    H2 1297   0.426   1.370   2.195
  452TIP3   OH2 1298   4.118   5.127   2.795
  452TIP3    H1 1299   4.140   5.158   2.707
  452TIP3    H2 1300   4.140   5.034   2.793
  453TIP3   OH2 1301   0.365   6.165   5.796
  453TIP3    H1 1302   0.315   6.104   5.742
  453TIP3    H2 1303   0.320   6.165   5.880
  454TIP3   OH2 1304   3.315   2.605   4.489
  454TIP3    H1 1305   3.372   2.677   4.461
  454TIP3    H2 1306   3.231   2.647   4.508
  455TIP3   OH2 1307   0.808   2.148   2.330
  455TIP3    H1 1308   0.884   2.119   2.380
  455TIP3    H2 1309   0.831   2.131   2.238
  456TIP3   OH2 1310   1.651   0.559   0.507
  456TIP3    H1 1311   1.642   0.514   0.423
  456TIP3    H2 1312   1.745   0.556   0.526
  457TIP3   OH2 1313   1.703   0.763   1.744
  457TIP3    H1 1314   1.793   0.775   1.711
  457TIP3    H2 1315   1.710   0.689   1.804
  458TIP3   OH2 1316   3.530   2.521   5.383
  458TIP3    H1 1317   3.527   2.549   5.475
  458TIP3    H2 1318   3.506   2.600   5.334
  459TIP3   OH2 1319   7.811   3.383   6.747
  459TIP3    H1 1320   7.725   3.409   6.781
  459TIP3    H2 1321   7.847   3.462   6.709
  460TIP3   OH2 1322   1.441   0.815   5.274
  460TIP3    H1 1323   1.453   0.720   5.276
  460TIP3    H2 1324   1.491   0.847   5.349
  461TIP3   OH2 1325   7.525   7.286   5.930
  461TIP3    H1 1326   7.601   7.255   5.880
  461TIP3    H2 1327   7.540   7.380   5.940
  462TIP3   OH2 1328   8.140   2.081   6.211
  462TIP3    H1 1329   8.139   2.035   6.127
  462TIP3    H2 1330   8.216   2.044   6.258
  463TIP3   OH2 1331   6.806   1.624   4.377
  463TIP3    H1 1332   6.853   1.600   4.457
  463TIP3    H2 1333   6.743   1.691   4.405
  464TIP3   OH2 1334   5.848   6.742   3.053
  464TIP3    H1 1335   5.899   6.802   3.108
  464TIP3    H2 1336   5.803   6.686   3.115
  465TIP3   OH2 1337   1.744   1.308   2.892
  465TIP3    H1 1338   1.801   1.383   2.877
  465TIP3    H2 1339   1.754   1.288   2.985
  466TIP3   OH2 1340   5.388   3.552   6.091
  466TIP3    H1 1341   5.466   3.522   6.137
  466TIP3    H2 1342   5.378   3.643   6.117
  467TIP3   OH2 1343   5.409   6.590   1.034
  467TIP3    H1 1344   5.409   6.496   1.049
  467TIP3    H2 1345   5.465   6.625   1.104
  468TIP3   OH2 1346   1.529   0.732   2.547
  468TIP3    H1 1347   1.483   0.759   2.627
  468TIP3    H2 1348   1.617   0.707   2.578
  469TIP3   OH2 1349   2.011   4.456   5.386
  469TIP3    H1 1350   1.997   4.393   5.315
  469TIP3    H2 1351   2.033   4.538   5.342
  470TIP3   OH2 1352   1.891   0.880   4.758
  470TIP3    H1 1353   1.828   0.937   4.803
  470TIP3    H2 1354   1.874   0.793   4.794
  471TIP3   OH2 1355   0.714   2.162   5.713
  471TIP3    H1 1356   0.806   2.173   5.689
  471TIP3    H2 1357   0.677   2.250   5.708
  472TIP3   OH2 1358   3.682   3.576   1.904
  472TIP3    H1 1359   3.622   3.595   1.832
  472TIP3    H2 1360   3.628   3.583   1.983
  473TIP3   OH2 1361   2.799   2.541   5.873
  473TIP3    H1 1362   2.757   2.483   5.810
  473TIP3    H2 1363   2.739   2.615   5.881
  474TIP3   OH2 1364   0.187   4.360   0.053
  474TIP3    H1 1365   0.257   4.303   0.022
  474TIP3    H2 1366   0.108   4.323   0.015
  475TIP3   OH2 1367   0.112   0.843   3.497
  475TIP3    H1 1368   0.198   0.812   3.527
  475TIP3    H2 1369   0.098   0.797   3.414
  476TIP3   OH2 1370   1.983   2.554   2.789
  476TIP3    H1 1371   2.060   2.562   2.734
  476TIP3    H2 1372   1.949   2.467   2.771
  477TIP3   OH2 1373   5.979   0.024   4.950
  477TIP3    H1 1374   6.022   0.108   4.967
  477TIP3    H2 1375   5.904   0.023   5.010
  478TIP3   OH2 1376   1.175   4.855   4.195
  478TIP3    H1 1377   1.121   4.819   4.266
  478TIP3    H2 1378   1.216   4.779   4.155
  479TIP3   OH2 1379   4.259   4.782   4.195
  479TIP3    H1 1380   4.182   4.737   4.160
  479TIP3    H2 1381   4.266   4.861   4.141
  480TIP3   OH2 1382   6.241   2.452   2.702
  480TIP3    H1 1383   6.305   2.512   2.739
  480TIP3    H2 1384   6.157   2.496   2.716
  481TIP3   OH2 1385   2.953   3.334   6.330
  481TIP3    H1 1386   2.971   3.356   6.239
  481TIP3    H2 1387   2.958   3.417   6.377
  482TIP3   OH2 1388   5.927   4.849   2.467
  482TIP3    H1 1389   6.021   4.829   2.474
  482TIP3    H2 1390   5.918   4.936   2.507
  483TIP3   OH2 1391   2.595   4.029   5.375
  483TIP3    H1 1392   2.573   4.075   5.455
  483TIP3    H2 1393   2.643   4.093   5.323
  484TIP3   OH2 1394   2.104   2.318   5.793
  484TIP3    H1 1395   2.136   2.372   5.721
  484TIP3    H2 1396   2.175   2.321   5.858
  485TIP3   OH2 1397   4.689   4.715   2.228
  485TIP3    H1 1398   4.759   4.780   2.236
  485TIP3    H2 1399   4.628   4.753   2.165
  486TIP3   OH2 1400   1.858   3.409   5.685
  486TIP3    H1 1401   1.822   3.485   5.731
  486TIP3    H2 1402   1.932   3.381   5.740
  487TIP3   OH2 1403   1.596   4.676   2.030
  487TIP3    H1 1404   1.503   4.670   2.010
  487TIP3    H2 1405   1.628   4.745   1.972
  488TIP3   OH2 1406   6.530   6.048   0.741
  488TIP3    H1 1407   6.490   5.995   0.672
  488TIP3    H2 1408   6.519   5.996   0.820
  489TIP3   OH2 1409   1.051   5.084   3.138
  489TIP3    H1 1410   0.970   5.127   3.109
  489TIP3    H2 1411   1.114   5.156   3.146
  490TIP3   OH2 1412   6.104   6.049   1.426
  490TIP3    H1 1413   6.068   6.079   1.509
  490TIP3    H2 1414   6.029   6.047   1.366
  491TIP3   OH2 1415   6.211   4.781   2.545
  491TIP3    H1 1416   6.225   4.873   2.569
  491TIP3    H2 1417   6.225   4.733   2.626
  492TIP3   OH2 1418   6.371   3.317   5.970
  492TIP3    H1 1419   6.417   3.237   5.945
  492TIP3    H2 1420   6.352   3.361   5.887
  493TIP3   OH2 1421   3.651   7.640   1.078
  493TIP3    H1 1422   3.679   7.595   0.998
  493TIP3    H2 1423   3.732   7.661   1.124
  494TIP3   OH2 1424   8.201   5.669   5.808
  494TIP3    H1 1425   8.274   5.699   5.753
  494TIP3    H2 1426   8.237   5.670   5.897
  495TIP3   OH2 1427   2.688   4.008   1.900
  495TIP3    H1 1428   2.678   3.994   1.994
  495TIP3    H2 1429   2.769   4.058   1.892
  496TIP3   OH2 1430   0.240   2.729   5.667
  496TIP3    H1 1431   0.197   2.670   5.729
  496TIP3    H2 1432   0.272   2.801   5.721
  497TIP3   OH2 1433   3.562   7.452   5.457
  497TIP3    H1 1434   3.481   7.402   5.457
  497TIP3    H2 1435   3.625   7.396   5.502
  498TIP3   OH2 1436   7.463   3.452   3.042
  498TIP3    H1 1437   7.424   3.531   3.079
  498TIP3    H2 1438   7.462   3.388   3.113
  499TIP3   OH2 1439   6.304   3.573   6.041
  499TIP3    H1 1440   6.316   3.627   6.119
  499TIP3    H2 1441   6.336   3.487   6.066
  500TIP3   OH2 1442   7.683   0.084   1.525
  500TIP3    H1 1443   7.654   0.164   1.571
  500TIP3    H2 1444   7.777   0.079   1.544
  501TIP3   OH2 1445   7.199   3.330   1.450
  501TIP3    H1 1446   7.246   3.350   1.531
  501TIP3    H2 1447   7.226   3.242   1.426
  502TIP3   OH2 1448   4.118   3.065   6.500
  502TIP3    H1 1449   4.040   3.011   6.509
  502TIP3    H2 1450   4.092   3.150   6.536
  503TIP3   OH2 1451   1.657   1.213   6.462
  503TIP3    H1 1452   1.614   1.185   6.380
  503TIP3    H2 1453   1.615   1.296   6.483
  504TIP3   OH2 1454   7.296   2.386   5.339
  504TIP3    H1 1455   7.385   2.352   5.353
  504TIP3    H2 1456   7.286   2.387   5.244
  505TIP3   OH2 1457   8.058   1.890   4.248
  505TIP3    H1 1458   8.068   1.984   4.240
  505TIP3    H2 1459   8.135   1.861   4.298
  506TIP3   OH2 1460   6.347   7.664   6.133
  506TIP3    H1 1461   6.369   7.571   6.136
  506TIP3    H2 1462   6.366   7.690   6.043
  507TIP3   OH2 1463   1.579   6.087   4.103
  507TIP3    H1 1464   1.611   6.147   4.036
  507TIP3    H2 1465   1.580   6.138   4.183
  508TIP3   OH2 1466   5.564   0.721   4.621
  508TIP3    H1 1467   5.549   0.719   4.527
  508TIP3    H2 1468   5.595   0.632   4.642
  509TIP3   OH2 1469   2.006   1.549   4.333
  509TIP3    H1 1470   1.971   1.461   4.345
  509TIP3    H2 1471   1.938   1.596   4.284
  510TIP3   OH2 1472   7.385   7.482   4.371
  510TIP3    H1 1473   7.425   7.567   4.352
  510TIP3    H2 1474   7.312   7.502   4.429
  511TIP3   OH2 1475   0.845   0.088   0.450
  511TIP3    H1 1476   0.819   0.009   0.497
  511TIP3    H2 1477   0.920   0.122   0.500
  512TIP3   OH2 1478   5.870   6.692   6.519
  512TIP3    H1 1479   5.899   6.692   6.427
  512TIP3    H2 1480   5.949   6.713   6.569
  513TIP3   OH2 1481   6.443   4.973   4.309
  513TIP3    H1 1482   6.366   4.956   4.254
  513TIP3    H2 1483   6.448   5.068   4.315
  514TIP3   OH2 1484   4.158   4.949   5.123
  514TIP3    H1 1485   4.193   5.012   5.186
  514TIP3    H2 1486   4.075   4.920   5.162
  515TIP3   OH2 1487   7.487   7.543   2.486
  515TIP3    H1 1488   7.575   7.578   2.503
  515TIP3    H2 1489   7.484   7.534   2.391
  516TIP3   OH2 1490   1.661   6.914   2.401
  516TIP3    H1 1491   1.629   6.996   2.364
  516TIP3    H2 1492   1.677   6.857   2.326
  517TIP3   OH2 1493   4.390   5.348   3.690
  517TIP3    H1 1494   4.424   5.357   3.602
  517TIP3    H2 1495   4.400   5.255   3.711
  518TIP3   OH2 1496   5.182   0.642   4.710
  518TIP3    H1 1497   5.229   0.680   4.784
  518TIP3    H2 1498   5.242   0.576   4.674
  519TIP3   OH2 1499   0.879   2.967   1.553
  519TIP3    H1 1500   0.955   2.910   1.565
  519TIP3    H2 1501   0.903   3.048   1.598
  520TIP3   OH2 1502   0.783   7.800   6.290
  520TIP3    H1 1503   0.877   7.809   6.309
  520TIP3    H2 1504   0.749   7.752   6.366
  521TIP3   OH2 1505   2.004   1.697   0.736
  521TIP3    H1 1506   1.992   1.647   0.817
  521TIP3    H2 1507   1.949   1.774   0.746
  522TIP3   OH2 1508   4.869   6.242   3.271
  522TIP3    H1 1509   4.851   6.243   3.365
  522TIP3    H2 1510   4.792   6.200   3.232
  523TIP3   OH2 1511   3.539   1.989   3.986
  523TIP3    H1 1512   3.470   2.008   3.923
  523TIP3    H2 1513   3.620   1.992   3.934
  524TIP3   OH2 1514   5.094   3.300   3.310
  524TIP3    H1 1515   5.184   3.312   3.338
  524TIP3    H2 1516   5.067   3.385   3.275
  525TIP3   OH2 1517   7.708   6.613   3.512
  525TIP3    H1 1518   7.633   6.647   3.462
  525TIP3    H2 1519   7.753   6.555   3.451
  526TIP3   OH2 1520   6.791   0.712   5.521
  526TIP3    H1 1521   6.707   0.755   5.509
  526TIP3    H2 1522   6.826   0.749   5.602
  527TIP3   OH2 1523   6.364   7.744   4.935
  527TIP3    H1 1524   6.453   7.778   4.929
  527TIP3    H2 1525   6.375   7.653   4.963
  528TIP3   OH2 1526   2.683   5.330   3.409
  528TIP3    H1 1527   2.610   5.280   3.373
  528TIP3    H2 1528   2.760   5.275   3.394
  529TIP3   OH2 1529   7.729   4.255   5.805
  529TIP3    H1 1530   7.809   4.216   5.769
  529TIP3    H2 1531   7.695   4.310   5.734
  530TIP3   OH2 1532   3.690   5.055   0.838
  530TIP3    H1 1533   3.669   5.014   0.922
  530TIP3    H2 1534   3.683   4.984   0.774
  531TIP3   OH2 1535   4.592   0.965   4.885
  531TIP3    H1 1536   4.550   1.018   4.817
  531TIP3    H2 1537   4.685   0.971   4.866
  532TIP3   OH2 1538   6.986   4.037   4.454
  532TIP3    H1 1539   7.056   4.096   4.483
  532TIP3    H2 1540   6.996   3.959   4.507
  533TIP3   OH2 1541   6.617   3.085   3.027
  533TIP3    H1 1542   6.557   3.110   2.957
  533TIP3    H2 1543   6.681   3.156   3.030
  534TIP3   OH2 1544   4.061   2.332   5.421
  534TIP3    H1 1545   4.134   2.290   5.375
  534TIP3    H2 1546   4.102   2.384   5.490
  535TIP3   OH2 1547   0.051   2.125   1.253
  535TIP3    H1 1548   0.115   2.172   1.306
  535TIP3    H2 1549   0.011   2.192   1.198
  536TIP3   OH2 1550   5.202   1.122   1.095
  536TIP3    H1 1551   5.227   1.210   1.067
  536TIP3    H2 1552   5.169   1.134   1.185
  537TIP3   OH2 1553   5.793   4.901   2.741
  537TIP3    H1 1554   5.762   4.914   2.830
  537TIP3    H2 1555   5.868   4.960   2.733
  538TIP3   OH2 1556   1.389   7.011   5.260
  538TIP3    H1 1557   1.377   6.955   5.337
  538TIP3    H2 1558   1.477   6.989   5.229
  539TIP3   OH2 1559   4.185   6.618   0.031
  539TIP3    H1 1560   4.096   6.614  -0.003
  539TIP3    H2 1561   4.221   6.530   0.016
  540TIP3   OH2 1562   1.405   1.294   3.619
  540TIP3    H1 1563   1.475   1.257   3.673
  540TIP3    H2 1564   1.324   1.256   3.654
  541TIP3   OH2 1565   2.050   7.791   1.410
  541TIP3    H1 1566   2.036   7.851   1.337
  541TIP3    H2 1567   1.974   7.733   1.408
  542TIP3   OH2 1568   4.527   6.735   2.964
  542TIP3    H1 1569   4.599   6.781   2.920
  542TIP3    H2 1570   4.518   6.780   3.049
  543TIP3   OH2 1571   3.222   1.840   1.075
  543TIP3    H1 1572   3.223   1.744   1.078
  543TIP3    H2 1573   3.133   1.862   1.045
  544TIP3   OH2 1574   7.568   6.165   3.834
  544TIP3    H1 1575   7.548   6.073   3.851
  544TIP3    H2 1576   7.661   6.166   3.813
  545TIP3   OH2 1577   1.589   4.650   3.898
  545TIP3    H1 1578   1.597   4.742   3.924
  545TIP3    H2 1579   1.608   4.601   3.978
  546TIP3   OH2 1580   0.415   3.243   4.339
  546TIP3    H1 1581   0.336   3.255   4.287
  546TIP3    H2 1582   0.389   3.268   4.428
  547TIP3   OH2 1583   1.391   0.592   0.491
  547TIP3    H1 1584   1.484   0.614   0.496
  547TIP3    H2 1585   1.387   0.500   0.520
  548TIP3   OH2 1586   2.087   1.143   1.307
  548TIP3    H1 1587   2.142   1.130   1.383
  548TIP3    H2 1588   2.013   1.195   1.339
  549TIP3   OH2 1589   2.321   3.086   3.854
  549TIP3    H1 1590   2.243   3.139   3.835
  549TIP3    H2 1591   2.379   3.101   3.779
  550TIP3   OH2 1592   5.558   6.464   4.693
  550TIP3    H1 1593   5.490   6.492   4.754
  550TIP3    H2 1594   5.514   6.463   4.608
  551TIP3   OH2 1595   0.458   3.529   2.465
  551TIP3    H1 1596   0.488   3.599   2.523
  551TIP3    H2 1597   0.383   3.566   2.419
  552TIP3   OH2 1598   1.435   2.349   0.561
  552TIP3    H1 1599   1.530   2.351   0.546
  552TIP3    H2 1600   1.412   2.257   0.554
  553TIP3   OH2 1601   2.617   6.234   1.859
  553TIP3    H1 1602   2.677   6.309   1.864
  553TIP3    H2 1603   2.530   6.272   1.873
  554TIP3   OH2 1604   0.039   2.598   6.225
  554TIP3    H1 1605   0.103   2.544   6.272
  554TIP3    H2 1606   0.003   2.541   6.158
  555TIP3   OH2 1607   2.964   7.082   1.641
  555TIP3    H1 1608   3.026   7.031   1.695
  555TIP3    H2 1609   2.968   7.041   1.555
  556TIP3   OH2 1610   2.418   0.660   0.270
  556TIP3    H1 1611   2.461   0.655   0.185
  556TIP3    H2 1612   2.487   0.687   0.331
  557TIP3   OH2 1613   6.039   2.327   0.465
  557TIP3    H1 1614   5.997   2.257   0.514
  557TIP3    H2 1615   5.997   2.325   0.379
  558TIP3   OH2 1616   6.569   2.796   0.483
  558TIP3    H1 1617   6.509   2.746   0.539
  558TIP3    H2 1618   6.524   2.802   0.399
  559TIP3   OH2 1619   7.512   3.790   1.178
  559TIP3    H1 1620   7.471   3.705   1.158
  559TIP3    H2 1621   7.582   3.798   1.114
  560TIP3   OH2 1622   2.889   0.165   4.337
  560TIP3    H1 1623   2.975   0.122   4.342
  560TIP3    H2 1624   2.903   0.239   4.277
  561TIP3   OH2 1625   5.842   1.031   0.984
  561TIP3    H1 1626   5.892   1.022   1.066
  561TIP3    H2 1627   5.772   1.092   1.005
  562TIP3   OH2 1628   3.284   1.947   3.544
  562TIP3    H1 1629   3.308   2.014   3.607
  562TIP3    H2 1630   3.311   1.865   3.585
  563TIP3   OH2 1631   0.200   4.857   0.799
  563TIP3    H1 1632   0.274   4.906   0.834
  563TIP3    H2 1633   0.123   4.903   0.833
  564TIP3   OH2 1634   6.210   3.368   4.190
  564TIP3    H1 1635   6.192   3.371   4.096
  564TIP3    H2 1636   6.214   3.460   4.217
  565TIP3   OH2 1637   5.543   4.908   1.746
  565TIP3    H1 1638   5.599   4.870   1.678
  565TIP3    H2 1639   5.559   5.002   1.741
  566TIP3   OH2 1640   5.131   4.152   3.007
  566TIP3    H1 1641   5.145   4.058   2.991
  566TIP3    H2 1642   5.203   4.178   3.064
  567TIP3   OH2 1643   0.977   2.190   5.697
  567TIP3    H1 1644   1.054   2.173   5.750
  567TIP3    H2 1645   1.002   2.262   5.639
  568TIP3   OH2 1646   3.276   6.360   5.756
  568TIP3    H1 1647   3.195   6.310   5.767
  568TIP3    H2 1648   3.256   6.424   5.688
  569TIP3   OH2 1649   4.111   0.092   3.433
  569TIP3    H1 1650   4.096   0.067   3.342
  569TIP3    H2 1651   4.023   0.098   3.471
  570TIP3   OH2 1652   8.082   0.729   1.091
  570TIP3    H1 1653   8.032   0.785   1.150
  570TIP3    H2 1654   8.173   0.753   1.107
  571TIP3   OH2 1655   7.423   3.404   4.116
  571TIP3    H1 1656   7.369   3.475   4.150
  571TIP3    H2 1657   7.385   3.383   4.030
  572TIP3   OH2 1658   5.530   7.010   4.351
  572TIP3    H1 1659   5.476   7.035   4.276
  572TIP3    H2 1660   5.572   7.091   4.379
  573TIP3   OH2 1661   6.163   0.727   4.588
  573TIP3    H1 1662   6.077   0.690   4.567
  573TIP3    H2 1663   6.199   0.668   4.653
  574TIP3   OH2 1664   1.479   3.762   3.955
  574TIP3    H1 1665   1.567   3.796   3.971
  574TIP3    H2 1666   1.432   3.835   3.914
  575TIP3   OH2 1667   6.013   0.811   5.923
  575TIP3    H1 1668   6.056   0.744   5.977
  575TIP3    H2 1669   5.986   0.763   5.844
  576TIP3   OH2 1670   3.072   6.733   2.873
  576TIP3    H1 1671   3.116   6.664   2.824
  576TIP3    H2 1672   2.987   6.743   2.830
  577TIP3   OH2 1673   3.582   5.434   6.737
  577TIP3    H1 1674   3.664   5.443   6.786
  577TIP3    H2 1675   3.558   5.342   6.748
  578TIP3   OH2 1676   7.171   0.694   1.886
  578TIP3    H1 1677   7.129   0.611   1.909
  578TIP3    H2 1678   7.264   0.680   1.905
  579TIP3   OH2 1679   2.246   2.499   1.769
  579TIP3    H1 1680   2.262   2.588   1.801
  579TIP3    H2 1681   2.168   2.506   1.714
  580TIP3   OH2 1682   6.154   0.903   1.258
  580TIP3    H1 1683   6.203   0.859   1.328
  580TIP3    H2 1684   6.062   0.885   1.279
  581TIP3   OH2 1685   2.128   3.160   5.405
  581TIP3    H1 1686   2.059   3.222   5.379
  581TIP3    H2 1687   2.205   3.188   5.356
  582TIP3   OH2 1688   0.858   2.314   1.472
  582TIP3    H1 1689   0.911   2.380   1.515
  582TIP3    H2 1690   0.830   2.356   1.390
  583TIP3   OH2 1691   5.368   6.027   4.766
  583TIP3    H1 1692   5.340   5.936   4.773
  583TIP3    H2 1693   5.459   6.022   4.736
  584TIP3   OH2 1694   3.034   2.690   4.814
  584TIP3    H1 1695   3.130   2.688   4.818
  584TIP3    H2 1696   3.006   2.666   4.902
  585TIP3   OH2 1697   3.566   4.794   4.597
  585TIP3    H1 1698   3.579   4.889   4.593
  585TIP3    H2 1699   3.631   4.763   4.660
  586TIP3   OH2 1700   6.735   1.109   2.545
  586TIP3    H1 1701   6.683   1.118   2.465
  586TIP3    H2 1702   6.822   1.082   2.514
  587TIP3   OH2 1703   4.330   6.106   5.659
  587TIP3    H1 1704   4.403   6.156   5.624
  587TIP3    H2 1705   4.324   6.134   5.751
  588TIP3   OH2 1706   7.476   6.260   4.920
  588TIP3    H1 1707   7.461   6.235   4.829
  588TIP3    H2 1708   7.571   6.259   4.930
  589TIP3   OH2 1709   3.844   0.006   0.031
  589TIP3    H1 1710   3.874   0.089  -0.006
  589TIP3    H2 1711   3.902  -0.060  -0.007
  590TIP3   OH2 1712   2.257   1.102   5.420
  590TIP3    H1 1713   2.301   1.051   5.352
  590TIP3    H2 1714   2.271   1.052   5.501
  591TIP3   OH2 1715   0.453   1.128   4.827
  591TIP3    H1 1716   0.549   1.122   4.819
  591TIP3    H2 1717   0.432   1.069   4.899
  592TIP3   OH2 1718   3.667   7.008   0.567
  592TIP3    H1 1719   3.742   6.981   0.514
  592TIP3    H2 1720   3.604   7.045   0.505
  593TIP3   OH2 1721   3.570   0.684   2.104
  593TIP3    H1 1722   3.576   0.589   2.091
  593TIP3    H2 1723   3.661   0.713   2.104
  594TIP3   OH2 1724   2.460   2.882   4.640
  594TIP3    H1 1725   2.496   2.876   4.729
  594TIP3    H2 1726   2.378   2.832   4.644
  595TIP3   OH2 1727   0.529   1.952   0.286
  595TIP3    H1 1728   0.462   2.011   0.319
  595TIP3    H2 1729   0.480   1.880   0.247
  596TIP3   OH2 1730   6.189   6.131   0.243
  596TIP3    H1 1731   6.121   6.108   0.306
  596TIP3    H2 1732   6.267   6.148   0.296
  597TIP3   OH2 1733   1.561   5.127   2.103
  597TIP3    H1 1734   1.612   5.064   2.051
  597TIP3    H2 1735   1.540   5.079   2.184
  598TIP3   OH2 1736   7.756   3.212   0.297
  598TIP3    H1 1737   7.725   3.292   0.339
  598TIP3    H2 1738   7.694   3.198   0.225
  599TIP3   OH2 1739   1.935   5.149   6.440
  599TIP3    H1 1740   1.871   5.154   6.511
  599TIP3    H2 1741   2.008   5.203   6.470
  600TIP3   OH2 1742   3.106   4.399   1.580
  600TIP3    H1 1743   3.172   4.468   1.577
  600TIP3    H2 1744   3.151   4.324   1.617
  601TIP3   OH2 1745   6.588   2.830   4.413
  601TIP3    H1 1746   6.682   2.842   4.428
  601TIP3    H2 1747   6.576   2.854   4.321
  602TIP3   OH2 1748   3.773   0.987   6.109
  602TIP3    H1 1749   3.864   0.981   6.083
  602TIP3    H2 1750   3.776   1.013   6.201
  603TIP3   OH2 1751   6.676   4.673   4.050
  603TIP3    H1 1752   6.639   4.610   4.112
  603TIP3    H2 1753   6.654   4.759   4.087
  604TIP3   OH2 1754   0.784   2.314   3.609
  604TIP3    H1 1755   0.752   2.299   3.520
  604TIP3    H2 1756   0.704   2.320   3.662
  605TIP3   OH2 1757   2.706   1.398   6.639
  605TIP3    H1 1758   2.693   1.319   6.691
  605TIP3    H2 1759   2.629   1.404   6.583
  606TIP3   OH2 1760   0.505   3.965   2.500
  606TIP3    H1 1761   0.435   3.978   2.436
  606TIP3    H2 1762   0.569   3.910   2.454
  607TIP3   OH2 1763   4.719   5.876   3.829
  607TIP3    H1 1764   4.669   5.802   3.794
  607TIP3    H2 1765   4.795   5.835   3.871
  608TIP3   OH2 1766   3.808   2.681   0.091
  608TIP3    H1 1767   3.753   2.605   0.072
  608TIP3    H2 1768   3.797   2.738   0.015
  609TIP3   OH2 1769   7.090   2.192   5.979
  609TIP3    H1 1770   7.058   2.174   6.067
  609TIP3    H2 1771   7.104   2.287   5.978
  610TIP3   OH2 1772   7.469   2.250   5.507
  610TIP3    H1 1773   7.470   2.154   5.515
  610TIP3    H2 1774   7.550   2.278   5.548
  611TIP3   OH2 1775   2.588   0.364   2.764
  611TIP3    H1 1776   2.630   0.449   2.754
  611TIP3    H2 1777   2.660   0.303   2.780
  612TIP3   OH2 1778   1.643   6.551   1.789
  612TIP3    H1 1779   1.565   6.495   1.782
  612TIP3    H2 1780   1.654   6.565   1.883
  613TIP3   OH2 1781   7.851   0.542   4.470
  613TIP3    H1 1782   7.764   0.566   4.438
  613TIP3    H2 1783   7.910   0.565   4.399
  614TIP3   OH2 1784   0.615   0.164   5.593
  614TIP3    H1 1785   0.602   0.070   5.579
  614TIP3    H2 1786   0.710   0.175   5.596
  615TIP3   OH2 1787   4.007   4.853   1.125
  615TIP3    H1 1788   4.034   4.865   1.034
  615TIP3    H2 1789   3.955   4.931   1.145
  616TIP3   OH2 1790   7.735   2.057   5.356
  616TIP3    H1 1791   7.712   2.035   5.266
  616TIP3    H2 1792   7.711   1.980   5.407
  617TIP3   OH2 1793   5.029   7.450   3.318
  617TIP3    H1 1794   5.065   7.415   3.236
  617TIP3    H2 1795   4.935   7.450   3.304
  618TIP3   OH2 1796   6.673   2.968   5.159
  618TIP3    H1 1797   6.634   2.916   5.229
  618TIP3    H2 1798   6.762   2.987   5.189
  619TIP3   OH2 1799   6.675   1.139   1.303
  619TIP3    H1 1800   6.666   1.108   1.393
  619TIP3    H2 1801   6.769   1.150   1.291
  620TIP3   OH2 1802   0.123   2.655   5.926
  620TIP3    H1 1803   0.049   2.603   5.956
  620TIP3    H2 1804   0.145   2.711   6.001
  621TIP3   OH2 1805   4.316   3.200   2.304
  621TIP3    H1 1806   4.298   3.193   2.398
  621TIP3    H2 1807   4.242   3.248   2.268
  622TIP3   OH2 1808   7.294   6.175   4.285
  622TIP3    H1 1809   7.243   6.134   4.355
  622TIP3    H2 1810   7.244   6.159   4.205
  623TIP3   OH2 1811   5.608   0.707   0.097
  623TIP3    H1 1812   5.691   0.731   0.057
  623TIP3    H2 1813   5.615   0.739   0.187
  624TIP3   OH2 1814   6.398   3.974   4.418
  624TIP3    H1 1815   6.395   4.021   4.335
  624TIP3    H2 1816   6.408   4.042   4.484
  625TIP3   OH2 1817   0.586   5.210   1.684
  625TIP3    H1 1818   0.545   5.173   1.762
  625TIP3    H2 1819   0.668   5.161   1.674
  626TIP3   OH2 1820   7.988   0.473   1.062
  626TIP3    H1 1821   7.989   0.568   1.069
  626TIP3    H2 1822   7.914   0.445   1.117
  627TIP3   OH2 1823   2.033   0.048   2.559
  627TIP3    H1 1824   2.020   0.125   2.503
  627TIP3    H2 1825   1.952   0.040   2.609
  628TIP3   OH2 1826   1.578   5.006   4.887
  628TIP3    H1 1827   1.630   4.926   4.892
  628TIP3    H2 1828   1.499   4.986   4.937
  629TIP3   OH2 1829   2.741   4.417   5.522
  629TIP3    H1 1830   2.698   4.499   5.547
  629TIP3    H2 1831   2.717   4.405   5.430
  630TIP3   OH2 1832   2.001   7.080   5.438
  630TIP3    H1 1833   1.997   7.158   5.384
  630TIP3    H2 1834   1.972   7.009   5.381
  631TIP3   OH2 1835   7.711   6.165   6.595
  631TIP3    H1 1836   7.639   6.159   6.657
  631TIP3    H2 1837   7.670   6.186   6.511
  632TIP3   OH2 1838   7.432   5.712   6.252
  632TIP3    H1 1839   7.408   5.770   6.180
  632TIP3    H2 1840   7.409   5.761   6.331
  633TIP3   OH2 1841   0.723   6.244   4.714
  633TIP3    H1 1842   0.818   6.244   4.727
  633TIP3    H2 1843   0.711   6.204   4.628
  634TIP3   OH2 1844   2.607   5.289   1.322
  634TIP3    H1 1845   2.607   5.385   1.316
  634TIP3    H2 1846   2.676   5.261   1.262
  635TIP3   OH2 1847   2.793   4.406   1.788
  635TIP3    H1 1848   2.826   4.371   1.871
  635TIP3    H2 1849   2.798   4.501   1.798
  636TIP3   OH2 1850   4.697   3.889   1.837
  636TIP3    H1 1851   4.696   3.803   1.796
  636TIP3    H2 1852   4.670   3.873   1.927
  637TIP3   OH2 1853   6.863   6.310   2.734
  637TIP3    H1 1854   6.926   6.272   2.796
  637TIP3    H2 1855   6.866   6.252   2.658
  638TIP3   OH2 1856   2.054   4.475   3.022
  638TIP3    H1 1857   1.996   4.487   2.947
  638TIP3    H2 1858   2.022   4.396   3.065
  639TIP3   OH2 1859   6.874   2.753   0.495
  639TIP3    H1 1860   6.783   2.783   0.493
  639TIP3    H2 1861   6.925   2.830   0.470
  640TIP3   OH2 1862   7.114   6.109   4.106
  640TIP3    H1 1863   7.113   6.192   4.058
  640TIP3    H2 1864   7.031   6.068   4.083
  641TIP3   OH2 1865   5.681   7.747   0.855
  641TIP3    H1 1866   5.613   7.762   0.921
  641TIP3    H2 1867   5.640   7.771   0.772
  642TIP3   OH2 1868   5.573   4.149   4.096
  642TIP3    H1 1869   5.569   4.201   4.176
  642TIP3    H2 1870   5.491   4.099   4.095
  643TIP3   OH2 1871   0.011   5.645   4.028
  643TIP3    H1 1872   0.025   5.714   3.963
  643TIP3    H2 1873   0.097   5.632   4.068
  644TIP3   OH2 1874   7.814   5.904   2.120
  644TIP3    H1 1875   7.839   5.906   2.028
  644TIP3    H2 1876   7.881   5.954   2.165
  645TIP3   OH2 1877   1.011   0.415   0.338
  645TIP3    H1 1878   0.934   0.445   0.290
  645TIP3    H2 1879   0.999   0.320   0.346
  646TIP3   OH2 1880   7.390   0.028   0.613
  646TIP3    H1 1881   7.335   0.106   0.618
  646TIP3    H2 1882   7.463   0.046   0.671
  647TIP3   OH2 1883   4.677   0.409   2.639
  647TIP3    H1 1884   4.733   0.483   2.664
  647TIP3    H2 1885   4.722   0.369   2.565
  648TIP3   OH2 1886   0.468   5.696   1.124
  648TIP3    H1 1887   0.503   5.783   1.145
  648TIP3    H2 1888   0.500   5.640   1.195
  649TIP3   OH2 1889   5.664   3.426   3.310
  649TIP3    H1 1890   5.647   3.411   3.217
  649TIP3    H2 1891   5.628   3.513   3.327
  650TIP3   OH2 1892   3.865   4.437   2.827
  650TIP3    H1 1893   3.810   4.366   2.793
  650TIP3    H2 1894   3.878   4.495   2.752
  651TIP3   OH2 1895   0.265   1.392   4.809
  651TIP3    H1 1896   0.212   1.354   4.880
  651TIP3    H2 1897   0.310   1.317   4.770
  652TIP3   OH2 1898   4.468   0.784   2.736
  652TIP3    H1 1899   4.476   0.701   2.687
  652TIP3    H2 1900   4.510   0.849   2.680
  653TIP3   OH2 1901   4.206   4.831   3.363
  653TIP3    H1 1902   4.225   4.740   3.341
  653TIP3    H2 1903   4.208   4.877   3.279
  654TIP3   OH2 1904   7.548   4.307   0.505
  654TIP3    H1 1905   7.566   4.311   0.411
  654TIP3    H2 1906   7.634   4.304   0.546
  655TIP3   OH2 1907   6.172   5.755   0.048
  655TIP3    H1 1908   6.117   5.833   0.038
  655TIP3    H2 1909   6.240   5.765  -0.019
  656TIP3   OH2 1910   2.646   3.862   6.172
  656TIP3    H1 1911   2.654   3.779   6.218
  656TIP3    H2 1912   2.732   3.876   6.133
  657TIP3   OH2 1913   7.784   7.126   2.132
  657TIP3    H1 1914   7.800   7.150   2.223
  657TIP3    H2 1915   7.796   7.207   2.083
  658TIP3   OH2 1916   4.431   3.964   3.313
  658TIP3    H1 1917   4.414   3.923   3.398
  658TIP3    H2 1918   4.450   3.890   3.255
  659TIP3   OH2 1919   2.506   6.671   1.380
  659TIP3    H1 1920   2.483   6.710   1.295
  659TIP3    H2 1921   2.517   6.578   1.362
  660TIP3   OH2 1922   6.156   3.769   0.621
  660TIP3    H1 1923   6.150   3.864   0.621
  660TIP3    H2 1924   6.207   3.747   0.543
  661TIP3   OH2 1925   7.584   4.943   0.407
  661TIP3    H1 1926   7.642   4.885   0.358
  661TIP3    H2 1927   7.527   4.883   0.456
  662TIP3   OH2 1928   2.965   4.917   5.462
  662TIP3    H1 1929   2.934   4.828   5.479
  662TIP3    H2 1930   2.885   4.968   5.447
  663TIP3   OH2 1931   1.936   1.989   3.738
  663TIP3    H1 1932   1.869   1.939   3.692
  663TIP3    H2 1933   2.016   1.939   3.724
  664TIP3   OH2 1934   7.002   4.897   1.867
  664TIP3    H1 1935   6.965   4.899   1.956
  664TIP3    H2 1936   6.981   4.809   1.835
  665TIP3   OH2 1937   8.075   3.291   1.906
  665TIP3    H1 1938   8.074   3.358   1.975
  665TIP3    H2 1939   8.152   3.238   1.926
  666TIP3   OH2 1940   6.606   2.231   2.609
  666TIP3    H1 1941   6.657   2.167   2.559
  666TIP3    H2 1942   6.669   2.299   2.631
  667TIP3   OH2 1943   5.596   4.217   1.924
  667TIP3    H1 1944   5.506   4.185   1.916
  667TIP3    H2 1945   5.643   4.144   1.966
  668TIP3   OH2 1946   1.359   5.363   0.367
  668TIP3    H1 1947   1.431   5.405   0.319
  668TIP3    H2 1948   1.379   5.380   0.459
  669TIP3   OH2 1949   7.507   5.338   0.182
  669TIP3    H1 1950   7.437   5.387   0.139
  669TIP3    H2 1951   7.478   5.330   0.273
  670TIP3   OH2 1952   6.553   3.421   2.757
  670TIP3    H1 1953   6.592   3.336   2.737
  670TIP3    H2 1954   6.587   3.480   2.689
  671TIP3   OH2 1955   1.761   4.215   1.313
  671TIP3    H1 1956   1.823   4.218   1.240
  671TIP3    H2 1957   1.816   4.230   1.391
  672TIP3   OH2 1958   2.559   7.280   5.435
  672TIP3    H1 1959   2.501   7.333   5.381
  672TIP3    H2 1960   2.631   7.255   5.376
  673TIP3   OH2 1961   2.444   1.041   5.189
  673TIP3    H1 1962   2.439   1.012   5.098
  673TIP3    H2 1963   2.466   0.961   5.238
  674TIP3   OH2 1964   0.421   2.640   0.613
  674TIP3    H1 1965   0.360   2.706   0.580
  674TIP3    H2 1966   0.408   2.564   0.556
  675TIP3   OH2 1967   8.229   4.486   5.244
  675TIP3    H1 1968   8.231   4.505   5.150
  675TIP3    H2 1969   8.169   4.413   5.252
  676TIP3   OH2 1970   0.072   6.481   4.098
  676TIP3    H1 1971   0.154   6.522   4.125
  676TIP3    H2 1972   0.049   6.526   4.017
  677TIP3   OH2 1973   0.798   3.807   6.507
  677TIP3    H1 1974   0.777   3.833   6.596
  677TIP3    H2 1975   0.842   3.884   6.470
  678TIP3   OH2 1976   0.555   0.900   3.962
  678TIP3    H1 1977   0.636   0.907   3.913
  678TIP3    H2 1978   0.490   0.872   3.898
  679TIP3   OH2 1979   0.124   5.201   1.598
  679TIP3    H1 1980   0.032   5.201   1.574
  679TIP3    H2 1981   0.128   5.156   1.682
  680TIP3   OH2 1982   4.493   0.586   2.536
  680TIP3    H1 1983   4.550   0.512   2.554
  680TIP3    H2 1984   4.408   0.562   2.573
  681TIP3   OH2 1985   5.583   0.287   3.486
  681TIP3    H1 1986   5.615   0.372   3.457
  681TIP3    H2 1987   5.620   0.225   3.423
  682TIP3   OH2 1988   5.557   0.549   1.564
  682TIP3    H1 1989   5.572   0.608   1.491
  682TIP3    H2 1990   5.640   0.502   1.574
  683TIP3   OH2 1991   3.148   7.315   6.491
  683TIP3    H1 1992   3.079   7.379   6.475
  683TIP3    H2 1993   3.126   7.241   6.435
  684TIP3   OH2 1994   3.510   4.135   6.001
  684TIP3    H1 1995   3.545   4.160   6.087
  684TIP3    H2 1996   3.568   4.178   5.938
  685TIP3   OH2 1997   2.966   6.008   2.860
  685TIP3    H1 1998   3.038   6.070   2.868
  685TIP3    H2 1999   3.002   5.925   2.891
  686TIP3   OH2 2000   5.883   1.692   3.509
  686TIP3    H1 2001   5.830   1.701   3.588
  686TIP3    H2 2002   5.916   1.602   3.512
  687TIP3   OH2 2003   3.637   7.180   6.691
  687TIP3    H1 2004   3.578   7.190   6.617
  687TIP3    H2 2005   3.669   7.090   6.685
  688TIP3   OH2 2006   2.709   1.847   2.772
  688TIP3    H1 2007   2.727   1.937   2.799
  688TIP3    H2 2008   2.794   1.813   2.744
  689TIP3   OH2 2009   6.627   2.150   1.824
  689TIP3    H1 2010   6.660   2.072   1.869
  689TIP3    H2 2011   6.616   2.121   1.733
  690TIP3   OH2 2012   2.194   4.728   0.218
  690TIP3    H1 2013   2.145   4.671   0.278
  690TIP3    H2 2014   2.162   4.704   0.131
  691TIP3   OH2 2015   1.712   0.852   2.959
  691TIP3    H1 2016   1.685   0.779   2.904
  691TIP3    H2 2017   1.680   0.830   3.047
  692TIP3   OH2 2018   6.298   5.272   0.129
  692TIP3    H1 2019   6.342   5.346   0.171
  692TIP3    H2 2020   6.359   5.199   0.136
  693TIP3   OH2 2021   0.400   6.944   2.692
  693TIP3    H1 2022   0.364   6.954   2.780
  693TIP3    H2 2023   0.333   6.897   2.643
  694TIP3   OH2 2024   5.282   6.398   6.349
  694TIP3    H1 2025   5.267   6.304   6.345
  694TIP3    H2 2026   5.231   6.428   6.424
  695TIP3   OH2 2027   6.864   5.566   0.472
  695TIP3    H1 2028   6.920   5.572   0.394
  695TIP3    H2 2029   6.821   5.481   0.464
  696TIP3   OH2 2030   3.775   2.426   5.985
  696TIP3    H1 2031   3.800   2.336   6.007
  696TIP3    H2 2032   3.733   2.420   5.899
  697TIP3   OH2 2033   0.500   5.396   1.924
  697TIP3    H1 2034   0.565   5.329   1.948
  697TIP3    H2 2035   0.424   5.346   1.896
  698TIP3   OH2 2036   3.629   2.867   2.779
  698TIP3    H1 2037   3.690   2.823   2.718
  698TIP3    H2 2038   3.663   2.956   2.787
  699TIP3   OH2 2039   6.069   6.961   0.474
  699TIP3    H1 2040   6.140   7.018   0.503
  699TIP3    H2 2041   6.009   6.957   0.549
  700TIP3   OH2 2042   2.371   6.967   1.363
  700TIP3    H1 2043   2.367   7.059   1.388
  700TIP3    H2 2044   2.460   6.954   1.331
  701TIP3   OH2 2045   1.767   2.481   3.169
  701TIP3    H1 2046   1.706   2.437   3.228
  701TIP3    H2 2047   1.845   2.495   3.222
  702TIP3   OH2 2048   8.228   6.271   2.879
  702TIP3    H1 2049   8.240   6.358   2.917
  702TIP3    H2 2050   8.237   6.284   2.785
  703TIP3   OH2 2051   2.259   5.554   4.961
  703TIP3    H1 2052   2.331   5.495   4.940
  703TIP3    H2 2053   2.207   5.559   4.880
  704TIP3   OH2 2054   5.502   2.074   6.190
  704TIP3    H1 2055   5.585   2.110   6.158
  704TIP3    H2 2056   5.526   2.022   6.267
  705TIP3   OH2 2057   8.071   1.470   0.475
  705TIP3    H1 2058   8.156   1.515   0.471
  705TIP3    H2 2059   8.087   1.393   0.530
  706TIP3   OH2 2060   5.171   5.694   6.658
  706TIP3    H1 2061   5.159   5.656   6.745
  706TIP3    H2 2062   5.266   5.700   6.647
  707TIP3   OH2 2063   4.968   3.317   0.680
  707TIP3    H1 2064   5.012   3.237   0.651
  707TIP3    H2 2065   4.992   3.383   0.614
  708TIP3   OH2 2066   3.971   1.682   6.509
  708TIP3    H1 2067   4.059   1.707   6.538
  708TIP3    H2 2068   3.913   1.736   6.562
  709TIP3   OH2 2069   5.407   1.794   4.092
  709TIP3    H1 2070   5.481   1.851   4.069
  709TIP3    H2 2071   5.436   1.746   4.169
  710TIP3   OH2 2072   4.508   2.638   0.663
  710TIP3    H1 2073   4.579   2.604   0.717
  710TIP3    H2 2074   4.478   2.716   0.710
  711TIP3   OH2 2075   8.045   6.346   6.378
  711TIP3    H1 2076   8.067   6.288   6.451
  711TIP3    H2 2077   8.114   6.331   6.314
  712TIP3   OH2 2078   7.137   4.008   6.415
  712TIP3    H1 2079   7.132   3.922   6.373
  712TIP3    H2 2080   7.154   4.068   6.343
  713TIP3   OH2 2081   0.094   0.834   1.734
  713TIP3    H1 2082   0.012   0.816   1.780
  713TIP3    H2 2083   0.161   0.792   1.788
  714TIP3   OH2 2084   1.386   2.542   3.847
  714TIP3    H1 2085   1.398   2.451   3.874
  714TIP3    H2 2086   1.435   2.593   3.912
  715TIP3   OH2 2087   5.219   6.379   2.193
  715TIP3    H1 2088   5.147   6.405   2.136
  715TIP3    H2 2089   5.293   6.364   2.133
  716TIP3   OH2 2090   6.955   6.295   4.861
  716TIP3    H1 2091   7.025   6.258   4.808
  716TIP3    H2 2092   6.933   6.378   4.818
  717TIP3   OH2 2093   1.176   1.840   1.841
  717TIP3    H1 2094   1.105   1.860   1.781
  717TIP3    H2 2095   1.143   1.768   1.895
  718TIP3   OH2 2096   5.981   6.296   5.445
  718TIP3    H1 2097   6.027   6.378   5.463
  718TIP3    H2 2098   5.963   6.259   5.532
  719TIP3   OH2 2099   1.808   0.616   3.469
  719TIP3    H1 2100   1.824   0.527   3.500
  719TIP3    H2 2101   1.874   0.629   3.400
  720TIP3   OH2 2102   2.516   7.418   4.752
  720TIP3    H1 2103   2.569   7.490   4.788
  720TIP3    H2 2104   2.426   7.444   4.768
  721TIP3   OH2 2105   7.411   7.156   0.648
  721TIP3    H1 2106   7.365   7.223   0.598
  721TIP3    H2 2107   7.384   7.169   0.738
  722TIP3   OH2 2108   3.623   0.402   5.163
  722TIP3    H1 2109   3.593   0.489   5.188
  722TIP3    H2 2110   3.647   0.410   5.071
  723TIP3   OH2 2111   1.627   0.643   0.993
  723TIP3    H1 2112   1.658   0.565   0.947
  723TIP3    H2 2113   1.533   0.629   1.002
  724TIP3   OH2 2114   3.759   3.115   6.377
  724TIP3    H1 2115   3.828   3.129   6.312
  724TIP3    H2 2116   3.778   3.179   6.446
  725TIP3   OH2 2117   6.537   4.937   3.574
  725TIP3    H1 2118   6.586   4.931   3.656
  725TIP3    H2 2119   6.597   4.906   3.507
  726TIP3   OH2 2120   5.006   2.493   6.085
  726TIP3    H1 2121   4.975   2.527   6.001
  726TIP3    H2 2122   5.097   2.468   6.069
  727TIP3   OH2 2123   5.771   2.886   5.285
  727TIP3    H1 2124   5.745   2.796   5.265
  727TIP3    H2 2125   5.699   2.940   5.253
  728TIP3   OH2 2126   0.218   5.678   0.742
  728TIP3    H1 2127   0.229   5.584   0.727
  728TIP3    H2 2128   0.173   5.684   0.827
  729TIP3   OH2 2129   5.391   3.131   0.197
  729TIP3    H1 2130   5.405   3.044   0.236
  729TIP3    H2 2131   5.301   3.128   0.164
  730TIP3   OH2 2132   7.696   2.689   6.711
  730TIP3    H1 2133   7.769   2.738   6.748
  730TIP3    H2 2134   7.658   2.749   6.646
  731TIP3   OH2 2135   6.988   0.765   0.085
  731TIP3    H1 2136   6.926   0.704   0.127
  731TIP3    H2 2137   6.946   0.788   0.002
  732TIP3   OH2 2138   5.855   6.963   0.654
  732TIP3    H1 2139   5.849   6.867   0.651
  732TIP3    H2 2140   5.779   6.994   0.606
  733TIP3   OH2 2141   0.328   6.940   5.484
  733TIP3    H1 2142   0.377   6.861   5.462
  733TIP3    H2 2143   0.257   6.910   5.540
  734TIP3   OH2 2144   3.776   7.709   6.210
  734TIP3    H1 2145   3.790   7.623   6.250
  734TIP3    H2 2146   3.772   7.691   6.116
  735TIP3   OH2 2147   5.680   4.920   0.162
  735TIP3    H1 2148   5.598   4.944   0.204
  735TIP3    H2 2149   5.724   5.004   0.146
  736TIP3   OH2 2150   6.971   4.763   5.731
  736TIP3    H1 2151   6.888   4.728   5.761
  736TIP3    H2 2152   6.948   4.823   5.660
  737TIP3   OH2 2153   8.036   0.261   4.989
  737TIP3    H1 2154   7.998   0.346   5.012
  737TIP3    H2 2155   7.974   0.223   4.928
  738TIP3   OH2 2156   3.606   7.522   3.043
  738TIP3    H1 2157   3.570   7.434   3.056
  738TIP3    H2 2158   3.651   7.542   3.125
  739TIP3   OH2 2159   1.519   1.884   0.610
  739TIP3    H1 2160   1.457   1.863   0.679
  739TIP3    H2 2161   1.586   1.938   0.653
  740TIP3   OH2 2162   4.809   6.038   1.725
  740TIP3    H1 2163   4.757   6.018   1.647
  740TIP3    H2 2164   4.894   5.999   1.707
  741TIP3   OH2 2165   6.513   2.920   1.455
  741TIP3    H1 2166   6.587   2.950   1.507
  741TIP3    H2 2167   6.463   2.999   1.436
  742TIP3   OH2 2168   3.947   6.660   4.910
  742TIP3    H1 2169   4.015   6.717   4.946
  742TIP3    H2 2170   3.912   6.709   4.835
  743TIP3   OH2 2171   2.437   7.612   4.451
  743TIP3    H1 2172   2.401   7.645   4.368
  743TIP3    H2 2173   2.491   7.538   4.427
  744TIP3   OH2 2174   6.994   6.354   0.172
  744TIP3    H1 2175   6.967   6.379   0.261
  744TIP3    H2 2176   7.016   6.437   0.129
  745TIP3   OH2 2177   3.524   7.179   1.384
  745TIP3    H1 2178   3.433   7.193   1.412
  745TIP3    H2 2179   3.524   7.199   1.291
  746TIP3   OH2 2180   1.683   4.350   0.923
  746TIP3    H1 2181   1.596   4.339   0.961
  746TIP3    H2 2182   1.701   4.444   0.931
  747TIP3   OH2 2183   5.575   7.690   1.684
  747TIP3    H1 2184   5.570   7.619   1.748
  747TIP3    H2 2185   5.570   7.646   1.599
  748TIP3   OH2 2186   5.031   1.405   1.398
  748TIP3    H1 2187   4.990   1.489   1.383
  748TIP3    H2 2188   5.020   1.357   1.316
  749TIP3   OH2 2189   6.369   0.849   3.529
  749TIP3    H1 2190   6.345   0.911   3.460
  749TIP3    H2 2191   6.439   0.892   3.577
  750TIP3   OH2 2192   3.150   3.551   6.472
  750TIP3    H1 2193   3.146   3.576   6.564
  750TIP3    H2 2194   3.243   3.538   6.454
  751TIP3   OH2 2195   6.609   7.788   1.031
  751TIP3    H1 2196   6.701   7.791   1.006
  751TIP3    H2 2197   6.589   7.695   1.037
  752TIP3   OH2 2198   5.925   6.658   0.304
  752TIP3    H1 2199   5.839   6.627   0.277
  752TIP3    H2 2200   5.954   6.714   0.232
  753TIP3   OH2 2201   4.682   0.084   6.563
  753TIP3    H1 2202   4.645   0.149   6.502
  753TIP3    H2 2203   4.649   0.000   6.531
  754TIP3   OH2 2204   7.791   6.499   0.833
  754TIP3    H1 2205   7.819   6.477   0.922
  754TIP3    H2 2206   7.700   6.526   0.843
  755TIP3   OH2 2207   4.561   1.762   6.353
  755TIP3    H1 2208   4.655   1.783   6.353
  755TIP3    H2 2209   4.518   1.845   6.335
  756TIP3   OH2 2210   3.312   0.677   2.235
  756TIP3    H1 2211   3.246   0.648   2.172
  756TIP3    H2 2212   3.390   0.692   2.182
  757TIP3   OH2 2213   6.740   4.740   4.537
  757TIP3    H1 2214   6.801   4.797   4.489
  757TIP3    H2 2215   6.785   4.719   4.618
  758TIP3   OH2 2216   0.436   7.251   0.138
  758TIP3    H1 2217   0.484   7.302   0.073
  758TIP3    H2 2218   0.491   7.174   0.153
  759TIP3   OH2 2219   1.584   1.238   0.264
  759TIP3    H1 2220   1.552   1.164   0.211
  759TIP3    H2 2221   1.636   1.197   0.333
  760TIP3   OH2 2222   1.143   2.168   2.483
  760TIP3    H1 2223   1.082   2.097   2.464
  760TIP3    H2 2224   1.230   2.126   2.484
  761TIP3   OH2 2225   3.293   0.746   0.766
  761TIP3    H1 2226   3.274   0.769   0.675
  761TIP3    H2 2227   3.224   0.790   0.816
  762TIP3   OH2 2228   4.343   6.349   6.722
  762TIP3    H1 2229   4.410   6.284   6.702
  762TIP3    H2 2230   4.285   6.306   6.784
  763TIP3   OH2 2231   5.434   4.819   3.553
  763TIP3    H1 2232   5.449   4.845   3.463
  763TIP3    H2 2233   5.393   4.732   3.547
  764TIP3   OH2 2234   0.478   5.003   1.851
  764TIP3    H1 2235   0.476   5.019   1.946
  764TIP3    H2 2236   0.516   4.915   1.843
  765TIP3   OH2 2237   6.154   1.580   4.533
  765TIP3    H1 2238   6.211   1.565   4.608
  765TIP3    H2 2239   6.208   1.560   4.456
  766TIP3   OH2 2240   7.164   1.764   0.267
  766TIP3    H1 2241   7.209   1.718   0.196
  766TIP3    H2 2242   7.228   1.829   0.297
  767TIP3   OH2 2243   8.262   7.112   2.483
  767TIP3    H1 2244   8.181   7.064   2.466
  767TIP3    H2 2245   8.284   7.092   2.574
  768TIP3   OH2 2246   5.688   5.127   6.131
  768TIP3    H1 2247   5.717   5.042   6.165
  768TIP3    H2 2248   5.594   5.128   6.146
  769TIP3   OH2 2249   4.110   6.701   4.096
  769TIP3    H1 2250   4.128   6.616   4.137
  769TIP3    H2 2251   4.033   6.685   4.042
  770TIP3   OH2 2252   4.883   4.282   3.012
  770TIP3    H1 2253   4.951   4.218   3.029
  770TIP3    H2 2254   4.802   4.231   3.009
  771TIP3   OH2 2255   2.594   7.772   2.036
  771TIP3    H1 2256   2.592   7.746   2.129
  771TIP3    H2 2257   2.658   7.843   2.033
  772TIP3   OH2 2258   0.392   3.999   3.169
  772TIP3    H1 2259   0.376   3.947   3.248
  772TIP3    H2 2260   0.466   4.055   3.191
  773TIP3   OH2 2261   2.409   5.594   6.435
  773TIP3    H1 2262   2.330   5.598   6.489
  773TIP3    H2 2263   2.470   5.541   6.485
  774TIP3   OH2 2264   1.537   5.809   6.371
  774TIP3    H1 2265   1.515   5.832   6.280
  774TIP3    H2 2266   1.632   5.813   6.374
  775TIP3   OH2 2267   0.090   0.779   3.244
  775TIP3    H1 2268   0.050   0.707   3.195
  775TIP3    H2 2269   0.026   0.850   3.239
  776TIP3   OH2 2270   1.069   5.982   5.953
  776TIP3    H1 2271   1.149   6.034   5.964
  776TIP3    H2 2272   1.012   6.037   5.900
  777TIP3   OH2 2273   6.218   1.303   3.155
  777TIP3    H1 2274   6.144   1.351   3.193
  777TIP3    H2 2275   6.278   1.290   3.229
  778TIP3   OH2 2276   7.561   0.227   1.295
  778TIP3    H1 2277   7.497   0.290   1.328
  778TIP3    H2 2278   7.596   0.185   1.374
  779TIP3   OH2 2279   4.845   3.800   0.744
  779TIP3    H1 2280   4.830   3.706   0.749
  779TIP3    H2 2281   4.771   3.839   0.790
  780TIP3   OH2 2282   1.169   2.607   2.730
  780TIP3    H1 2283   1.078   2.634   2.742
  780TIP3    H2 2284   1.221   2.683   2.757
  781TIP3   OH2 2285   0.912   3.801   0.666
  781TIP3    H1 2286   0.841   3.865   0.671
  781TIP3    H2 2287   0.907   3.766   0.577
  782TIP3   OH2 2288   5.262   7.412   1.330
  782TIP3    H1 2289   5.177   7.455   1.326
  782TIP3    H2 2290   5.251   7.341   1.393
  783TIP3   OH2 2291   6.141   3.341   0.409
  783TIP3    H1 2292   6.158   3.293   0.329
  783TIP3    H2 2293   6.074   3.406   0.385
  784TIP3   OH2 2294   5.076   0.318   6.722
  784TIP3    H1 2295   5.016   0.245   6.737
  784TIP3    H2 2296   5.072   0.369   6.803
  785TIP3   OH2 2297   3.777   5.014   3.993
  785TIP3    H1 2298   3.859   4.964   3.996
  785TIP3    H2 2299   3.718   4.966   4.052
  786TIP3   OH2 2300   3.109   0.471   1.572
  786TIP3    H1 2301   3.187   0.445   1.524
  786TIP3    H2 2302   3.038   0.461   1.509
  787TIP3   OH2 2303   5.620   5.435   2.919
  787TIP3    H1 2304   5.710   5.444   2.889
  787TIP3    H2 2305   5.567   5.473   2.849
  788TIP3   OH2 2306   2.476   5.373   4.264
  788TIP3    H1 2307   2.470   5.389   4.170
  788TIP3    H2 2308   2.396   5.411   4.300
  789TIP3   OH2 2309   2.301   4.129   0.276
  789TIP3    H1 2310   2.258   4.047   0.248
  789TIP3    H2 2311   2.299   4.126   0.371
  790TIP3   OH2 2312   0.594   6.133   1.538
  790TIP3    H1 2313   0.574   6.165   1.450
  790TIP3    H2 2314   0.682   6.166   1.556
  791TIP3   OH2 2315   0.701   6.571   3.393
  791TIP3    H1 2316   0.657   6.506   3.338
  791TIP3    H2 2317   0.780   6.526   3.424
  792TIP3   OH2 2318   0.529   0.504   4.408
  792TIP3    H1 2319   0.599   0.505   4.343
  792TIP3    H2 2320   0.448   0.501   4.355
  793TIP3   OH2 2321   4.913   1.859   0.591
  793TIP3    H1 2322   4.824   1.842   0.620
  793TIP3    H2 2323   4.935   1.944   0.629
  794TIP3   OH2 2324   2.694   2.006   1.090
  794TIP3    H1 2325   2.788   2.001   1.109
  794TIP3    H2 2326   2.690   2.046   1.003
  795TIP3   OH2 2327   2.928   0.311   2.063
  795TIP3    H1 2328   2.982   0.232   2.066
  795TIP3    H2 2329   2.990   0.383   2.078
  796TIP3   OH2 2330   6.515   2.989   3.769
  796TIP3    H1 2331   6.548   3.012   3.682
  796TIP3    H2 2332   6.585   2.937   3.808
  797TIP3   OH2 2333   6.411   6.677   2.547
  797TIP3    H1 2334   6.364   6.739   2.602
  797TIP3    H2 2335   6.343   6.622   2.509
  798TIP3   OH2 2336   8.190   1.080   1.708
  798TIP3    H1 2337   8.181   1.176   1.709
  798TIP3    H2 2338   8.274   1.063   1.749
  799TIP3   OH2 2339   3.502   4.578   6.130
  799TIP3    H1 2340   3.445   4.634   6.078
  799TIP3    H2 2341   3.558   4.534   6.066
  800TIP3   OH2 2342   2.122   5.968   3.202
  800TIP3    H1 2343   2.077   5.997   3.281
  800TIP3    H2 2344   2.109   5.874   3.199
  801TIP3   OH2 2345   2.316   5.585   3.184
  801TIP3    H1 2346   2.399   5.591   3.232
  801TIP3    H2 2347   2.337   5.615   3.096
  802TIP3   OH2 2348   3.081   6.693   2.505
  802TIP3    H1 2349   3.143   6.642   2.556
  802TIP3    H2 2350   3.005   6.637   2.494
  803TIP3   OH2 2351   3.225   5.736   5.249
  803TIP3    H1 2352   3.307   5.746   5.296
  803TIP3    H2 2353   3.238   5.784   5.167
  804TIP3   OH2 2354   2.446   6.622   2.632
  804TIP3    H1 2355   2.470   6.658   2.717
  804TIP3    H2 2356   2.392   6.545   2.653
  805TIP3   OH2 2357   6.951   2.435   1.212
  805TIP3    H1 2358   7.029   2.394   1.251
  805TIP3    H2 2359   6.932   2.382   1.134
  806TIP3   OH2 2360   2.978   2.982   6.270
  806TIP3    H1 2361   2.972   2.903   6.324
  806TIP3    H2 2362   2.901   3.034   6.296
  807TIP3   OH2 2363   5.322   1.244   6.067
  807TIP3    H1 2364   5.403   1.194   6.059
  807TIP3    H2 2365   5.304   1.274   5.978
  808TIP3   OH2 2366   6.081   5.724   0.313
  808TIP3    H1 2367   6.103   5.756   0.226
  808TIP3    H2 2368   6.074   5.803   0.367
  809TIP3   OH2 2369   3.938   0.546   2.267
  809TIP3    H1 2370   3.973   0.471   2.218
  809TIP3    H2 2371   3.863   0.511   2.314
  810TIP3   OH2 2372   7.033   4.412   6.160
  810TIP3    H1 2373   6.984   4.481   6.204
  810TIP3    H2 2374   7.123   4.423   6.192
  811TIP3   OH2 2375   3.545   2.934   1.415
  811TIP3    H1 2376   3.469   2.884   1.442
  811TIP3    H2 2377   3.567   2.900   1.328
  812TIP3   OH2 2378   5.559   6.717   2.868
  812TIP3    H1 2379   5.542   6.756   2.954
  812TIP3    H2 2380   5.610   6.639   2.887
  813TIP3   OH2 2381   4.176   2.959   3.033
  813TIP3    H1 2382   4.117   2.902   2.985
  813TIP3    H2 2383   4.153   2.946   3.125
  814TIP3   OH2 2384   7.161   1.109   6.501
  814TIP3    H1 2385   7.185   1.192   6.461
  814TIP3    H2 2386   7.171   1.044   6.432
  815TIP3   OH2 2387   3.341   0.254   2.074
  815TIP3    H1 2388   3.399   0.178   2.065
  815TIP3    H2 2389   3.347   0.278   2.166
  816TIP3   OH2 2390   2.590   1.964   5.974
  816TIP3    H1 2391   2.615   2.056   5.973
  816TIP3    H2 2392   2.636   1.927   6.049
  817TIP3   OH2 2393   7.168   6.623   0.647
  817TIP3    H1 2394   7.089   6.677   0.645
  817TIP3    H2 2395   7.184   6.608   0.740
  818TIP3   OH2 2396   5.625   2.490   2.973
  818TIP3    H1 2397   5.632   2.416   2.913
  818TIP3    H2 2398   5.711   2.494   3.015
  819TIP3   OH2 2399   3.021   3.947   3.513
  819TIP3    H1 2400   3.015   3.936   3.608
  819TIP3    H2 2401   3.076   4.025   3.502
  820TIP3   OH2 2402   0.455   7.263   1.547
  820TIP3    H1 2403   0.471   7.358   1.542
  820TIP3    H2 2404   0.460   7.233   1.457
  821TIP3   OH2 2405   6.546   3.745   4.185
  821TIP3    H1 2406   6.462   3.742   4.138
  821TIP3    H2 2407   6.612   3.742   4.116
  822TIP3   OH2 2408   0.780   0.983   3.847
  822TIP3    H1 2409   0.730   1.061   3.869
  822TIP3    H2 2410   0.813   1.000   3.758
  823TIP3   OH2 2411   7.363   6.522   3.647
  823TIP3    H1 2412   7.440   6.492   3.695
  823TIP3    H2 2413   7.345   6.609   3.682
  824TIP3   OH2 2414   0.099   6.388   6.565
  824TIP3    H1 2415   0.086   6.483   6.559
  824TIP3    H2 2416   0.050   6.362   6.643
  825TIP3   OH2 2417   5.006   0.954   6.271
  825TIP3    H1 2418   4.998   1.016   6.198
  825TIP3    H2 2419   5.101   0.942   6.282
  826TIP3   OH2 2420   0.566   4.183   3.461
  826TIP3    H1 2421   0.575   4.091   3.484
  826TIP3    H2 2422   0.588   4.186   3.368
  827TIP3   OH2 2423   6.017   2.307   0.810
  827TIP3    H1 2424   6.094   2.313   0.753
  827TIP3    H2 2425   6.052   2.322   0.898
  828TIP3   OH2 2426   7.140   0.733   5.777
  828TIP3    H1 2427   7.225   0.778   5.775
  828TIP3    H2 2428   7.081   0.795   5.820
  829TIP3   OH2 2429   3.668   4.525   0.062
  829TIP3    H1 2430   3.738   4.492   0.005
  829TIP3    H2 2431   3.711   4.542   0.146
  830TIP3   OH2 2432   6.116   7.284   4.472
  830TIP3    H1 2433   6.195   7.270   4.419
  830TIP3    H2 2434   6.046   7.297   4.407
  831TIP3   OH2 2435   3.393   5.129   0.161
  831TIP3    H1 2436   3.334   5.195   0.125
  831TIP3    H2 2437   3.481   5.167   0.150
  832TIP3   OH2 2438   4.672   6.629   5.814
  832TIP3    H1 2439   4.735   6.613   5.884
  832TIP3    H2 2440   4.711   6.589   5.737
  833TIP3   OH2 2441   7.804   2.333   3.450
  833TIP3    H1 2442   7.770   2.393   3.516
  833TIP3    H2 2443   7.827   2.254   3.498
  834TIP3   OH2 2444   5.992   5.973   0.030
  834TIP3    H1 2445   6.064   6.032   0.008
  834TIP3    H2 2446   5.952   6.012   0.108
  835TIP3   OH2 2447   0.523   2.393   3.709
  835TIP3    H1 2448   0.472   2.329   3.660
  835TIP3    H2 2449   0.495   2.478   3.674
  836TIP3   OH2 2450   1.188   7.086   5.521
  836TIP3    H1 2451   1.254   7.026   5.485
  836TIP3    H2 2452   1.144   7.035   5.590
  837TIP3   OH2 2453   0.045   7.395   1.678
  837TIP3    H1 2454   0.064   7.304   1.699
  837TIP3    H2 2455  -0.038   7.392   1.629
  838TIP3   OH2 2456   5.767   6.016   1.854
  838TIP3    H1 2457   5.820   5.942   1.886
  838TIP3    H2 2458   5.775   6.011   1.759
  839TIP3   OH2 2459   4.079   0.025   3.143
  839TIP3    H1 2460   4.022   0.101   3.130
  839TIP3    H2 2461   4.073  -0.024   3.061
  840TIP3   OH2 2462   4.443   0.127   1.137
  840TIP3    H1 2463   4.428   0.110   1.044
  840TIP3    H2 2464   4.536   0.108   1.150
  841TIP3   OH2 2465   2.564   5.497   5.044
  841TIP3    H1 2466   2.592   5.436   4.976
  841TIP3    H2 2467   2.549   5.579   4.997
  842TIP3   OH2 2468   0.956   7.293   5.430
  842TIP3    H1 2469   0.934   7.380   5.462
  842TIP3    H2 2470   1.016   7.309   5.357
  843TIP3   OH2 2471   1.707   5.417   4.252
  843TIP3    H1 2472   1.659   5.336   4.236
  843TIP3    H2 2473   1.686   5.473   4.178
  844TIP3   OH2 2474   0.105   5.620   4.339
  844TIP3    H1 2475   0.038   5.553   4.349
  844TIP3    H2 2476   0.151   5.597   4.259
  845TIP3   OH2 2477   8.245   6.527   4.791
  845TIP3    H1 2478   8.173   6.504   4.849
  845TIP3    H2 2479   8.224   6.614   4.758
  846TIP3   OH2 2480   8.311   0.517   2.292
  846TIP3    H1 2481   8.266   0.536   2.375
  846TIP3    H2 2482   8.255   0.452   2.249
  847TIP3   OH2 2483   4.458   6.146   4.811
  847TIP3    H1 2484   4.538   6.121   4.857
  847TIP3    H2 2485   4.390   6.144   4.878
  848TIP3   OH2 2486   0.186   2.884   0.700
  848TIP3    H1 2487   0.264   2.895   0.754
  848TIP3    H2 2488   0.185   2.959   0.642
  849TIP3   OH2 2489   4.036   0.463   0.390
  849TIP3    H1 2490   4.022   0.380   0.434
  849TIP3    H2 2491   3.987   0.527   0.443
  850TIP3   OH2 2492   7.006   2.672   3.987
  850TIP3    H1 2493   7.075   2.695   3.925
  850TIP3    H2 2494   6.928   2.658   3.933
  851TIP3   OH2 2495   2.111   5.971   1.670
  851TIP3    H1 2496   2.073   5.884   1.684
  851TIP3    H2 2497   2.039   6.031   1.687
  852TIP3   OH2 2498   1.550   5.691   0.197
  852TIP3    H1 2499   1.551   5.674   0.291
  852TIP3    H2 2500   1.641   5.708   0.175
  853TIP3   OH2 2501   1.979   4.801   6.414
  853TIP3    H1 2502   1.987   4.706   6.420
  853TIP3    H2 2503   2.061   4.829   6.372
  854TIP3   OH2 2504   1.160   1.514   4.714
  854TIP3    H1 2505   1.081   1.468   4.685
  854TIP3    H2 2506   1.151   1.602   4.679
  855TIP3   OH2 2507   5.590   6.694   6.554
  855TIP3    H1 2508   5.662   6.705   6.616
  855TIP3    H2 2509   5.565   6.783   6.529
  856TIP3   OH2 2510   3.674   6.853   2.802
  856TIP3    H1 2511   3.700   6.813   2.885
  856TIP3    H2 2512   3.724   6.935   2.798
  857TIP3   OH2 2513   4.877   2.829   1.717
  857TIP3    H1 2514   4.922   2.899   1.671
  857TIP3    H2 2515   4.945   2.766   1.738
  858TIP3   OH2 2516   4.331   2.239   2.699
  858TIP3    H1 2517   4.353   2.164   2.755
  858TIP3    H2 2518   4.245   2.266   2.728
  859TIP3   OH2 2519   7.418   2.091   3.049
  859TIP3    H1 2520   7.425   1.995   3.050
  859TIP3    H2 2521   7.376   2.111   2.966
  860TIP3   OH2 2522   3.664   1.608   5.857
  860TIP3    H1 2523   3.729   1.538   5.863
  860TIP3    H2 2524   3.700   1.667   5.790
  861TIP3   OH2 2525   3.045   2.362   2.383
  861TIP3    H1 2526   2.955   2.337   2.404
  861TIP3    H2 2527   3.036   2.444   2.334
  862TIP3   OH2 2528   7.790   1.152   3.557
  862TIP3    H1 2529   7.819   1.122   3.471
  862TIP3    H2 2530   7.766   1.243   3.543
  863TIP3   OH2 2531   0.300   4.583   0.610
  863TIP3    H1 2532   0.290   4.502   0.661
  863TIP3    H2 2533   0.273   4.653   0.670
  864TIP3   OH2 2534   6.323   4.158   5.059
  864TIP3    H1 2535   6.328   4.250   5.034
  864TIP3    H2 2536   6.386   4.149   5.131
  865TIP3   OH2 2537   5.600   4.661   6.392
  865TIP3    H1 2538   5.515   4.617   6.383
  865TIP3    H2 2539   5.611   4.672   6.486
  866TIP3   OH2 2540   0.540   2.536   2.574
  866TIP3    H1 2541   0.504   2.497   2.654
  866TIP3    H2 2542   0.543   2.463   2.511
  867TIP3   OH2 2543   1.440   1.310   1.721
  867TIP3    H1 2544   1.427   1.337   1.812
  867TIP3    H2 2545   1.422   1.216   1.721
  868TIP3   OH2 2546   3.520   5.015   2.396
  868TIP3    H1 2547   3.536   5.104   2.367
  868TIP3    H2 2548   3.450   5.022   2.461
  869TIP3   OH2 2549   6.497   5.318   4.533
  869TIP3    H1 2550   6.448   5.341   4.454
  869TIP3    H2 2551   6.453   5.368   4.603
  870TIP3   OH2 2552   7.877   2.861   2.149
  870TIP3    H1 2553   7.943   2.846   2.081
  870TIP3    H2 2554   7.898   2.797   2.217
  871TIP3   OH2 2555   3.686   0.296   4.000
  871TIP3    H1 2556   3.731   0.335   4.075
  871TIP3    H2 2557   3.611   0.252   4.038
  872TIP3   OH2 2558   6.969   6.813   0.423
  872TIP3    H1 2559   6.937   6.880   0.363
  872TIP3    H2 2560   7.053   6.847   0.455
  873TIP3   OH2 2561   7.234   1.029   5.880
  873TIP3    H1 2562   7.229   1.118   5.915
  873TIP3    H2 2563   7.265   1.040   5.790
  874TIP3   OH2 2564   4.792   0.476   1.559
  874TIP3    H1 2565   4.723   0.525   1.514
  874TIP3    H2 2566   4.752   0.449   1.642
  875TIP3   OH2 2567   0.060   6.137   4.507
  875TIP3    H1 2568   0.113   6.137   4.586
  875TIP3    H2 2569   0.027   6.048   4.500
  876TIP3   OH2 2570   4.007   1.948   2.116
  876TIP3    H1 2571   3.976   1.916   2.201
  876TIP3    H2 2572   4.036   1.869   2.070
  877TIP3   OH2 2573   1.665   5.086   4.631
  877TIP3    H1 2574   1.651   5.049   4.718
  877TIP3    H2 2575   1.722   5.024   4.586
  878TIP3   OH2 2576   3.156   5.163   3.861
  878TIP3    H1 2577   3.117   5.211   3.935
  878TIP3    H2 2578   3.250   5.181   3.867
  879TIP3   OH2 2579   4.832   4.442   4.676
  879TIP3    H1 2580   4.759   4.394   4.717
  879TIP3    H2 2581   4.800   4.532   4.669
  880TIP3   OH2 2582   5.661   7.278   6.313
  880TIP3    H1 2583   5.686   7.225   6.237
  880TIP3    H2 2584   5.567   7.263   6.323
  881TIP3   OH2 2585   7.363   2.782   0.341
  881TIP3    H1 2586   7.333   2.854   0.285
  881TIP3    H2 2587   7.324   2.801   0.427
  882TIP3   OH2 2588   0.723   4.458   3.578
  882TIP3    H1 2589   0.711   4.363   3.584
  882TIP3    H2 2590   0.817   4.471   3.586
  883TIP3   OH2 2591   0.837   6.949   6.369
  883TIP3    H1 2592   0.769   6.903   6.319
  883TIP3    H2 2593   0.867   6.886   6.434
  884TIP3   OH2 2594   1.859   4.222   3.417
  884TIP3    H1 2595   1.898   4.190   3.336
  884TIP3    H2 2596   1.909   4.301   3.438
  885TIP3   OH2 2597   3.500   1.214   3.536
  885TIP3    H1 2598   3.587   1.205   3.577
  885TIP3    H2 2599   3.478   1.306   3.546
  886TIP3   OH2 2600   6.482   1.090   5.905
  886TIP3    H1 2601   6.443   1.127   5.984
  886TIP3    H2 2602   6.407   1.070   5.849
  887TIP3   OH2 2603   3.971   3.803   6.236
  887TIP3    H1 2604   3.934   3.738   6.295
  887TIP3    H2 2605   4.001   3.874   6.293
  888TIP3   OH2 2606   5.716   4.459   2.503
  888TIP3    H1 2607   5.811   4.474   2.502
  888TIP3    H2 2608   5.681   4.535   2.550
  889TIP3   OH2 2609   3.696   7.735   2.337
  889TIP3    H1 2610   3.737   7.787   2.407
  889TIP3    H2 2611   3.768   7.687   2.297
  890TIP3   OH2 2612   3.089   1.834   2.935
  890TIP3    H1 2613   3.080   1.889   3.013
  890TIP3    H2 2614   3.173   1.791   2.946
  891TIP3   OH2 2615   5.145   7.236   0.515
  891TIP3    H1 2616   5.182   7.156   0.478
  891TIP3    H2 2617   5.220   7.281   0.555
  892TIP3   OH2 2618   4.842   2.337   2.143
  892TIP3    H1 2619   4.803   2.337   2.230
  892TIP3    H2 2620   4.767   2.345   2.084
  893TIP3   OH2 2621   1.152   1.283   2.540
  893TIP3    H1 2622   1.236   1.272   2.495
  893TIP3    H2 2623   1.096   1.214   2.504
  894TIP3   OH2 2624   1.399   3.988   3.824
  894TIP3    H1 2625   1.308   3.966   3.803
  894TIP3    H2 2626   1.393   4.071   3.872
  895TIP3   OH2 2627   5.719   4.305   6.009
  895TIP3    H1 2628   5.712   4.375   6.074
  895TIP3    H2 2629   5.795   4.329   5.956
  896TIP3   OH2 2630   6.716   5.539   1.664
  896TIP3    H1 2631   6.786   5.604   1.670
  896TIP3    H2 2632   6.761   5.457   1.649
  897TIP3   OH2 2633   1.248   2.424   2.535
  897TIP3    H1 2634   1.235   2.485   2.607
  897TIP3    H2 2635   1.178   2.359   2.545
  898TIP3   OH2 2636   0.471   3.220   0.217
  898TIP3    H1 2637   0.385   3.179   0.221
  898TIP3    H2 2638   0.470   3.270   0.136
  899TIP3   OH2 2639   5.966   0.405   2.967
  899TIP3    H1 2640   5.896   0.361   3.015
  899TIP3    H2 2641   6.003   0.338   2.910
  900TIP3   OH2 2642   3.124   7.404   5.242
  900TIP3    H1 2643   3.134   7.395   5.337
  900TIP3    H2 2644   3.080   7.488   5.230
  901TIP3   OH2 2645   4.239   2.649   1.635
  901TIP3    H1 2646   4.208   2.736   1.607
  901TIP3    H2 2647   4.281   2.665   1.719
  902TIP3   OH2 2648   1.849   0.457   5.168
  902TIP3    H1 2649   1.818   0.486   5.253
  902TIP3    H2 2650   1.892   0.373   5.185
  903TIP3   OH2 2651   0.238   6.421   6.332
  903TIP3    H1 2652   0.195   6.396   6.414
  903TIP3    H2 2653   0.165   6.440   6.272
  904TIP3   OH2 2654   7.342   1.672   3.463
  904TIP3    H1 2655   7.416   1.717   3.503
  904TIP3    H2 2656   7.381   1.619   3.393
  905TIP3   OH2 2657  -0.001   7.407   4.452
  905TIP3    H1 2658   0.026   7.356   4.376
  905TIP3    H2 2659   0.022   7.353   4.528
  906TIP3   OH2 2660   3.459   2.079   6.035
  906TIP3    H1 2661   3.374   2.121   6.052
  906TIP3    H2 2662   3.446   1.987   6.059
  907TIP3   OH2 2663   3.825   3.731   5.682
  907TIP3    H1 2664   3.773   3.802   5.719
  907TIP3    H2 2665   3.915   3.764   5.683
  908TIP3   OH2 2666   6.522   2.923   1.128
  908TIP3    H1 2667   6.563   2.896   1.046
  908TIP3    H2 2668   6.593   2.918   1.193
  909TIP3   OH2 2669   6.879   6.657   6.407
  909TIP3    H1 2670   6.895   6.751   6.418
  909TIP3    H2 2671   6.790   6.653   6.370
  910TIP3   OH2 2672   4.356   4.392   6.388
  910TIP3    H1 2673   4.431   4.333   6.392
  910TIP3    H2 2674   4.373   4.458   6.455
  911TIP3   OH2 2675   5.012   0.661   4.931
  911TIP3    H1 2676   5.075   0.702   4.990
  911TIP3    H2 2677   5.065   0.630   4.857
  912TIP3   OH2 2678   2.223   3.109   4.506
  912TIP3    H1 2679   2.225   3.061   4.589
  912TIP3    H2 2680   2.277   3.186   4.522
  913TIP3   OH2 2681   1.765   4.080   0.868
  913TIP3    H1 2682   1.787   4.044   0.782
  913TIP3    H2 2683   1.754   4.174   0.852
  914TIP3   OH2 2684   8.251   3.013   2.536
  914TIP3    H1 2685   8.201   3.013   2.454
  914TIP3    H2 2686   8.227   3.095   2.579
  915TIP3   OH2 2687   6.839   6.226   3.362
  915TIP3    H1 2688   6.763   6.206   3.418
  915TIP3    H2 2689   6.909   6.171   3.396
  916TIP3   OH2 2690   4.872   5.677   3.969
  916TIP3    H1 2691   4.947   5.694   4.026
  916TIP3    H2 2692   4.883   5.586   3.941
  917TIP3   OH2 2693   4.888   2.035   2.970
  917TIP3    H1 2694   4.844   2.074   3.046
  917TIP3    H2 2695   4.953   1.976   3.008
  918TIP3   OH2 2696   1.687   4.331   1.959
  918TIP3    H1 2697   1.642   4.252   1.929
  918TIP3    H2 2698   1.622   4.377   2.012
  919TIP3   OH2 2699   7.640   0.386   0.018
  919TIP3    H1 2700   7.712   0.326   0.039
  919TIP3    H2 2701   7.564   0.349   0.061
  920TIP3   OH2 2702   4.356   2.202   5.896
  920TIP3    H1 2703   4.285   2.254   5.935
  920TIP3    H2 2704   4.355   2.120   5.946
  921TIP3   OH2 2705   1.187   0.279   4.499
  921TIP3    H1 2706   1.124   0.225   4.547
  921TIP3    H2 2707   1.150   0.286   4.411
  922TIP3   OH2 2708   2.421   2.690   0.783
  922TIP3    H1 2709   2.353   2.629   0.755
  922TIP3    H2 2710   2.488   2.634   0.822
  923TIP3   OH2 2711   6.819   4.285   5.963
  923TIP3    H1 2712   6.851   4.196   5.953
  923TIP3    H2 2713   6.885   4.328   6.019
  924TIP3   OH2 2714   1.634   0.848   2.165
  924TIP3    H1 2715   1.576   0.773   2.175
  924TIP3    H2 2716   1.722   0.810   2.161
  925TIP3   OH2 2717   5.427   6.065   5.304
  925TIP3    H1 2718   5.362   6.074   5.234
  925TIP3    H2 2719   5.377   6.031   5.378
  926TIP3   OH2 2720   3.962   0.868   4.854
  926TIP3    H1 2721   3.938   0.778   4.876
  926TIP3    H2 2722   3.908   0.922   4.912
  927TIP3   OH2 2723   5.364   3.764   5.386
  927TIP3    H1 2724   5.289   3.824   5.385
  927TIP3    H2 2725   5.440   3.822   5.379
  928TIP3   OH2 2726   0.491   4.202   4.144
  928TIP3    H1 2727   0.454   4.233   4.227
  928TIP3    H2 2728   0.510   4.283   4.096
  929TIP3   OH2 2729   2.423   5.479   4.009
  929TIP3    H1 2730   2.340   5.439   3.983
  929TIP3    H2 2731   2.482   5.464   3.935
  930TIP3   OH2 2732   1.583   5.533   4.762
  930TIP3    H1 2733   1.597   5.523   4.856
  930TIP3    H2 2734   1.636   5.463   4.723
  931TIP3   OH2 2735   5.172   6.993   4.510
  931TIP3    H1 2736   5.200   7.084   4.495
  931TIP3    H2 2737   5.249   6.951   4.548
  932TIP3   OH2 2738   0.903   3.617   5.791
  932TIP3    H1 2739   0.950   3.695   5.762
  932TIP3    H2 2740   0.887   3.631   5.884
  933TIP3   OH2 2741   3.508   1.871   2.706
  933TIP3    H1 2742   3.497   1.801   2.642
  933TIP3    H2 2743   3.550   1.828   2.781
  934TIP3   OH2 2744   0.645   5.602   6.215
  934TIP3    H1 2745   0.685   5.521   6.182
  934TIP3    H2 2746   0.658   5.666   6.145
  935TIP3   OH2 2747   6.996   6.457   3.663
  935TIP3    H1 2748   7.091   6.466   3.664
  935TIP3    H2 2749   6.980   6.366   3.690
  936TIP3   OH2 2750   2.297   3.070   4.864
  936TIP3    H1 2751   2.259   3.013   4.930
  936TIP3    H2 2752   2.261   3.038   4.781
  937TIP3   OH2 2753   3.757   2.452   1.934
  937TIP3    H1 2754   3.797   2.379   1.982
  937TIP3    H2 2755   3.830   2.499   1.895
  938TIP3   OH2 2756   7.391   6.056   3.631
  938TIP3    H1 2757   7.383   6.141   3.674
  938TIP3    H2 2758   7.477   6.024   3.657
  939TIP3   OH2 2759   6.409   1.249   4.964
  939TIP3    H1 2760   6.329   1.293   4.992
  939TIP3    H2 2761   6.479   1.312   4.984
  940TIP3   OH2 2762   7.317   6.484   1.964
  940TIP3    H1 2763   7.231   6.462   1.998
  940TIP3    H2 2764   7.351   6.549   2.025
  941TIP3   OH2 2765   6.458   2.223   0.558
  941TIP3    H1 2766   6.470   2.300   0.502
  941TIP3    H2 2767   6.510   2.154   0.516
  942TIP3   OH2 2768   6.860   4.805   2.671
  942TIP3    H1 2769   6.811   4.731   2.706
  942TIP3    H2 2770   6.925   4.826   2.738
  943TIP3   OH2 2771   3.510   5.713   4.740
  943TIP3    H1 2772   3.585   5.709   4.799
  943TIP3    H2 2773   3.549   5.717   4.652
  944TIP3   OH2 2774   8.226   6.820   4.724
  944TIP3    H1 2775   8.151   6.867   4.689
  944TIP3    H2 2776   8.299   6.845   4.667
  945TIP3   OH2 2777   7.504   1.509   5.141
  945TIP3    H1 2778   7.433   1.475   5.196
  945TIP3    H2 2779   7.569   1.540   5.203
  946TIP3   OH2 2780   0.778   2.894   1.862
  946TIP3    H1 2781   0.820   2.972   1.898
  946TIP3    H2 2782   0.688   2.899   1.894
  947TIP3   OH2 2783   4.135   0.720   1.301
  947TIP3    H1 2784   4.151   0.803   1.257
  947TIP3    H2 2785   4.125   0.743   1.394
  948TIP3   OH2 2786   1.259   5.623   3.476
  948TIP3    H1 2787   1.199   5.566   3.523
  948TIP3    H2 2788   1.203   5.673   3.416
  949TIP3   OH2 2789   4.580   5.011   3.537
  949TIP3    H1 2790   4.497   5.054   3.520
  949TIP3    H2 2791   4.611   5.050   3.619
  950TIP3   OH2 2792   2.351   5.771   1.543
  950TIP3    H1 2793   2.264   5.793   1.576
  950TIP3    H2 2794   2.375   5.844   1.486
  951TIP3   OH2 2795   1.327   1.684   5.645
  951TIP3    H1 2796   1.315   1.684   5.740
  951TIP3    H2 2797   1.240   1.664   5.610
  952TIP3   OH2 2798   7.726   0.248   3.810
  952TIP3    H1 2799   7.695   0.161   3.837
  952TIP3    H2 2800   7.819   0.248   3.832
  953TIP3   OH2 2801   4.539   6.640   0.187
  953TIP3    H1 2802   4.629   6.608   0.173
  953TIP3    H2 2803   4.495   6.624   0.104
  954TIP3   OH2 2804   3.800   5.861   6.756
  954TIP3    H1 2805   3.760   5.823   6.678
  954TIP3    H2 2806   3.761   5.813   6.830
  955TIP3   OH2 2807   2.242   0.677   5.336
  955TIP3    H1 2808   2.218   0.585   5.321
  955TIP3    H2 2809   2.165   0.716   5.375
  956TIP3   OH2 2810   0.314   2.963   6.567
  956TIP3    H1 2811   0.286   2.873   6.583
  956TIP3    H2 2812   0.240   3.017   6.594
  957TIP3   OH2 2813   2.533   4.947   6.123
  957TIP3    H1 2814   2.569   4.863   6.151
  957TIP3    H2 2815   2.565   5.009   6.188
  958TIP3   OH2 2816   2.763   4.931   2.431
  958TIP3    H1 2817   2.705   4.983   2.375
  958TIP3    H2 2818   2.834   4.904   2.373
  959TIP3   OH2 2819   7.477   4.602   4.874
  959TIP3    H1 2820   7.441   4.663   4.938
  959TIP3    H2 2821   7.510   4.529   4.926
  960TIP3   OH2 2822   7.837   3.289   2.433
  960TIP3    H1 2823   7.750   3.300   2.396
  960TIP3    H2 2824   7.823   3.237   2.512
  961TIP3   OH2 2825   1.283   3.880   0.258
  961TIP3    H1 2826   1.333   3.859   0.179
  961TIP3    H2 2827   1.345   3.927   0.314
  962TIP3   OH2 2828   1.930   6.510   2.161
  962TIP3    H1 2829   2.004   6.458   2.129
  962TIP3    H2 2830   1.895   6.460   2.234
  963TIP3   OH2 2831   2.644   4.808   0.048
  963TIP3    H1 2832   2.594   4.872   0.099
  963TIP3    H2 2833   2.583   4.779  -0.020
  964TIP3   OH2 2834   2.655   0.293   0.326
  964TIP3    H1 2835   2.644   0.260   0.237
  964TIP3    H2 2836   2.566   0.304   0.359
  965TIP3   OH2 2837   8.194   4.019   0.656
  965TIP3    H1 2838   8.157   4.008   0.743
  965TIP3    H2 2839   8.258   4.089   0.665
  966TIP3   OH2 2840   0.543   3.578   5.092
  966TIP3    H1 2841   0.593   3.511   5.139
  966TIP3    H2 2842   0.608   3.622   5.037
  967TIP3   OH2 2843   2.398   6.423   0.972
  967TIP3    H1 2844   2.309   6.393   0.992
  967TIP3    H2 2845   2.454   6.349   0.997
  968TIP3   OH2 2846   2.316   0.709   3.794
  968TIP3    H1 2847   2.327   0.616   3.772
  968TIP3    H2 2848   2.391   0.729   3.851
  969TIP3   OH2 2849   7.477   5.435   5.349
  969TIP3    H1 2850   7.538   5.482   5.405
  969TIP3    H2 2851   7.455   5.355   5.397
  970TIP3   OH2 2852   7.240   0.890   4.980
  970TIP3    H1 2853   7.193   0.818   5.022
  970TIP3    H2 2854   7.280   0.851   4.902
  971TIP3   OH2 2855   1.679   4.135   5.869
  971TIP3    H1 2856   1.695   4.073   5.941
  971TIP3    H2 2857   1.754   4.195   5.873
  972TIP3   OH2 2858   2.439   4.648   2.492
  972TIP3    H1 2859   2.445   4.731   2.446
  972TIP3    H2 2860   2.346   4.627   2.493
  973TIP3   OH2 2861   6.640   4.810   4.863
  973TIP3    H1 2862   6.722   4.821   4.814
  973TIP3    H2 2863   6.592   4.891   4.847
  974TIP3   OH2 2864   2.244   6.730   5.831
  974TIP3    H1 2865   2.323   6.758   5.784
  974TIP3    H2 2866   2.226   6.642   5.798
  975TIP3   OH2 2867   5.219   6.042   0.729
  975TIP3    H1 2868   5.204   5.953   0.695
  975TIP3    H2 2869   5.204   6.035   0.823
  976TIP3   OH2 2870   4.956   1.200   5.840
  976TIP3    H1 2871   4.865   1.170   5.832
  976TIP3    H2 2872   4.953   1.293   5.820
  977TIP3   OH2 2873   2.280   2.567   2.681
  977TIP3    H1 2874   2.326   2.485   2.666
  977TIP3    H2 2875   2.314   2.626   2.614
  978TIP3   OH2 2876   3.218   6.123   0.494
  978TIP3    H1 2877   3.131   6.086   0.507
  978TIP3    H2 2878   3.231   6.121   0.399
  979TIP3   OH2 2879   6.980   1.758   6.677
  979TIP3    H1 2880   6.964   1.663   6.672
  979TIP3    H2 2881   7.025   1.770   6.760
  980TIP3   OH2 2882   2.963   1.905   0.987
  980TIP3    H1 2883   2.950   1.823   0.940
  980TIP3    H2 2884   2.941   1.974   0.924
  981TIP3   OH2 2885   7.347   7.398   4.042
  981TIP3    H1 2886   7.305   7.312   4.050
  981TIP3    H2 2887   7.433   7.386   4.082
  982TIP3   OH2 2888   7.683   3.920   4.383
  982TIP3    H1 2889   7.670   3.840   4.333
  982TIP3    H2 2890   7.596   3.958   4.393
  983TIP3   OH2 2891   2.461   6.942   2.818
  983TIP3    H1 2892   2.502   6.862   2.851
  983TIP3    H2 2893   2.381   6.952   2.869
  984TIP3   OH2 2894   7.403   2.654   6.071
  984TIP3    H1 2895   7.460   2.606   6.010
  984TIP3    H2 2896   7.390   2.739   6.028
  985TIP3   OH2 2897   4.608   3.020   0.130
  985TIP3    H1 2898   4.672   3.083   0.164
  985TIP3    H2 2899   4.560   2.991   0.208
  986TIP3   OH2 2900   2.855   5.145   1.180
  986TIP3    H1 2901   2.938   5.150   1.226
  986TIP3    H2 2902   2.818   5.061   1.207
  987TIP3   OH2 2903   7.329   5.458   6.152
  987TIP3    H1 2904   7.357   5.532   6.206
  987TIP3    H2 2905   7.385   5.385   6.181
  988TIP3   OH2 2906   3.255   3.281   4.206
  988TIP3    H1 2907   3.316   3.355   4.202
  988TIP3    H2 2908   3.234   3.263   4.114
  989TIP3   OH2 2909   0.782   1.277   0.083
  989TIP3    H1 2910   0.851   1.212   0.094
  989TIP3    H2 2911   0.781   1.325   0.166
  990TIP3   OH2 2912   2.935   3.694   5.321
  990TIP3    H1 2913   2.953   3.788   5.314
  990TIP3    H2 2914   3.015   3.651   5.292
  991TIP3   OH2 2915   2.441   7.427   3.273
  991TIP3    H1 2916   2.485   7.364   3.330
  991TIP3    H2 2917   2.472   7.512   3.304
  992TIP3   OH2 2918   5.201   4.142   2.582
  992TIP3    H1 2919   5.281   4.118   2.630
  992TIP3    H2 2920   5.225   4.135   2.490
  993TIP3   OH2 2921   7.549   5.243   1.789
  993TIP3    H1 2922   7.506   5.307   1.732
  993TIP3    H2 2923   7.534   5.276   1.878
  994TIP3   OH2 2924   5.928   0.426   0.079
  994TIP3    H1 2925   6.007   0.374   0.094
  994TIP3    H2 2926   5.960   0.514   0.061
  995TIP3   OH2 2927   3.464   6.659   3.470
  995TIP3    H1 2928   3.460   6.754   3.483
  995TIP3    H2 2929   3.372   6.631   3.470
  996TIP3   OH2 2930   0.391   3.747   2.662
  996TIP3    H1 2931   0.377   3.767   2.755
  996TIP3    H2 2932   0.431   3.826   2.626
  997TIP3   OH2 2933   7.926   5.243   0.378
  997TIP3    H1 2934   7.913   5.292   0.459
  997TIP3    H2 2935   8.016   5.213   0.381
  998TIP3   OH2 2936   5.707   2.388   6.217
  998TIP3    H1 2937   5.740   2.439   6.291
  998TIP3    H2 2938   5.695   2.453   6.147
  999TIP3   OH2 2939   6.803   3.362   5.021
  999TIP3    H1 2940   6.885   3.360   4.973
  999TIP3    H2 2941   6.741   3.316   4.964
 1000TIP3   OH2 2942   3.439   6.179   6.614
 1000TIP3    H1 2943   3.400   6.103   6.658
 1000TIP3    H2 2944   3.461   6.147   6.526
 1001TIP3   OH2 2945   4.784   5.616   5.810
 1001TIP3    H1 2946   4.831   5.533   5.811
 1001TIP3    H2 2947   4.768   5.634   5.718
 1002TIP3   OH2 2948   1.168   2.011   6.588
 1002TIP3    H1 2949   1.152   1.941   6.525
 1002TIP3    H2 2950   1.142   1.975   6.672
 1003TIP3   OH2 2951   6.739   4.827   5.205
 1003TIP3    H1 2952   6.743   4.736   5.176
 1003TIP3    H2 2953   6.685   4.825   5.284
 1004TIP3   OH2 2954   2.999   6.853   3.804
 1004TIP3    H1 2955   3.089   6.873   3.777
 1004TIP3    H2 2956   3.008   6.811   3.889
 1005TIP3   OH2 2957   2.392   3.885   3.707
 1005TIP3    H1 2958   2.380   3.952   3.775
 1005TIP3    H2 2959   2.430   3.810   3.754
 1006TIP3   OH2 2960   1.397   2.007   0.098
 1006TIP3    H1 2961   1.346   2.082   0.128
 1006TIP3    H2 2962   1.377   1.938   0.160
 1007TIP3   OH2 2963   3.974   5.521   1.951
 1007TIP3    H1 2964   3.988   5.434   1.914
 1007TIP3    H2 2965   4.052   5.538   2.003
 1008TIP3   OH2 2966   8.164   3.408   0.997
 1008TIP3    H1 2967   8.091   3.356   1.030
 1008TIP3    H2 2968   8.236   3.392   1.059
 1009TIP3   OH2 2969   2.934   4.217   5.504
 1009TIP3    H1 2970   2.872   4.289   5.490
 1009TIP3    H2 2971   2.918   4.158   5.431
 1010TIP3   OH2 2972   4.262   6.402   3.577
 1010TIP3    H1 2973   4.221   6.433   3.496
 1010TIP3    H2 2974   4.204   6.434   3.646
 1011TIP3   OH2 2975   7.673   0.717   4.660
 1011TIP3    H1 2976   7.689   0.704   4.566
 1011TIP3    H2 2977   7.611   0.790   4.663
 1012TIP3   OH2 2978   3.470   1.313   4.002
 1012TIP3    H1 2979   3.474   1.241   3.939
 1012TIP3    H2 2980   3.559   1.348   4.005
 1013TIP3   OH2 2981   1.360   3.043   5.963
 1013TIP3    H1 2982   1.286   2.988   5.989
 1013TIP3    H2 2983   1.437   2.990   5.983
 1014TIP3   OH2 2984   5.282   6.156   4.531
 1014TIP3    H1 2985   5.191   6.137   4.554
 1014TIP3    H2 2986   5.333   6.118   4.602
 1015TIP3   OH2 2987   5.775   5.956   1.568
 1015TIP3    H1 2988   5.816   5.869   1.576
 1015TIP3    H2 2989   5.695   5.940   1.518
 1016TIP3   OH2 2990   3.823   6.569   2.852
 1016TIP3    H1 2991   3.761   6.496   2.842
 1016TIP3    H2 2992   3.786   6.621   2.923
 1017TIP3   OH2 2993   1.859   4.809   1.233
 1017TIP3    H1 2994   1.874   4.721   1.196
 1017TIP3    H2 2995   1.802   4.852   1.169
 1018TIP3   OH2 2996   2.035   7.218   1.503
 1018TIP3    H1 2997   2.107   7.277   1.525
 1018TIP3    H2 2998   1.994   7.258   1.426
 1019TIP3   OH2 2999   4.295   2.450   1.868
 1019TIP3    H1 3000   4.376   2.471   1.821
 1019TIP3    H2 3001   4.305   2.492   1.953
 1020TIP3   OH2 3002   0.677   2.315   0.462
 1020TIP3    H1 3003   0.682   2.353   0.550
 1020TIP3    H2 3004   0.608   2.249   0.468
 1021TIP3   OH2 3005   5.963   1.597   4.076
 1021TIP3    H1 3006   5.900   1.669   4.065
 1021TIP3    H2 3007   5.936   1.555   4.158
 1022TIP3   OH2 3008   1.112   7.511   2.605
 1022TIP3    H1 3009   1.037   7.453   2.619
 1022TIP3    H2 3010   1.075   7.600   2.609
 1023TIP3   OH2 3011   0.664   4.125   6.550
 1023TIP3    H1 3012   0.594   4.171   6.596
 1023TIP3    H2 3013   0.743   4.147   6.599
 1024TIP3   OH2 3014   6.190   2.808   3.470
 1024TIP3    H1 3015   6.251   2.854   3.528
 1024TIP3    H2 3016   6.105   2.819   3.511
 1025TIP3   OH2 3017   5.983   0.395   6.122
 1025TIP3    H1 3018   5.980   0.331   6.051
 1025TIP3    H2 3019   5.924   0.465   6.094
 1026TIP3   OH2 3020   2.801   5.320   0.640
 1026TIP3    H1 3021   2.836   5.269   0.712
 1026TIP3    H2 3022   2.850   5.289   0.563
 1027TIP3   OH2 3023   2.946   7.443   1.797
 1027TIP3    H1 3024   3.002   7.501   1.849
 1027TIP3    H2 3025   2.988   7.441   1.711
 1028TIP3   OH2 3026   3.412   1.700   5.234
 1028TIP3    H1 3027   3.372   1.783   5.208
 1028TIP3    H2 3028   3.496   1.725   5.272
 1029TIP3   OH2 3029   5.392   2.708   4.082
 1029TIP3    H1 3030   5.449   2.758   4.141
 1029TIP3    H2 3031   5.415   2.616   4.098
 1030TIP3   OH2 3032   6.350   2.934   5.001
 1030TIP3    H1 3033   6.324   2.842   5.005
 1030TIP3    H2 3034   6.386   2.953   5.088
 1031TIP3   OH2 3035   1.039   7.186   1.733
 1031TIP3    H1 3036   1.115   7.245   1.729
 1031TIP3    H2 3037   0.992   7.203   1.652
 1032TIP3   OH2 3038   1.781   2.890   3.550
 1032TIP3    H1 3039   1.825   2.958   3.602
 1032TIP3    H2 3040   1.716   2.854   3.609
 1033TIP3   OH2 3041   5.468   3.950   4.408
 1033TIP3    H1 3042   5.522   3.886   4.361
 1033TIP3    H2 3043   5.409   3.897   4.461
 1034TIP3   OH2 3044   5.132   2.161   0.263
 1034TIP3    H1 3045   5.146   2.155   0.357
 1034TIP3    H2 3046   5.063   2.097   0.244
 1035TIP3   OH2 3047   5.268   1.548   2.689
 1035TIP3    H1 3048   5.248   1.458   2.665
 1035TIP3    H2 3049   5.191   1.598   2.661
 1036TIP3   OH2 3050   8.054   1.629   3.543
 1036TIP3    H1 3051   7.978   1.688   3.541
 1036TIP3    H2 3052   8.059   1.595   3.454
 1037TIP3   OH2 3053   2.231   0.075   2.803
 1037TIP3    H1 3054   2.268   0.004   2.855
 1037TIP3    H2 3055   2.299   0.095   2.738
 1038TIP3   OH2 3056   3.224   3.027   2.017
 1038TIP3    H1 3057   3.232   2.954   1.956
 1038TIP3    H2 3058   3.310   3.034   2.058
 1039TIP3   OH2 3059   1.197   6.289   5.229
 1039TIP3    H1 3060   1.234   6.328   5.309
 1039TIP3    H2 3061   1.272   6.284   5.169
 1040TIP3   OH2 3062   1.499   0.366   5.657
 1040TIP3    H1 3063   1.557   0.309   5.706
 1040TIP3    H2 3064   1.479   0.438   5.717
 1041TIP3   OH2 3065   7.591   1.951   1.406
 1041TIP3    H1 3066   7.673   1.923   1.445
 1041TIP3    H2 3067   7.595   1.919   1.315
 1042TIP3   OH2 3068   7.882   6.894   4.248
 1042TIP3    H1 3069   7.913   6.951   4.177
 1042TIP3    H2 3070   7.949   6.825   4.254
 1043TIP3   OH2 3071   3.850   1.015   1.877
 1043TIP3    H1 3072   3.938   0.986   1.902
 1043TIP3    H2 3073   3.856   1.029   1.783
 1044TIP3   OH2 3074   4.357   4.571   3.286
 1044TIP3    H1 3075   4.360   4.551   3.193
 1044TIP3    H2 3076   4.441   4.614   3.304
 1045TIP3   OH2 3077   3.670   3.163   4.969
 1045TIP3    H1 3078   3.711   3.078   4.985
 1045TIP3    H2 3079   3.628   3.154   4.884
 1046TIP3   OH2 3080   1.331   3.834   2.015
 1046TIP3    H1 3081   1.264   3.777   1.977
 1046TIP3    H2 3082   1.366   3.883   1.941
 1047TIP3   OH2 3083   5.022   2.447   0.536
 1047TIP3    H1 3084   4.939   2.401   0.520
 1047TIP3    H2 3085   5.082   2.378   0.564
 1048TIP3   OH2 3086   4.629   1.837   4.471
 1048TIP3    H1 3087   4.577   1.909   4.506
 1048TIP3    H2 3088   4.590   1.758   4.509
 1049TIP3   OH2 3089   0.372   0.414   0.358
 1049TIP3    H1 3090   0.388   0.374   0.443
 1049TIP3    H2 3091   0.315   0.489   0.377
 1050TIP3   OH2 3092   3.365   1.760   5.644
 1050TIP3    H1 3093   3.427   1.688   5.639
 1050TIP3    H2 3094   3.323   1.762   5.558
 1051TIP3   OH2 3095   8.085   1.979   1.789
 1051TIP3    H1 3096   8.168   2.007   1.751
 1051TIP3    H2 3097   8.070   1.891   1.753
 1052TIP3   OH2 3098   7.844   6.464   1.122
 1052TIP3    H1 3099   7.808   6.553   1.126
 1052TIP3    H2 3100   7.818   6.425   1.205
 1053TIP3   OH2 3101   3.706   2.258   4.587
 1053TIP3    H1 3102   3.724   2.173   4.628
 1053TIP3    H2 3103   3.645   2.301   4.647
 1054TIP3   OH2 3104   1.210   0.909   3.980
 1054TIP3    H1 3105   1.133   0.876   3.934
 1054TIP3    H2 3106   1.183   0.910   4.072
 1055TIP3   OH2 3107   1.662   4.674   0.138
 1055TIP3    H1 3108   1.701   4.748   0.093
 1055TIP3    H2 3109   1.734   4.612   0.149
 1056TIP3   OH2 3110   2.351   0.374   2.413
 1056TIP3    H1 3111   2.326   0.464   2.395
 1056TIP3    H2 3112   2.447   0.376   2.417
 1057TIP3   OH2 3113   4.232   0.218   5.220
 1057TIP3    H1 3114   4.163   0.183   5.276
 1057TIP3    H2 3115   4.311   0.173   5.249
 1058TIP3   OH2 3116   2.165   2.003   6.515
 1058TIP3    H1 3117   2.256   2.002   6.485
 1058TIP3    H2 3118   2.171   2.019   6.609
 1059TIP3   OH2 3119   0.119   4.826   2.829
 1059TIP3    H1 3120   0.146   4.735   2.812
 1059TIP3    H2 3121   0.200   4.871   2.851
 1060TIP3   OH2 3122   5.765   1.033   0.328
 1060TIP3    H1 3123   5.704   0.964   0.353
 1060TIP3    H2 3124   5.755   1.041   0.234
 1061TIP3   OH2 3125   7.200   3.514   0.771
 1061TIP3    H1 3126   7.293   3.504   0.752
 1061TIP3    H2 3127   7.192   3.604   0.805
 1062TIP3   OH2 3128   6.184   5.153   0.501
 1062TIP3    H1 3129   6.091   5.165   0.482
 1062TIP3    H2 3130   6.199   5.202   0.582
 1063TIP3   OH2 3131   7.100   6.012   6.252
 1063TIP3    H1 3132   7.147   5.949   6.307
 1063TIP3    H2 3133   7.034   6.051   6.310
 1064TIP3   OH2 3134   2.510   5.302   5.601
 1064TIP3    H1 3135   2.596   5.339   5.582
 1064TIP3    H2 3136   2.528   5.224   5.654
 1065TIP3   OH2 3137   5.965   6.789   0.071
 1065TIP3    H1 3138   6.013   6.739   0.005
 1065TIP3    H2 3139   5.904   6.843   0.021
 1066TIP3   OH2 3140   4.748   1.023   2.151
 1066TIP3    H1 3141   4.805   1.096   2.127
 1066TIP3    H2 3142   4.680   1.023   2.084
 1067TIP3   OH2 3143   6.393   7.602   0.270
 1067TIP3    H1 3144   6.357   7.616   0.357
 1067TIP3    H2 3145   6.412   7.690   0.237
 1068TIP3   OH2 3146   7.929   7.727   3.443
 1068TIP3    H1 3147   7.884   7.643   3.434
 1068TIP3    H2 3148   7.918   7.769   3.357
 1069TIP3   OH2 3149   6.336   6.196   3.932
 1069TIP3    H1 3150   6.396   6.135   3.890
 1069TIP3    H2 3151   6.262   6.143   3.958
 1070TIP3   OH2 3152   4.675   2.403   5.917
 1070TIP3    H1 3153   4.614   2.405   5.991
 1070TIP3    H2 3154   4.621   2.376   5.843
 1071TIP3   OH2 3155   8.206   4.257   1.451
 1071TIP3    H1 3156   8.195   4.347   1.422
 1071TIP3    H2 3157   8.145   4.207   1.397
 1072TIP3   OH2 3158   8.143   0.295   2.970
 1072TIP3    H1 3159   8.214   0.355   2.948
 1072TIP3    H2 3160   8.147   0.285   3.065
 1073TIP3   OH2 3161   4.060   5.436   1.293
 1073TIP3    H1 3162   3.970   5.466   1.284
 1073TIP3    H2 3163   4.106   5.477   1.220
 1074TIP3   OH2 3164   7.300   1.102   1.954
 1074TIP3    H1 3165   7.212   1.071   1.977
 1074TIP3    H2 3166   7.315   1.174   2.015
 1075TIP3   OH2 3167   4.040   6.185   0.868
 1075TIP3    H1 3168   4.083   6.156   0.949
 1075TIP3    H2 3169   4.081   6.269   0.848
 1076TIP3   OH2 3170   7.932   1.559   4.121
 1076TIP3    H1 3171   7.848   1.582   4.082
 1076TIP3    H2 3172   7.917   1.563   4.215
 1077TIP3   OH2 3173   3.793   1.061   1.613
 1077TIP3    H1 3174   3.809   1.040   1.521
 1077TIP3    H2 3175   3.699   1.077   1.617
 1078TIP3   OH2 3176   2.902   1.059   1.726
 1078TIP3    H1 3177   2.960   1.060   1.802
 1078TIP3    H2 3178   2.817   1.032   1.760
 1079TIP3   OH2 3179   3.962   6.666   1.991
 1079TIP3    H1 3180   3.928   6.629   1.910
 1079TIP3    H2 3181   3.905   6.741   2.008
 1080TIP3   OH2 3182   7.292   0.363   5.459
 1080TIP3    H1 3183   7.287   0.431   5.392
 1080TIP3    H2 3184   7.385   0.348   5.472
 1081TIP3   OH2 3185   2.737   0.281   5.920
 1081TIP3    H1 3186   2.794   0.356   5.935
 1081TIP3    H2 3187   2.649   0.311   5.944
 1082TIP3   OH2 3188   2.944   2.109   2.142
 1082TIP3    H1 3189   2.927   2.175   2.075
 1082TIP3    H2 3190   2.860   2.064   2.154
 1083TIP3   OH2 3191   3.185   3.466   2.426
 1083TIP3    H1 3192   3.184   3.406   2.500
 1083TIP3    H2 3193   3.110   3.524   2.441
 1084TIP3   OH2 3194   7.524   1.723   4.305
 1084TIP3    H1 3195   7.614   1.703   4.327
 1084TIP3    H2 3196   7.485   1.754   4.387
 1085TIP3   OH2 3197   1.809   5.963   3.271
 1085TIP3    H1 3198   1.828   5.873   3.296
 1085TIP3    H2 3199   1.755   5.955   3.193
 1086TIP3   OH2 3200   6.590   0.238   5.674
 1086TIP3    H1 3201   6.560   0.177   5.742
 1086TIP3    H2 3202   6.538   0.216   5.597
 1087TIP3   OH2 3203   7.225   5.765   5.661
 1087TIP3    H1 3204   7.272   5.731   5.585
 1087TIP3    H2 3205   7.273   5.729   5.736
 1088TIP3   OH2 3206   5.599   3.092   5.482
 1088TIP3    H1 3207   5.580   3.017   5.537
 1088TIP3    H2 3208   5.517   3.142   5.480
 1089TIP3   OH2 3209   7.504   1.034   3.368
 1089TIP3    H1 3210   7.600   1.039   3.363
 1089TIP3    H2 3211   7.477   1.000   3.283
 1090TIP3   OH2 3212   7.930   5.708   0.256
 1090TIP3    H1 3213   7.906   5.797   0.281
 1090TIP3    H2 3214   7.848   5.658   0.264
 1091TIP3   OH2 3215   5.543   1.678   4.301
 1091TIP3    H1 3216   5.602   1.727   4.358
 1091TIP3    H2 3217   5.601   1.628   4.244
 1092TIP3   OH2 3218   0.453   2.747   4.855
 1092TIP3    H1 3219   0.477   2.834   4.886
 1092TIP3    H2 3220   0.426   2.700   4.934
 1093TIP3   OH2 3221   1.366   7.206   2.098
 1093TIP3    H1 3222   1.271   7.217   2.095
 1093TIP3    H2 3223   1.396   7.226   2.009
 1094TIP3   OH2 3224   1.040   0.627   4.236
 1094TIP3    H1 3225   1.012   0.545   4.276
 1094TIP3    H2 3226   1.133   0.614   4.217
 1095TIP3   OH2 3227   3.976   4.569   3.056
 1095TIP3    H1 3228   3.941   4.499   3.001
 1095TIP3    H2 3229   4.069   4.549   3.064
 1096TIP3   OH2 3230   0.329   2.918   4.055
 1096TIP3    H1 3231   0.350   2.949   3.967
 1096TIP3    H2 3232   0.411   2.879   4.086
 1097TIP3   OH2 3233   8.018   6.311   2.114
 1097TIP3    H1 3234   7.964   6.263   2.051
 1097TIP3    H2 3235   7.957   6.335   2.183
 1098TIP3   OH2 3236   5.991   7.714   0.063
 1098TIP3    H1 3237   5.903   7.732   0.030
 1098TIP3    H2 3238   6.010   7.787   0.122
 1099TIP3   OH2 3239   5.548   5.284   0.924
 1099TIP3    H1 3240   5.472   5.342   0.915
 1099TIP3    H2 3241   5.624   5.341   0.908
 1100TIP3   OH2 3242   5.340   2.027   2.505
 1100TIP3    H1 3243   5.426   2.062   2.526
 1100TIP3    H2 3244   5.356   1.937   2.477
 1101TIP3   OH2 3245   2.168   2.770   3.996
 1101TIP3    H1 3246   2.223   2.708   4.043
 1101TIP3    H2 3247   2.186   2.855   4.037
 1102TIP3   OH2 3248   3.275   4.913   0.034
 1102TIP3    H1 3249   3.271   4.843   0.099
 1102TIP3    H2 3250   3.319   4.985   0.079
 1103TIP3   OH2 3251   4.663   4.680   2.576
 1103TIP3    H1 3252   4.650   4.726   2.659
 1103TIP3    H2 3253   4.719   4.738   2.525
 1104TIP3   OH2 3254   6.336   5.270   3.656
 1104TIP3    H1 3255   6.358   5.223   3.737
 1104TIP3    H2 3256   6.265   5.220   3.617
 1105TIP3   OH2 3257   1.794   2.307   4.323
 1105TIP3    H1 3258   1.776   2.354   4.242
 1105TIP3    H2 3259   1.722   2.245   4.332
 1106TIP3   OH2 3260   6.986   0.087   2.014
 1106TIP3    H1 3261   6.929   0.111   1.941
 1106TIP3    H2 3262   6.926   0.063   2.085
 1107TIP3   OH2 3263   5.984   1.580   2.366
 1107TIP3    H1 3264   6.057   1.530   2.402
 1107TIP3    H2 3265   6.007   1.671   2.383
 1108TIP3   OH2 3266   3.400   6.208   2.354
 1108TIP3    H1 3267   3.359   6.188   2.270
 1108TIP3    H2 3268   3.358   6.148   2.416
 1109TIP3   OH2 3269   0.307   6.730   1.339
 1109TIP3    H1 3270   0.312   6.814   1.293
 1109TIP3    H2 3271   0.372   6.675   1.296
 1110TIP3   OH2 3272   5.146   4.957   0.700
 1110TIP3    H1 3273   5.065   4.990   0.660
 1110TIP3    H2 3274   5.132   4.967   0.794
 1111TIP3   OH2 3275   8.142   6.865   0.908
 1111TIP3    H1 3276   8.110   6.920   0.980
 1111TIP3    H2 3277   8.158   6.780   0.948
 1112TIP3   OH2 3278   2.613   4.151   6.161
 1112TIP3    H1 3279   2.556   4.228   6.161
 1112TIP3    H2 3280   2.584   4.099   6.085
 1113TIP3   OH2 3281   6.456   1.815   6.613
 1113TIP3    H1 3282   6.532   1.762   6.589
 1113TIP3    H2 3283   6.462   1.822   6.709
 1114TIP3   OH2 3284   1.405   0.669   0.068
 1114TIP3    H1 3285   1.339   0.664   0.136
 1114TIP3    H2 3286   1.400   0.585   0.022
 1115TIP3   OH2 3287   1.715   4.936   2.359
 1115TIP3    H1 3288   1.700   5.030   2.362
 1115TIP3    H2 3289   1.631   4.899   2.330
 1116TIP3   OH2 3290   7.478   4.905   5.757
 1116TIP3    H1 3291   7.444   4.881   5.843
 1116TIP3    H2 3292   7.482   5.000   5.758
 1117TIP3   OH2 3293   5.843   6.704   3.445
 1117TIP3    H1 3294   5.801   6.790   3.456
 1117TIP3    H2 3295   5.774   6.647   3.411
 1118TIP3   OH2 3296   4.402   2.214   5.439
 1118TIP3    H1 3297   4.415   2.293   5.387
 1118TIP3    H2 3298   4.331   2.168   5.395
 1119TIP3   OH2 3299   7.243   5.115   1.536
 1119TIP3    H1 3300   7.301   5.057   1.487
 1119TIP3    H2 3301   7.243   5.080   1.625
 1120TIP3   OH2 3302   1.250   1.452   6.220
 1120TIP3    H1 3303   1.200   1.401   6.156
 1120TIP3    H2 3304   1.271   1.534   6.176
 1121TIP3   OH2 3305   7.851   6.178   2.399
 1121TIP3    H1 3306   7.795   6.142   2.467
 1121TIP3    H2 3307   7.909   6.105   2.375
 1122TIP3   OH2 3308   4.844   1.116   3.584
 1122TIP3    H1 3309   4.798   1.082   3.507
 1122TIP3    H2 3310   4.799   1.077   3.659
 1123TIP3   OH2 3311   6.510   5.811   4.906
 1123TIP3    H1 3312   6.481   5.742   4.966
 1123TIP3    H2 3313   6.560   5.870   4.962
 1124TIP3   OH2 3314   1.318   5.249   4.970
 1124TIP3    H1 3315   1.269   5.331   4.966
 1124TIP3    H2 3316   1.297   5.213   5.056
 1125TIP3   OH2 3317   4.760   6.254   5.126
 1125TIP3    H1 3318   4.729   6.230   5.213
 1125TIP3    H2 3319   4.739   6.179   5.071
 1126TIP3   OH2 3320   3.087   7.090   2.818
 1126TIP3    H1 3321   3.152   7.143   2.864
 1126TIP3    H2 3322   3.108   7.000   2.842
 1127TIP3   OH2 3323   0.143   3.371   2.899
 1127TIP3    H1 3324   0.191   3.298   2.939
 1127TIP3    H2 3325   0.051   3.344   2.903
 1128TIP3   OH2 3326   6.780   3.711   2.261
 1128TIP3    H1 3327   6.867   3.697   2.300
 1128TIP3    H2 3328   6.765   3.805   2.268
 1129TIP3   OH2 3329   0.248   5.738   4.122
 1129TIP3    H1 3330   0.314   5.802   4.150
 1129TIP3    H2 3331   0.297   5.673   4.072
 1130TIP3   OH2 3332   0.876   7.083   2.863
 1130TIP3    H1 3333   0.786   7.049   2.868
 1130TIP3    H2 3334   0.929   7.016   2.908
 1131TIP3   OH2 3335   6.632   1.411   5.828
 1131TIP3    H1 3336   6.602   1.331   5.784
 1131TIP3    H2 3337   6.671   1.381   5.910
 1132TIP3   OH2 3338   3.904   5.247   0.287
 1132TIP3    H1 3339   3.900   5.330   0.334
 1132TIP3    H2 3340   3.956   5.266   0.209
 1133TIP3   OH2 3341   0.732   4.015   0.298
 1133TIP3    H1 3342   0.819   3.988   0.325
 1133TIP3    H2 3343   0.745   4.056   0.213
 1134TIP3   OH2 3344   6.408   7.551   1.565
 1134TIP3    H1 3345   6.425   7.487   1.635
 1134TIP3    H2 3346   6.313   7.560   1.564
 1135TIP3   OH2 3347   7.766   2.015   4.264
 1135TIP3    H1 3348   7.777   1.934   4.313
 1135TIP3    H2 3349   7.834   2.073   4.298
 1136TIP3   OH2 3350   2.352   0.385   5.046
 1136TIP3    H1 3351   2.434   0.359   5.089
 1136TIP3    H2 3352   2.326   0.465   5.092
 1137TIP3   OH2 3353   4.169   0.464   3.574
 1137TIP3    H1 3354   4.249   0.515   3.582
 1137TIP3    H2 3355   4.127   0.497   3.494
 1138TIP3   OH2 3356   1.082   3.584   6.130
 1138TIP3    H1 3357   1.137   3.662   6.137
 1138TIP3    H2 3358   1.038   3.578   6.215
 1139TIP3   OH2 3359   3.209   6.936   1.190
 1139TIP3    H1 3360   3.135   6.876   1.200
 1139TIP3    H2 3361   3.238   6.954   1.280
 1140TIP3   OH2 3362   0.004   6.417   1.910
 1140TIP3    H1 3363  -0.032   6.328   1.909
 1140TIP3    H2 3364   0.043   6.428   1.823
 1141TIP3   OH2 3365   7.767   5.962   5.731
 1141TIP3    H1 3366   7.848   5.961   5.679
 1141TIP3    H2 3367   7.788   5.911   5.809
 1142TIP3   OH2 3368   0.104   1.740   4.763
 1142TIP3    H1 3369   0.164   1.811   4.742
 1142TIP3    H2 3370   0.142   1.662   4.723
 1143TIP3   OH2 3371   4.161   3.882   1.418
 1143TIP3    H1 3372   4.118   3.839   1.492
 1143TIP3    H2 3373   4.170   3.974   1.446
 1144TIP3   OH2 3374   6.310   0.143   6.771
 1144TIP3    H1 3375   6.293   0.060   6.727
 1144TIP3    H2 3376   6.317   0.207   6.699
 1145TIP3   OH2 3377   6.434   0.296   3.707
 1145TIP3    H1 3378   6.458   0.371   3.653
 1145TIP3    H2 3379   6.414   0.334   3.793
 1146TIP3   OH2 3380   4.388   3.336   5.628
 1146TIP3    H1 3381   4.389   3.251   5.673
 1146TIP3    H2 3382   4.479   3.366   5.631
 1147TIP3   OH2 3383   2.690   4.951   0.800
 1147TIP3    H1 3384   2.605   4.986   0.825
 1147TIP3    H2 3385   2.750   5.026   0.808
 1148TIP3   OH2 3386   4.330   1.572   2.251
 1148TIP3    H1 3387   4.382   1.651   2.238
 1148TIP3    H2 3388   4.243   1.595   2.219
 1149TIP3   OH2 3389   4.334   3.343   5.329
 1149TIP3    H1 3390   4.243   3.371   5.337
 1149TIP3    H2 3391   4.367   3.344   5.419
 1150TIP3   OH2 3392   5.380   0.283   2.713
 1150TIP3    H1 3393   5.411   0.197   2.686
 1150TIP3    H2 3394   5.440   0.309   2.783
 1151TIP3   OH2 3395   3.543   5.057   4.461
 1151TIP3    H1 3396   3.492   5.004   4.400
 1151TIP3    H2 3397   3.483   5.127   4.487
 1152TIP3   OH2 3398   4.753   2.459   0.760
 1152TIP3    H1 3399   4.710   2.389   0.810
 1152TIP3    H2 3400   4.736   2.437   0.669
 1153TIP3   OH2 3401   4.143   4.690   2.704
 1153TIP3    H1 3402   4.163   4.698   2.798
 1153TIP3    H2 3403   4.053   4.723   2.696
 1154TIP3   OH2 3404   1.747   4.972   1.972
 1154TIP3    H1 3405   1.793   5.056   1.969
 1154TIP3    H2 3406   1.809   4.910   1.933
 1155TIP3   OH2 3407   5.556   3.972   6.534
 1155TIP3    H1 3408   5.613   4.015   6.598
 1155TIP3    H2 3409   5.587   4.003   6.449
 1156TIP3   OH2 3410   2.561   5.746   0.302
 1156TIP3    H1 3411   2.641   5.729   0.253
 1156TIP3    H2 3412   2.551   5.841   0.298
 1157TIP3   OH2 3413   7.532   3.232   5.740
 1157TIP3    H1 3414   7.504   3.150   5.780
 1157TIP3    H2 3415   7.623   3.216   5.715
 1158TIP3   OH2 3416   0.045   0.629   4.980
 1158TIP3    H1 3417   0.068   0.673   4.898
 1158TIP3    H2 3418  -0.044   0.598   4.966
 1159TIP3   OH2 3419   1.277   2.903   6.309
 1159TIP3    H1 3420   1.366   2.868   6.315
 1159TIP3    H2 3421   1.290   2.998   6.303
 1160TIP3   OH2 3422   1.305   4.785   1.343
 1160TIP3    H1 3423   1.344   4.761   1.427
 1160TIP3    H2 3424   1.212   4.761   1.352
 1161TIP3   OH2 3425   8.106   1.059   4.811
 1161TIP3    H1 3426   8.111   1.084   4.719
 1161TIP3    H2 3427   8.098   0.963   4.809
 1162TIP3   OH2 3428   4.032   3.918   1.153
 1162TIP3    H1 3429   4.040   3.884   1.242
 1162TIP3    H2 3430   4.102   3.983   1.146
 1163TIP3   OH2 3431   5.091   2.107   3.655
 1163TIP3    H1 3432   5.039   2.141   3.728
 1163TIP3    H2 3433   5.081   2.172   3.586
 1164TIP3   OH2 3434   6.527   5.919   1.479
 1164TIP3    H1 3435   6.537   5.824   1.486
 1164TIP3    H2 3436   6.546   5.952   1.567
 1165TIP3   OH2 3437   7.309   6.491   2.313
 1165TIP3    H1 3438   7.221   6.454   2.311
 1165TIP3    H2 3439   7.347   6.457   2.395
 1166TIP3   OH2 3440   6.320   2.059   2.936
 1166TIP3    H1 3441   6.279   2.013   2.863
 1166TIP3    H2 3442   6.283   2.018   3.014
 1167TIP3   OH2 3443   5.111   5.819   6.421
 1167TIP3    H1 3444   5.119   5.771   6.503
 1167TIP3    H2 3445   5.117   5.911   6.446
 1168TIP3   OH2 3446   5.945   2.983   0.661
 1168TIP3    H1 3447   5.850   2.991   0.672
 1168TIP3    H2 3448   5.980   3.067   0.690
 1169TIP3   OH2 3449   1.632   2.223   0.292
 1169TIP3    H1 3450   1.657   2.142   0.337
 1169TIP3    H2 3451   1.714   2.269   0.277
 1170TIP3   OH2 3452   5.260   6.940   6.582
 1170TIP3    H1 3453   5.344   6.937   6.537
 1170TIP3    H2 3454   5.283   6.930   6.675
 1171TIP3   OH2 3455   3.207   4.266   1.273
 1171TIP3    H1 3456   3.209   4.224   1.360
 1171TIP3    H2 3457   3.224   4.358   1.291
 1172TIP3   OH2 3458   1.725   0.810   0.654
 1172TIP3    H1 3459   1.788   0.738   0.657
 1172TIP3    H2 3460   1.777   0.886   0.628
 1173TIP3   OH2 3461   0.230   5.148   3.674
 1173TIP3    H1 3462   0.319   5.182   3.670
 1173TIP3    H2 3463   0.196   5.179   3.758
 1174TIP3   OH2 3464   6.055   3.201   6.036
 1174TIP3    H1 3465   6.052   3.105   6.035
 1174TIP3    H2 3466   6.067   3.226   5.945
 1175TIP3   OH2 3467   5.865   0.979   3.944
 1175TIP3    H1 3468   5.819   0.947   4.021
 1175TIP3    H2 3469   5.801   1.034   3.899
 1176TIP3   OH2 3470   5.277   6.501   1.257
 1176TIP3    H1 3471   5.182   6.511   1.258
 1176TIP3    H2 3472   5.300   6.481   1.347
 1177TIP3   OH2 3473   4.599   0.673   0.713
 1177TIP3    H1 3474   4.567   0.714   0.632
 1177TIP3    H2 3475   4.565   0.583   0.709
 1178TIP3   OH2 3476   1.705   6.513   2.907
 1178TIP3    H1 3477   1.737   6.499   2.817
 1178TIP3    H2 3478   1.739   6.439   2.956
 1179TIP3   OH2 3479   4.230   1.836   4.515
 1179TIP3    H1 3480   4.168   1.820   4.586
 1179TIP3    H2 3481   4.253   1.928   4.523
 1180TIP3   OH2 3482   7.450   6.420   3.403
 1180TIP3    H1 3483   7.513   6.349   3.420
 1180TIP3    H2 3484   7.449   6.470   3.485
 1181TIP3   OH2 3485   6.574   4.062   3.943
 1181TIP3    H1 3486   6.494   4.029   3.902
 1181TIP3    H2 3487   6.605   4.131   3.884
 1182TIP3   OH2 3488   2.796   3.452   3.928
 1182TIP3    H1 3489   2.856   3.511   3.882
 1182TIP3    H2 3490   2.732   3.511   3.968
 1183TIP3   OH2 3491   5.269   2.373   6.085
 1183TIP3    H1 3492   5.326   2.408   6.016
 1183TIP3    H2 3493   5.327   2.359   6.160
 1184TIP3   OH2 3494   7.391   6.638   0.388
 1184TIP3    H1 3495   7.399   6.643   0.483
 1184TIP3    H2 3496   7.409   6.547   0.367
 1185TIP3   OH2 3497   1.370   7.054   0.892
 1185TIP3    H1 3498   1.291   7.050   0.838
 1185TIP3    H2 3499   1.397   6.962   0.903
 1186TIP3   OH2 3500   2.043   4.781   4.909
 1186TIP3    H1 3501   2.117   4.836   4.881
 1186TIP3    H2 3502   1.978   4.842   4.943
 1187TIP3   OH2 3503   6.721   2.189   0.197
 1187TIP3    H1 3504   6.735   2.108   0.147
 1187TIP3    H2 3505   6.808   2.216   0.224
 1188TIP3   OH2 3506   2.353   7.625   2.475
 1188TIP3    H1 3507   2.315   7.598   2.392
 1188TIP3    H2 3508   2.396   7.546   2.508
 1189TIP3   OH2 3509   5.500   2.603   1.761
 1189TIP3    H1 3510   5.437   2.672   1.740
 1189TIP3    H2 3511   5.453   2.545   1.821
 1190TIP3   OH2 3512   2.170   6.186   6.147
 1190TIP3    H1 3513   2.164   6.094   6.119
 1190TIP3    H2 3514   2.252   6.218   6.109
 1191TIP3   OH2 3515   0.463   5.023   4.616
 1191TIP3    H1 3516   0.509   5.007   4.698
 1191TIP3    H2 3517   0.370   5.013   4.638
 1192TIP3   OH2 3518   6.508   3.523   0.700
 1192TIP3    H1 3519   6.464   3.483   0.626
 1192TIP3    H2 3520   6.492   3.617   0.691
 1193TIP3   OH2 3521   4.999   1.181   4.005
 1193TIP3    H1 3522   4.966   1.261   3.966
 1193TIP3    H2 3523   5.094   1.190   4.002
 1194TIP3   OH2 3524   5.056   6.919   5.930
 1194TIP3    H1 3525   5.042   7.011   5.951
 1194TIP3    H2 3526   5.023   6.909   5.841
 1195TIP3   OH2 3527   2.679   1.369   3.771
 1195TIP3    H1 3528   2.723   1.297   3.816
 1195TIP3    H2 3529   2.724   1.376   3.687
 1196TIP3   OH2 3530   1.652   2.170   3.390
 1196TIP3    H1 3531   1.654   2.222   3.470
 1196TIP3    H2 3532   1.664   2.080   3.420
 1197TIP3   OH2 3533   0.111   1.220   1.451
 1197TIP3    H1 3534   0.047   1.150   1.468
 1197TIP3    H2 3535   0.130   1.213   1.358
 1198TIP3   OH2 3536   8.151   3.621   1.634
 1198TIP3    H1 3537   8.185   3.698   1.679
 1198TIP3    H2 3538   8.056   3.629   1.643
 1199TIP3   OH2 3539   0.281   2.420   5.829
 1199TIP3    H1 3540   0.321   2.362   5.894
 1199TIP3    H2 3541   0.244   2.492   5.879
 1200TIP3   OH2 3542   6.670   6.773   4.443
 1200TIP3    H1 3543   6.620   6.854   4.448
 1200TIP3    H2 3544   6.655   6.742   4.353
 1201TIP3   OH2 3545   6.670   2.146   1.245
 1201TIP3    H1 3546   6.595   2.128   1.189
 1201TIP3    H2 3547   6.647   2.227   1.291
 1202TIP3   OH2 3548   3.530   7.666   5.640
 1202TIP3    H1 3549   3.531   7.606   5.566
 1202TIP3    H2 3550   3.481   7.619   5.708
 1203TIP3   OH2 3551   1.177   0.399   5.232
 1203TIP3    H1 3552   1.267   0.425   5.253
 1203TIP3    H2 3553   1.127   0.481   5.239
 1204TIP3   OH2 3554   5.230   1.703   0.148
 1204TIP3    H1 3555   5.229   1.631   0.211
 1204TIP3    H2 3556   5.273   1.775   0.195
 1205TIP3   OH2 3557   6.312   5.850   2.942
 1205TIP3    H1 3558   6.338   5.790   3.011
 1205TIP3    H2 3559   6.292   5.932   2.987
 1206TIP3   OH2 3560   0.851   5.883   2.378
 1206TIP3    H1 3561   0.777   5.942   2.363
 1206TIP3    H2 3562   0.834   5.809   2.320
 1207TIP3   OH2 3563   3.371   5.887   5.784
 1207TIP3    H1 3564   3.283   5.874   5.819
 1207TIP3    H2 3565   3.366   5.971   5.737
 1208TIP3   OH2 3566   3.628   4.925   5.215
 1208TIP3    H1 3567   3.689   4.927   5.141
 1208TIP3    H2 3568   3.573   5.002   5.204
 1209TIP3   OH2 3569   5.049   6.639   4.526
 1209TIP3    H1 3570   5.136   6.625   4.566
 1209TIP3    H2 3571   5.068   6.677   4.441
 1210TIP3   OH2 3572   1.708   2.405   0.527
 1210TIP3    H1 3573   1.747   2.331   0.479
 1210TIP3    H2 3574   1.746   2.483   0.487
 1211TIP3   OH2 3575   4.048   5.764   3.328
 1211TIP3    H1 3576   4.090   5.820   3.393
 1211TIP3    H2 3577   4.006   5.825   3.268
 1212TIP3   OH2 3578   1.946   4.518   1.618
 1212TIP3    H1 3579   1.977   4.580   1.683
 1212TIP3    H2 3580   2.010   4.523   1.547
 1213TIP3   OH2 3581   3.829   5.751   0.958
 1213TIP3    H1 3582   3.861   5.716   0.875
 1213TIP3    H2 3583   3.908   5.765   1.010
 1214TIP3   OH2 3584   8.092   5.438   6.519
 1214TIP3    H1 3585   8.056   5.526   6.509
 1214TIP3    H2 3586   8.016   5.382   6.529
 1215TIP3   OH2 3587   0.826   1.674   2.135
 1215TIP3    H1 3588   0.745   1.725   2.133
 1215TIP3    H2 3589   0.800   1.590   2.172
 1216TIP3   OH2 3590   2.345   4.405   0.484
 1216TIP3    H1 3591   2.365   4.465   0.555
 1216TIP3    H2 3592   2.386   4.445   0.407
 1217TIP3   OH2 3593   3.674   7.419   5.115
 1217TIP3    H1 3594   3.761   7.459   5.123
 1217TIP3    H2 3595   3.614   7.494   5.112
 1218TIP3   OH2 3596   3.402   3.506   4.200
 1218TIP3    H1 3597   3.447   3.570   4.256
 1218TIP3    H2 3598   3.425   3.533   4.111
 1219TIP3   OH2 3599   3.405   1.150   5.896
 1219TIP3    H1 3600   3.375   1.241   5.887
 1219TIP3    H2 3601   3.329   1.104   5.931
 1220TIP3   OH2 3602   5.343   1.424   6.293
 1220TIP3    H1 3603   5.434   1.396   6.287
 1220TIP3    H2 3604   5.297   1.371   6.228
 1221TIP3   OH2 3605   3.912   7.563   0.571
 1221TIP3    H1 3606   3.867   7.489   0.531
 1221TIP3    H2 3607   4.004   7.537   0.572
 1222TIP3   OH2 3608   2.595   4.780   0.565
 1222TIP3    H1 3609   2.583   4.851   0.627
 1222TIP3    H2 3610   2.690   4.770   0.559
 1223TIP3   OH2 3611   5.973   5.703   4.030
 1223TIP3    H1 3612   5.931   5.631   3.984
 1223TIP3    H2 3613   5.946   5.781   3.983
 1224TIP3   OH2 3614   3.897   5.245   5.032
 1224TIP3    H1 3615   3.802   5.250   5.018
 1224TIP3    H2 3616   3.926   5.178   4.970
 1225TIP3   OH2 3617   7.767   7.147   2.392
 1225TIP3    H1 3618   7.803   7.173   2.477
 1225TIP3    H2 3619   7.709   7.073   2.412
 1226TIP3   OH2 3620   4.219   3.781   2.791
 1226TIP3    H1 3621   4.314   3.793   2.786
 1226TIP3    H2 3622   4.187   3.858   2.838
 1227TIP3   OH2 3623   6.806   7.713   3.210
 1227TIP3    H1 3624   6.836   7.709   3.301
 1227TIP3    H2 3625   6.711   7.708   3.215
 1228TIP3   OH2 3626   2.805   5.707   4.129
 1228TIP3    H1 3627   2.776   5.785   4.080
 1228TIP3    H2 3628   2.725   5.671   4.167
 1229TIP3   OH2 3629   0.901   6.439   1.517
 1229TIP3    H1 3630   0.906   6.364   1.577
 1229TIP3    H2 3631   0.953   6.507   1.559
 1230TIP3   OH2 3632   0.244   3.281   1.800
 1230TIP3    H1 3633   0.320   3.317   1.754
 1230TIP3    H2 3634   0.272   3.193   1.827
 1231TIP3   OH2 3635   3.862   5.390   1.650
 1231TIP3    H1 3636   3.846   5.329   1.723
 1231TIP3    H2 3637   3.868   5.333   1.573
 1232TIP3   OH2 3638   4.208   2.238   1.182
 1232TIP3    H1 3639   4.240   2.201   1.264
 1232TIP3    H2 3640   4.247   2.326   1.178
 1233TIP3   OH2 3641   1.104   1.710   4.469
 1233TIP3    H1 3642   1.059   1.626   4.456
 1233TIP3    H2 3643   1.158   1.720   4.391
 1234TIP3   OH2 3644   5.698   5.300   1.290
 1234TIP3    H1 3645   5.650   5.248   1.354
 1234TIP3    H2 3646   5.789   5.270   1.298
 1235TIP3   OH2 3647   6.571   1.006   4.165
 1235TIP3    H1 3648   6.524   1.002   4.082
 1235TIP3    H2 3649   6.647   1.061   4.147
 1236TIP3   OH2 3650   0.250   1.433   0.172
 1236TIP3    H1 3651   0.302   1.398   0.099
 1236TIP3    H2 3652   0.176   1.374   0.179
 1237TIP3   OH2 3653   3.935   5.969   3.200
 1237TIP3    H1 3654   3.867   6.027   3.165
 1237TIP3    H2 3655   4.002   6.029   3.233
 1238TIP3   OH2 3656   3.234   5.067   4.955
 1238TIP3    H1 3657   3.219   5.082   5.048
 1238TIP3    H2 3658   3.294   5.136   4.929
 1239TIP3   OH2 3659   1.739   1.457   2.274
 1239TIP3    H1 3660   1.797   1.533   2.281
 1239TIP3    H2 3661   1.720   1.433   2.364
 1240TIP3   OH2 3662   2.016   0.042   5.490
 1240TIP3    H1 3663   2.059   0.126   5.471
 1240TIP3    H2 3664   2.076  -0.024   5.456
 1241TIP3   OH2 3665   3.637   1.759   3.330
 1241TIP3    H1 3666   3.567   1.809   3.288
 1241TIP3    H2 3667   3.658   1.690   3.268
 1242TIP3   OH2 3668   8.161   3.948   5.545
 1242TIP3    H1 3669   8.212   3.936   5.624
 1242TIP3    H2 3670   8.220   3.923   5.474
 1243TIP3   OH2 3671   2.691   0.570   3.133
 1243TIP3    H1 3672   2.732   0.537   3.213
 1243TIP3    H2 3673   2.750   0.542   3.062
 1244TIP3   OH2 3674   6.497   3.176   0.345
 1244TIP3    H1 3675   6.513   3.211   0.258
 1244TIP3    H2 3676   6.584   3.157   0.381
 1245TIP3   OH2 3677   7.028   3.718   2.355
 1245TIP3    H1 3678   7.090   3.661   2.402
 1245TIP3    H2 3679   7.069   3.733   2.270
 1246TIP3   OH2 3680   4.271   1.880   1.622
 1246TIP3    H1 3681   4.352   1.835   1.598
 1246TIP3    H2 3682   4.202   1.830   1.578
 1247TIP3   OH2 3683   0.064   5.093   3.446
 1247TIP3    H1 3684   0.086   5.007   3.410
 1247TIP3    H2 3685   0.118   5.101   3.524
 1248TIP3   OH2 3686   2.113   2.646   3.029
 1248TIP3    H1 3687   2.139   2.576   3.089
 1248TIP3    H2 3688   2.064   2.600   2.960
 1249TIP3   OH2 3689   7.803   1.010   4.716
 1249TIP3    H1 3690   7.805   1.072   4.789
 1249TIP3    H2 3691   7.894   0.988   4.700
 1250TIP3   OH2 3692   8.103   0.418   6.000
 1250TIP3    H1 3693   8.076   0.392   5.912
 1250TIP3    H2 3694   8.137   0.338   6.040
 1251TIP3   OH2 3695   5.419   1.205   0.187
 1251TIP3    H1 3696   5.445   1.268   0.255
 1251TIP3    H2 3697   5.341   1.243   0.148
 1252TIP3   OH2 3698   8.126   7.045   4.138
 1252TIP3    H1 3699   8.129   7.019   4.230
 1252TIP3    H2 3700   8.078   7.128   4.138
 1253TIP3   OH2 3701   1.319   1.348   4.870
 1253TIP3    H1 3702   1.238   1.320   4.912
 1253TIP3    H2 3703   1.291   1.403   4.798
 1254TIP3   OH2 3704   5.106   5.726   4.095
 1254TIP3    H1 3705   5.157   5.674   4.034
 1254TIP3    H2 3706   5.147   5.711   4.180
 1255TIP3   OH2 3707   2.183   4.640   2.512
 1255TIP3    H1 3708   2.127   4.691   2.454
 1255TIP3    H2 3709   2.177   4.685   2.596
 1256TIP3   OH2 3710   4.256   2.148   0.256
 1256TIP3    H1 3711   4.332   2.192   0.294
 1256TIP3    H2 3712   4.181   2.191   0.297
 1257TIP3   OH2 3713   4.937   6.376   4.405
 1257TIP3    H1 3714   4.927   6.465   4.439
 1257TIP3    H2 3715   4.848   6.350   4.381
 1258TIP3   OH2 3716   1.611   3.637   1.297
 1258TIP3    H1 3717   1.555   3.714   1.291
 1258TIP3    H2 3718   1.585   3.582   1.223
 1259TIP3   OH2 3719   2.346   1.041   4.660
 1259TIP3    H1 3720   2.332   0.947   4.652
 1259TIP3    H2 3721   2.419   1.060   4.602
 1260TIP3   OH2 3722   1.689   6.501   4.502
 1260TIP3    H1 3723   1.695   6.593   4.478
 1260TIP3    H2 3724   1.764   6.460   4.458
 1261TIP3   OH2 3725   3.772   5.660   6.066
 1261TIP3    H1 3726   3.731   5.746   6.056
 1261TIP3    H2 3727   3.708   5.610   6.118
 1262TIP3   OH2 3728   3.871   0.061   6.026
 1262TIP3    H1 3729   3.809   0.106   5.970
 1262TIP3    H2 3730   3.889   0.122   6.097
 1263TIP3   OH2 3731   6.072   4.701   1.336
 1263TIP3    H1 3732   6.139   4.640   1.306
 1263TIP3    H2 3733   6.024   4.652   1.404
 1264TIP3   OH2 3734   7.241   6.101   3.085
 1264TIP3    H1 3735   7.280   6.105   3.172
 1264TIP3    H2 3736   7.149   6.082   3.100
 1265TIP3   OH2 3737   7.005   3.667   1.559
 1265TIP3    H1 3738   7.038   3.615   1.632
 1265TIP3    H2 3739   7.082   3.686   1.506
 1266TIP3   OH2 3740   6.558   2.807   2.980
 1266TIP3    H1 3741   6.616   2.784   2.907
 1266TIP3    H2 3742   6.561   2.903   2.984
 1267TIP3   OH2 3743   6.104   3.175   3.369
 1267TIP3    H1 3744   6.184   3.204   3.326
 1267TIP3    H2 3745   6.132   3.104   3.427
 1268TIP3   OH2 3746   1.159   6.769   0.356
 1268TIP3    H1 3747   1.123   6.715   0.427
 1268TIP3    H2 3748   1.239   6.807   0.393
 1269TIP3   OH2 3749   1.117   4.621   1.088
 1269TIP3    H1 3750   1.054   4.681   1.048
 1269TIP3    H2 3751   1.178   4.600   1.018
 1270TIP3   OH2 3752   3.534   2.477   4.374
 1270TIP3    H1 3753   3.607   2.524   4.414
 1270TIP3    H2 3754   3.456   2.526   4.402
 1271TIP3   OH2 3755   5.761   2.323   0.734
 1271TIP3    H1 3756   5.737   2.414   0.715
 1271TIP3    H2 3757   5.856   2.324   0.740
 1272TIP3   OH2 3758   4.118   1.617   4.956
 1272TIP3    H1 3759   4.185   1.641   5.019
 1272TIP3    H2 3760   4.036   1.621   5.005
 1273TIP3   OH2 3761   5.827   1.466   2.827
 1273TIP3    H1 3762   5.733   1.461   2.845
 1273TIP3    H2 3763   5.843   1.396   2.764
 1274TIP3   OH2 3764   5.634   6.047   0.390
 1274TIP3    H1 3765   5.672   6.110   0.451
 1274TIP3    H2 3766   5.540   6.062   0.395
 1275TIP3   OH2 3767   6.391   5.475   2.909
 1275TIP3    H1 3768   6.472   5.479   2.959
 1275TIP3    H2 3769   6.417   5.443   2.823
 1276TIP3   OH2 3770   1.820   2.211   3.851
 1276TIP3    H1 3771   1.866   2.139   3.808
 1276TIP3    H2 3772   1.807   2.181   3.941
 1277TIP3   OH2 3773   6.813   0.892   1.734
 1277TIP3    H1 3774   6.759   0.813   1.722
 1277TIP3    H2 3775   6.903   0.859   1.737
 1278TIP3   OH2 3776   1.597   0.807   6.068
 1278TIP3    H1 3777   1.561   0.878   6.015
 1278TIP3    H2 3778   1.692   0.818   6.062
 1279TIP3   OH2 3779   0.813   3.658   6.043
 1279TIP3    H1 3780   0.888   3.617   6.087
 1279TIP3    H2 3781   0.737   3.614   6.079
 1280TIP3   OH2 3782   0.105   5.729   0.984
 1280TIP3    H1 3783   0.065   5.803   0.939
 1280TIP3    H2 3784   0.167   5.770   1.046
 1281TIP3   OH2 3785   2.695   2.323   2.129
 1281TIP3    H1 3786   2.629   2.324   2.060
 1281TIP3    H2 3787   2.694   2.233   2.163
 1282TIP3   OH2 3788   5.142   4.373   0.793
 1282TIP3    H1 3789   5.189   4.453   0.815
 1282TIP3    H2 3790   5.050   4.400   0.787
 1283TIP3   OH2 3791   5.354   0.963   2.288
 1283TIP3    H1 3792   5.310   0.886   2.324
 1283TIP3    H2 3793   5.420   0.986   2.353
 1284TIP3   OH2 3794   2.861   4.247   2.016
 1284TIP3    H1 3795   2.794   4.190   2.054
 1284TIP3    H2 3796   2.913   4.277   2.091
 1285TIP3   OH2 3797   4.176   3.855   5.106
 1285TIP3    H1 3798   4.172   3.853   5.010
 1285TIP3    H2 3799   4.088   3.831   5.134
 1286TIP3   OH2 3800   0.274   7.250   3.634
 1286TIP3    H1 3801   0.253   7.321   3.696
 1286TIP3    H2 3802   0.224   7.271   3.556
 1287TIP3   OH2 3803   6.310   5.731   1.894
 1287TIP3    H1 3804   6.220   5.722   1.864
 1287TIP3    H2 3805   6.363   5.700   1.821
 1288TIP3   OH2 3806   7.508   0.381   6.295
 1288TIP3    H1 3807   7.570   0.404   6.364
 1288TIP3    H2 3808   7.559   0.383   6.215
 1289TIP3   OH2 3809   3.526   4.044   4.302
 1289TIP3    H1 3810   3.496   4.133   4.283
 1289TIP3    H2 3811   3.460   3.987   4.262
 1290TIP3   OH2 3812   0.676   7.161   6.738
 1290TIP3    H1 3813   0.664   7.173   6.644
 1290TIP3    H2 3814   0.769   7.179   6.753
 1291TIP3   OH2 3815   4.215   7.552   2.861
 1291TIP3    H1 3816   4.174   7.491   2.923
 1291TIP3    H2 3817   4.202   7.512   2.776
 1292TIP3   OH2 3818   3.545   0.124   5.681
 1292TIP3    H1 3819   3.492   0.047   5.663
 1292TIP3    H2 3820   3.636   0.092   5.675
 1293TIP3   OH2 3821   6.831   5.823   0.136
 1293TIP3    H1 3822   6.792   5.807   0.222
 1293TIP3    H2 3823   6.856   5.915   0.138
 1294TIP3   OH2 3824   4.740   2.486   1.096
 1294TIP3    H1 3825   4.808   2.524   1.042
 1294TIP3    H2 3826   4.694   2.425   1.038
 1295TIP3   OH2 3827   5.571   4.565   4.657
 1295TIP3    H1 3828   5.576   4.645   4.710
 1295TIP3    H2 3829   5.642   4.574   4.593
 1296TIP3   OH2 3830   2.741   6.860   3.710
 1296TIP3    H1 3831   2.677   6.825   3.773
 1296TIP3    H2 3832   2.820   6.875   3.762
 1297TIP3   OH2 3833   6.620   7.173   0.562
 1297TIP3    H1 3834   6.630   7.158   0.468
 1297TIP3    H2 3835   6.549   7.236   0.569
 1298TIP3   OH2 3836   5.786   3.506   4.501
 1298TIP3    H1 3837   5.750   3.556   4.427
 1298TIP3    H2 3838   5.869   3.471   4.468
 1299TIP3   OH2 3839   1.843   4.571   6.310
 1299TIP3    H1 3840   1.790   4.636   6.264
 1299TIP3    H2 3841   1.929   4.577   6.270
 1300TIP3   OH2 3842   6.006   0.765   6.268
 1300TIP3    H1 3843   6.004   0.723   6.355
 1300TIP3    H2 3844   6.050   0.701   6.212
 1301TIP3   OH2 3845   0.917   1.401   5.357
 1301TIP3    H1 3846   0.892   1.491   5.336
 1301TIP3    H2 3847   0.911   1.354   5.274
 1302TIP3   OH2 3848   6.620   7.230   4.263
 1302TIP3    H1 3849   6.712   7.229   4.291
 1302TIP3    H2 3850   6.608   7.317   4.225
 1303TIP3   OH2 3851   6.282   3.663   3.047
 1303TIP3    H1 3852   6.264   3.726   2.977
 1303TIP3    H2 3853   6.248   3.705   3.127
 1304TIP3   OH2 3854   3.035   1.436   3.793
 1304TIP3    H1 3855   3.110   1.429   3.735
 1304TIP3    H2 3856   3.044   1.363   3.855
 1305TIP3   OH2 3857   0.273   7.248   6.700
 1305TIP3    H1 3858   0.192   7.236   6.749
 1305TIP3    H2 3859   0.280   7.171   6.645
 1306TIP3   OH2 3860   5.505   2.436   0.100
 1306TIP3    H1 3861   5.563   2.374   0.143
 1306TIP3    H2 3862   5.454   2.475   0.171
 1307TIP3   OH2 3863   3.676   3.390   2.803
 1307TIP3    H1 3864   3.709   3.410   2.715
 1307TIP3    H2 3865   3.755   3.369   2.854
 1308TIP3   OH2 3866   7.828   3.533   0.893
 1308TIP3    H1 3867   7.923   3.542   0.895
 1308TIP3    H2 3868   7.813   3.442   0.867
 1309TIP3   OH2 3869   3.144   1.254   4.718
 1309TIP3    H1 3870   3.182   1.342   4.725
 1309TIP3    H2 3871   3.144   1.236   4.624
 1310TIP3   OH2 3872   4.144   5.774   1.492
 1310TIP3    H1 3873   4.055   5.740   1.484
 1310TIP3    H2 3874   4.133   5.861   1.530
 1311TIP3   OH2 3875   0.064   1.624   0.357
 1311TIP3    H1 3876   0.026   1.711   0.369
 1311TIP3    H2 3877   0.036   1.597   0.269
 1312TIP3   OH2 3878   3.538   4.803   2.198
 1312TIP3    H1 3879   3.596   4.834   2.129
 1312TIP3    H2 3880   3.546   4.868   2.267
 1313TIP3   OH2 3881   7.402   1.711   1.978
 1313TIP3    H1 3882   7.460   1.787   1.983
 1313TIP3    H2 3883   7.323   1.738   2.023
 1314TIP3   OH2 3884   6.758   3.867   4.847
 1314TIP3    H1 3885   6.810   3.933   4.894
 1314TIP3    H2 3886   6.820   3.796   4.830
 1315TIP3   OH2 3887   6.052   4.518   4.845
 1315TIP3    H1 3888   6.120   4.576   4.812
 1315TIP3    H2 3889   6.005   4.489   4.766
 1316TIP3   OH2 3890   7.743   6.699   1.925
 1316TIP3    H1 3891   7.783   6.612   1.933
 1316TIP3    H2 3892   7.706   6.717   2.012
 1317TIP3   OH2 3893   2.290   0.636   3.133
 1317TIP3    H1 3894   2.341   0.564   3.095
 1317TIP3    H2 3895   2.200   0.615   3.111
 1318TIP3   OH2 3896   8.055   2.073   4.551
 1318TIP3    H1 3897   8.077   2.153   4.599
 1318TIP3    H2 3898   8.031   2.103   4.463
 1319TIP3   OH2 3899   2.033   7.823   4.788
 1319TIP3    H1 3900   2.047   7.760   4.858
 1319TIP3    H2 3901   2.111   7.817   4.733
 1320TIP3   OH2 3902   3.364   2.735   1.061
 1320TIP3    H1 3903   3.450   2.722   1.100
 1320TIP3    H2 3904   3.302   2.720   1.132
 1321TIP3   OH2 3905   3.660   5.913   3.697
 1321TIP3    H1 3906   3.648   5.820   3.679
 1321TIP3    H2 3907   3.592   5.933   3.761
 1322TIP3   OH2 3908   0.811   2.265   5.321
 1322TIP3    H1 3909   0.742   2.228   5.376
 1322TIP3    H2 3910   0.809   2.212   5.241
 1323TIP3   OH2 3911   2.777   4.981   2.106
 1323TIP3    H1 3912   2.867   5.003   2.084
 1323TIP3    H2 3913   2.745   5.056   2.156
 1324TIP3   OH2 3914   2.137   6.342   1.068
 1324TIP3    H1 3915   2.090   6.404   1.124
 1324TIP3    H2 3916   2.085   6.338   0.987
 1325TIP3   OH2 3917   5.264   6.942   6.180
 1325TIP3    H1 3918   5.215   6.924   6.260
 1325TIP3    H2 3919   5.202   6.986   6.122
 1326TIP3   OH2 3920   6.331   0.262   4.137
 1326TIP3    H1 3921   6.243   0.269   4.174
 1326TIP3    H2 3922   6.362   0.176   4.166
 1327TIP3   OH2 3923   1.941   6.065   3.801
 1327TIP3    H1 3924   1.885   6.057   3.724
 1327TIP3    H2 3925   1.950   5.976   3.834
 1328TIP3   OH2 3926   1.596   3.385   0.492
 1328TIP3    H1 3927   1.548   3.467   0.506
 1328TIP3    H2 3928   1.604   3.347   0.580
 1329TIP3   OH2 3929   3.293   4.531   0.964
 1329TIP3    H1 3930   3.360   4.519   1.031
 1329TIP3    H2 3931   3.211   4.537   1.012
 1330TIP3   OH2 3932   5.646   4.751   5.196
 1330TIP3    H1 3933   5.618   4.686   5.131
 1330TIP3    H2 3934   5.697   4.814   5.146
 1331TIP3   OH2 3935   0.591   4.990   2.538
 1331TIP3    H1 3936   0.506   4.947   2.531
 1331TIP3    H2 3937   0.571   5.079   2.568
 1332TIP3   OH2 3938   0.276   4.622   0.103
 1332TIP3    H1 3939   0.211   4.658   0.042
 1332TIP3    H2 3940   0.253   4.529   0.110
 1333TIP3   OH2 3941   7.048   7.267   1.409
 1333TIP3    H1 3942   7.022   7.183   1.371
 1333TIP3    H2 3943   7.075   7.246   1.498
 1334TIP3   OH2 3944   2.042   2.627   0.947
 1334TIP3    H1 3945   2.101   2.621   1.022
 1334TIP3    H2 3946   2.017   2.719   0.943
 1335TIP3   OH2 3947   6.182   3.087   6.649
 1335TIP3    H1 3948   6.124   3.140   6.594
 1335TIP3    H2 3949   6.229   3.151   6.703
 1336TIP3   OH2 3950   3.491   1.877   4.435
 1336TIP3    H1 3951   3.521   1.844   4.350
 1336TIP3    H2 3952   3.468   1.968   4.418
 1337TIP3   OH2 3953   3.767   1.368   5.055
 1337TIP3    H1 3954   3.800   1.457   5.065
 1337TIP3    H2 3955   3.674   1.374   5.079
 1338TIP3   OH2 3956   4.402   2.894   6.374
 1338TIP3    H1 3957   4.386   2.972   6.428
 1338TIP3    H2 3958   4.493   2.904   6.345
 1339TIP3   OH2 3959   3.601   1.983   5.161
 1339TIP3    H1 3960   3.670   2.046   5.180
 1339TIP3    H2 3961   3.629   1.903   5.206
 1340TIP3   OH2 3962   3.806   5.374   3.513
 1340TIP3    H1 3963   3.901   5.384   3.521
 1340TIP3    H2 3964   3.792   5.280   3.509
 1341TIP3   OH2 3965   4.750   6.080   0.772
 1341TIP3    H1 3966   4.836   6.075   0.731
 1341TIP3    H2 3967   4.720   5.989   0.779
 1342TIP3   OH2 3968   6.968   0.261   3.057
 1342TIP3    H1 3969   6.967   0.203   2.981
 1342TIP3    H2 3970   6.880   0.300   3.059
 1343TIP3   OH2 3971   3.680  -0.013   3.782
 1343TIP3    H1 3972   3.740  -0.003   3.708
 1343TIP3    H2 3973   3.619   0.060   3.773
 1344TIP3   OH2 3974   8.239   5.346   2.687
 1344TIP3    H1 3975   8.226   5.320   2.778
 1344TIP3    H2 3976   8.285   5.273   2.647
 1345TIP3   OH2 3977   1.034   5.282   5.989
 1345TIP3    H1 3978   1.025   5.196   6.031
 1345TIP3    H2 3979   1.085   5.334   6.051
 1346TIP3   OH2 3980   0.054   1.210   5.982
 1346TIP3    H1 3981   0.076   1.253   5.899
 1346TIP3    H2 3982   0.095   1.124   5.975
 1347TIP3   OH2 3983   7.568   6.863   1.351
 1347TIP3    H1 3984   7.596   6.955   1.346
 1347TIP3    H2 3985   7.479   6.867   1.386
 1348TIP3   OH2 3986   3.567   0.803   6.123
 1348TIP3    H1 3987   3.489   0.846   6.087
 1348TIP3    H2 3988   3.636   0.870   6.118
 1349TIP3   OH2 3989   1.206   4.018   3.422
 1349TIP3    H1 3990   1.112   4.034   3.421
 1349TIP3    H2 3991   1.232   4.037   3.513
 1350TIP3   OH2 3992   6.630   4.428   0.445
 1350TIP3    H1 3993   6.569   4.470   0.505
 1350TIP3    H2 3994   6.716   4.450   0.479
 1351TIP3   OH2 3995   4.216   2.770   4.676
 1351TIP3    H1 3996   4.310   2.772   4.653
 1351TIP3    H2 3997   4.209   2.703   4.744
 1352TIP3   OH2 3998   4.137   2.950   2.278
 1352TIP3    H1 3999   4.198   2.956   2.204
 1352TIP3    H2 4000   4.058   2.994   2.247
 1353TIP3   OH2 4001   0.079   3.372   0.025
 1353TIP3    H1 4002   0.074   3.300  -0.037
 1353TIP3    H2 4003  -0.009   3.411   0.024
 1354TIP3   OH2 4004   4.167   5.398   0.667
 1354TIP3    H1 4005   4.167   5.439   0.580
 1354TIP3    H2 4006   4.235   5.331   0.661
 1355TIP3   OH2 4007   8.100   7.643   5.141
 1355TIP3    H1 4008   8.131   7.582   5.073
 1355TIP3    H2 4009   8.180   7.669   5.187
 1356TIP3   OH2 4010   1.212   0.623   0.275
 1356TIP3    H1 4011   1.269   0.617   0.352
 1356TIP3    H2 4012   1.179   0.535   0.262
 1357TIP3   OH2 4013   0.174   4.729   5.132
 1357TIP3    H1 4014   0.139   4.643   5.109
 1357TIP3    H2 4015   0.153   4.785   5.057
 1358TIP3   OH2 4016   1.305   1.413   4.426
 1358TIP3    H1 4017   1.284   1.467   4.502
 1358TIP3    H2 4018   1.252   1.449   4.355
 1359TIP3   OH2 4019   7.320   4.465   6.523
 1359TIP3    H1 4020   7.235   4.464   6.566
 1359TIP3    H2 4021   7.381   4.432   6.589
 1360TIP3   OH2 4022   5.466   1.351   0.810
 1360TIP3    H1 4023   5.408   1.388   0.877
 1360TIP3    H2 4024   5.510   1.427   0.772
 1361TIP3   OH2 4025   1.796   1.205   1.875
 1361TIP3    H1 4026   1.727   1.143   1.899
 1361TIP3    H2 4027   1.783   1.280   1.934
 1362TIP3   OH2 4028   4.854   0.723   1.200
 1362TIP3    H1 4029   4.940   0.762   1.186
 1362TIP3    H2 4030   4.826   0.757   1.285
 1363TIP3   OH2 4031   2.128   1.082   0.373
 1363TIP3    H1 4032   2.218   1.112   0.387
 1363TIP3    H2 4033   2.136   1.011   0.309
 1364TIP3   OH2 4034   6.277   6.137   5.357
 1364TIP3    H1 4035   6.188   6.122   5.388
 1364TIP3    H2 4036   6.332   6.103   5.428
 1365TIP3   OH2 4037   5.641   2.964   2.277
 1365TIP3    H1 4038   5.719   2.971   2.332
 1365TIP3    H2 4039   5.662   2.893   2.216
 1366TIP3   OH2 4040   0.315   2.141   3.294
 1366TIP3    H1 4041   0.390   2.195   3.269
 1366TIP3    H2 4042   0.309   2.151   3.389
 1367TIP3   OH2 4043   5.946   6.363   4.784
 1367TIP3    H1 4044   5.968   6.286   4.731
 1367TIP3    H2 4045   6.005   6.357   4.860
 1368TIP3   OH2 4046   2.395   0.083   1.189
 1368TIP3    H1 4047   2.467   0.043   1.239
 1368TIP3    H2 4048   2.342   0.008   1.161
 1369TIP3   OH2 4049   8.175   1.440   2.791
 1369TIP3    H1 4050   8.264   1.427   2.825
 1369TIP3    H2 4051   8.144   1.518   2.837
 1370TIP3   OH2 4052   3.433   3.480   2.628
 1370TIP3    H1 4053   3.474   3.468   2.542
 1370TIP3    H2 4054   3.342   3.504   2.608
 1371TIP3   OH2 4055   0.780   2.198   2.062
 1371TIP3    H1 4056   0.836   2.222   1.988
 1371TIP3    H2 4057   0.713   2.141   2.023
 1372TIP3   OH2 4058   0.507   5.548   3.269
 1372TIP3    H1 4059   0.575   5.553   3.337
 1372TIP3    H2 4060   0.425   5.540   3.318
 1373TIP3   OH2 4061   1.107   6.764   2.464
 1373TIP3    H1 4062   1.091   6.778   2.371
 1373TIP3    H2 4063   1.037   6.811   2.509
 1374TIP3   OH2 4064   6.506   7.712   2.393
 1374TIP3    H1 4065   6.496   7.653   2.319
 1374TIP3    H2 4066   6.535   7.656   2.465
 1375TIP3   OH2 4067   2.158   4.314   1.727
 1375TIP3    H1 4068   2.217   4.386   1.703
 1375TIP3    H2 4069   2.080   4.357   1.763
 1376TIP3   OH2 4070   3.278   7.834   4.662
 1376TIP3    H1 4071   3.234   7.823   4.747
 1376TIP3    H2 4072   3.302   7.745   4.636
 1377TIP3   OH2 4073   7.695   1.265   0.617
 1377TIP3    H1 4074   7.633   1.334   0.593
 1377TIP3    H2 4075   7.769   1.313   0.654
 1378TIP3   OH2 4076   3.699   7.466   4.662
 1378TIP3    H1 4077   3.763   7.439   4.596
 1378TIP3    H2 4078   3.732   7.549   4.695
 1379TIP3   OH2 4079   0.513   3.559   0.241
 1379TIP3    H1 4080   0.520   3.654   0.239
 1379TIP3    H2 4081   0.581   3.528   0.181
 1380TIP3   OH2 4082   8.083   5.936   4.701
 1380TIP3    H1 4083   8.159   5.880   4.715
 1380TIP3    H2 4084   8.011   5.891   4.743
 1381TIP3   OH2 4085   0.274   7.267   5.829
 1381TIP3    H1 4086   0.202   7.241   5.772
 1381TIP3    H2 4087   0.242   7.249   5.918
 1382TIP3   OH2 4088   5.218   4.335   4.805
 1382TIP3    H1 4089   5.293   4.344   4.864
 1382TIP3    H2 4090   5.166   4.413   4.820
 1383TIP3   OH2 4091   6.827   3.843   5.684
 1383TIP3    H1 4092   6.777   3.898   5.623
 1383TIP3    H2 4093   6.761   3.791   5.729
 1384TIP3   OH2 4094   5.460   0.564   0.791
 1384TIP3    H1 4095   5.435   0.503   0.860
 1384TIP3    H2 4096   5.377   0.602   0.761
 1385TIP3   OH2 4097   5.672   0.444   5.256
 1385TIP3    H1 4098   5.735   0.495   5.205
 1385TIP3    H2 4099   5.596   0.502   5.266
 1386TIP3   OH2 4100   2.864   3.516   1.705
 1386TIP3    H1 4101   2.864   3.538   1.612
 1386TIP3    H2 4102   2.826   3.593   1.748
 1387TIP3   OH2 4103   5.926   4.496   5.954
 1387TIP3    H1 4104   6.010   4.452   5.961
 1387TIP3    H2 4105   5.934   4.573   6.010
 1388TIP3   OH2 4106   2.197   1.637   4.001
 1388TIP3    H1 4107   2.210   1.715   3.947
 1388TIP3    H2 4108   2.116   1.598   3.967
 1389TIP3   OH2 4109   4.873   3.030   4.045
 1389TIP3    H1 4110   4.931   3.081   3.989
 1389TIP3    H2 4111   4.916   3.031   4.131
 1390TIP3   OH2 4112   5.396   1.037   2.004
 1390TIP3    H1 4113   5.453   1.111   2.019
 1390TIP3    H2 4114   5.365   1.011   2.091
 1391TIP3   OH2 4115   1.189   6.726   6.138
 1391TIP3    H1 4116   1.185   6.665   6.211
 1391TIP3    H2 4117   1.254   6.791   6.165
 1392TIP3   OH2 4118   2.012   0.313   2.384
 1392TIP3    H1 4119   2.050   0.379   2.442
 1392TIP3    H2 4120   1.918   0.313   2.405
 1393TIP3   OH2 4121   4.855   1.488   4.546
 1393TIP3    H1 4122   4.938   1.533   4.538
 1393TIP3    H2 4123   4.796   1.534   4.485
 1394TIP3   OH2 4124   3.095   6.485   0.213
 1394TIP3    H1 4125   3.183   6.503   0.180
 1394TIP3    H2 4126   3.046   6.458   0.135
 1395TIP3   OH2 4127   4.881   4.462   1.761
 1395TIP3    H1 4128   4.888   4.515   1.840
 1395TIP3    H2 4129   4.791   4.428   1.762
 1396TIP3   OH2 4130   4.012   4.954   3.531
 1396TIP3    H1 4131   4.000   4.931   3.623
 1396TIP3    H2 4132   4.074   4.889   3.497
 1397TIP3   OH2 4133   3.193   2.665   0.750
 1397TIP3    H1 4134   3.203   2.583   0.702
 1397TIP3    H2 4135   3.102   2.666   0.779
 1398TIP3   OH2 4136   2.625   1.871   4.075
 1398TIP3    H1 4137   2.585   1.905   4.155
 1398TIP3    H2 4138   2.719   1.885   4.087
 1399TIP3   OH2 4139   3.481   2.011   5.768
 1399TIP3    H1 4140   3.386   2.017   5.757
 1399TIP3    H2 4141   3.494   2.020   5.862
 1400TIP3   OH2 4142   0.136   3.415   5.227
 1400TIP3    H1 4143   0.149   3.363   5.148
 1400TIP3    H2 4144   0.075   3.364   5.280
 1401TIP3   OH2 4145   0.517   7.549   3.156
 1401TIP3    H1 4146   0.564   7.499   3.090
 1401TIP3    H2 4147   0.561   7.527   3.238
 1402TIP3   OH2 4148   8.193   4.708   2.176
 1402TIP3    H1 4149   8.273   4.666   2.144
 1402TIP3    H2 4150   8.195   4.696   2.271
 1403TIP3   OH2 4151   6.458   5.589   5.080
 1403TIP3    H1 4152   6.485   5.497   5.076
 1403TIP3    H2 4153   6.375   5.588   5.128
 1404TIP3   OH2 4154   0.995   6.217   3.981
 1404TIP3    H1 4155   0.974   6.288   4.041
 1404TIP3    H2 4156   0.911   6.173   3.966
 1405TIP3   OH2 4157   4.399   6.427   1.471
 1405TIP3    H1 4158   4.348   6.504   1.447
 1405TIP3    H2 4159   4.462   6.417   1.400
 1406TIP3   OH2 4160   3.263   4.045   6.338
 1406TIP3    H1 4161   3.280   4.011   6.426
 1406TIP3    H2 4162   3.188   3.994   6.307
 1407TIP3   OH2 4163   6.398   1.597   6.190
 1407TIP3    H1 4164   6.364   1.665   6.249
 1407TIP3    H2 4165   6.340   1.523   6.203
 1408TIP3   OH2 4166   0.148   7.174   5.512
 1408TIP3    H1 4167   0.088   7.101   5.526
 1408TIP3    H2 4168   0.235   7.136   5.517
 1409TIP3   OH2 4169   0.016   4.797   0.473
 1409TIP3    H1 4170  -0.013   4.835   0.390
 1409TIP3    H2 4171   0.101   4.759   0.453
 1410TIP3   OH2 4172   7.000   2.106   5.720
 1410TIP3    H1 4173   7.057   2.137   5.650
 1410TIP3    H2 4174   7.043   2.134   5.800
 1411TIP3   OH2 4175   7.883   6.405   2.752
 1411TIP3    H1 4176   7.896   6.352   2.830
 1411TIP3    H2 4177   7.942   6.480   2.763
 1412TIP3   OH2 4178   4.419   7.686   0.563
 1412TIP3    H1 4179   4.503   7.732   0.555
 1412TIP3    H2 4180   4.376   7.701   0.479
 1413TIP3   OH2 4181   0.936   4.100   3.419
 1413TIP3    H1 4182   0.950   4.174   3.360
 1413TIP3    H2 4183   0.867   4.049   3.377
 1414TIP3   OH2 4184   0.105   4.069   3.327
 1414TIP3    H1 4185   0.056   4.008   3.273
 1414TIP3    H2 4186   0.197   4.054   3.304
 1415TIP3   OH2 4187   3.787   2.603   4.907
 1415TIP3    H1 4188   3.796   2.620   5.001
 1415TIP3    H2 4189   3.876   2.612   4.873
 1416TIP3   OH2 4190   7.491   2.899   3.931
 1416TIP3    H1 4191   7.495   2.864   4.020
 1416TIP3    H2 4192   7.512   2.825   3.875
 1417TIP3   OH2 4193   2.908   7.481   6.491
 1417TIP3    H1 4194   2.896   7.446   6.580
 1417TIP3    H2 4195   2.829   7.533   6.475
 1418TIP3   OH2 4196   3.293   7.390   0.712
 1418TIP3    H1 4197   3.245   7.399   0.794
 1418TIP3    H2 4198   3.290   7.297   0.693
 1419TIP3   OH2 4199   7.713   3.840   0.975
 1419TIP3    H1 4200   7.665   3.893   0.910
 1419TIP3    H2 4201   7.775   3.789   0.922
 1420TIP3   OH2 4202   6.728   5.796   1.879
 1420TIP3    H1 4203   6.729   5.700   1.889
 1420TIP3    H2 4204   6.819   5.819   1.863
 1421TIP3   OH2 4205   4.782   6.108   6.220
 1421TIP3    H1 4206   4.805   6.061   6.301
 1421TIP3    H2 4207   4.811   6.198   6.236
 1422TIP3   OH2 4208   0.437   6.395   0.448
 1422TIP3    H1 4209   0.446   6.311   0.402
 1422TIP3    H2 4210   0.433   6.371   0.541
 1423TIP3   OH2 4211   3.574   6.891   0.198
 1423TIP3    H1 4212   3.534   6.968   0.157
 1423TIP3    H2 4213   3.530   6.884   0.283
 1424TIP3   OH2 4214   1.690   6.829   0.142
 1424TIP3    H1 4215   1.760   6.801   0.201
 1424TIP3    H2 4216   1.731   6.829   0.055
 1425TIP3   OH2 4217   3.328   2.944   0.628
 1425TIP3    H1 4218   3.251   2.943   0.571
 1425TIP3    H2 4219   3.357   3.036   0.626
 1426TIP3   OH2 4220   7.171   1.439   4.658
 1426TIP3    H1 4221   7.171   1.379   4.584
 1426TIP3    H2 4222   7.140   1.522   4.622
 1427TIP3   OH2 4223   7.197   4.427   1.126
 1427TIP3    H1 4224   7.145   4.487   1.179
 1427TIP3    H2 4225   7.221   4.478   1.049
 1428TIP3   OH2 4226   7.872   6.900   3.083
 1428TIP3    H1 4227   7.842   6.918   2.994
 1428TIP3    H2 4228   7.848   6.808   3.098
 1429TIP3   OH2 4229   0.221   3.295   4.562
 1429TIP3    H1 4230   0.185   3.380   4.590
 1429TIP3    H2 4231   0.294   3.280   4.622
 1430TIP3   OH2 4232   1.596   6.153   0.061
 1430TIP3    H1 4233   1.649   6.229   0.034
 1430TIP3    H2 4234   1.521   6.154   0.002
 1431TIP3   OH2 4235   1.943   1.915   2.691
 1431TIP3    H1 4236   2.005   1.975   2.649
 1431TIP3    H2 4237   1.881   1.973   2.736
 1432TIP3   OH2 4238   0.912   7.700   6.655
 1432TIP3    H1 4239   0.835   7.669   6.608
 1432TIP3    H2 4240   0.967   7.738   6.586
 1433TIP3   OH2 4241   3.491   1.458   1.240
 1433TIP3    H1 4242   3.494   1.472   1.335
 1433TIP3    H2 4243   3.553   1.522   1.205
 1434TIP3   OH2 4244   4.790   1.635   2.537
 1434TIP3    H1 4245   4.828   1.554   2.501
 1434TIP3    H2 4246   4.749   1.607   2.618
 1435TIP3   OH2 4247   5.129   3.333   1.837
 1435TIP3    H1 4248   5.037   3.311   1.823
 1435TIP3    H2 4249   5.150   3.392   1.764
 1436TIP3   OH2 4250   2.162   2.132   1.682
 1436TIP3    H1 4251   2.116   2.207   1.719
 1436TIP3    H2 4252   2.095   2.084   1.633
 1437TIP3   OH2 4253   2.327   0.351   0.262
 1437TIP3    H1 4254   2.351   0.400   0.184
 1437TIP3    H2 4255   2.310   0.418   0.329
 1438TIP3   OH2 4256   8.244   5.227   5.069
 1438TIP3    H1 4257   8.250   5.168   4.994
 1438TIP3    H2 4258   8.335   5.248   5.090
 1439TIP3   OH2 4259   7.455   3.453   1.888
 1439TIP3    H1 4260   7.545   3.449   1.921
 1439TIP3    H2 4261   7.406   3.394   1.945
 1440TIP3   OH2 4262   6.898   5.191   0.814
 1440TIP3    H1 4263   6.822   5.244   0.790
 1440TIP3    H2 4264   6.896   5.188   0.909
 1441TIP3   OH2 4265   8.157   4.597   6.372
 1441TIP3    H1 4266   8.220   4.631   6.308
 1441TIP3    H2 4267   8.085   4.659   6.370
 1442TIP3   OH2 4268   6.341   3.094   1.238
 1442TIP3    H1 4269   6.413   3.042   1.201
 1442TIP3    H2 4270   6.323   3.161   1.171
 1443TIP3   OH2 4271   7.925   5.167   6.722
 1443TIP3    H1 4272   8.013   5.184   6.691
 1443TIP3    H2 4273   7.868   5.214   6.660
 1444TIP3   OH2 4274   3.502   7.390   1.924
 1444TIP3    H1 4275   3.552   7.471   1.914
 1444TIP3    H2 4276   3.517   7.363   2.015
 1445TIP3   OH2 4277   5.879   5.911   3.904
 1445TIP3    H1 4278   5.882   5.926   3.809
 1445TIP3    H2 4279   5.791   5.940   3.930
 1446TIP3   OH2 4280   7.253   4.812   0.872
 1446TIP3    H1 4281   7.189   4.744   0.892
 1446TIP3    H2 4282   7.212   4.893   0.901
 1447TIP3   OH2 4283   4.378   7.406   5.168
 1447TIP3    H1 4284   4.458   7.454   5.148
 1447TIP3    H2 4285   4.373   7.338   5.101
 1448TIP3   OH2 4286   4.024   3.678   6.585
 1448TIP3    H1 4287   4.042   3.650   6.674
 1448TIP3    H2 4288   3.930   3.697   6.584
 1449TIP3   OH2 4289   3.723   4.675   2.923
 1449TIP3    H1 4290   3.751   4.672   3.014
 1449TIP3    H2 4291   3.777   4.610   2.879
 1450TIP3   OH2 4292   2.030   5.938   1.956
 1450TIP3    H1 4293   1.958   5.997   1.976
 1450TIP3    H2 4294   2.072   5.977   1.878
 1451TIP3   OH2 4295   1.808   2.968   5.130
 1451TIP3    H1 4296   1.713   2.981   5.134
 1451TIP3    H2 4297   1.836   2.968   5.221
 1452TIP3   OH2 4298   8.106   0.828   5.836
 1452TIP3    H1 4299   8.100   0.742   5.794
 1452TIP3    H2 4300   8.142   0.810   5.923
 1453TIP3   OH2 4301   7.652   0.689   6.702
 1453TIP3    H1 4302   7.645   0.595   6.719
 1453TIP3    H2 4303   7.609   0.701   6.617
 1454TIP3   OH2 4304   0.111   6.050   0.213
 1454TIP3    H1 4305   0.097   6.128   0.267
 1454TIP3    H2 4306   0.051   6.060   0.139
 1455TIP3   OH2 4307   4.043   1.549   0.477
 1455TIP3    H1 4308   3.949   1.528   0.470
 1455TIP3    H2 4309   4.071   1.568   0.388
 1456TIP3   OH2 4310   2.249   4.070   1.603
 1456TIP3    H1 4311   2.217   4.155   1.633
 1456TIP3    H2 4312   2.301   4.036   1.675
 1457TIP3   OH2 4313   0.946   3.460   4.385
 1457TIP3    H1 4314   1.015   3.524   4.364
 1457TIP3    H2 4315   0.916   3.428   4.300
 1458TIP3   OH2 4316   8.237   1.386   1.768
 1458TIP3    H1 4317   8.307   1.426   1.717
 1458TIP3    H2 4318   8.283   1.340   1.839
 1459TIP3   OH2 4319   1.216   0.597   0.764
 1459TIP3    H1 4320   1.308   0.611   0.740
 1459TIP3    H2 4321   1.198   0.665   0.829
 1460TIP3   OH2 4322   1.023   4.477   3.480
 1460TIP3    H1 4323   1.085   4.413   3.514
 1460TIP3    H2 4324   1.025   4.548   3.545
 1461TIP3   OH2 4325   4.893   4.106   0.944
 1461TIP3    H1 4326   4.980   4.067   0.933
 1461TIP3    H2 4327   4.872   4.142   0.858
 1462TIP3   OH2 4328   4.460   5.963   3.073
 1462TIP3    H1 4329   4.523   5.915   3.018
 1462TIP3    H2 4330   4.386   5.980   3.015
 1463TIP3   OH2 4331   2.269   0.460   4.088
 1463TIP3    H1 4332   2.179   0.484   4.108
 1463TIP3    H2 4333   2.322   0.529   4.128
 1464TIP3   OH2 4334   6.629   5.498   3.328
 1464TIP3    H1 4335   6.672   5.571   3.371
 1464TIP3    H2 4336   6.563   5.468   3.391
 1465TIP3   OH2 4337   7.463   2.223   4.023
 1465TIP3    H1 4338   7.505   2.289   3.969
 1465TIP3    H2 4339   7.528   2.153   4.030
 1466TIP3   OH2 4340   8.222   3.616   6.659
 1466TIP3    H1 4341   8.253   3.683   6.719
 1466TIP3    H2 4342   8.257   3.642   6.574
 1467TIP3   OH2 4343   7.151   7.180   2.283
 1467TIP3    H1 4344   7.164   7.231   2.362
 1467TIP3    H2 4345   7.236   7.179   2.240
 1468TIP3   OH2 4346   5.958   3.921   6.175
 1468TIP3    H1 4347   6.033   3.872   6.209
 1468TIP3    H2 4348   5.965   4.007   6.217
 1469TIP3   OH2 4349   1.972   7.205   5.684
 1469TIP3    H1 4350   1.975   7.176   5.593
 1469TIP3    H2 4351   2.062   7.197   5.715
 1470TIP3   OH2 4352   5.903   3.969   2.762
 1470TIP3    H1 4353   5.835   3.907   2.788
 1470TIP3    H2 4354   5.897   3.974   2.667
 1471TIP3   OH2 4355   5.718   7.454   0.226
 1471TIP3    H1 4356   5.744   7.502   0.147
 1471TIP3    H2 4357   5.741   7.363   0.207
 1472TIP3   OH2 4358   7.101   6.939   6.761
 1472TIP3    H1 4359   7.176   6.958   6.817
 1472TIP3    H2 4360   7.130   6.868   6.704
 1473TIP3   OH2 4361   3.981   6.652   1.060
 1473TIP3    H1 4362   3.917   6.713   1.099
 1473TIP3    H2 4363   3.969   6.571   1.109
 1474TIP3   OH2 4364   1.022   0.393   6.498
 1474TIP3    H1 4365   1.056   0.467   6.549
 1474TIP3    H2 4366   0.927   0.400   6.509
 1475TIP3   OH2 4367   3.063   6.186   2.476
 1475TIP3    H1 4368   3.078   6.251   2.407
 1475TIP3    H2 4369   2.983   6.215   2.519
 1476TIP3   OH2 4370   4.239   0.884   4.800
 1476TIP3    H1 4371   4.262   0.892   4.708
 1476TIP3    H2 4372   4.144   0.889   4.802
 1477TIP3   OH2 4373   6.191   0.646   3.613
 1477TIP3    H1 4374   6.189   0.623   3.520
 1477TIP3    H2 4375   6.241   0.728   3.616
 1478TIP3   OH2 4376   1.083   7.657   0.306
 1478TIP3    H1 4377   1.079   7.736   0.360
 1478TIP3    H2 4378   1.150   7.677   0.240
 1479TIP3   OH2 4379   6.026   4.948   0.224
 1479TIP3    H1 4380   5.959   4.945   0.155
 1479TIP3    H2 4381   6.034   5.041   0.245
 1480TIP3   OH2 4382   6.372   4.992   2.852
 1480TIP3    H1 4383   6.394   5.060   2.916
 1480TIP3    H2 4384   6.448   4.933   2.853
 1481TIP3   OH2 4385   4.247   3.878   6.216
 1481TIP3    H1 4386   4.245   3.938   6.141
 1481TIP3    H2 4387   4.272   3.794   6.178
 1482TIP3   OH2 4388   2.486   1.154   4.446
 1482TIP3    H1 4389   2.469   1.211   4.370
 1482TIP3    H2 4390   2.573   1.117   4.429
 1483TIP3   OH2 4391   2.715   4.054   0.629
 1483TIP3    H1 4392   2.752   4.060   0.541
 1483TIP3    H2 4393   2.685   4.142   0.649
 1484TIP3   OH2 4394   2.152   1.437   0.852
 1484TIP3    H1 4395   2.223   1.500   0.861
 1484TIP3    H2 4396   2.195   1.351   0.857
 1485TIP3   OH2 4397   4.683   5.003   0.954
 1485TIP3    H1 4398   4.737   5.075   0.921
 1485TIP3    H2 4399   4.636   4.971   0.877
 1486TIP3   OH2 4400   0.211   1.837   5.448
 1486TIP3    H1 4401   0.139   1.866   5.504
 1486TIP3    H2 4402   0.178   1.850   5.359
 1487TIP3   OH2 4403   4.362   5.931   0.945
 1487TIP3    H1 4404   4.363   5.839   0.969
 1487TIP3    H2 4405   4.394   5.977   1.023
 1488TIP3   OH2 4406   4.514   7.228   3.701
 1488TIP3    H1 4407   4.520   7.144   3.746
 1488TIP3    H2 4408   4.514   7.206   3.608
 1489TIP3   OH2 4409   4.557   0.831   3.539
 1489TIP3    H1 4410   4.527   0.884   3.465
 1489TIP3    H2 4411   4.613   0.889   3.590
 1490TIP3   OH2 4412   2.445   1.146   1.148
 1490TIP3    H1 4413   2.531   1.149   1.189
 1490TIP3    H2 4414   2.454   1.085   1.076
 1491TIP3   OH2 4415   2.791   2.340   1.377
 1491TIP3    H1 4416   2.778   2.412   1.439
 1491TIP3    H2 4417   2.821   2.382   1.297
 1492TIP3   OH2 4418   5.946   4.119   3.451
 1492TIP3    H1 4419   5.890   4.131   3.528
 1492TIP3    H2 4420   5.884   4.107   3.379
 1493TIP3   OH2 4421   6.245   4.783   3.067
 1493TIP3    H1 4422   6.180   4.807   3.001
 1493TIP3    H2 4423   6.243   4.687   3.069
 1494TIP3   OH2 4424   1.825   4.606   4.620
 1494TIP3    H1 4425   1.821   4.535   4.556
 1494TIP3    H2 4426   1.878   4.572   4.692
 1495TIP3   OH2 4427   7.251   3.750   6.239
 1495TIP3    H1 4428   7.334   3.711   6.266
 1495TIP3    H2 4429   7.276   3.833   6.197
 1496TIP3   OH2 4430   5.909   0.649   4.559
 1496TIP3    H1 4431   5.903   0.555   4.572
 1496TIP3    H2 4432   5.902   0.686   4.647
 1497TIP3   OH2 4433   8.057   1.934   3.685
 1497TIP3    H1 4434   8.088   1.887   3.762
 1497TIP3    H2 4435   8.137   1.971   3.646
 1498TIP3   OH2 4436   8.082   3.816   6.355
 1498TIP3    H1 4437   8.078   3.784   6.265
 1498TIP3    H2 4438   8.166   3.786   6.388
 1499TIP3   OH2 4439   5.425   2.869   0.258
 1499TIP3    H1 4440   5.460   2.821   0.183
 1499TIP3    H2 4441   5.335   2.838   0.266
 1500TIP3   OH2 4442   3.357   2.319   1.153
 1500TIP3    H1 4443   3.304   2.317   1.074
 1500TIP3    H2 4444   3.388   2.409   1.159
 1501TIP3   OH2 4445   6.455   3.059   5.921
 1501TIP3    H1 4446   6.543   3.044   5.885
 1501TIP3    H2 4447   6.428   2.974   5.955
 1502TIP3   OH2 4448   0.767   2.510   0.974
 1502TIP3    H1 4449   0.772   2.461   1.056
 1502TIP3    H2 4450   0.715   2.588   0.995
 1503TIP3   OH2 4451   1.085   7.597   4.542
 1503TIP3    H1 4452   1.152   7.529   4.532
 1503TIP3    H2 4453   1.010   7.551   4.580
 1504TIP3   OH2 4454   2.491   7.570   1.697
 1504TIP3    H1 4455   2.577   7.573   1.655
 1504TIP3    H2 4456   2.462   7.662   1.698
 1505TIP3   OH2 4457   5.596   6.086   4.613
 1505TIP3    H1 4458   5.686   6.067   4.586
 1505TIP3    H2 4459   5.602   6.169   4.661
 1506TIP3   OH2 4460   4.907   7.370   3.060
 1506TIP3    H1 4461   5.002   7.355   3.059
 1506TIP3    H2 4462   4.894   7.438   2.994
 1507TIP3   OH2 4463   4.402   6.614   4.663
 1507TIP3    H1 4464   4.434   6.680   4.725
 1507TIP3    H2 4465   4.459   6.538   4.678
 1508TIP3   OH2 4466   3.537   2.845   3.348
 1508TIP3    H1 4467   3.564   2.843   3.256
 1508TIP3    H2 4468   3.578   2.767   3.386
 1509TIP3   OH2 4469   8.006   4.520   3.332
 1509TIP3    H1 4470   7.974   4.434   3.304
 1509TIP3    H2 4471   8.085   4.502   3.383
 1510TIP3   OH2 4472   4.377   6.012   6.378
 1510TIP3    H1 4473   4.458   6.055   6.406
 1510TIP3    H2 4474   4.359   5.948   6.447
 1511TIP3   OH2 4475   5.171   7.188   5.610
 1511TIP3    H1 4476   5.256   7.229   5.599
 1511TIP3    H2 4477   5.140   7.219   5.695
 1512TIP3   OH2 4478   0.477   7.273   5.414
 1512TIP3    H1 4479   0.544   7.308   5.356
 1512TIP3    H2 4480   0.523   7.205   5.464
 1513TIP3   OH2 4481   1.813   2.637   5.336
 1513TIP3    H1 4482   1.740   2.697   5.354
 1513TIP3    H2 4483   1.771   2.557   5.305
 1514TIP3   OH2 4484   7.654   4.733   3.313
 1514TIP3    H1 4485   7.702   4.715   3.232
 1514TIP3    H2 4486   7.671   4.657   3.368
 1515TIP3   OH2 4487   6.664   0.177   6.072
 1515TIP3    H1 4488   6.724   0.168   6.145
 1515TIP3    H2 4489   6.649   0.272   6.064
 1516TIP3   OH2 4490   2.132   2.469   3.571
 1516TIP3    H1 4491   2.125   2.546   3.628
 1516TIP3    H2 4492   2.224   2.468   3.545
 1517TIP3   OH2 4493   3.547   5.229   6.038
 1517TIP3    H1 4494   3.483   5.258   6.103
 1517TIP3    H2 4495   3.582   5.309   6.000
 1518TIP3   OH2 4496   2.920   6.349   6.339
 1518TIP3    H1 4497   2.944   6.441   6.347
 1518TIP3    H2 4498   2.829   6.346   6.368
 1519TIP3   OH2 4499   3.984   4.630   5.763
 1519TIP3    H1 4500   3.992   4.632   5.858
 1519TIP3    H2 4501   4.044   4.699   5.732
 1520TIP3   OH2 4502   7.078   3.358   5.307
 1520TIP3    H1 4503   7.013   3.322   5.247
 1520TIP3    H2 4504   7.034   3.432   5.349
 1521TIP3   OH2 4505   7.630   1.703   2.470
 1521TIP3    H1 4506   7.551   1.754   2.454
 1521TIP3    H2 4507   7.602   1.612   2.459
 1522TIP3   OH2 4508   4.764   1.042   0.622
 1522TIP3    H1 4509   4.675   1.033   0.588
 1522TIP3    H2 4510   4.753   1.057   0.716
 1523TIP3   OH2 4511   6.939   4.049   4.960
 1523TIP3    H1 4512   6.869   4.097   5.004
 1523TIP3    H2 4513   7.017   4.067   5.012
 1524TIP3   OH2 4514   1.747   7.393   5.060
 1524TIP3    H1 4515   1.752   7.314   5.007
 1524TIP3    H2 4516   1.726   7.361   5.148
 1525TIP3   OH2 4517   3.978   6.817   5.634
 1525TIP3    H1 4518   3.906   6.813   5.697
 1525TIP3    H2 4519   4.018   6.730   5.638
 1526TIP3   OH2 4520   0.985   0.673   2.239
 1526TIP3    H1 4521   1.068   0.639   2.273
 1526TIP3    H2 4522   0.990   0.768   2.254
 1527TIP3   OH2 4523   7.153   4.545   4.495
 1527TIP3    H1 4524   7.083   4.544   4.561
 1527TIP3    H2 4525   7.109   4.523   4.413
 1528TIP3   OH2 4526   0.126   3.957   4.910
 1528TIP3    H1 4527   0.066   4.028   4.885
 1528TIP3    H2 4528   0.179   3.993   4.981
 1529TIP3   OH2 4529   4.819   4.804   6.330
 1529TIP3    H1 4530   4.817   4.740   6.258
 1529TIP3    H2 4531   4.862   4.757   6.402
 1530TIP3   OH2 4532   4.671   0.123   0.129
 1530TIP3    H1 4533   4.613   0.161   0.195
 1530TIP3    H2 4534   4.738   0.076   0.179
 1531TIP3   OH2 4535   5.211   5.436   1.775
 1531TIP3    H1 4536   5.177   5.383   1.848
 1531TIP3    H2 4537   5.228   5.522   1.814
 1532TIP3   OH2 4538   7.642   5.326   3.042
 1532TIP3    H1 4539   7.716   5.382   3.018
 1532TIP3    H2 4540   7.566   5.383   3.038
 1533TIP3   OH2 4541   2.548   0.877   6.334
 1533TIP3    H1 4542   2.635   0.898   6.301
 1533TIP3    H2 4543   2.563   0.846   6.423
 1534TIP3   OH2 4544   1.522   0.989   2.390
 1534TIP3    H1 4545   1.531   0.931   2.465
 1534TIP3    H2 4546   1.577   0.950   2.322
 1535TIP3   OH2 4547   4.777   0.348   0.649
 1535TIP3    H1 4548   4.681   0.343   0.648
 1535TIP3    H2 4549   4.805   0.260   0.675
 1536TIP3   OH2 4550   2.091   3.870   3.003
 1536TIP3    H1 4551   2.044   3.849   3.083
 1536TIP3    H2 4552   2.179   3.893   3.032
 1537TIP3   OH2 4553   0.228   6.178   0.611
 1537TIP3    H1 4554   0.152   6.120   0.625
 1537TIP3    H2 4555   0.282   6.131   0.548
 1538TIP3   OH2 4556   4.069   0.971   0.854
 1538TIP3    H1 4557   4.078   0.979   0.759
 1538TIP3    H2 4558   4.153   1.000   0.889
 1539TIP3   OH2 4559   4.927   6.719   0.281
 1539TIP3    H1 4560   4.854   6.657   0.272
 1539TIP3    H2 4561   4.922   6.748   0.372
 1540TIP3   OH2 4562   0.242   2.152   1.493
 1540TIP3    H1 4563   0.247   2.231   1.439
 1540TIP3    H2 4564   0.292   2.173   1.572
 1541TIP3   OH2 4565   5.556   7.201   0.836
 1541TIP3    H1 4566   5.578   7.192   0.929
 1541TIP3    H2 4567   5.580   7.290   0.814
 1542TIP3   OH2 4568   2.522   1.627   6.148
 1542TIP3    H1 4569   2.476   1.644   6.066
 1542TIP3    H2 4570   2.455   1.637   6.215
 1543TIP3   OH2 4571   6.903   2.544   4.286
 1543TIP3    H1 4572   6.991   2.507   4.280
 1543TIP3    H2 4573   6.860   2.518   4.204
 1544TIP3   OH2 4574   6.545   5.617   2.639
 1544TIP3    H1 4575   6.528   5.708   2.666
 1544TIP3    H2 4576   6.506   5.610   2.552
 1545TIP3   OH2 4577   6.404   3.354   4.515
 1545TIP3    H1 4578   6.366   3.412   4.581
 1545TIP3    H2 4579   6.473   3.307   4.560
 1546TIP3   OH2 4580   3.594   5.125   3.778
 1546TIP3    H1 4581   3.661   5.172   3.828
 1546TIP3    H2 4582   3.564   5.056   3.837
 1547TIP3   OH2 4583   7.655   0.859   1.676
 1547TIP3    H1 4584   7.603   0.902   1.608
 1547TIP3    H2 4585   7.627   0.901   1.758
 1548TIP3   OH2 4586   5.645   1.855   6.283
 1548TIP3    H1 4587   5.585   1.790   6.319
 1548TIP3    H2 4588   5.620   1.862   6.191
 1549TIP3   OH2 4589   5.326   0.615   4.995
 1549TIP3    H1 4590   5.341   0.521   4.993
 1549TIP3    H2 4591   5.348   0.641   5.084
 1550TIP3   OH2 4592   2.445   4.089   5.041
 1550TIP3    H1 4593   2.446   4.149   4.966
 1550TIP3    H2 4594   2.406   4.009   5.007
 1551TIP3   OH2 4595   0.470   5.374   0.881
 1551TIP3    H1 4596   0.399   5.326   0.838
 1551TIP3    H2 4597   0.439   5.388   0.970
 1552TIP3   OH2 4598   2.829   0.864   6.434
 1552TIP3    H1 4599   2.916   0.824   6.442
 1552TIP3    H2 4600   2.823   0.890   6.342
 1553TIP3   OH2 4601   5.426   5.570   2.153
 1553TIP3    H1 4602   5.371   5.500   2.189
 1553TIP3    H2 4603   5.507   5.527   2.128
 1554TIP3   OH2 4604   6.883   6.111   2.244
 1554TIP3    H1 4605   6.823   6.069   2.183
 1554TIP3    H2 4606   6.826   6.153   2.309
 1555TIP3   OH2 4607   8.277   7.131   5.192
 1555TIP3    H1 4608   8.249   7.072   5.123
 1555TIP3    H2 4609   8.300   7.074   5.265
 1556TIP3   OH2 4610   0.633   3.161   3.260
 1556TIP3    H1 4611   0.566   3.120   3.206
 1556TIP3    H2 4612   0.585   3.212   3.325
 1557TIP3   OH2 4613   6.650   7.143   5.665
 1557TIP3    H1 4614   6.622   7.231   5.637
 1557TIP3    H2 4615   6.722   7.121   5.606
 1558TIP3   OH2 4616   5.615   6.851   0.292
 1558TIP3    H1 4617   5.707   6.869   0.271
 1558TIP3    H2 4618   5.587   6.788   0.225
 1559TIP3   OH2 4619   3.564   6.792   1.618
 1559TIP3    H1 4620   3.566   6.773   1.524
 1559TIP3    H2 4621   3.562   6.706   1.660
 1560TIP3   OH2 4622   6.612   5.340   3.646
 1560TIP3    H1 4623   6.644   5.286   3.719
 1560TIP3    H2 4624   6.517   5.327   3.647
 1561TIP3   OH2 4625   4.510   1.408   5.687
 1561TIP3    H1 4626   4.450   1.340   5.719
 1561TIP3    H2 4627   4.458   1.458   5.624
 1562TIP3   OH2 4628   6.748   5.390   5.815
 1562TIP3    H1 4629   6.801   5.442   5.753
 1562TIP3    H2 4630   6.703   5.456   5.868
 1563TIP3   OH2 4631   5.743   5.687   0.615
 1563TIP3    H1 4632   5.757   5.769   0.663
 1563TIP3    H2 4633   5.831   5.651   0.605
 1564TIP3   OH2 4634   6.989   6.158   1.148
 1564TIP3    H1 4635   7.081   6.170   1.174
 1564TIP3    H2 4636   6.994   6.102   1.070
 1565TIP3   OH2 4637   2.797   5.244   6.075
 1565TIP3    H1 4638   2.772   5.165   6.123
 1565TIP3    H2 4639   2.768   5.228   5.985
 1566TIP3   OH2 4640   2.037   6.881   5.246
 1566TIP3    H1 4641   2.101   6.925   5.190
 1566TIP3    H2 4642   2.090   6.832   5.309
 1567TIP3   OH2 4643   2.716   7.342   6.033
 1567TIP3    H1 4644   2.635   7.368   6.076
 1567TIP3    H2 4645   2.709   7.377   5.944
 1568TIP3   OH2 4646   5.288   0.067   2.988
 1568TIP3    H1 4647   5.286   0.128   3.061
 1568TIP3    H2 4648   5.217   0.006   3.006
 1569TIP3   OH2 4649   6.465   4.132   6.221
 1569TIP3    H1 4650   6.391   4.192   6.235
 1569TIP3    H2 4651   6.456   4.066   6.290
 1570TIP3   OH2 4652   0.199   3.631   2.493
 1570TIP3    H1 4653   0.253   3.676   2.558
 1570TIP3    H2 4654   0.109   3.645   2.523
 1571TIP3   OH2 4655   6.064   0.368   5.817
 1571TIP3    H1 4656   6.159   0.378   5.814
 1571TIP3    H2 4657   6.050   0.289   5.870
 1572TIP3   OH2 4658   0.220   6.558   2.079
 1572TIP3    H1 4659   0.177   6.489   2.028
 1572TIP3    H2 4660   0.187   6.640   2.041
 1573TIP3   OH2 4661   1.893   5.929   1.277
 1573TIP3    H1 4662   1.855   5.996   1.334
 1573TIP3    H2 4663   1.888   5.966   1.189
 1574TIP3   OH2 4664   1.499   7.702   3.577
 1574TIP3    H1 4665   1.570   7.660   3.530
 1574TIP3    H2 4666   1.474   7.776   3.522
 1575TIP3   OH2 4667   4.063   3.420   5.285
 1575TIP3    H1 4668   4.022   3.414   5.371
 1575TIP3    H2 4669   4.004   3.372   5.227
 1576TIP3   OH2 4670   0.816   1.655   2.670
 1576TIP3    H1 4671   0.908   1.661   2.698
 1576TIP3    H2 4672   0.766   1.660   2.752
 1577TIP3   OH2 4673   7.560   7.410   2.143
 1577TIP3    H1 4674   7.613   7.472   2.192
 1577TIP3    H2 4675   7.525   7.460   2.070
 1578TIP3   OH2 4676   1.154   3.835   3.860
 1578TIP3    H1 4677   1.096   3.848   3.936
 1578TIP3    H2 4678   1.097   3.798   3.793
 1579TIP3   OH2 4679   7.524   2.727   0.860
 1579TIP3    H1 4680   7.549   2.704   0.771
 1579TIP3    H2 4681   7.489   2.816   0.853
 1580TIP3   OH2 4682   7.782   1.080   4.441
 1580TIP3    H1 4683   7.762   1.027   4.518
 1580TIP3    H2 4684   7.774   1.170   4.470
 1581TIP3   OH2 4685   7.607   0.670   2.344
 1581TIP3    H1 4686   7.651   0.629   2.418
 1581TIP3    H2 4687   7.531   0.615   2.328
 1582TIP3   OH2 4688   2.134   2.647   4.313
 1582TIP3    H1 4689   2.197   2.718   4.302
 1582TIP3    H2 4690   2.167   2.597   4.388
 1583TIP3   OH2 4691   1.210   6.364   4.590
 1583TIP3    H1 4692   1.240   6.299   4.526
 1583TIP3    H2 4693   1.290   6.394   4.633
 1584TIP3   OH2 4694   6.932   3.461   6.443
 1584TIP3    H1 4695   6.943   3.448   6.537
 1584TIP3    H2 4696   6.840   3.443   6.427
 1585TIP3   OH2 4697   1.249   3.597   3.320
 1585TIP3    H1 4698   1.294   3.677   3.293
 1585TIP3    H2 4699   1.314   3.527   3.309
 1586TIP3   OH2 4700   7.760   0.248   0.721
 1586TIP3    H1 4701   7.770   0.339   0.693
 1586TIP3    H2 4702   7.698   0.210   0.659
 1587TIP3   OH2 4703   4.092   3.790   2.474
 1587TIP3    H1 4704   4.074   3.821   2.563
 1587TIP3    H2 4705   4.184   3.813   2.459
 1588TIP3   OH2 4706   7.474   7.633   3.604
 1588TIP3    H1 4707   7.560   7.601   3.633
 1588TIP3    H2 4708   7.412   7.591   3.662
 1589TIP3   OH2 4709   6.152   1.919   3.344
 1589TIP3    H1 4710   6.175   1.826   3.349
 1589TIP3    H2 4711   6.079   1.929   3.404
 1590TIP3   OH2 4712   3.954   6.995   3.881
 1590TIP3    H1 4713   4.025   6.937   3.851
 1590TIP3    H2 4714   3.941   7.056   3.808
 1591TIP3   OH2 4715   2.447   4.578   6.280
 1591TIP3    H1 4716   2.441   4.494   6.234
 1591TIP3    H2 4717   2.383   4.571   6.351
 1592TIP3   OH2 4718   4.125   7.007   6.434
 1592TIP3    H1 4719   4.090   7.071   6.496
 1592TIP3    H2 4720   4.148   7.058   6.357
 1593TIP3   OH2 4721   2.532   2.715   4.286
 1593TIP3    H1 4722   2.611   2.719   4.339
 1593TIP3    H2 4723   2.475   2.784   4.322
 1594TIP3   OH2 4724   5.691   0.416   3.734
 1594TIP3    H1 4725   5.607   0.403   3.779
 1594TIP3    H2 4726   5.682   0.367   3.653
 1595TIP3   OH2 4727   5.013   1.614   0.447
 1595TIP3    H1 4728   4.988   1.631   0.356
 1595TIP3    H2 4729   4.981   1.690   0.495
 1596TIP3   OH2 4730   5.836   4.369   5.213
 1596TIP3    H1 4731   5.911   4.353   5.156
 1596TIP3    H2 4732   5.764   4.388   5.154
 1597TIP3   OH2 4733   0.019   2.171   0.117
 1597TIP3    H1 4734  -0.045   2.110   0.151
 1597TIP3    H2 4735   0.098   2.119   0.103
 1598TIP3   OH2 4736   2.697   2.433   5.350
 1598TIP3    H1 4737   2.718   2.356   5.297
 1598TIP3    H2 4738   2.782   2.474   5.368
 1599TIP3   OH2 4739   5.093   5.524   3.234
 1599TIP3    H1 4740   5.159   5.540   3.167
 1599TIP3    H2 4741   5.077   5.430   3.230
 1600TIP3   OH2 4742   1.801   0.404   3.782
 1600TIP3    H1 4743   1.820   0.354   3.703
 1600TIP3    H2 4744   1.734   0.353   3.827
 1601TIP3   OH2 4745   5.307   0.545   1.969
 1601TIP3    H1 4746   5.288   0.583   2.055
 1601TIP3    H2 4747   5.383   0.489   1.984
 1602TIP3   OH2 4748   7.274   5.613   5.445
 1602TIP3    H1 4749   7.207   5.601   5.378
 1602TIP3    H2 4750   7.339   5.545   5.425
 1603TIP3   OH2 4751   2.734   7.173   1.542
 1603TIP3    H1 4752   2.696   7.085   1.542
 1603TIP3    H2 4753   2.826   7.160   1.567
 1604TIP3   OH2 4754   6.663   4.812   5.480
 1604TIP3    H1 4755   6.729   4.864   5.526
 1604TIP3    H2 4756   6.582   4.863   5.488
 1605TIP3   OH2 4757   4.159   6.589   1.378
 1605TIP3    H1 4758   4.097   6.524   1.346
 1605TIP3    H2 4759   4.120   6.623   1.459
 1606TIP3   OH2 4760   6.042   5.932   0.486
 1606TIP3    H1 4761   5.952   5.963   0.481
 1606TIP3    H2 4762   6.095   6.012   0.488
 1607TIP3   OH2 4763   5.226   1.947   1.491
 1607TIP3    H1 4764   5.305   1.936   1.437
 1607TIP3    H2 4765   5.203   1.859   1.520
 1608TIP3   OH2 4766   7.170   6.663   5.991
 1608TIP3    H1 4767   7.205   6.658   6.080
 1608TIP3    H2 4768   7.107   6.735   5.994
 1609TIP3   OH2 4769   1.602   0.257   4.604
 1609TIP3    H1 4770   1.552   0.204   4.542
 1609TIP3    H2 4771   1.539   0.318   4.640
 1610TIP3   OH2 4772   5.825   7.273   2.408
 1610TIP3    H1 4773   5.870   7.230   2.336
 1610TIP3    H2 4774   5.823   7.366   2.383
 1611TIP3   OH2 4775   7.126   6.417   6.289
 1611TIP3    H1 4776   7.089   6.329   6.300
 1611TIP3    H2 4777   7.134   6.451   6.377
 1612TIP3   OH2 4778   3.090   5.226   4.526
 1612TIP3    H1 4779   3.043   5.211   4.608
 1612TIP3    H2 4780   3.088   5.321   4.514
 1613TIP3   OH2 4781   2.991   1.361   0.199
 1613TIP3    H1 4782   3.005   1.404   0.115
 1613TIP3    H2 4783   3.055   1.290   0.202
 1614TIP3   OH2 4784   2.430   7.086   5.627
 1614TIP3    H1 4785   2.480   7.156   5.585
 1614TIP3    H2 4786   2.479   7.065   5.705
 1615TIP3   OH2 4787   4.449   7.562   0.830
 1615TIP3    H1 4788   4.408   7.609   0.758
 1615TIP3    H2 4789   4.543   7.569   0.814
 1616TIP3   OH2 4790   6.932   4.576   4.685
 1616TIP3    H1 4791   6.903   4.648   4.741
 1616TIP3    H2 4792   6.954   4.505   4.746
 1617TIP3   OH2 4793   2.831   6.905   6.556
 1617TIP3    H1 4794   2.914   6.857   6.557
 1617TIP3    H2 4795   2.765   6.838   6.535
 1618TIP3   OH2 4796   4.225   6.758   1.972
 1618TIP3    H1 4797   4.231   6.774   1.878
 1618TIP3    H2 4798   4.149   6.700   1.981
 1619TIP3   OH2 4799   6.086   7.331   1.850
 1619TIP3    H1 4800   6.072   7.320   1.756
 1619TIP3    H2 4801   6.029   7.404   1.874
 1620TIP3   OH2 4802   1.369   1.132   2.063
 1620TIP3    H1 4803   1.396   1.053   2.109
 1620TIP3    H2 4804   1.283   1.110   2.026
 1621TIP3   OH2 4805   5.000   0.935   3.070
 1621TIP3    H1 4806   4.911   0.913   3.045
 1621TIP3    H2 4807   4.992   1.016   3.121
 1622TIP3   OH2 4808   3.200   1.642   0.586
 1622TIP3    H1 4809   3.210   1.550   0.609
 1622TIP3    H2 4810   3.112   1.649   0.550
 1623TIP3   OH2 4811   6.232   4.236   3.792
 1623TIP3    H1 4812   6.192   4.254   3.706
 1623TIP3    H2 4813   6.170   4.272   3.855
 1624TIP3   OH2 4814   7.305   2.118   1.879
 1624TIP3    H1 4815   7.258   2.038   1.900
 1624TIP3    H2 4816   7.335   2.106   1.789
 1625TIP3   OH2 4817   4.088   3.621   1.969
 1625TIP3    H1 4818   4.168   3.576   1.995
 1625TIP3    H2 4819   4.034   3.553   1.928
 1626TIP3   OH2 4820   6.759   5.124   5.307
 1626TIP3    H1 4821   6.743   5.108   5.214
 1626TIP3    H2 4822   6.721   5.210   5.323
 1627TIP3   OH2 4823   7.224   3.188   3.039
 1627TIP3    H1 4824   7.209   3.232   2.956
 1627TIP3    H2 4825   7.197   3.252   3.105
 1628TIP3   OH2 4826   6.764   6.233   2.465
 1628TIP3    H1 4827   6.670   6.247   2.452
 1628TIP3    H2 4828   6.802   6.320   2.457
 1629TIP3   OH2 4829   5.303   7.297   3.429
 1629TIP3    H1 4830   5.307   7.380   3.383
 1629TIP3    H2 4831   5.363   7.240   3.381
 1630TIP3   OH2 4832   5.281   5.205   6.495
 1630TIP3    H1 4833   5.247   5.138   6.555
 1630TIP3    H2 4834   5.242   5.286   6.527
 1631TIP3   OH2 4835   6.619   3.130   4.632
 1631TIP3    H1 4836   6.620   3.126   4.728
 1631TIP3    H2 4837   6.708   3.105   4.606
 1632TIP3   OH2 4838   4.811   3.149   1.826
 1632TIP3    H1 4839   4.882   3.114   1.772
 1632TIP3    H2 4840   4.738   3.089   1.810
 1633TIP3   OH2 4841   2.063   4.541   0.632
 1633TIP3    H1 4842   2.112   4.597   0.692
 1633TIP3    H2 4843   2.055   4.593   0.551
 1634TIP3   OH2 4844   7.419   5.999   0.206
 1634TIP3    H1 4845   7.349   6.056   0.172
 1634TIP3    H2 4846   7.375   5.917   0.226
 1635TIP3   OH2 4847   6.734   3.374   4.017
 1635TIP3    H1 4848   6.782   3.444   4.061
 1635TIP3    H2 4849   6.683   3.332   4.086
 1636TIP3   OH2 4850   2.145   3.544   6.433
 1636TIP3    H1 4851   2.171   3.583   6.517
 1636TIP3    H2 4852   2.050   3.543   6.435
 1637TIP3   OH2 4853   1.553   4.100   1.902
 1637TIP3    H1 4854   1.458   4.103   1.886
 1637TIP3    H2 4855   1.587   4.047   1.829
 1638TIP3   OH2 4856   5.441   3.879   1.314
 1638TIP3    H1 4857   5.443   3.962   1.265
 1638TIP3    H2 4858   5.423   3.813   1.247
 1639TIP3   OH2 4859   0.918   1.010   4.081
 1639TIP3    H1 4860   0.903   0.937   4.140
 1639TIP3    H2 4861   0.868   0.989   4.003
 1640TIP3   OH2 4862   1.391   3.826   4.217
 1640TIP3    H1 4863   1.411   3.919   4.228
 1640TIP3    H2 4864   1.404   3.810   4.123
 1641TIP3   OH2 4865   5.754   2.751   5.635
 1641TIP3    H1 4866   5.815   2.696   5.585
 1641TIP3    H2 4867   5.810   2.802   5.693
 1642TIP3   OH2 4868   1.056   1.878   5.920
 1642TIP3    H1 4869   1.096   1.931   5.989
 1642TIP3    H2 4870   0.962   1.894   5.929
 1643TIP3   OH2 4871   1.575   5.843   2.153
 1643TIP3    H1 4872   1.603   5.826   2.242
 1643TIP3    H2 4873   1.481   5.856   2.159
 1644TIP3   OH2 4874   6.729   0.834   5.831
 1644TIP3    H1 4875   6.650   0.781   5.845
 1644TIP3    H2 4876   6.748   0.872   5.917
 1645TIP3   OH2 4877   3.774   1.450   6.561
 1645TIP3    H1 4878   3.849   1.509   6.558
 1645TIP3    H2 4879   3.764   1.418   6.472
 1646TIP3   OH2 4880   0.626   6.839   5.400
 1646TIP3    H1 4881   0.648   6.872   5.488
 1646TIP3    H2 4882   0.581   6.756   5.416
 1647TIP3   OH2 4883   6.440   1.128   3.071
 1647TIP3    H1 4884   6.387   1.055   3.038
 1647TIP3    H2 4885   6.376   1.189   3.108
 1648TIP3   OH2 4886   3.242   3.162   1.171
 1648TIP3    H1 4887   3.282   3.247   1.156
 1648TIP3    H2 4888   3.242   3.151   1.266
 1649TIP3   OH2 4889   7.836   0.363   4.180
 1649TIP3    H1 4890   7.792   0.426   4.122
 1649TIP3    H2 4891   7.919   0.404   4.203
 1650TIP3   OH2 4892   0.372   7.701   1.769
 1650TIP3    H1 4893   0.424   7.624   1.792
 1650TIP3    H2 4894   0.425   7.747   1.704
 1651TIP3   OH2 4895  -0.014   1.329   4.281
 1651TIP3    H1 4896  -0.002   1.250   4.229
 1651TIP3    H2 4897   0.074   1.366   4.291
 1652TIP3   OH2 4898   7.934   7.106   6.790
 1652TIP3    H1 4899   7.986   7.154   6.726
 1652TIP3    H2 4900   7.918   7.021   6.748
 1653TIP3   OH2 4901   4.160   4.972   2.075
 1653TIP3    H1 4902   4.189   5.063   2.071
 1653TIP3    H2 4903   4.205   4.936   2.151
 1654TIP3   OH2 4904   5.234   0.637   0.392
 1654TIP3    H1 4905   5.171   0.662   0.459
 1654TIP3    H2 4906   5.240   0.713   0.334
 1655TIP3   OH2 4907   5.223   3.896   6.236
 1655TIP3    H1 4908   5.248   3.974   6.286
 1655TIP3    H2 4909   5.297   3.880   6.178
 1656TIP3   OH2 4910   3.894   3.185   2.490
 1656TIP3    H1 4911   3.866   3.276   2.500
 1656TIP3    H2 4912   3.909   3.174   2.396
 1657TIP3   OH2 4913   7.663   6.743   4.282
 1657TIP3    H1 4914   7.633   6.743   4.373
 1657TIP3    H2 4915   7.737   6.804   4.281
 1658TIP3   OH2 4916   1.666   6.499   2.046
 1658TIP3    H1 4917   1.603   6.456   2.103
 1658TIP3    H2 4918   1.749   6.495   2.094
 1659TIP3   OH2 4919   5.904   5.128   2.584
 1659TIP3    H1 4920   5.901   5.200   2.646
 1659TIP3    H2 4921   5.919   5.170   2.499
 1660TIP3   OH2 4922   0.120   6.811   5.605
 1660TIP3    H1 4923   0.186   6.758   5.651
 1660TIP3    H2 4924   0.038   6.790   5.650
 1661TIP3   OH2 4925   5.695   2.845   2.015
 1661TIP3    H1 4926   5.731   2.933   2.000
 1661TIP3    H2 4927   5.704   2.801   1.931
 1662TIP3   OH2 4928   8.222   6.630   0.552
 1662TIP3    H1 4929   8.165   6.618   0.628
 1662TIP3    H2 4930   8.264   6.546   0.539
 1663TIP3   OH2 4931   4.181   3.898   6.508
 1663TIP3    H1 4932   4.221   3.887   6.422
 1663TIP3    H2 4933   4.121   3.824   6.517
 1664TIP3   OH2 4934   8.178   7.248   1.127
 1664TIP3    H1 4935   8.100   7.303   1.123
 1664TIP3    H2 4936   8.190   7.217   1.037
 1665TIP3   OH2 4937   2.973   3.556   6.712
 1665TIP3    H1 4938   2.914   3.481   6.710
 1665TIP3    H2 4939   2.916   3.632   6.702
 1666TIP3   OH2 4940   3.805   3.386   5.113
 1666TIP3    H1 4941   3.842   3.325   5.049
 1666TIP3    H2 4942   3.763   3.329   5.178
 1667TIP3   OH2 4943   0.734   1.725   0.633
 1667TIP3    H1 4944   0.683   1.663   0.685
 1667TIP3    H2 4945   0.709   1.811   0.666
 1668TIP3   OH2 4946   2.704   0.935   1.874
 1668TIP3    H1 4947   2.649   0.972   1.943
 1668TIP3    H2 4948   2.643   0.887   1.818
 1669TIP3   OH2 4949   1.048   4.415   1.255
 1669TIP3    H1 4950   1.087   4.485   1.203
 1669TIP3    H2 4951   1.081   4.334   1.214
 1670TIP3   OH2 4952   1.115   1.611   2.587
 1670TIP3    H1 4953   1.150   1.645   2.505
 1670TIP3    H2 4954   1.138   1.518   2.586
 1671TIP3   OH2 4955   1.233   0.561   2.279
 1671TIP3    H1 4956   1.217   0.487   2.222
 1671TIP3    H2 4957   1.254   0.522   2.364
 1672TIP3   OH2 4958   3.556   7.342   4.875
 1672TIP3    H1 4959   3.606   7.362   4.955
 1672TIP3    H2 4960   3.607   7.381   4.804
 1673TIP3   OH2 4961   2.001   3.769   4.565
 1673TIP3    H1 4962   2.040   3.728   4.488
 1673TIP3    H2 4963   2.000   3.699   4.631
 1674TIP3   OH2 4964   5.319   3.858   1.063
 1674TIP3    H1 4965   5.376   3.935   1.071
 1674TIP3    H2 4966   5.368   3.799   1.006
 1675TIP3   OH2 4967   2.718   7.270   5.189
 1675TIP3    H1 4968   2.794   7.328   5.179
 1675TIP3    H2 4969   2.674   7.273   5.104
 1676TIP3   OH2 4970   4.611   3.196   1.094
 1676TIP3    H1 4971   4.587   3.231   1.180
 1676TIP3    H2 4972   4.565   3.252   1.032
 1677TIP3   OH2 4973   4.110   0.896   5.292
 1677TIP3    H1 4974   4.026   0.934   5.317
 1677TIP3    H2 4975   4.091   0.849   5.210
 1678TIP3   OH2 4976   1.096   7.792   3.573
 1678TIP3    H1 4977   1.170   7.741   3.608
 1678TIP3    H2 4978   1.071   7.746   3.493
 1679TIP3   OH2 4979   7.189   2.447   0.504
 1679TIP3    H1 4980   7.232   2.533   0.502
 1679TIP3    H2 4981   7.260   2.384   0.500
 1680TIP3   OH2 4982   7.853   1.745   2.332
 1680TIP3    H1 4983   7.771   1.742   2.382
 1680TIP3    H2 4984   7.825   1.738   2.240
 1681TIP3   OH2 4985   1.233   3.755   4.419
 1681TIP3    H1 4986   1.282   3.689   4.467
 1681TIP3    H2 4987   1.290   3.780   4.347
 1682TIP3   OH2 4988   0.086   3.091   1.403
 1682TIP3    H1 4989   0.061   3.153   1.472
 1682TIP3    H2 4990   0.162   3.045   1.439
 1683TIP3   OH2 4991   8.231   1.297   2.153
 1683TIP3    H1 4992   8.300   1.295   2.087
 1683TIP3    H2 4993   8.180   1.375   2.132
 1684TIP3   OH2 4994   2.820   4.571   4.989
 1684TIP3    H1 4995   2.914   4.586   4.980
 1684TIP3    H2 4996   2.781   4.614   4.913
 1685TIP3   OH2 4997   1.018   3.997   0.288
 1685TIP3    H1 4998   1.017   4.005   0.384
 1685TIP3    H2 4999   1.102   3.955   0.269
 1686TIP3   OH2 5000   3.988   6.408   1.266
 1686TIP3    H1 5001   4.019   6.352   1.195
 1686TIP3    H2 5002   3.895   6.389   1.274
 1687TIP3   OH2 5003   7.928   3.376   5.885
 1687TIP3    H1 5004   7.833   3.378   5.896
 1687TIP3    H2 5005   7.958   3.309   5.947
 1688TIP3   OH2 5006   1.571   4.717   1.200
 1688TIP3    H1 5007   1.494   4.772   1.218
 1688TIP3    H2 5008   1.614   4.708   1.284
 1689TIP3   OH2 5009   2.742   5.069   5.416
 1689TIP3    H1 5010   2.713   5.042   5.329
 1689TIP3    H2 5011   2.769   5.160   5.404
 1690TIP3   OH2 5012   4.908   7.622   5.631
 1690TIP3    H1 5013   4.936   7.535   5.604
 1690TIP3    H2 5014   4.961   7.642   5.708
 1691TIP3   OH2 5015   7.906   1.206   6.426
 1691TIP3    H1 5016   7.856   1.257   6.362
 1691TIP3    H2 5017   7.883   1.243   6.511
 1692TIP3   OH2 5018   0.236   3.994   3.625
 1692TIP3    H1 5019   0.297   3.958   3.689
 1692TIP3    H2 5020   0.167   4.034   3.678
 1693TIP3   OH2 5021   2.857   1.884   4.653
 1693TIP3    H1 5022   2.853   1.977   4.675
 1693TIP3    H2 5023   2.765   1.856   4.654
 1694TIP3   OH2 5024   1.501   0.017   5.946
 1694TIP3    H1 5025   1.535   0.095   5.989
 1694TIP3    H2 5026   1.568  -0.005   5.880
 1695TIP3   OH2 5027   3.126   4.982   4.423
 1695TIP3    H1 5028   3.117   5.076   4.442
 1695TIP3    H2 5029   3.200   4.977   4.363
 1696TIP3   OH2 5030   2.315   1.938   1.818
 1696TIP3    H1 5031   2.369   1.941   1.739
 1696TIP3    H2 5032   2.260   2.016   1.811
 1697TIP3   OH2 5033   0.842   7.020   1.384
 1697TIP3    H1 5034   0.811   7.036   1.295
 1697TIP3    H2 5035   0.854   6.925   1.388
 1698TIP3   OH2 5036   6.574   2.942   1.981
 1698TIP3    H1 5037   6.538   3.016   1.932
 1698TIP3    H2 5038   6.503   2.878   1.984
 1699TIP3   OH2 5039   6.468   2.395   1.030
 1699TIP3    H1 5040   6.516   2.326   0.984
 1699TIP3    H2 5041   6.413   2.435   0.962
 1700TIP3   OH2 5042   6.197   5.664   0.812
 1700TIP3    H1 5043   6.109   5.663   0.850
 1700TIP3    H2 5044   6.256   5.666   0.888
 1701TIP3   OH2 5045   0.580   2.352   3.002
 1701TIP3    H1 5046   0.672   2.328   2.998
 1701TIP3    H2 5047   0.549   2.342   2.912
 1702TIP3   OH2 5048   7.543   2.422   3.618
 1702TIP3    H1 5049   7.536   2.358   3.547
 1702TIP3    H2 5050   7.590   2.375   3.687
 1703TIP3   OH2 5051   5.254   0.886   1.668
 1703TIP3    H1 5052   5.188   0.828   1.632
 1703TIP3    H2 5053   5.320   0.828   1.706
 1704TIP3   OH2 5054   0.392   1.293   1.809
 1704TIP3    H1 5055   0.336   1.263   1.737
 1704TIP3    H2 5056   0.417   1.382   1.784
 1705TIP3   OH2 5057   0.419   0.813   6.264
 1705TIP3    H1 5058   0.347   0.875   6.276
 1705TIP3    H2 5059   0.481   0.834   6.334
 1706TIP3   OH2 5060   6.017   2.330   2.218
 1706TIP3    H1 5061   6.109   2.345   2.238
 1706TIP3    H2 5062   6.007   2.360   2.127
 1707TIP3   OH2 5063   8.013   6.470   1.467
 1707TIP3    H1 5064   8.015   6.451   1.561
 1707TIP3    H2 5065   8.103   6.454   1.437
 1708TIP3   OH2 5066   7.841   0.890   5.756
 1708TIP3    H1 5067   7.933   0.866   5.771
 1708TIP3    H2 5068   7.819   0.946   5.830
 1709TIP3   OH2 5069   0.862   2.576   2.176
 1709TIP3    H1 5070   0.806   2.507   2.209
 1709TIP3    H2 5071   0.854   2.570   2.080
 1710TIP3   OH2 5072   6.336   6.631   0.110
 1710TIP3    H1 5073   6.272   6.562   0.128
 1710TIP3    H2 5074   6.288   6.694   0.056
 1711TIP3   OH2 5075   6.837   7.373   6.364
 1711TIP3    H1 5076   6.801   7.423   6.438
 1711TIP3    H2 5077   6.881   7.438   6.310
 1712TIP3   OH2 5078   4.302   5.421   6.449
 1712TIP3    H1 5079   4.285   5.509   6.484
 1712TIP3    H2 5080   4.241   5.413   6.375
 1713TIP3   OH2 5081   6.618   3.761   1.276
 1713TIP3    H1 5082   6.672   3.692   1.313
 1713TIP3    H2 5083   6.637   3.759   1.182
 1714TIP3   OH2 5084   5.173   7.691   4.827
 1714TIP3    H1 5085   5.242   7.674   4.891
 1714TIP3    H2 5086   5.218   7.699   4.744
 1715TIP3   OH2 5087   7.025   5.105   1.345
 1715TIP3    H1 5088   7.082   5.132   1.417
 1715TIP3    H2 5089   6.949   5.066   1.388
 1716TIP3   OH2 5090   5.119   0.718   1.451
 1716TIP3    H1 5091   5.076   0.696   1.534
 1716TIP3    H2 5092   5.143   0.634   1.413
 1717TIP3   OH2 5093   1.470   7.775   2.594
 1717TIP3    H1 5094   1.422   7.835   2.651
 1717TIP3    H2 5095   1.417   7.770   2.515
 1718TIP3   OH2 5096   2.990   3.763   2.557
 1718TIP3    H1 5097   3.062   3.742   2.616
 1718TIP3    H2 5098   2.939   3.682   2.551
 1719TIP3   OH2 5099   1.916   2.457   0.795
 1719TIP3    H1 5100   1.994   2.494   0.837
 1719TIP3    H2 5101   1.880   2.530   0.745
 1720TIP3   OH2 5102   0.343   1.887   4.691
 1720TIP3    H1 5103   0.359   1.896   4.597
 1720TIP3    H2 5104   0.331   1.977   4.722
 1721TIP3   OH2 5105   0.598   7.154   4.783
 1721TIP3    H1 5106   0.523   7.166   4.725
 1721TIP3    H2 5107   0.649   7.084   4.743
 1722TIP3   OH2 5108   7.297   4.981   2.575
 1722TIP3    H1 5109   7.386   5.000   2.602
 1722TIP3    H2 5110   7.253   5.066   2.575
 1723TIP3   OH2 5111   3.084   6.172   6.436
 1723TIP3    H1 5112   3.043   6.094   6.397
 1723TIP3    H2 5113   3.035   6.245   6.398
 1724TIP3   OH2 5114   0.406   6.053   2.959
 1724TIP3    H1 5115   0.479   5.991   2.959
 1724TIP3    H2 5116   0.439   6.129   2.911
 1725TIP3   OH2 5117   4.588   3.136   2.767
 1725TIP3    H1 5118   4.515   3.077   2.785
 1725TIP3    H2 5119   4.662   3.079   2.751
 1726TIP3   OH2 5120   0.380   7.068   1.742
 1726TIP3    H1 5121   0.289   7.097   1.753
 1726TIP3    H2 5122   0.416   7.128   1.676
 1727TIP3   OH2 5123   7.188   1.831   2.589
 1727TIP3    H1 5124   7.156   1.920   2.602
 1727TIP3    H2 5125   7.220   1.804   2.675
 1728TIP3   OH2 5126   5.552   6.266   2.392
 1728TIP3    H1 5127   5.630   6.313   2.420
 1728TIP3    H2 5128   5.566   6.250   2.298
 1729TIP3   OH2 5129   7.360   5.055   3.806
 1729TIP3    H1 5130   7.272   5.090   3.794
 1729TIP3    H2 5131   7.417   5.124   3.770
 1730TIP3   OH2 5132   1.961   2.808   4.501
 1730TIP3    H1 5133   2.005   2.778   4.422
 1730TIP3    H2 5134   1.875   2.836   4.472
 1731TIP3   OH2 5135   7.326   7.602   3.136
 1731TIP3    H1 5136   7.355   7.513   3.159
 1731TIP3    H2 5137   7.241   7.588   3.093
 1732TIP3   OH2 5138   3.610   4.682   1.921
 1732TIP3    H1 5139   3.604   4.598   1.966
 1732TIP3    H2 5140   3.699   4.684   1.886
 1733TIP3   OH2 5141   1.504   0.866   5.753
 1733TIP3    H1 5142   1.412   0.842   5.766
 1733TIP3    H2 5143   1.506   0.961   5.766
 1734TIP3   OH2 5144   0.683   2.393   2.225
 1734TIP3    H1 5145   0.725   2.308   2.211
 1734TIP3    H2 5146   0.593   2.380   2.196
 1735TIP3   OH2 5147   4.336   0.184   6.572
 1735TIP3    H1 5148   4.277   0.193   6.646
 1735TIP3    H2 5149   4.296   0.116   6.518
 1736TIP3   OH2 5150   5.311   4.611   6.742
 1736TIP3    H1 5151   5.233   4.627   6.690
 1736TIP3    H2 5152   5.342   4.698   6.767
 1737TIP3   OH2 5153   3.452   5.289   1.977
 1737TIP3    H1 5154   3.389   5.272   2.047
 1737TIP3    H2 5155   3.448   5.212   1.921
 1738TIP3   OH2 5156   4.911   5.412   4.965
 1738TIP3    H1 5157   4.922   5.506   4.949
 1738TIP3    H2 5158   4.927   5.402   5.058
 1739TIP3   OH2 5159   3.260   3.838   4.486
 1739TIP3    H1 5160   3.295   3.927   4.483
 1739TIP3    H2 5161   3.320   3.787   4.433
 1740TIP3   OH2 5162   0.366   0.174   1.211
 1740TIP3    H1 5163   0.383   0.197   1.303
 1740TIP3    H2 5164   0.452   0.172   1.171
 1741TIP3   OH2 5165   0.727   6.336   2.996
 1741TIP3    H1 5166   0.667   6.329   3.071
 1741TIP3    H2 5167   0.779   6.414   3.015
 1742TIP3   OH2 5168   4.270   0.740   0.358
 1742TIP3    H1 5169   4.262   0.822   0.310
 1742TIP3    H2 5170   4.362   0.736   0.384
 1743TIP3   OH2 5171   2.245   4.742   3.818
 1743TIP3    H1 5172   2.158   4.749   3.778
 1743TIP3    H2 5173   2.230   4.694   3.900
 1744TIP3   OH2 5174   3.672   5.829   6.487
 1744TIP3    H1 5175   3.722   5.749   6.468
 1744TIP3    H2 5176   3.582   5.799   6.499
 1745TIP3   OH2 5177   6.049   6.082   1.726
 1745TIP3    H1 5178   6.046   6.054   1.817
 1745TIP3    H2 5179   6.063   6.002   1.676
 1746TIP3   OH2 5180   4.820   7.214   5.194
 1746TIP3    H1 5181   4.884   7.144   5.209
 1746TIP3    H2 5182   4.753   7.199   5.261
 1747TIP3   OH2 5183   5.686   5.783   6.420
 1747TIP3    H1 5184   5.665   5.691   6.409
 1747TIP3    H2 5185   5.770   5.795   6.374
 1748TIP3   OH2 5186   3.502   0.202   3.758
 1748TIP3    H1 5187   3.459   0.282   3.728
 1748TIP3    H2 5188   3.455   0.179   3.839
 1749TIP3   OH2 5189   1.015   0.505   3.309
 1749TIP3    H1 5190   0.968   0.533   3.230
 1749TIP3    H2 5191   0.995   0.412   3.317
 1750TIP3   OH2 5192   1.545   6.295   5.338
 1750TIP3    H1 5193   1.528   6.372   5.284
 1750TIP3    H2 5194   1.617   6.321   5.395
 1751TIP3   OH2 5195   1.289   0.301   0.789
 1751TIP3    H1 5196   1.197   0.327   0.791
 1751TIP3    H2 5197   1.333   0.365   0.844
 1752TIP3   OH2 5198   4.815   1.628   4.195
 1752TIP3    H1 5199   4.825   1.696   4.262
 1752TIP3    H2 5200   4.725   1.597   4.206
 1753TIP3   OH2 5201   1.054   4.472   4.870
 1753TIP3    H1 5202   0.961   4.497   4.865
 1753TIP3    H2 5203   1.072   4.430   4.786
 1754TIP3   OH2 5204   7.492   7.723   4.342
 1754TIP3    H1 5205   7.569   7.725   4.399
 1754TIP3    H2 5206   7.496   7.806   4.294
 1755TIP3   OH2 5207   6.488   1.012   5.312
 1755TIP3    H1 5208   6.479   0.988   5.220
 1755TIP3    H2 5209   6.399   1.018   5.345
 1756TIP3   OH2 5210   2.969   4.058   1.845
 1756TIP3    H1 5211   2.951   4.139   1.894
 1756TIP3    H2 5212   3.061   4.038   1.865
 1757TIP3   OH2 5213   5.808   6.260   1.020
 1757TIP3    H1 5214   5.776   6.326   1.082
 1757TIP3    H2 5215   5.731   6.234   0.970
 1758TIP3   OH2 5216   7.693   1.977   5.080
 1758TIP3    H1 5217   7.620   1.993   5.020
 1758TIP3    H2 5218   7.771   1.980   5.024
 1759TIP3   OH2 5219   1.661   2.631   4.248
 1759TIP3    H1 5220   1.754   2.631   4.226
 1759TIP3    H2 5221   1.651   2.703   4.311
 1760TIP3   OH2 5222   2.984   4.959   1.807
 1760TIP3    H1 5223   2.890   4.970   1.819
 1760TIP3    H2 5224   3.019   4.959   1.897
 1761TIP3   OH2 5225   6.643   3.378   6.449
 1761TIP3    H1 5226   6.568   3.385   6.391
 1761TIP3    H2 5227   6.661   3.284   6.454
 1762TIP3   OH2 5228   3.018   3.562   3.749
 1762TIP3    H1 5229   2.943   3.557   3.690
 1762TIP3    H2 5230   3.094   3.548   3.692
 1763TIP3   OH2 5231   4.648   0.268   4.971
 1763TIP3    H1 5232   4.560   0.303   4.982
 1763TIP3    H2 5233   4.701   0.316   5.034
 1764TIP3   OH2 5234   3.231   4.128   6.043
 1764TIP3    H1 5235   3.217   4.042   6.003
 1764TIP3    H2 5236   3.326   4.142   6.038
 1765TIP3   OH2 5237   1.136   7.030   0.751
 1765TIP3    H1 5238   1.068   7.076   0.801
 1765TIP3    H2 5239   1.088   6.967   0.698
 1766TIP3   OH2 5240   4.086   6.126   3.796
 1766TIP3    H1 5241   4.108   6.210   3.756
 1766TIP3    H2 5242   4.160   6.070   3.774
 1767TIP3   OH2 5243   3.154   6.531   5.578
 1767TIP3    H1 5244   3.220   6.568   5.519
 1767TIP3    H2 5245   3.072   6.542   5.530
 1768TIP3   OH2 5246   3.970   2.003   4.429
 1768TIP3    H1 5247   3.967   2.008   4.525
 1768TIP3    H2 5248   3.896   2.057   4.400
 1769TIP3   OH2 5249   3.506   5.426   5.859
 1769TIP3    H1 5250   3.563   5.462   5.791
 1769TIP3    H2 5251   3.482   5.340   5.826
 1770TIP3   OH2 5252   0.981   2.705   6.045
 1770TIP3    H1 5253   1.032   2.719   5.965
 1770TIP3    H2 5254   0.897   2.747   6.028
 1771TIP3   OH2 5255   8.171   6.352   4.514
 1771TIP3    H1 5256   8.238   6.286   4.498
 1771TIP3    H2 5257   8.219   6.434   4.522
 1772TIP3   OH2 5258   5.228   5.897   2.423
 1772TIP3    H1 5259   5.228   5.934   2.334
 1772TIP3    H2 5260   5.299   5.943   2.467
 1773TIP3   OH2 5261   3.269   1.873   1.762
 1773TIP3    H1 5262   3.182   1.867   1.722
 1773TIP3    H2 5263   3.285   1.967   1.770
 1774TIP3   OH2 5264   5.857   7.009   5.162
 1774TIP3    H1 5265   5.825   6.974   5.079
 1774TIP3    H2 5266   5.939   7.054   5.139
 1775TIP3   OH2 5267   1.233   2.775   5.156
 1775TIP3    H1 5268   1.157   2.779   5.096
 1775TIP3    H2 5269   1.241   2.864   5.190
 1776TIP3   OH2 5270   5.650   0.853   5.100
 1776TIP3    H1 5271   5.662   0.922   5.164
 1776TIP3    H2 5272   5.625   0.776   5.151
 1777TIP3   OH2 5273   6.630   6.916   6.527
 1777TIP3    H1 5274   6.698   6.973   6.494
 1777TIP3    H2 5275   6.563   6.976   6.562
 1778TIP3   OH2 5276   3.021   0.170   5.508
 1778TIP3    H1 5277   3.063   0.148   5.591
 1778TIP3    H2 5278   3.051   0.103   5.446
 1779TIP3   OH2 5279   5.725   2.335   4.115
 1779TIP3    H1 5280   5.752   2.408   4.171
 1779TIP3    H2 5281   5.736   2.258   4.170
 1780TIP3   OH2 5282   2.380   2.605   0.359
 1780TIP3    H1 5283   2.442   2.660   0.407
 1780TIP3    H2 5284   2.416   2.598   0.271
 1781TIP3   OH2 5285   4.531   3.903   5.788
 1781TIP3    H1 5286   4.540   3.964   5.861
 1781TIP3    H2 5287   4.440   3.873   5.793
 1782TIP3   OH2 5288   3.690   0.712   1.110
 1782TIP3    H1 5289   3.656   0.657   1.039
 1782TIP3    H2 5290   3.703   0.798   1.070
 1783TIP3   OH2 5291   0.305   7.329   3.021
 1783TIP3    H1 5292   0.318   7.403   2.961
 1783TIP3    H2 5293   0.318   7.366   3.108
 1784TIP3   OH2 5294   2.637   4.230   0.949
 1784TIP3    H1 5295   2.586   4.162   0.994
 1784TIP3    H2 5296   2.574   4.271   0.889
 1785TIP3   OH2 5297   4.468   0.963   3.239
 1785TIP3    H1 5298   4.494   1.047   3.279
 1785TIP3    H2 5299   4.485   0.975   3.146
 1786TIP3   OH2 5300   6.205   7.398   5.519
 1786TIP3    H1 5301   6.209   7.493   5.528
 1786TIP3    H2 5302   6.249   7.380   5.436
 1787TIP3   OH2 5303   1.155   6.211   3.044
 1787TIP3    H1 5304   1.063   6.184   3.032
 1787TIP3    H2 5305   1.167   6.283   2.983
 1788TIP3   OH2 5306   3.056   2.349   3.009
 1788TIP3    H1 5307   3.045   2.334   2.915
 1788TIP3    H2 5308   3.149   2.331   3.025
 1789TIP3   OH2 5309   1.377   2.016   0.980
 1789TIP3    H1 5310   1.428   2.000   1.060
 1789TIP3    H2 5311   1.316   2.086   1.004
 1790TIP3   OH2 5312   2.143   6.754   4.482
 1790TIP3    H1 5313   2.155   6.660   4.466
 1790TIP3    H2 5314   2.066   6.777   4.431
 1791TIP3   OH2 5315   7.884   2.420   5.110
 1791TIP3    H1 5316   7.888   2.509   5.145
 1791TIP3    H2 5317   7.948   2.371   5.162
 1792TIP3   OH2 5318   8.107   2.964   1.159
 1792TIP3    H1 5319   8.135   3.005   1.078
 1792TIP3    H2 5320   8.025   2.920   1.137
 1793TIP3   OH2 5321   1.525   0.640   4.660
 1793TIP3    H1 5322   1.482   0.563   4.697
 1793TIP3    H2 5323   1.547   0.694   4.737
 1794TIP3   OH2 5324   4.560   5.612   0.940
 1794TIP3    H1 5325   4.517   5.666   1.006
 1794TIP3    H2 5326   4.491   5.556   0.906
 1795TIP3   OH2 5327   5.834   4.049   2.013
 1795TIP3    H1 5328   5.905   3.987   2.032
 1795TIP3    H2 5329   5.777   4.043   2.089
 1796TIP3   OH2 5330   3.087   2.947   4.591
 1796TIP3    H1 5331   3.155   2.984   4.535
 1796TIP3    H2 5332   3.018   2.920   4.530
 1797TIP3   OH2 5333   5.977   5.453   2.028
 1797TIP3    H1 5334   5.912   5.488   1.968
 1797TIP3    H2 5335   6.060   5.492   2.000
 1798TIP3   OH2 5336   4.795   5.170   0.361
 1798TIP3    H1 5337   4.877   5.186   0.315
 1798TIP3    H2 5338   4.735   5.237   0.328
 1799TIP3   OH2 5339   1.148   0.071   2.833
 1799TIP3    H1 5340   1.225   0.114   2.869
 1799TIP3    H2 5341   1.119   0.129   2.762
 1800TIP3   OH2 5342   2.247   7.438   1.611
 1800TIP3    H1 5343   2.328   7.479   1.642
 1800TIP3    H2 5344   2.178   7.501   1.634
 1801TIP3   OH2 5345   7.282   0.409   5.116
 1801TIP3    H1 5346   7.335   0.377   5.043
 1801TIP3    H2 5347   7.242   0.331   5.153
 1802TIP3   OH2 5348   6.212   7.196   5.719
 1802TIP3    H1 5349   6.166   7.259   5.664
 1802TIP3    H2 5350   6.266   7.146   5.658
 1803TIP3   OH2 5351   4.486   6.967   1.938
 1803TIP3    H1 5352   4.479   6.906   2.012
 1803TIP3    H2 5353   4.568   6.943   1.895
 1804TIP3   OH2 5354   5.856   2.760   6.439
 1804TIP3    H1 5355   5.934   2.767   6.494
 1804TIP3    H2 5356   5.850   2.667   6.419
 1805TIP3   OH2 5357   4.374   1.991   3.385
 1805TIP3    H1 5358   4.374   2.048   3.462
 1805TIP3    H2 5359   4.327   2.040   3.318
 1806TIP3   OH2 5360   6.559   3.345   2.205
 1806TIP3    H1 5361   6.631   3.282   2.213
 1806TIP3    H2 5362   6.486   3.304   2.249
 1807TIP3   OH2 5363   6.931   3.345   1.612
 1807TIP3    H1 5364   6.894   3.420   1.660
 1807TIP3    H2 5365   6.994   3.385   1.552
 1808TIP3   OH2 5366   1.791   0.159   1.395
 1808TIP3    H1 5367   1.834   0.076   1.414
 1808TIP3    H2 5368   1.700   0.146   1.423
 1809TIP3   OH2 5369   3.384   6.902   2.516
 1809TIP3    H1 5370   3.293   6.928   2.500
 1809TIP3    H2 5371   3.392   6.816   2.476
 1810TIP3   OH2 5372   0.763   5.260   0.952
 1810TIP3    H1 5373   0.781   5.209   0.872
 1810TIP3    H2 5374   0.686   5.312   0.929
 1811TIP3   OH2 5375   2.799   1.192   0.928
 1811TIP3    H1 5376   2.875   1.249   0.932
 1811TIP3    H2 5377   2.724   1.251   0.930
 1812TIP3   OH2 5378   7.915   3.100   1.293
 1812TIP3    H1 5379   7.846   3.119   1.229
 1812TIP3    H2 5380   7.980   3.049   1.243
 1813TIP3   OH2 5381   4.129   2.188   4.757
 1813TIP3    H1 5382   4.133   2.127   4.830
 1813TIP3    H2 5383   4.217   2.188   4.720
 1814TIP3   OH2 5384   6.658   0.229   4.801
 1814TIP3    H1 5385   6.660   0.142   4.761
 1814TIP3    H2 5386   6.680   0.289   4.729
 1815TIP3   OH2 5387   7.676   5.019   6.252
 1815TIP3    H1 5388   7.718   5.093   6.297
 1815TIP3    H2 5389   7.643   4.964   6.322
 1816TIP3   OH2 5390   0.265   0.013   5.068
 1816TIP3    H1 5391   0.250   0.063   4.987
 1816TIP3    H2 5392   0.355  -0.019   5.060
 1817TIP3   OH2 5393   6.891   2.160   4.190
 1817TIP3    H1 5394   6.814   2.121   4.231
 1817TIP3    H2 5395   6.963   2.139   4.250
 1818TIP3   OH2 5396   4.653   1.983   3.862
 1818TIP3    H1 5397   4.703   1.932   3.926
 1818TIP3    H2 5398   4.606   1.918   3.811
 1819TIP3   OH2 5399   2.889   0.084   4.783
 1819TIP3    H1 5400   2.907   0.090   4.877
 1819TIP3    H2 5401   2.894  -0.009   4.764
 1820TIP3   OH2 5402   4.832   1.594   6.001
 1820TIP3    H1 5403   4.794   1.556   6.081
 1820TIP3    H2 5404   4.793   1.544   5.930
 1821TIP3   OH2 5405   6.939   4.661   6.249
 1821TIP3    H1 5406   7.033   4.679   6.255
 1821TIP3    H2 5407   6.905   4.686   6.334
 1822TIP3   OH2 5408   1.526   3.289   5.283
 1822TIP3    H1 5409   1.478   3.233   5.343
 1822TIP3    H2 5410   1.576   3.348   5.339
 1823TIP3   OH2 5411   2.063   4.781   3.400
 1823TIP3    H1 5412   2.116   4.858   3.420
 1823TIP3    H2 5413   2.119   4.706   3.424
 1824TIP3   OH2 5414   1.519   5.127   0.156
 1824TIP3    H1 5415   1.426   5.144   0.166
 1824TIP3    H2 5416   1.524   5.040   0.116
 1825TIP3   OH2 5417   1.722   4.961   3.429
 1825TIP3    H1 5418   1.814   4.980   3.409
 1825TIP3    H2 5419   1.673   5.000   3.356
 1826TIP3   OH2 5420   1.085   4.088   2.781
 1826TIP3    H1 5421   1.082   4.183   2.768
 1826TIP3    H2 5422   1.177   4.065   2.767
 1827TIP3   OH2 5423   5.542   4.276   3.826
 1827TIP3    H1 5424   5.594   4.228   3.891
 1827TIP3    H2 5425   5.455   4.284   3.866
 1828TIP3   OH2 5426   3.067   5.931   5.381
 1828TIP3    H1 5427   3.095   5.871   5.313
 1828TIP3    H2 5428   2.997   5.885   5.428
 1829TIP3   OH2 5429   0.519   2.172   4.499
 1829TIP3    H1 5430   0.500   2.170   4.593
 1829TIP3    H2 5431   0.488   2.257   4.470
 1830TIP3   OH2 5432   2.078   4.734   5.757
 1830TIP3    H1 5433   2.129   4.794   5.704
 1830TIP3    H2 5434   2.003   4.712   5.703
 1831TIP3   OH2 5435   6.042   6.443   3.196
 1831TIP3    H1 5436   6.054   6.517   3.255
 1831TIP3    H2 5437   6.079   6.368   3.243
 1832TIP3   OH2 5438   5.387   2.377   0.770
 1832TIP3    H1 5439   5.388   2.446   0.836
 1832TIP3    H2 5440   5.419   2.420   0.691
 1833TIP3   OH2 5441   0.754   3.205   0.205
 1833TIP3    H1 5442   0.686   3.223   0.140
 1833TIP3    H2 5443   0.768   3.290   0.248
 1834TIP3   OH2 5444   5.564   0.507   5.736
 1834TIP3    H1 5445   5.584   0.444   5.667
 1834TIP3    H2 5446   5.570   0.592   5.692
 1835TIP3   OH2 5447   7.073   0.320   4.725
 1835TIP3    H1 5448   7.035   0.399   4.762
 1835TIP3    H2 5449   7.160   0.346   4.695
 1836TIP3   OH2 5450   4.372   0.892   5.235
 1836TIP3    H1 5451   4.359   0.938   5.151
 1836TIP3    H2 5452   4.284   0.886   5.272
 1837TIP3   OH2 5453   0.081   2.186   6.001
 1837TIP3    H1 5454   0.150   2.136   5.956
 1837TIP3    H2 5455   0.007   2.125   6.006
 1838TIP3   OH2 5456   7.822   4.948   1.677
 1838TIP3    H1 5457   7.865   5.013   1.732
 1838TIP3    H2 5458   7.749   4.915   1.730
 1839TIP3   OH2 5459   5.821   6.341   0.142
 1839TIP3    H1 5460   5.758   6.270   0.156
 1839TIP3    H2 5461   5.778   6.418   0.180
 1840TIP3   OH2 5462   6.061   1.124   5.048
 1840TIP3    H1 5463   6.081   1.075   5.128
 1840TIP3    H2 5464   6.124   1.196   5.048
 1841TIP3   OH2 5465   7.398   2.990   3.012
 1841TIP3    H1 5466   7.323   3.048   3.023
 1841TIP3    H2 5467   7.406   2.978   2.918
 1842TIP3   OH2 5468   2.938   4.496   4.173
 1842TIP3    H1 5469   2.943   4.575   4.121
 1842TIP3    H2 5470   2.863   4.448   4.139
 1843TIP3   OH2 5471   2.872   0.674   1.521
 1843TIP3    H1 5472   2.795   0.722   1.489
 1843TIP3    H2 5473   2.928   0.742   1.559
 1844TIP3   OH2 5474   0.023   4.389   6.725
 1844TIP3    H1 5475  -0.038   4.405   6.796
 1844TIP3    H2 5476   0.088   4.459   6.733
 1845TIP3   OH2 5477   6.256   5.956   3.336
 1845TIP3    H1 5478   6.251   5.986   3.245
 1845TIP3    H2 5479   6.348   5.966   3.359
 1846TIP3   OH2 5480   2.764   3.030   4.985
 1846TIP3    H1 5481   2.691   3.068   5.033
 1846TIP3    H2 5482   2.723   2.971   4.921
 1847TIP3   OH2 5483   4.317   5.577   3.419
 1847TIP3    H1 5484   4.388   5.515   3.437
 1847TIP3    H2 5485   4.319   5.589   3.324
 1848TIP3   OH2 5486   6.099   5.901   4.650
 1848TIP3    H1 5487   6.179   5.850   4.635
 1848TIP3    H2 5488   6.033   5.836   4.671
 1849TIP3   OH2 5489   5.968   5.112   3.837
 1849TIP3    H1 5490   5.964   5.157   3.921
 1849TIP3    H2 5491   5.954   5.020   3.858
 1850TIP3   OH2 5492   5.486   7.046   3.832
 1850TIP3    H1 5493   5.461   7.133   3.800
 1850TIP3    H2 5494   5.581   7.041   3.819
 1851TIP3   OH2 5495   0.402   0.341   6.497
 1851TIP3    H1 5496   0.364   0.267   6.451
 1851TIP3    H2 5497   0.370   0.418   6.449
 1852TIP3   OH2 5498   1.951   0.679   1.240
 1852TIP3    H1 5499   1.907   0.604   1.279
 1852TIP3    H2 5500   1.881   0.743   1.224
 1853TIP3   OH2 5501   6.011   2.839   6.753
 1853TIP3    H1 5502   5.993   2.905   6.687
 1853TIP3    H2 5503   6.074   2.779   6.711
 1854TIP3   OH2 5504   8.186   4.256   2.514
 1854TIP3    H1 5505   8.258   4.262   2.452
 1854TIP3    H2 5506   8.218   4.298   2.594
 1855TIP3   OH2 5507   2.058   0.719   2.895
 1855TIP3    H1 5508   2.058   0.644   2.836
 1855TIP3    H2 5509   2.139   0.765   2.875
 1856TIP3   OH2 5510   4.582   3.706   0.030
 1856TIP3    H1 5511   4.513   3.767   0.057
 1856TIP3    H2 5512   4.648   3.713   0.099
 1857TIP3   OH2 5513   3.437   1.215   5.498
 1857TIP3    H1 5514   3.427   1.216   5.402
 1857TIP3    H2 5515   3.501   1.145   5.514
 1858TIP3   OH2 5516   4.122   6.272   5.230
 1858TIP3    H1 5517   4.090   6.234   5.312
 1858TIP3    H2 5518   4.084   6.216   5.162
 1859TIP3   OH2 5519   3.209   1.551   5.467
 1859TIP3    H1 5520   3.233   1.540   5.375
 1859TIP3    H2 5521   3.163   1.470   5.489
 1860TIP3   OH2 5522   4.692   2.035   0.639
 1860TIP3    H1 5523   4.778   2.071   0.657
 1860TIP3    H2 5524   4.634   2.077   0.703
 1861TIP3   OH2 5525   2.195   3.688   2.474
 1861TIP3    H1 5526   2.191   3.652   2.385
 1861TIP3    H2 5527   2.106   3.676   2.509
 1862TIP3   OH2 5528   0.054   2.190   5.461
 1862TIP3    H1 5529   0.129   2.211   5.518
 1862TIP3    H2 5530   0.031   2.100   5.485
 1863TIP3   OH2 5531   7.575   2.764   5.395
 1863TIP3    H1 5532   7.492   2.718   5.388
 1863TIP3    H2 5533   7.557   2.838   5.453
 1864TIP3   OH2 5534   5.018   7.451   0.367
 1864TIP3    H1 5535   5.010   7.495   0.452
 1864TIP3    H2 5536   5.069   7.373   0.386
 1865TIP3   OH2 5537   2.179   7.461   3.343
 1865TIP3    H1 5538   2.174   7.425   3.431
 1865TIP3    H2 5539   2.272   7.476   3.328
 1866TIP3   OH2 5540   1.600   5.338   6.080
 1866TIP3    H1 5541   1.598   5.278   6.006
 1866TIP3    H2 5542   1.676   5.311   6.131
 1867TIP3   OH2 5543   5.204   2.047   5.337
 1867TIP3    H1 5544   5.111   2.033   5.357
 1867TIP3    H2 5545   5.221   1.988   5.263
 1868TIP3   OH2 5546   4.849   3.157   0.229
 1868TIP3    H1 5547   4.855   3.134   0.321
 1868TIP3    H2 5548   4.896   3.240   0.221
 1869TIP3   OH2 5549   1.392   3.592   2.998
 1869TIP3    H1 5550   1.350   3.678   3.004
 1869TIP3    H2 5551   1.355   3.552   2.920
 1870TIP3   OH2 5552   3.977   4.179   0.398
 1870TIP3    H1 5553   4.026   4.200   0.478
 1870TIP3    H2 5554   4.037   4.123   0.348
 1871TIP3   OH2 5555   7.739   2.193   1.308
 1871TIP3    H1 5556   7.670   2.241   1.263
 1871TIP3    H2 5557   7.692   2.132   1.365
 1872TIP3   OH2 5558   1.022   0.244   1.071
 1872TIP3    H1 5559   1.049   0.271   1.159
 1872TIP3    H2 5560   1.038   0.149   1.069
 1873TIP3   OH2 5561   2.186   4.747   0.777
 1873TIP3    H1 5562   2.196   4.781   0.865
 1873TIP3    H2 5563   2.129   4.810   0.733
 1874TIP3   OH2 5564   6.412   6.152   0.425
 1874TIP3    H1 5565   6.489   6.207   0.441
 1874TIP3    H2 5566   6.446   6.063   0.426
 1875TIP3   OH2 5567   4.880   2.999   2.203
 1875TIP3    H1 5568   4.850   2.950   2.279
 1875TIP3    H2 5569   4.974   2.983   2.198
 1876TIP3   OH2 5570   2.898   3.345   5.400
 1876TIP3    H1 5571   2.869   3.254   5.394
 1876TIP3    H2 5572   2.920   3.358   5.492
 1877TIP3   OH2 5573   0.418   6.686   4.269
 1877TIP3    H1 5574   0.509   6.677   4.241
 1877TIP3    H2 5575   0.408   6.622   4.339
 1878TIP3   OH2 5576   3.813   1.920   1.010
 1878TIP3    H1 5577   3.885   1.983   1.003
 1878TIP3    H2 5578   3.837   1.850   0.950
 1879TIP3   OH2 5579   2.852   0.009   2.962
 1879TIP3    H1 5580   2.868   0.070   2.890
 1879TIP3    H2 5581   2.940  -0.021   2.988
 1880TIP3   OH2 5582   0.413   5.219   6.432
 1880TIP3    H1 5583   0.345   5.254   6.489
 1880TIP3    H2 5584   0.437   5.293   6.376
 1881TIP3   OH2 5585   1.915   6.791   0.271
 1881TIP3    H1 5586   1.997   6.830   0.241
 1881TIP3    H2 5587   1.941   6.705   0.306
 1882TIP3   OH2 5588   0.323   4.275   2.114
 1882TIP3    H1 5589   0.377   4.196   2.121
 1882TIP3    H2 5590   0.383   4.341   2.080
 1883TIP3   OH2 5591   3.791   1.120   4.939
 1883TIP3    H1 5592   3.777   1.208   4.974
 1883TIP3    H2 5593   3.718   1.106   4.879
 1884TIP3   OH2 5594   6.135   5.031   1.349
 1884TIP3    H1 5595   6.092   5.005   1.430
 1884TIP3    H2 5596   6.111   4.963   1.286
 1885TIP3   OH2 5597   5.694   7.122   1.207
 1885TIP3    H1 5598   5.650   7.193   1.160
 1885TIP3    H2 5599   5.691   7.048   1.148
 1886TIP3   OH2 5600   0.475   3.934   4.128
 1886TIP3    H1 5601   0.554   3.895   4.165
 1886TIP3    H2 5602   0.493   4.028   4.126
 1887TIP3   OH2 5603   5.904   0.600   2.119
 1887TIP3    H1 5604   5.868   0.644   2.042
 1887TIP3    H2 5605   5.980   0.552   2.084
 1888TIP3   OH2 5606   1.739   3.842   0.505
 1888TIP3    H1 5607   1.785   3.866   0.425
 1888TIP3    H2 5608   1.703   3.925   0.538
 1889TIP3   OH2 5609   1.035   0.890   1.182
 1889TIP3    H1 5610   0.974   0.909   1.111
 1889TIP3    H2 5611   1.109   0.949   1.167
 1890TIP3   OH2 5612   4.464   4.110   0.948
 1890TIP3    H1 5613   4.483   4.110   0.854
 1890TIP3    H2 5614   4.390   4.170   0.957
 1891TIP3   OH2 5615   2.464   5.766   2.356
 1891TIP3    H1 5616   2.416   5.791   2.277
 1891TIP3    H2 5617   2.525   5.698   2.327
 1892TIP3   OH2 5618   0.323   6.015   3.900
 1892TIP3    H1 5619   0.258   6.056   3.957
 1892TIP3    H2 5620   0.385   6.085   3.880
 1893TIP3   OH2 5621   4.227   7.791   6.568
 1893TIP3    H1 5622   4.206   7.790   6.474
 1893TIP3    H2 5623   4.164   7.731   6.608
 1894TIP3   OH2 5624   0.613   1.738   4.588
 1894TIP3    H1 5625   0.666   1.813   4.616
 1894TIP3    H2 5626   0.561   1.771   4.515
 1895TIP3   OH2 5627   3.078   2.192   3.688
 1895TIP3    H1 5628   3.107   2.115   3.735
 1895TIP3    H2 5629   3.025   2.158   3.616
 1896TIP3   OH2 5630   2.696   4.959   3.253
 1896TIP3    H1 5631   2.789   4.939   3.262
 1896TIP3    H2 5632   2.689   5.003   3.169
 1897TIP3   OH2 5633   1.027   2.847   4.998
 1897TIP3    H1 5634   0.949   2.832   4.944
 1897TIP3    H2 5635   0.994   2.886   5.078
 1898TIP3   OH2 5636   4.133   0.047   6.296
 1898TIP3    H1 5637   4.109  -0.003   6.374
 1898TIP3    H2 5638   4.068   0.116   6.291
 1899TIP3   OH2 5639   2.592   3.412   0.708
 1899TIP3    H1 5640   2.601   3.380   0.797
 1899TIP3    H2 5641   2.594   3.333   0.654
 1900TIP3   OH2 5642   0.653   4.288   0.646
 1900TIP3    H1 5643   0.579   4.234   0.620
 1900TIP3    H2 5644   0.722   4.226   0.669
 1901TIP3   OH2 5645   5.943   5.658   5.019
 1901TIP3    H1 5646   6.003   5.600   5.064
 1901TIP3    H2 5647   6.000   5.718   4.970
 1902TIP3   OH2 5648   5.143   6.682   1.023
 1902TIP3    H1 5649   5.104   6.682   1.110
 1902TIP3    H2 5650   5.230   6.644   1.036
 1903TIP3   OH2 5651   5.587   0.595   6.230
 1903TIP3    H1 5652   5.603   0.665   6.293
 1903TIP3    H2 5653   5.509   0.550   6.262
 1904TIP3   OH2 5654   5.951   5.604   0.973
 1904TIP3    H1 5655   5.889   5.670   1.005
 1904TIP3    H2 5656   5.988   5.566   1.053
 1905TIP3   OH2 5657   5.585   3.444   0.970
 1905TIP3    H1 5658   5.635   3.425   1.049
 1905TIP3    H2 5659   5.630   3.396   0.900
 1906TIP3   OH2 5660   7.175   7.747   4.687
 1906TIP3    H1 5661   7.118   7.809   4.731
 1906TIP3    H2 5662   7.183   7.781   4.598
 1907TIP3   OH2 5663   8.019   6.803   4.517
 1907TIP3    H1 5664   8.078   6.796   4.442
 1907TIP3    H2 5665   8.012   6.714   4.551
 1908TIP3   OH2 5666   2.286   0.375   3.493
 1908TIP3    H1 5667   2.341   0.329   3.429
 1908TIP3    H2 5668   2.246   0.446   3.443
 1909TIP3   OH2 5669   6.861   2.731   5.782
 1909TIP3    H1 5670   6.879   2.652   5.730
 1909TIP3    H2 5671   6.947   2.774   5.789
 1910TIP3   OH2 5672   5.606   0.844   6.718
 1910TIP3    H1 5673   5.569   0.932   6.721
 1910TIP3    H2 5674   5.592   0.815   6.627
 1911TIP3   OH2 5675   0.221   2.486   1.556
 1911TIP3    H1 5676   0.178   2.565   1.523
 1911TIP3    H2 5677   0.305   2.517   1.590
 1912TIP3   OH2 5678   7.230   7.277   0.489
 1912TIP3    H1 5679   7.145   7.292   0.531
 1912TIP3    H2 5680   7.213   7.209   0.424
 1913TIP3   OH2 5681   7.637   7.389   4.387
 1913TIP3    H1 5682   7.551   7.428   4.369
 1913TIP3    H2 5683   7.626   7.297   4.363
 1914TIP3   OH2 5684   7.311   4.374   6.254
 1914TIP3    H1 5685   7.364   4.301   6.285
 1914TIP3    H2 5686   7.299   4.429   6.332
 1915TIP3   OH2 5687   1.472   0.786   1.596
 1915TIP3    H1 5688   1.468   0.709   1.538
 1915TIP3    H2 5689   1.548   0.771   1.651
 1916TIP3   OH2 5690   3.265   4.782   2.479
 1916TIP3    H1 5691   3.278   4.874   2.503
 1916TIP3    H2 5692   3.210   4.746   2.549
 1917TIP3   OH2 5693   0.996   6.050   4.460
 1917TIP3    H1 5694   0.938   5.985   4.500
 1917TIP3    H2 5695   0.936   6.112   4.419
 1918TIP3   OH2 5696   5.167   4.160   1.234
 1918TIP3    H1 5697   5.116   4.080   1.236
 1918TIP3    H2 5698   5.111   4.226   1.275
 1919TIP3   OH2 5699   1.818   3.475   6.422
 1919TIP3    H1 5700   1.728   3.458   6.449
 1919TIP3    H2 5701   1.823   3.570   6.413
 1920TIP3   OH2 5702   4.220   6.001   2.413
 1920TIP3    H1 5703   4.197   5.919   2.457
 1920TIP3    H2 5704   4.307   5.985   2.377
 1921TIP3   OH2 5705   6.857   5.871   3.877
 1921TIP3    H1 5706   6.847   5.861   3.972
 1921TIP3    H2 5707   6.913   5.948   3.867
 1922TIP3   OH2 5708   3.771   2.035   4.728
 1922TIP3    H1 5709   3.772   2.066   4.819
 1922TIP3    H2 5710   3.742   1.944   4.735
 1923TIP3   OH2 5711   1.648   6.774   2.164
 1923TIP3    H1 5712   1.573   6.822   2.128
 1923TIP3    H2 5713   1.657   6.697   2.107
 1924TIP3   OH2 5714   4.564   4.056   2.109
 1924TIP3    H1 5715   4.630   4.063   2.177
 1924TIP3    H2 5716   4.605   4.093   2.030
 1925TIP3   OH2 5717   1.963   6.896   3.176
 1925TIP3    H1 5718   1.890   6.842   3.146
 1925TIP3    H2 5719   1.933   6.986   3.163
 1926TIP3   OH2 5720   1.323   6.016   0.403
 1926TIP3    H1 5721   1.344   6.104   0.434
 1926TIP3    H2 5722   1.259   6.030   0.333
 1927TIP3   OH2 5723   8.223   2.386   3.846
 1927TIP3    H1 5724   8.248   2.389   3.938
 1927TIP3    H2 5725   8.261   2.465   3.808
 1928TIP3   OH2 5726   2.276   2.106   0.305
 1928TIP3    H1 5727   2.194   2.110   0.257
 1928TIP3    H2 5728   2.341   2.145   0.246
 1929TIP3   OH2 5729   6.503   5.303   2.612
 1929TIP3    H1 5730   6.534   5.394   2.621
 1929TIP3    H2 5731   6.570   5.251   2.657
 1930TIP3   OH2 5732   5.019   3.797   0.371
 1930TIP3    H1 5733   5.023   3.891   0.355
 1930TIP3    H2 5734   4.972   3.788   0.454
 1931TIP3   OH2 5735   0.877   2.692   0.663
 1931TIP3    H1 5736   0.920   2.651   0.588
 1931TIP3    H2 5737   0.825   2.621   0.702
 1932TIP3   OH2 5738   0.945   5.973   1.391
 1932TIP3    H1 5739   0.901   5.957   1.307
 1932TIP3    H2 5740   0.884   5.938   1.456
 1933TIP3   OH2 5741   1.294   5.578   6.687
 1933TIP3    H1 5742   1.350   5.636   6.738
 1933TIP3    H2 5743   1.293   5.616   6.599
 1934TIP3   OH2 5744   7.994   7.479   4.444
 1934TIP3    H1 5745   8.089   7.472   4.451
 1934TIP3    H2 5746   7.973   7.559   4.492
 1935TIP3   OH2 5747   6.120   7.559   2.810
 1935TIP3    H1 5748   6.040   7.599   2.775
 1935TIP3    H2 5749   6.184   7.630   2.812
 1936TIP3   OH2 5750   4.008   2.604   5.294
 1936TIP3    H1 5751   3.951   2.528   5.283
 1936TIP3    H2 5752   3.965   2.657   5.361
 1937TIP3   OH2 5753   6.854   5.853   2.902
 1937TIP3    H1 5754   6.796   5.875   2.975
 1937TIP3    H2 5755   6.938   5.891   2.927
 1938TIP3   OH2 5756   6.090   0.424   2.015
 1938TIP3    H1 5757   6.177   0.401   2.048
 1938TIP3    H2 5758   6.062   0.346   1.967
 1939TIP3   OH2 5759   0.029   4.241   1.114
 1939TIP3    H1 5760   0.051   4.160   1.161
 1939TIP3    H2 5761  -0.066   4.246   1.117
 1940TIP3   OH2 5762   2.215   7.538   5.440
 1940TIP3    H1 5763   2.169   7.479   5.500
 1940TIP3    H2 5764   2.300   7.553   5.482
 1941TIP3   OH2 5765   0.933   7.492   6.207
 1941TIP3    H1 5766   0.951   7.423   6.143
 1941TIP3    H2 5767   1.020   7.516   6.240
 1942TIP3   OH2 5768   3.433   4.838   1.812
 1942TIP3    H1 5769   3.490   4.768   1.843
 1942TIP3    H2 5770   3.387   4.800   1.738
 1943TIP3   OH2 5771   6.587   6.245   4.499
 1943TIP3    H1 5772   6.630   6.249   4.584
 1943TIP3    H2 5773   6.579   6.336   4.471
 1944TIP3   OH2 5774   3.855   4.513   2.581
 1944TIP3    H1 5775   3.863   4.454   2.506
 1944TIP3    H2 5776   3.787   4.575   2.554
 1945TIP3   OH2 5777   1.309   6.579   2.424
 1945TIP3    H1 5778   1.312   6.533   2.340
 1945TIP3    H2 5779   1.227   6.629   2.422
 1946TIP3   OH2 5780   2.730   1.525   0.704
 1946TIP3    H1 5781   2.671   1.468   0.753
 1946TIP3    H2 5782   2.723   1.610   0.748
 1947TIP3   OH2 5783   6.463   0.607   0.483
 1947TIP3    H1 5784   6.501   0.624   0.397
 1947TIP3    H2 5785   6.498   0.677   0.539
 1948TIP3   OH2 5786   2.262   1.685   0.873
 1948TIP3    H1 5787   2.184   1.714   0.826
 1948TIP3    H2 5788   2.273   1.750   0.943
 1949TIP3   OH2 5789   7.760   0.898   4.972
 1949TIP3    H1 5790   7.664   0.890   4.975
 1949TIP3    H2 5791   7.784   0.869   4.884
 1950TIP3   OH2 5792   6.253   7.175   5.302
 1950TIP3    H1 5793   6.273   7.129   5.384
 1950TIP3    H2 5794   6.334   7.169   5.251
 1951TIP3   OH2 5795   4.975   7.381   5.490
 1951TIP3    H1 5796   5.029   7.416   5.419
 1951TIP3    H2 5797   5.017   7.298   5.513
 1952TIP3   OH2 5798   1.363   2.034   4.408
 1952TIP3    H1 5799   1.291   1.972   4.394
 1952TIP3    H2 5800   1.350   2.066   4.498
 1953TIP3   OH2 5801   6.420   7.325   3.963
 1953TIP3    H1 5802   6.419   7.418   3.989
 1953TIP3    H2 5803   6.328   7.300   3.959
 1954TIP3   OH2 5804   6.859   2.369   5.424
 1954TIP3    H1 5805   6.923   2.431   5.387
 1954TIP3    H2 5806   6.774   2.407   5.402
 1955TIP3   OH2 5807   0.026   0.632   5.264
 1955TIP3    H1 5808   0.048   0.651   5.173
 1955TIP3    H2 5809  -0.051   0.576   5.258
 1956TIP3   OH2 5810   4.386   1.208   1.172
 1956TIP3    H1 5811   4.468   1.219   1.220
 1956TIP3    H2 5812   4.356   1.297   1.155
 1957TIP3   OH2 5813   3.048   4.740   0.702
 1957TIP3    H1 5814   3.108   4.666   0.694
 1957TIP3    H2 5815   3.049   4.761   0.796
 1958TIP3   OH2 5816   3.510   0.361   4.758
 1958TIP3    H1 5817   3.580   0.397   4.813
 1958TIP3    H2 5818   3.553   0.337   4.677
 1959TIP3   OH2 5819   2.424   3.505   2.916
 1959TIP3    H1 5820   2.476   3.500   2.836
 1959TIP3    H2 5821   2.339   3.468   2.893
 1960TIP3   OH2 5822   6.455   5.085   6.055
 1960TIP3    H1 5823   6.541   5.113   6.086
 1960TIP3    H2 5824   6.403   5.073   6.134
 1961TIP3   OH2 5825   5.150   1.460   2.267
 1961TIP3    H1 5826   5.180   1.417   2.187
 1961TIP3    H2 5827   5.230   1.495   2.307
 1962TIP3   OH2 5828   6.169   2.610   5.805
 1962TIP3    H1 5829   6.158   2.516   5.790
 1962TIP3    H2 5830   6.079   2.643   5.810
 1963TIP3   OH2 5831   5.659   6.270   1.911
 1963TIP3    H1 5832   5.690   6.314   1.832
 1963TIP3    H2 5833   5.714   6.191   1.917
 1964TIP3   OH2 5834   4.447   7.235   2.654
 1964TIP3    H1 5835   4.431   7.203   2.743
 1964TIP3    H2 5836   4.494   7.164   2.611
 1965TIP3   OH2 5837   4.045   5.313   4.172
 1965TIP3    H1 5838   4.071   5.330   4.081
 1965TIP3    H2 5839   4.061   5.395   4.217
 1966TIP3   OH2 5840   3.549   7.232   0.394
 1966TIP3    H1 5841   3.537   7.319   0.356
 1966TIP3    H2 5842   3.476   7.180   0.359
 1967TIP3   OH2 5843   3.514   5.541   4.110
 1967TIP3    H1 5844   3.542   5.464   4.160
 1967TIP3    H2 5845   3.468   5.596   4.174
 1968TIP3   OH2 5846   3.658   7.432   2.363
 1968TIP3    H1 5847   3.734   7.489   2.359
 1968TIP3    H2 5848   3.611   7.460   2.442
 1969TIP3   OH2 5849   1.870   0.347   3.500
 1969TIP3    H1 5850   1.852   0.255   3.515
 1969TIP3    H2 5851   1.940   0.347   3.435
 1970TIP3   OH2 5852   7.833   6.431   2.278
 1970TIP3    H1 5853   7.828   6.344   2.319
 1970TIP3    H2 5854   7.852   6.490   2.351
 1971TIP3   OH2 5855   0.144   0.840   3.928
 1971TIP3    H1 5856   0.207   0.913   3.931
 1971TIP3    H2 5857   0.198   0.761   3.934
 1972TIP3   OH2 5858   1.910   4.553   6.576
 1972TIP3    H1 5859   1.838   4.580   6.633
 1972TIP3    H2 5860   1.875   4.561   6.488
 1973TIP3   OH2 5861   5.181   2.740   2.520
 1973TIP3    H1 5862   5.237   2.670   2.554
 1973TIP3    H2 5863   5.240   2.794   2.467
 1974TIP3   OH2 5864   2.141   2.483   0.433
 1974TIP3    H1 5865   2.203   2.546   0.396
 1974TIP3    H2 5866   2.185   2.450   0.512
 1975TIP3   OH2 5867   2.734   2.860   2.601
 1975TIP3    H1 5868   2.653   2.883   2.647
 1975TIP3    H2 5869   2.719   2.771   2.568
 1976TIP3   OH2 5870   7.805   5.886   1.498
 1976TIP3    H1 5871   7.771   5.942   1.568
 1976TIP3    H2 5872   7.799   5.797   1.534
 1977TIP3   OH2 5873   4.263   6.721   1.152
 1977TIP3    H1 5874   4.239   6.682   1.237
 1977TIP3    H2 5875   4.180   6.736   1.108
 1978TIP3   OH2 5876   2.913   7.050   5.906
 1978TIP3    H1 5877   2.895   7.068   5.813
 1978TIP3    H2 5878   2.910   6.955   5.913
 1979TIP3   OH2 5879   0.547   5.100   0.643
 1979TIP3    H1 5880   0.580   5.109   0.554
 1979TIP3    H2 5881   0.508   5.012   0.646
 1980TIP3   OH2 5882   4.955   2.529   6.727
 1980TIP3    H1 5883   4.982   2.486   6.646
 1980TIP3    H2 5884   4.893   2.596   6.700
 1981TIP3   OH2 5885   7.979   6.104   4.465
 1981TIP3    H1 5886   8.026   6.051   4.528
 1981TIP3    H2 5887   7.951   6.181   4.514
 1982TIP3   OH2 5888   2.713   6.061   3.198
 1982TIP3    H1 5889   2.644   6.122   3.225
 1982TIP3    H2 5890   2.786   6.117   3.172
 1983TIP3   OH2 5891   3.247   3.489   3.571
 1983TIP3    H1 5892   3.198   3.407   3.566
 1983TIP3    H2 5893   3.266   3.512   3.480
 1984TIP3   OH2 5894   5.670   2.478   4.709
 1984TIP3    H1 5895   5.647   2.568   4.685
 1984TIP3    H2 5896   5.765   2.474   4.699
 1985TIP3   OH2 5897   7.870   1.753   1.941
 1985TIP3    H1 5898   7.863   1.832   1.994
 1985TIP3    H2 5899   7.946   1.768   1.886
 1986TIP3   OH2 5900   7.622   6.438   3.708
 1986TIP3    H1 5901   7.692   6.373   3.705
 1986TIP3    H2 5902   7.650   6.506   3.648
 1987TIP3   OH2 5903   0.127   2.876   1.724
 1987TIP3    H1 5904   0.066   2.942   1.755
 1987TIP3    H2 5905   0.117   2.803   1.785
 1988TIP3   OH2 5906   0.170   6.132   1.632
 1988TIP3    H1 5907   0.104   6.116   1.565
 1988TIP3    H2 5908   0.177   6.227   1.636
 1989TIP3   OH2 5909   6.021   2.551   6.204
 1989TIP3    H1 5910   6.073   2.481   6.164
 1989TIP3    H2 5911   5.954   2.570   6.138
 1990TIP3   OH2 5912   5.175   7.577   1.916
 1990TIP3    H1 5913   5.212   7.542   1.835
 1990TIP3    H2 5914   5.092   7.531   1.926
 1991TIP3   OH2 5915   1.993   2.178   5.134
 1991TIP3    H1 5916   1.904   2.177   5.099
 1991TIP3    H2 5917   2.032   2.257   5.098
 1992TIP3   OH2 5918   6.428   1.582   1.209
 1992TIP3    H1 5919   6.455   1.612   1.295
 1992TIP3    H2 5920   6.449   1.488   1.209
 1993TIP3   OH2 5921   5.550   5.197   5.046
 1993TIP3    H1 5922   5.592   5.237   5.122
 1993TIP3    H2 5923   5.579   5.250   4.972
 1994TIP3   OH2 5924   3.124   2.827   3.025
 1994TIP3    H1 5925   3.129   2.752   3.084
 1994TIP3    H2 5926   3.215   2.846   3.002
 1995TIP3   OH2 5927   6.256   1.322   4.218
 1995TIP3    H1 5928   6.173   1.363   4.244
 1995TIP3    H2 5929   6.262   1.339   4.124
 1996TIP3   OH2 5930   2.974   5.460   3.100
 1996TIP3    H1 5931   2.913   5.534   3.091
 1996TIP3    H2 5932   2.934   5.403   3.165
 1997TIP3   OH2 5933   1.082   5.581   1.914
 1997TIP3    H1 5934   1.061   5.595   1.821
 1997TIP3    H2 5935   1.167   5.537   1.913
 1998TIP3   OH2 5936   5.143   3.624   2.863
 1998TIP3    H1 5937   5.051   3.608   2.842
 1998TIP3    H2 5938   5.179   3.539   2.886
 1999TIP3   OH2 5939   0.206   6.889   3.343
 1999TIP3    H1 5940   0.190   6.894   3.249
 1999TIP3    H2 5941   0.134   6.938   3.383
 2000TIP3   OH2 5942   0.666   0.831   5.823
 2000TIP3    H1 5943   0.760   0.828   5.803
 2000TIP3    H2 5944   0.631   0.750   5.784
 2001TIP3   OH2 5945   1.541   3.351   1.599
 2001TIP3    H1 5946   1.491   3.335   1.679
 2001TIP3    H2 5947   1.484   3.319   1.529
 2002TIP3   OH2 5948   7.481   6.113   6.726
 2002TIP3    H1 5949   7.418   6.115   6.654
 2002TIP3    H2 5950   7.428   6.101   6.805
 2003TIP3   OH2 5951   3.579   2.553   6.345
 2003TIP3    H1 5952   3.665   2.593   6.353
 2003TIP3    H2 5953   3.597   2.465   6.311
 2004TIP3   OH2 5954   5.761   3.271   4.847
 2004TIP3    H1 5955   5.795   3.230   4.926
 2004TIP3    H2 5956   5.689   3.214   4.820
 2005TIP3   OH2 5957   3.291   5.630   5.683
 2005TIP3    H1 5958   3.264   5.587   5.764
 2005TIP3    H2 5959   3.301   5.722   5.706
 2006TIP3   OH2 5960   4.682   1.335   5.446
 2006TIP3    H1 5961   4.725   1.251   5.462
 2006TIP3    H2 5962   4.636   1.355   5.527
 2007TIP3   OH2 5963   5.413   1.883   0.270
 2007TIP3    H1 5964   5.466   1.814   0.311
 2007TIP3    H2 5965   5.466   1.912   0.196
 2008TIP3   OH2 5966   6.727   7.105   2.108
 2008TIP3    H1 5967   6.815   7.122   2.074
 2008TIP3    H2 5968   6.727   7.146   2.195
 2009TIP3   OH2 5969   1.016   3.078   0.320
 2009TIP3    H1 5970   0.962   3.044   0.249
 2009TIP3    H2 5971   1.036   3.001   0.373
 2010TIP3   OH2 5972   0.178   3.581   5.520
 2010TIP3    H1 5973   0.130   3.498   5.515
 2010TIP3    H2 5974   0.137   3.636   5.452
 2011TIP3   OH2 5975   0.814   6.471   5.495
 2011TIP3    H1 5976   0.755   6.543   5.474
 2011TIP3    H2 5977   0.856   6.449   5.411
 2012TIP3   OH2 5978   2.171   3.576   5.519
 2012TIP3    H1 5979   2.264   3.578   5.498
 2012TIP3    H2 5980   2.127   3.601   5.438
 2013TIP3   OH2 5981   5.454   5.067   2.867
 2013TIP3    H1 5982   5.386   5.032   2.810
 2013TIP3    H2 5983   5.487   4.991   2.915
 2014TIP3   OH2 5984   5.037   0.697   2.489
 2014TIP3    H1 5985   5.055   0.776   2.439
 2014TIP3    H2 5986   5.104   0.695   2.557
 2015TIP3   OH2 5987   1.438   1.304   3.100
 2015TIP3    H1 5988   1.463   1.352   3.021
 2015TIP3    H2 5989   1.515   1.309   3.156
 2016TIP3   OH2 5990   5.276   5.428   6.695
 2016TIP3    H1 5991   5.213   5.464   6.632
 2016TIP3    H2 5992   5.222   5.389   6.764
 2017TIP3   OH2 5993   3.836   4.307   3.132
 2017TIP3    H1 5994   3.890   4.270   3.063
 2017TIP3    H2 5995   3.763   4.349   3.087
 2018TIP3   OH2 5996   4.332   0.682   3.510
 2018TIP3    H1 5997   4.276   0.756   3.531
 2018TIP3    H2 5998   4.420   0.710   3.535
 2019TIP3   OH2 5999   1.262   6.937   4.578
 2019TIP3    H1 6000   1.253   6.997   4.504
 2019TIP3    H2 6001   1.180   6.946   4.627
 2020TIP3   OH2 6002   0.922   7.170   6.487
 2020TIP3    H1 6003   0.883   7.234   6.427
 2020TIP3    H2 6004   0.881   7.087   6.463
 2021TIP3   OH2 6005   7.880   6.100   4.199
 2021TIP3    H1 6006   7.915   6.183   4.169
 2021TIP3    H2 6007   7.912   6.091   4.289
 2022TIP3   OH2 6008   1.964   2.125   4.564
 2022TIP3    H1 6009   1.989   2.033   4.558
 2022TIP3    H2 6010   1.886   2.125   4.620
 2023TIP3   OH2 6011   3.820   1.756   0.604
 2023TIP3    H1 6012   3.730   1.787   0.612
 2023TIP3    H2 6013   3.813   1.677   0.549
 2024TIP3   OH2 6014   2.594   5.841   2.724
 2024TIP3    H1 6015   2.511   5.852   2.679
 2024TIP3    H2 6016   2.573   5.850   2.817
 2025TIP3   OH2 6017   5.491   2.698   1.461
 2025TIP3    H1 6018   5.400   2.729   1.460
 2025TIP3    H2 6019   5.521   2.713   1.550
 2026TIP3   OH2 6020   5.119   3.228   6.107
 2026TIP3    H1 6021   5.201   3.231   6.059
 2026TIP3    H2 6022   5.079   3.314   6.093
 2027TIP3   OH2 6023   1.416   5.968   1.436
 2027TIP3    H1 6024   1.418   5.977   1.341
 2027TIP3    H2 6025   1.346   6.026   1.464
 2028TIP3   OH2 6026   7.705   6.581   6.617
 2028TIP3    H1 6027   7.657   6.664   6.608
 2028TIP3    H2 6028   7.785   6.595   6.565
 2029TIP3   OH2 6029   2.218   2.353   4.077
 2029TIP3    H1 6030   2.290   2.416   4.075
 2029TIP3    H2 6031   2.152   2.393   4.134
 2030TIP3   OH2 6032   1.526   4.058   6.343
 2030TIP3    H1 6033   1.439   4.061   6.304
 2030TIP3    H2 6034   1.521   4.119   6.416
 2031TIP3   OH2 6035   6.657   1.592   6.267
 2031TIP3    H1 6036   6.573   1.604   6.223
 2031TIP3    H2 6037   6.696   1.516   6.224
 2032TIP3   OH2 6038   1.649   2.403   2.298
 2032TIP3    H1 6039   1.628   2.437   2.384
 2032TIP3    H2 6040   1.591   2.327   2.288
 2033TIP3   OH2 6041   6.651   7.161   2.843
 2033TIP3    H1 6042   6.646   7.255   2.858
 2033TIP3    H2 6043   6.676   7.124   2.927
 2034TIP3   OH2 6044   1.268   4.463   3.234
 2034TIP3    H1 6045   1.257   4.414   3.152
 2034TIP3    H2 6046   1.360   4.453   3.256
 2035TIP3   OH2 6047   1.334   2.301   2.296
 2035TIP3    H1 6048   1.331   2.329   2.388
 2035TIP3    H2 6049   1.242   2.296   2.270
 2036TIP3   OH2 6050   0.656   4.626   5.321
 2036TIP3    H1 6051   0.731   4.567   5.314
 2036TIP3    H2 6052   0.582   4.575   5.290
 2037TIP3   OH2 6053   2.300   3.255   3.161
 2037TIP3    H1 6054   2.218   3.287   3.123
 2037TIP3    H2 6055   2.336   3.330   3.208
 2038TIP3   OH2 6056   5.549   5.342   3.702
 2038TIP3    H1 6057   5.592   5.257   3.701
 2038TIP3    H2 6058   5.587   5.389   3.628
 2039TIP3   OH2 6059   2.118   2.826   5.692
 2039TIP3    H1 6060   2.024   2.832   5.673
 2039TIP3    H2 6061   2.153   2.910   5.661
 2040TIP3   OH2 6062   6.362   7.254   2.919
 2040TIP3    H1 6063   6.267   7.264   2.921
 2040TIP3    H2 6064   6.376   7.160   2.907
 2041TIP3   OH2 6065   5.007   7.170   6.640
 2041TIP3    H1 6066   4.992   7.076   6.650
 2041TIP3    H2 6067   4.919   7.207   6.630
 2042TIP3   OH2 6068   6.290   2.305   0.186
 2042TIP3    H1 6069   6.289   2.401   0.189
 2042TIP3    H2 6070   6.301   2.279   0.277
 2043TIP3   OH2 6071   0.410   2.242   6.096
 2043TIP3    H1 6072   0.360   2.168   6.129
 2043TIP3    H2 6073   0.493   2.238   6.143
 2044TIP3   OH2 6074   2.645   6.829   5.161
 2044TIP3    H1 6075   2.603   6.910   5.192
 2044TIP3    H2 6076   2.630   6.829   5.067
 2045TIP3   OH2 6077   3.166   3.698   5.747
 2045TIP3    H1 6078   3.099   3.767   5.741
 2045TIP3    H2 6079   3.173   3.679   5.840
 2046TIP3   OH2 6080   3.655   0.144   1.214
 2046TIP3    H1 6081   3.666   0.231   1.176
 2046TIP3    H2 6082   3.745   0.112   1.226
 2047TIP3   OH2 6083   6.393   3.807   0.907
 2047TIP3    H1 6084   6.474   3.765   0.936
 2047TIP3    H2 6085   6.407   3.824   0.814
 2048TIP3   OH2 6086   6.546   0.882   1.122
 2048TIP3    H1 6087   6.632   0.918   1.139
 2048TIP3    H2 6088   6.485   0.953   1.143
 2049TIP3   OH2 6089   1.161   2.763   6.549
 2049TIP3    H1 6090   1.119   2.826   6.607
 2049TIP3    H2 6091   1.187   2.814   6.472
 2050TIP3   OH2 6092   7.177   4.231   2.846
 2050TIP3    H1 6093   7.220   4.315   2.860
 2050TIP3    H2 6094   7.221   4.172   2.908
 2051TIP3   OH2 6095   7.950   7.405   5.420
 2051TIP3    H1 6096   7.880   7.340   5.412
 2051TIP3    H2 6097   8.006   7.391   5.344
 2052TIP3   OH2 6098   2.947   4.123   1.049
 2052TIP3    H1 6099   2.893   4.161   1.118
 2052TIP3    H2 6100   3.032   4.108   1.089
 2053TIP3   OH2 6101   7.622   7.386   5.468
 2053TIP3    H1 6102   7.678   7.359   5.541
 2053TIP3    H2 6103   7.535   7.352   5.491
 2054TIP3   OH2 6104   0.990   3.908   1.268
 2054TIP3    H1 6105   1.055   3.887   1.335
 2054TIP3    H2 6106   0.944   3.984   1.303
 2055TIP3   OH2 6107   8.043   1.979   3.311
 2055TIP3    H1 6108   8.107   2.005   3.245
 2055TIP3    H2 6109   8.095   1.952   3.386
 2056TIP3   OH2 6110   5.333   1.622   1.343
 2056TIP3    H1 6111   5.308   1.664   1.261
 2056TIP3    H2 6112   5.373   1.539   1.316
 2057TIP3   OH2 6113   6.012   2.750   4.660
 2057TIP3    H1 6114   5.977   2.815   4.720
 2057TIP3    H2 6115   5.953   2.675   4.670
 2058TIP3   OH2 6116   4.635   1.360   6.125
 2058TIP3    H1 6117   4.569   1.372   6.193
 2058TIP3    H2 6118   4.710   1.323   6.172
 2059TIP3   OH2 6119   8.151   1.239   0.595
 2059TIP3    H1 6120   8.100   1.165   0.629
 2059TIP3    H2 6121   8.241   1.209   0.598
 2060TIP3   OH2 6122   7.109   2.325   1.422
 2060TIP3    H1 6123   7.142   2.239   1.449
 2060TIP3    H2 6124   7.181   2.364   1.371
 2061TIP3   OH2 6125   0.666   3.079   0.447
 2061TIP3    H1 6126   0.703   2.992   0.434
 2061TIP3    H2 6127   0.672   3.121   0.361
 2062TIP3   OH2 6128   7.401   3.426   0.008
 2062TIP3    H1 6129   7.446   3.507  -0.015
 2062TIP3    H2 6130   7.336   3.453   0.073
 2063TIP3   OH2 6131   8.108   6.106   0.422
 2063TIP3    H1 6132   8.110   6.084   0.329
 2063TIP3    H2 6133   8.072   6.195   0.425
 2064TIP3   OH2 6134   5.806   2.408   4.425
 2064TIP3    H1 6135   5.867   2.341   4.455
 2064TIP3    H2 6136   5.719   2.371   4.442
 2065TIP3   OH2 6137   7.981   5.129   2.364
 2065TIP3    H1 6138   7.955   5.183   2.439
 2065TIP3    H2 6139   7.995   5.192   2.293
 2066TIP3   OH2 6140   3.512   1.113   2.260
 2066TIP3    H1 6141   3.423   1.145   2.274
 2066TIP3    H2 6142   3.518   1.034   2.313
 2067TIP3   OH2 6143   4.505   0.336   2.820
 2067TIP3    H1 6144   4.446   0.411   2.809
 2067TIP3    H2 6145   4.582   0.359   2.768
 2068TIP3   OH2 6146   6.478   3.837   5.334
 2068TIP3    H1 6147   6.491   3.829   5.429
 2068TIP3    H2 6148   6.429   3.759   5.311
 2069TIP3   OH2 6149   1.918   7.154   4.645
 2069TIP3    H1 6150   1.983   7.087   4.665
 2069TIP3    H2 6151   1.884   7.130   4.559
 2070TIP3   OH2 6152   2.896   3.600   4.440
 2070TIP3    H1 6153   2.931   3.570   4.355
 2070TIP3    H2 6154   2.931   3.688   4.450
 2071TIP3   OH2 6155   4.767   0.103   2.242
 2071TIP3    H1 6156   4.801   0.022   2.280
 2071TIP3    H2 6157   4.792   0.171   2.304
 2072TIP3   OH2 6158   5.002   5.788   4.757
 2072TIP3    H1 6159   4.908   5.801   4.772
 2072TIP3    H2 6160   5.006   5.734   4.678
 2073TIP3   OH2 6161   3.352   6.776   4.315
 2073TIP3    H1 6162   3.426   6.766   4.255
 2073TIP3    H2 6163   3.357   6.868   4.344
 2074TIP3   OH2 6164   4.774   0.907   4.453
 2074TIP3    H1 6165   4.804   0.822   4.486
 2074TIP3    H2 6166   4.854   0.958   4.442
 2075TIP3   OH2 6167   0.035   2.870   2.175
 2075TIP3    H1 6168   0.067   2.959   2.194
 2075TIP3    H2 6169   0.098   2.813   2.219
 2076TIP3   OH2 6170   8.063   3.495   2.101
 2076TIP3    H1 6171   8.064   3.577   2.052
 2076TIP3    H2 6172   8.037   3.520   2.189
 2077TIP3   OH2 6173   5.305   6.336   1.490
 2077TIP3    H1 6174   5.237   6.373   1.545
 2077TIP3    H2 6175   5.386   6.350   1.539
 2078TIP3   OH2 6176   0.961   1.988   2.915
 2078TIP3    H1 6177   0.956   1.943   2.830
 2078TIP3    H2 6178   1.052   1.977   2.942
 2079TIP3   OH2 6179   4.335   2.397   0.570
 2079TIP3    H1 6180   4.341   2.365   0.660
 2079TIP3    H2 6181   4.322   2.491   0.579
 2080TIP3   OH2 6182   1.020   4.977   1.525
 2080TIP3    H1 6183   1.033   4.906   1.461
 2080TIP3    H2 6184   1.107   5.016   1.535
 2081TIP3   OH2 6185   2.384   0.226   3.819
 2081TIP3    H1 6186   2.377   0.214   3.913
 2081TIP3    H2 6187   2.474   0.198   3.798
 2082TIP3   OH2 6188   1.103   1.398   0.487
 2082TIP3    H1 6189   1.135   1.367   0.402
 2082TIP3    H2 6190   1.113   1.323   0.545
 2083TIP3   OH2 6191   8.119   4.347   0.848
 2083TIP3    H1 6192   8.118   4.286   0.922
 2083TIP3    H2 6193   8.192   4.318   0.794
 2084TIP3   OH2 6194   7.344   2.418   3.794
 2084TIP3    H1 6195   7.289   2.479   3.745
 2084TIP3    H2 6196   7.371   2.353   3.729
 2085TIP3   OH2 6197   5.156   4.757   1.028
 2085TIP3    H1 6198   5.190   4.847   1.021
 2085TIP3    H2 6199   5.101   4.758   1.107
 2086TIP3   OH2 6200   6.043   4.052   0.458
 2086TIP3    H1 6201   5.984   4.121   0.427
 2086TIP3    H2 6202   6.128   4.095   0.463
 2087TIP3   OH2 6203   7.730   0.528   5.468
 2087TIP3    H1 6204   7.690   0.494   5.548
 2087TIP3    H2 6205   7.674   0.495   5.398
 2088TIP3   OH2 6206   7.098   4.769   0.415
 2088TIP3    H1 6207   7.060   4.735   0.334
 2088TIP3    H2 6208   7.144   4.849   0.389
 2089TIP3   OH2 6209   6.199   6.694   6.744
 2089TIP3    H1 6210   6.246   6.762   6.792
 2089TIP3    H2 6211   6.267   6.629   6.723
 2090TIP3   OH2 6212   6.518   7.182   0.887
 2090TIP3    H1 6213   6.464   7.107   0.861
 2090TIP3    H2 6214   6.458   7.256   0.888
 2091TIP3   OH2 6215   0.018   2.817   6.578
 2091TIP3    H1 6216   0.096   2.762   6.583
 2091TIP3    H2 6217   0.018   2.851   6.488
 2092TIP3   OH2 6218   7.128   1.974   6.351
 2092TIP3    H1 6219   7.104   2.029   6.277
 2092TIP3    H2 6220   7.048   1.926   6.372
 2093TIP3   OH2 6221   5.827   4.561   5.692
 2093TIP3    H1 6222   5.867   4.646   5.671
 2093TIP3    H2 6223   5.867   4.536   5.775
 2094TIP3   OH2 6224   7.522   1.372   4.084
 2094TIP3    H1 6225   7.546   1.383   4.176
 2094TIP3    H2 6226   7.427   1.386   4.082
 2095TIP3   OH2 6227   5.314   4.514   5.862
 2095TIP3    H1 6228   5.337   4.421   5.865
 2095TIP3    H2 6229   5.220   4.514   5.841
 2096TIP3   OH2 6230   5.053   3.263   4.094
 2096TIP3    H1 6231   5.042   3.355   4.073
 2096TIP3    H2 6232   5.070   3.220   4.010
 2097TIP3   OH2 6233   2.914   4.722   3.996
 2097TIP3    H1 6234   2.873   4.739   4.081
 2097TIP3    H2 6235   2.976   4.794   3.985
 2098TIP3   OH2 6236   7.895   3.473   5.193
 2098TIP3    H1 6237   7.805   3.475   5.160
 2098TIP3    H2 6238   7.938   3.546   5.148
 2099TIP3   OH2 6239   2.315   7.371   1.954
 2099TIP3    H1 6240   2.358   7.347   2.036
 2099TIP3    H2 6241   2.353   7.456   1.932
 2100TIP3   OH2 6242   2.043   2.826   6.069
 2100TIP3    H1 6243   2.109   2.817   6.138
 2100TIP3    H2 6244   2.085   2.788   5.991
 2101TIP3   OH2 6245   6.935   0.581   5.251
 2101TIP3    H1 6246   6.921   0.499   5.298
 2101TIP3    H2 6247   6.900   0.648   5.309
 2102TIP3   OH2 6248   5.808   7.537   2.300
 2102TIP3    H1 6249   5.738   7.592   2.334
 2102TIP3    H2 6250   5.887   7.568   2.344
 2103TIP3   OH2 6251   4.484   5.186   6.340
 2103TIP3    H1 6252   4.487   5.276   6.371
 2103TIP3    H2 6253   4.538   5.137   6.402
 2104TIP3   OH2 6254   2.523   5.663   0.603
 2104TIP3    H1 6255   2.536   5.719   0.527
 2104TIP3    H2 6256   2.451   5.604   0.579
 2105TIP3   OH2 6257   2.436   7.237   0.840
 2105TIP3    H1 6258   2.439   7.142   0.855
 2105TIP3    H2 6259   2.518   7.269   0.877
 2106TIP3   OH2 6260   0.180   1.223   1.186
 2106TIP3    H1 6261   0.206   1.292   1.125
 2106TIP3    H2 6262   0.248   1.156   1.177
 2107TIP3   OH2 6263   4.095   2.643   2.946
 2107TIP3    H1 6264   4.155   2.638   2.871
 2107TIP3    H2 6265   4.017   2.595   2.917
 2108TIP3   OH2 6266   2.292   3.537   6.014
 2108TIP3    H1 6267   2.319   3.628   6.022
 2108TIP3    H2 6268   2.238   3.535   5.934
 2109TIP3   OH2 6269   2.715   5.799   1.216
 2109TIP3    H1 6270   2.769   5.862   1.265
 2109TIP3    H2 6271   2.776   5.729   1.192
 2110TIP3   OH2 6272   3.380   2.958   3.029
 2110TIP3    H1 6273   3.474   2.941   3.036
 2110TIP3    H2 6274   3.369   3.046   3.065
 2111TIP3   OH2 6275   5.224   7.160   0.886
 2111TIP3    H1 6276   5.174   7.101   0.942
 2111TIP3    H2 6277   5.298   7.107   0.855
 2112TIP3   OH2 6278   6.504   4.069   1.592
 2112TIP3    H1 6279   6.492   3.974   1.601
 2112TIP3    H2 6280   6.474   4.088   1.503
 2113TIP3   OH2 6281   0.836   2.299   0.218
 2113TIP3    H1 6282   0.792   2.234   0.163
 2113TIP3    H2 6283   0.801   2.285   0.306
 2114TIP3   OH2 6284   5.907   5.126   0.692
 2114TIP3    H1 6285   5.847   5.127   0.766
 2114TIP3    H2 6286   5.859   5.082   0.622
 2115TIP3   OH2 6287   8.068   7.581   1.779
 2115TIP3    H1 6288   8.121   7.659   1.796
 2115TIP3    H2 6289   8.012   7.573   1.856
 2116TIP3   OH2 6290   3.841   4.011   3.370
 2116TIP3    H1 6291   3.903   3.967   3.311
 2116TIP3    H2 6292   3.758   4.008   3.323
 2117TIP3   OH2 6293   2.664   6.011   5.535
 2117TIP3    H1 6294   2.670   5.982   5.626
 2117TIP3    H2 6295   2.704   6.098   5.535
 2118TIP3   OH2 6296   6.323   3.016   5.312
 2118TIP3    H1 6297   6.387   2.945   5.316
 2118TIP3    H2 6298   6.238   2.973   5.312
 2119TIP3   OH2 6299   3.730   6.362   5.714
 2119TIP3    H1 6300   3.735   6.302   5.788
 2119TIP3    H2 6301   3.789   6.434   5.737
 2120TIP3   OH2 6302   1.535   6.499   4.999
 2120TIP3    H1 6303   1.471   6.429   4.996
 2120TIP3    H2 6304   1.620   6.454   5.001
 2121TIP3   OH2 6305   6.816   2.614   6.115
 2121TIP3    H1 6306   6.827   2.539   6.175
 2121TIP3    H2 6307   6.768   2.578   6.041
 2122TIP3   OH2 6308   0.302   6.202   5.369
 2122TIP3    H1 6309   0.278   6.168   5.283
 2122TIP3    H2 6310   0.390   6.237   5.358
 2123TIP3   OH2 6311   7.918   7.217   4.545
 2123TIP3    H1 6312   7.830   7.181   4.532
 2123TIP3    H2 6313   7.911   7.308   4.515
 2124TIP3   OH2 6314   7.905   4.559   4.770
 2124TIP3    H1 6315   7.900   4.635   4.828
 2124TIP3    H2 6316   7.996   4.559   4.739
 2125TIP3   OH2 6317   3.698   7.428   6.289
 2125TIP3    H1 6318   3.730   7.353   6.238
 2125TIP3    H2 6319   3.613   7.400   6.323
 2126TIP3   OH2 6320   5.079   4.686   6.613
 2126TIP3    H1 6321   5.084   4.677   6.518
 2126TIP3    H2 6322   4.986   4.698   6.632
 2127TIP3   OH2 6323   3.916   6.544   5.812
 2127TIP3    H1 6324   3.898   6.613   5.876
 2127TIP3    H2 6325   4.008   6.556   5.789
 2128TIP3   OH2 6326   5.768   1.428   3.625
 2128TIP3    H1 6327   5.785   1.500   3.687
 2128TIP3    H2 6328   5.710   1.369   3.673
 2129TIP3   OH2 6329   7.199   6.726   5.035
 2129TIP3    H1 6330   7.207   6.807   5.085
 2129TIP3    H2 6331   7.286   6.686   5.039
 2130TIP3   OH2 6332   1.392   6.463   3.711
 2130TIP3    H1 6333   1.358   6.484   3.798
 2130TIP3    H2 6334   1.484   6.489   3.715
 2131TIP3   OH2 6335   5.347   0.262   2.066
 2131TIP3    H1 6336   5.295   0.222   1.996
 2131TIP3    H2 6337   5.408   0.320   2.021
 2132TIP3   OH2 6338   7.031   4.615   1.276
 2132TIP3    H1 6339   6.963   4.550   1.295
 2132TIP3    H2 6340   7.065   4.638   1.362
 2133TIP3   OH2 6341   8.000   6.531   4.571
 2133TIP3    H1 6342   7.928   6.469   4.581
 2133TIP3    H2 6343   8.079   6.477   4.572
 2134TIP3   OH2 6344   6.983   3.341   0.810
 2134TIP3    H1 6345   6.929   3.393   0.869
 2134TIP3    H2 6346   7.057   3.398   0.787
 2135TIP3   OH2 6347   4.062   5.730   5.105
 2135TIP3    H1 6348   4.042   5.637   5.116
 2135TIP3    H2 6349   3.976   5.772   5.101
 2136TIP3   OH2 6350   0.235   0.395   1.702
 2136TIP3    H1 6351   0.293   0.388   1.778
 2136TIP3    H2 6352   0.190   0.310   1.698
 2137TIP3   OH2 6353   4.423   0.128   0.840
 2137TIP3    H1 6354   4.342   0.088   0.808
 2137TIP3    H2 6355   4.447   0.190   0.771
 2138TIP3   OH2 6356   1.607   3.941   1.025
 2138TIP3    H1 6357   1.638   3.999   0.955
 2138TIP3    H2 6358   1.672   3.871   1.029
 2139TIP3   OH2 6359   7.708   6.880   6.578
 2139TIP3    H1 6360   7.803   6.877   6.576
 2139TIP3    H2 6361   7.684   6.952   6.520
 2140TIP3   OH2 6362   1.431   4.837   4.572
 2140TIP3    H1 6363   1.382   4.912   4.539
 2140TIP3    H2 6364   1.366   4.769   4.586
 2141TIP3   OH2 6365   7.970   4.513   3.749
 2141TIP3    H1 6366   8.026   4.560   3.811
 2141TIP3    H2 6367   7.922   4.581   3.703
 2142TIP3   OH2 6368   1.391   4.649   5.973
 2142TIP3    H1 6369   1.327   4.697   6.026
 2142TIP3    H2 6370   1.402   4.565   6.018
 2143TIP3   OH2 6371   3.909   6.175   4.509
 2143TIP3    H1 6372   3.973   6.157   4.441
 2143TIP3    H2 6373   3.869   6.257   4.484
 2144TIP3   OH2 6374   6.974   2.868   4.747
 2144TIP3    H1 6375   6.954   2.946   4.695
 2144TIP3    H2 6376   6.893   2.849   4.794
 2145TIP3   OH2 6377   4.342   3.575   1.122
 2145TIP3    H1 6378   4.355   3.654   1.175
 2145TIP3    H2 6379   4.400   3.510   1.162
 2146TIP3   OH2 6380   8.193   4.909   6.582
 2146TIP3    H1 6381   8.286   4.927   6.566
 2146TIP3    H2 6382   8.161   4.985   6.631
 2147TIP3   OH2 6383   4.984   6.999   5.225
 2147TIP3    H1 6384   4.995   6.971   5.316
 2147TIP3    H2 6385   4.913   6.944   5.192
 2148TIP3   OH2 6386   4.922   5.773   0.979
 2148TIP3    H1 6387   4.997   5.810   0.933
 2148TIP3    H2 6388   4.855   5.762   0.912
 2149TIP3   OH2 6389   3.381   2.552   5.994
 2149TIP3    H1 6390   3.447   2.521   5.932
 2149TIP3    H2 6391   3.299   2.547   5.945
 2150TIP3   OH2 6392   3.040   6.022   1.576
 2150TIP3    H1 6393   3.015   5.951   1.517
 2150TIP3    H2 6394   3.094   5.981   1.643
 2151TIP3   OH2 6395   4.498   0.206   4.345
 2151TIP3    H1 6396   4.559   0.152   4.395
 2151TIP3    H2 6397   4.554   0.250   4.281
 2152TIP3   OH2 6398   1.683   0.800   3.231
 2152TIP3    H1 6399   1.718   0.860   3.297
 2152TIP3    H2 6400   1.588   0.807   3.240
 2153TIP3   OH2 6401   3.176   5.563   5.911
 2153TIP3    H1 6402   3.144   5.651   5.891
 2153TIP3    H2 6403   3.242   5.576   5.978
 2154TIP3   OH2 6404   7.938   0.125   0.291
 2154TIP3    H1 6405   7.982   0.209   0.302
 2154TIP3    H2 6406   7.998   0.061   0.329
 2155TIP3   OH2 6407   1.524   7.356   4.490
 2155TIP3    H1 6408   1.554   7.313   4.570
 2155TIP3    H2 6409   1.594   7.341   4.427
 2156TIP3   OH2 6410   7.233   0.652   0.001
 2156TIP3    H1 6411   7.175   0.728   0.006
 2156TIP3    H2 6412   7.243   0.623   0.091
 2157TIP3   OH2 6413   0.519   3.879   6.524
 2157TIP3    H1 6414   0.577   3.956   6.519
 2157TIP3    H2 6415   0.431   3.915   6.510
 2158TIP3   OH2 6416   4.772   6.929   1.937
 2158TIP3    H1 6417   4.860   6.917   1.974
 2158TIP3    H2 6418   4.772   7.018   1.904
 2159TIP3   OH2 6419   1.021   7.232   1.451
 2159TIP3    H1 6420   0.998   7.146   1.417
 2159TIP3    H2 6421   1.116   7.235   1.446
 2160TIP3   OH2 6422   2.370   6.535   1.610
 2160TIP3    H1 6423   2.320   6.460   1.578
 2160TIP3    H2 6424   2.352   6.605   1.546
 2161TIP3   OH2 6425   0.350   6.352   4.209
 2161TIP3    H1 6426   0.286   6.285   4.187
 2161TIP3    H2 6427   0.343   6.361   4.304
 2162TIP3   OH2 6428   0.943   2.377   4.873
 2162TIP3    H1 6429   0.904   2.397   4.959
 2162TIP3    H2 6430   0.990   2.456   4.849
 2163TIP3   OH2 6431   7.456   4.534   4.000
 2163TIP3    H1 6432   7.434   4.560   3.910
 2163TIP3    H2 6433   7.541   4.577   4.016
 2164TIP3   OH2 6434   6.984   3.160   2.284
 2164TIP3    H1 6435   7.035   3.086   2.251
 2164TIP3    H2 6436   6.974   3.217   2.207
 2165TIP3   OH2 6437   0.597   4.045   4.550
 2165TIP3    H1 6438   0.559   4.008   4.471
 2165TIP3    H2 6439   0.679   3.997   4.562
 2166TIP3   OH2 6440   3.861   6.280   3.438
 2166TIP3    H1 6441   3.897   6.360   3.399
 2166TIP3    H2 6442   3.766   6.288   3.425
 2167TIP3   OH2 6443   0.150   1.759   0.641
 2167TIP3    H1 6444   0.235   1.757   0.598
 2167TIP3    H2 6445   0.092   1.805   0.581
 2168TIP3   OH2 6446   6.563   0.117   2.513
 2168TIP3    H1 6447   6.519   0.198   2.486
 2168TIP3    H2 6448   6.600   0.137   2.598
 2169TIP3   OH2 6449   7.541   5.983   0.968
 2169TIP3    H1 6450   7.570   6.074   0.971
 2169TIP3    H2 6451   7.496   5.974   0.884
 2170TIP3   OH2 6452   0.955   1.888   0.245
 2170TIP3    H1 6453   0.966   1.841   0.328
 2170TIP3    H2 6454   0.880   1.945   0.259
 2171TIP3   OH2 6455   5.761   4.575   0.646
 2171TIP3    H1 6456   5.700   4.501   0.655
 2171TIP3    H2 6457   5.711   4.650   0.677
 2172TIP3   OH2 6458   2.545   4.403   2.358
 2172TIP3    H1 6459   2.594   4.439   2.284
 2172TIP3    H2 6460   2.506   4.480   2.400
 2173TIP3   OH2 6461   3.978   3.394   0.836
 2173TIP3    H1 6462   3.991   3.457   0.907
 2173TIP3    H2 6463   4.038   3.424   0.768
 2174TIP3   OH2 6464   0.504   2.455   4.421
 2174TIP3    H1 6465   0.495   2.535   4.473
 2174TIP3    H2 6466   0.576   2.474   4.361
 2175TIP3   OH2 6467   1.923   5.015   5.689
 2175TIP3    H1 6468   1.910   4.950   5.620
 2175TIP3    H2 6469   1.918   4.965   5.770
 2176TIP3   OH2 6470   0.202   5.388   0.730
 2176TIP3    H1 6471   0.142   5.373   0.657
 2176TIP3    H2 6472   0.154   5.354   0.806
 2177TIP3   OH2 6473   7.564   0.912   1.027
 2177TIP3    H1 6474   7.490   0.852   1.017
 2177TIP3    H2 6475   7.523   0.998   1.036
 2178TIP3   OH2 6476   3.805   2.675   1.153
 2178TIP3    H1 6477   3.844   2.641   1.234
 2178TIP3    H2 6478   3.798   2.598   1.096
 2179TIP3   OH2 6479   4.644   2.930   1.844
 2179TIP3    H1 6480   4.715   2.880   1.803
 2179TIP3    H2 6481   4.567   2.912   1.789
 2180TIP3   OH2 6482   0.911   6.644   5.121
 2180TIP3    H1 6483   0.989   6.638   5.177
 2180TIP3    H2 6484   0.877   6.732   5.137
 2181TIP3   OH2 6485   7.248   2.036   2.183
 2181TIP3    H1 6486   7.192   2.109   2.209
 2181TIP3    H2 6487   7.219   2.013   2.095
 2182TIP3   OH2 6488   4.309   4.646   4.965
 2182TIP3    H1 6489   4.250   4.710   5.006
 2182TIP3    H2 6490   4.395   4.668   4.999
 2183TIP3   OH2 6491   1.734   7.479   2.629
 2183TIP3    H1 6492   1.772   7.503   2.714
 2183TIP3    H2 6493   1.743   7.558   2.575
 2184TIP3   OH2 6494   7.017   0.542   6.231
 2184TIP3    H1 6495   6.949   0.560   6.296
 2184TIP3    H2 6496   6.990   0.591   6.153
 2185TIP3   OH2 6497   0.263   3.621   4.493
 2185TIP3    H1 6498   0.234   3.548   4.438
 2185TIP3    H2 6499   0.277   3.693   4.432
 2186TIP3   OH2 6500   6.901   4.829   4.784
 2186TIP3    H1 6501   6.956   4.902   4.754
 2186TIP3    H2 6502   6.902   4.835   4.879
 2187TIP3   OH2 6503   4.303   2.720   5.526
 2187TIP3    H1 6504   4.297   2.686   5.437
 2187TIP3    H2 6505   4.213   2.715   5.560
 2188TIP3   OH2 6506   1.690   1.848   4.206
 2188TIP3    H1 6507   1.775   1.814   4.177
 2188TIP3    H2 6508   1.696   1.848   4.301
 2189TIP3   OH2 6509   0.631   5.181   5.903
 2189TIP3    H1 6510   0.595   5.113   5.958
 2189TIP3    H2 6511   0.559   5.244   5.892
 2190TIP3   OH2 6512   0.125   5.036   0.048
 2190TIP3    H1 6513   0.220   5.024   0.061
 2190TIP3    H2 6514   0.119   5.093  -0.029
 2191TIP3   OH2 6515   0.258   0.340   2.676
 2191TIP3    H1 6516   0.220   0.393   2.606
 2191TIP3    H2 6517   0.344   0.379   2.693
 2192TIP3   OH2 6518   7.979   6.186   1.671
 2192TIP3    H1 6519   7.914   6.177   1.601
 2192TIP3    H2 6520   7.961   6.272   1.709
 2193TIP3   OH2 6521   4.939   7.033   4.120
 2193TIP3    H1 6522   4.873   6.963   4.121
 2193TIP3    H2 6523   4.899   7.104   4.170
 2194TIP3   OH2 6524   0.182   4.862   3.927
 2194TIP3    H1 6525   0.276   4.852   3.915
 2194TIP3    H2 6526   0.158   4.789   3.985
 2195TIP3   OH2 6527   3.427   7.234   4.104
 2195TIP3    H1 6528   3.355   7.181   4.067
 2195TIP3    H2 6529   3.484   7.170   4.146
 2196TIP3   OH2 6530   7.846   6.915   0.227
 2196TIP3    H1 6531   7.751   6.915   0.217
 2196TIP3    H2 6532   7.867   6.826   0.257
 2197TIP3   OH2 6533   6.755   2.845   4.926
 2197TIP3    H1 6534   6.747   2.896   5.007
 2197TIP3    H2 6535   6.671   2.860   4.881
 2198TIP3   OH2 6536   1.460   3.833   2.591
 2198TIP3    H1 6537   1.510   3.874   2.520
 2198TIP3    H2 6538   1.514   3.759   2.618
 2199TIP3   OH2 6539   1.759   1.477   1.217
 2199TIP3    H1 6540   1.786   1.407   1.277
 2199TIP3    H2 6541   1.803   1.457   1.135
 2200TIP3   OH2 6542   7.009   4.713   1.571
 2200TIP3    H1 6543   6.924   4.682   1.603
 2200TIP3    H2 6544   6.987   4.782   1.509
 2201TIP3   OH2 6545   6.871   3.927   1.963
 2201TIP3    H1 6546   6.805   3.863   1.936
 2201TIP3    H2 6547   6.830   4.012   1.947
 2202TIP3   OH2 6548   6.484   7.731   5.309
 2202TIP3    H1 6549   6.517   7.810   5.352
 2202TIP3    H2 6550   6.394   7.753   5.285
 2203TIP3   OH2 6551   4.746   6.670   1.377
 2203TIP3    H1 6552   4.735   6.634   1.465
 2203TIP3    H2 6553   4.667   6.645   1.330
 2204TIP3   OH2 6554   8.163   7.112   2.187
 2204TIP3    H1 6555   8.122   7.062   2.116
 2204TIP3    H2 6556   8.173   7.049   2.258
 2205TIP3   OH2 6557   0.256   2.278   5.272
 2205TIP3    H1 6558   0.203   2.355   5.255
 2205TIP3    H2 6559   0.194   2.213   5.307
 2206TIP3   OH2 6560   7.975   5.645   2.473
 2206TIP3    H1 6561   7.957   5.554   2.449
 2206TIP3    H2 6562   8.065   5.660   2.443
 2207TIP3   OH2 6563   1.838   5.941   5.961
 2207TIP3    H1 6564   1.930   5.967   5.963
 2207TIP3    H2 6565   1.813   5.947   5.869
 2208TIP3   OH2 6566   4.672   2.139   4.096
 2208TIP3    H1 6567   4.621   2.100   4.167
 2208TIP3    H2 6568   4.673   2.073   4.027
 2209TIP3   OH2 6569   6.785   1.055   3.771
 2209TIP3    H1 6570   6.812   1.086   3.685
 2209TIP3    H2 6571   6.865   1.053   3.823
 2210TIP3   OH2 6572   4.988   5.669   3.515
 2210TIP3    H1 6573   4.996   5.641   3.424
 2210TIP3    H2 6574   4.908   5.723   3.515
 2211TIP3   OH2 6575   5.326   0.290   6.115
 2211TIP3    H1 6576   5.288   0.203   6.112
 2211TIP3    H2 6577   5.282   0.338   6.045
 2212TIP3   OH2 6578   5.011   7.567   0.669
 2212TIP3    H1 6579   5.081   7.539   0.727
 2212TIP3    H2 6580   4.972   7.643   0.712
 2213TIP3   OH2 6581   7.589   7.651   3.055
 2213TIP3    H1 6582   7.495   7.671   3.064
 2213TIP3    H2 6583   7.598   7.624   2.964
 2214TIP3   OH2 6584   3.786   4.520   0.309
 2214TIP3    H1 6585   3.745   4.448   0.356
 2214TIP3    H2 6586   3.743   4.599   0.343
 2215TIP3   OH2 6587   6.827   1.934   0.286
 2215TIP3    H1 6588   6.873   1.921   0.203
 2215TIP3    H2 6589   6.865   2.014   0.322
 2216TIP3   OH2 6590   2.407   5.515   0.331
 2216TIP3    H1 6591   2.436   5.606   0.331
 2216TIP3    H2 6592   2.409   5.489   0.423
 2217TIP3   OH2 6593   2.327   3.524   0.069
 2217TIP3    H1 6594   2.329   3.435   0.103
 2217TIP3    H2 6595   2.418   3.552   0.070
 2218TIP3   OH2 6596   3.603   6.488   6.050
 2218TIP3    H1 6597   3.631   6.576   6.076
 2218TIP3    H2 6598   3.555   6.501   5.968
 2219TIP3   OH2 6599   4.679   7.064   0.443
 2219TIP3    H1 6600   4.619   7.067   0.368
 2219TIP3    H2 6601   4.719   7.151   0.445
 2220TIP3   OH2 6602   1.855   3.028   6.056
 2220TIP3    H1 6603   1.931   2.970   6.048
 2220TIP3    H2 6604   1.882   3.095   6.119
 2221TIP3   OH2 6605   5.123   5.379   4.332
 2221TIP3    H1 6606   5.187   5.333   4.387
 2221TIP3    H2 6607   5.062   5.311   4.305
 2222TIP3   OH2 6608   0.342   2.127   6.758
 2222TIP3    H1 6609   0.310   2.066   6.692
 2222TIP3    H2 6610   0.325   2.214   6.720
 2223TIP3   OH2 6611   6.605   1.664   5.197
 2223TIP3    H1 6612   6.669   1.663   5.125
 2223TIP3    H2 6613   6.636   1.733   5.256
 2224TIP3   OH2 6614   8.000   2.756   4.254
 2224TIP3    H1 6615   8.023   2.678   4.203
 2224TIP3    H2 6616   8.084   2.797   4.274
 2225TIP3   OH2 6617   0.512   1.720   0.016
 2225TIP3    H1 6618   0.599   1.700   0.052
 2225TIP3    H2 6619   0.457   1.736   0.092
 2226TIP3   OH2 6620   5.480   1.991   1.388
 2226TIP3    H1 6621   5.559   1.938   1.402
 2226TIP3    H2 6622   5.506   2.079   1.415
 2227TIP3   OH2 6623   3.149   0.612   1.312
 2227TIP3    H1 6624   3.160   0.620   1.217
 2227TIP3    H2 6625   3.130   0.702   1.341
 2228TIP3   OH2 6626   3.786   4.678   0.978
 2228TIP3    H1 6627   3.876   4.678   0.947
 2228TIP3    H2 6628   3.770   4.587   1.003
 2229TIP3   OH2 6629   1.833   5.638   3.516
 2229TIP3    H1 6630   1.811   5.693   3.441
 2229TIP3    H2 6631   1.748   5.614   3.554
 2230TIP3   OH2 6632   7.635   0.539   4.046
 2230TIP3    H1 6633   7.607   0.533   3.954
 2230TIP3    H2 6634   7.559   0.510   4.096
 2231TIP3   OH2 6635   3.792   1.085   1.240
 2231TIP3    H1 6636   3.705   1.124   1.250
 2231TIP3    H2 6637   3.788   1.041   1.155
 2232TIP3   OH2 6638   2.207   2.770   6.286
 2232TIP3    H1 6639   2.249   2.856   6.292
 2232TIP3    H2 6640   2.274   2.713   6.248
 2233TIP3   OH2 6641   0.300   5.791   2.025
 2233TIP3    H1 6642   0.393   5.804   2.042
 2233TIP3    H2 6643   0.295   5.771   1.931
 2234TIP3   OH2 6644   6.553   4.884   1.476
 2234TIP3    H1 6645   6.612   4.846   1.411
 2234TIP3    H2 6646   6.475   4.908   1.426
 2235TIP3   OH2 6647   3.406   3.382   2.969
 2235TIP3    H1 6648   3.378   3.379   3.060
 2235TIP3    H2 6649   3.379   3.298   2.932
 2236TIP3   OH2 6650   6.913   1.755   2.984
 2236TIP3    H1 6651   6.827   1.741   3.023
 2236TIP3    H2 6652   6.941   1.667   2.957
 2237TIP3   OH2 6653   3.667   6.173   3.210
 2237TIP3    H1 6654   3.627   6.239   3.267
 2237TIP3    H2 6655   3.621   6.092   3.231
 2238TIP3   OH2 6656   2.637   4.105   3.755
 2238TIP3    H1 6657   2.594   4.026   3.723
 2238TIP3    H2 6658   2.575   4.143   3.818
 2239TIP3   OH2 6659   1.215   6.959   5.018
 2239TIP3    H1 6660   1.182   6.975   5.106
 2239TIP3    H2 6661   1.186   6.870   4.997
 2240TIP3   OH2 6662   2.466   1.004   4.900
 2240TIP3    H1 6663   2.447   1.003   4.806
 2240TIP3    H2 6664   2.453   0.913   4.928
 2241TIP3   OH2 6665   2.626   6.598   0.270
 2241TIP3    H1 6666   2.708   6.556   0.296
 2241TIP3    H2 6667   2.577   6.529   0.226
 2242TIP3   OH2 6668   7.947   6.849   2.743
 2242TIP3    H1 6669   7.853   6.855   2.758
 2242TIP3    H2 6670   7.977   6.940   2.739
 2243TIP3   OH2 6671   7.877   6.829   2.341
 2243TIP3    H1 6672   7.881   6.750   2.394
 2243TIP3    H2 6673   7.791   6.824   2.297
 2244TIP3   OH2 6674   4.731   7.065   5.755
 2244TIP3    H1 6675   4.798   7.006   5.721
 2244TIP3    H2 6676   4.679   7.011   5.814
 2245TIP3   OH2 6677   3.781   4.623   4.670
 2245TIP3    H1 6678   3.755   4.597   4.581
 2245TIP3    H2 6679   3.774   4.543   4.721
 2246TIP3   OH2 6680   7.495   3.101   1.080
 2246TIP3    H1 6681   7.427   3.094   1.013
 2246TIP3    H2 6682   7.575   3.072   1.036
 2247TIP3   OH2 6683   0.405   1.449   0.381
 2247TIP3    H1 6684   0.361   1.433   0.297
 2247TIP3    H2 6685   0.333   1.465   0.443
 2248TIP3   OH2 6686   4.461   6.345   5.585
 2248TIP3    H1 6687   4.460   6.365   5.679
 2248TIP3    H2 6688   4.467   6.430   5.543
 2249TIP3   OH2 6689   4.897   4.091   1.814
 2249TIP3    H1 6690   4.836   4.018   1.805
 2249TIP3    H2 6691   4.845   4.161   1.855
 2250TIP3   OH2 6692   0.542   1.388   2.993
 2250TIP3    H1 6693   0.541   1.344   3.078
 2250TIP3    H2 6694   0.567   1.320   2.931
 2251TIP3   OH2 6695   3.436   3.000   2.584
 2251TIP3    H1 6696   3.434   3.088   2.621
 2251TIP3    H2 6697   3.508   2.957   2.630
 2252TIP3   OH2 6698   0.357   7.754   6.380
 2252TIP3    H1 6699   0.346   7.837   6.335
 2252TIP3    H2 6700   0.381   7.692   6.310
 2253TIP3   OH2 6701   4.218   1.436   1.426
 2253TIP3    H1 6702   4.264   1.377   1.485
 2253TIP3    H2 6703   4.169   1.379   1.367
 2254TIP3   OH2 6704   5.935   1.776   1.548
 2254TIP3    H1 6705   5.947   1.703   1.609
 2254TIP3    H2 6706   5.956   1.854   1.600
 2255TIP3   OH2 6707   3.227   1.657   2.608
 2255TIP3    H1 6708   3.294   1.691   2.548
 2255TIP3    H2 6709   3.275   1.599   2.667
 2256TIP3   OH2 6710   2.755   2.195   5.238
 2256TIP3    H1 6711   2.669   2.186   5.197
 2256TIP3    H2 6712   2.790   2.105   5.240
 2257TIP3   OH2 6713   4.584   1.214   3.322
 2257TIP3    H1 6714   4.598   1.289   3.380
 2257TIP3    H2 6715   4.658   1.217   3.261
 2258TIP3   OH2 6716   0.149   5.659   2.585
 2258TIP3    H1 6717   0.062   5.633   2.617
 2258TIP3    H2 6718   0.180   5.722   2.650
 2259TIP3   OH2 6719   4.291   3.253   4.037
 2259TIP3    H1 6720   4.211   3.247   3.985
 2259TIP3    H2 6721   4.350   3.189   3.997
 2260TIP3   OH2 6722   0.758   3.026   4.734
 2260TIP3    H1 6723   0.736   3.017   4.642
 2260TIP3    H2 6724   0.853   3.022   4.737
 2261TIP3   OH2 6725   4.610   7.786   5.198
 2261TIP3    H1 6726   4.593   7.692   5.192
 2261TIP3    H2 6727   4.704   7.793   5.214
 2262TIP3   OH2 6728   6.710   0.215   0.651
 2262TIP3    H1 6729   6.663   0.144   0.609
 2262TIP3    H2 6730   6.642   0.278   0.674
 2263TIP3   OH2 6731   2.980   5.165   0.217
 2263TIP3    H1 6732   3.043   5.213   0.270
 2263TIP3    H2 6733   2.965   5.220   0.140
 2264TIP3   OH2 6734   3.921   5.083   5.297
 2264TIP3    H1 6735   3.869   5.092   5.217
 2264TIP3    H2 6736   3.931   5.173   5.329
 2265TIP3   OH2 6737   2.821   0.754   0.438
 2265TIP3    H1 6738   2.909   0.782   0.463
 2265TIP3    H2 6739   2.830   0.661   0.418
 2266TIP3   OH2 6740   2.956   6.746   4.249
 2266TIP3    H1 6741   3.025   6.684   4.273
 2266TIP3    H2 6742   2.900   6.749   4.326
 2267TIP3   OH2 6743   5.878   6.950   0.265
 2267TIP3    H1 6744   5.938   6.940   0.340
 2267TIP3    H2 6745   5.931   6.924   0.189
 2268TIP3   OH2 6746   5.006   1.352   3.531
 2268TIP3    H1 6747   4.959   1.371   3.450
 2268TIP3    H2 6748   4.964   1.273   3.565
 2269TIP3   OH2 6749   2.772   1.001   4.136
 2269TIP3    H1 6750   2.794   0.911   4.160
 2269TIP3    H2 6751   2.677   1.000   4.125
 2270TIP3   OH2 6752   0.417   7.612   6.120
 2270TIP3    H1 6753   0.329   7.590   6.091
 2270TIP3    H2 6754   0.470   7.609   6.040
 2271TIP3   OH2 6755   1.104   0.462   3.948
 2271TIP3    H1 6756   1.166   0.454   4.021
 2271TIP3    H2 6757   1.152   0.430   3.872
 2272TIP3   OH2 6758   1.458   6.929   2.071
 2272TIP3    H1 6759   1.453   7.021   2.096
 2272TIP3    H2 6760   1.472   6.931   1.976
 2273TIP3   OH2 6761   2.580   6.921   4.880
 2273TIP3    H1 6762   2.664   6.906   4.836
 2273TIP3    H2 6763   2.573   7.017   4.884
 2274TIP3   OH2 6764   0.161   5.546   2.336
 2274TIP3    H1 6765   0.191   5.577   2.421
 2274TIP3    H2 6766   0.227   5.482   2.309
 2275TIP3   OH2 6767   0.758   6.260   0.813
 2275TIP3    H1 6768   0.736   6.172   0.845
 2275TIP3    H2 6769   0.817   6.295   0.878
 2276TIP3   OH2 6770   3.753   7.713   1.706
 2276TIP3    H1 6771   3.727   7.803   1.689
 2276TIP3    H2 6772   3.705   7.688   1.786
 2277TIP3   OH2 6773   4.810   5.907   5.966
 2277TIP3    H1 6774   4.764   5.960   6.031
 2277TIP3    H2 6775   4.743   5.846   5.934
 2278TIP3   OH2 6776   3.225   5.199   0.952
 2278TIP3    H1 6777   3.195   5.132   1.013
 2278TIP3    H2 6778   3.297   5.158   0.904
 2279TIP3   OH2 6779   2.853   5.895   6.028
 2279TIP3    H1 6780   2.818   5.822   6.079
 2279TIP3    H2 6781   2.908   5.943   6.091
 2280TIP3   OH2 6782   4.488   3.068   5.526
 2280TIP3    H1 6783   4.550   2.996   5.530
 2280TIP3    H2 6784   4.533   3.135   5.475
 2281TIP3   OH2 6785   0.695   6.880   5.662
 2281TIP3    H1 6786   0.761   6.940   5.627
 2281TIP3    H2 6787   0.675   6.913   5.749
 2282TIP3   OH2 6788   5.586   0.800   0.370
 2282TIP3    H1 6789   5.563   0.853   0.447
 2282TIP3    H2 6790   5.565   0.710   0.396
 2283TIP3   OH2 6791   2.552   2.524   6.656
 2283TIP3    H1 6792   2.602   2.583   6.600
 2283TIP3    H2 6793   2.571   2.554   6.745
 2284TIP3   OH2 6794   4.109   1.513   2.892
 2284TIP3    H1 6795   4.115   1.438   2.833
 2284TIP3    H2 6796   4.130   1.589   2.838
 2285TIP3   OH2 6797   5.644   0.356   5.525
 2285TIP3    H1 6798   5.677   0.380   5.438
 2285TIP3    H2 6799   5.574   0.293   5.507
 2286TIP3   OH2 6800   7.000   6.847   0.992
 2286TIP3    H1 6801   7.051   6.851   1.073
 2286TIP3    H2 6802   6.910   6.833   1.022
 2287TIP3   OH2 6803   0.026   0.907   2.104
 2287TIP3    H1 6804   0.026   0.923   2.198
 2287TIP3    H2 6805  -0.002   0.816   2.094
 2288TIP3   OH2 6806   5.578   3.061   5.180
 2288TIP3    H1 6807   5.495   3.040   5.136
 2288TIP3    H2 6808   5.552   3.103   5.261
 2289TIP3   OH2 6809   0.756   5.253   5.622
 2289TIP3    H1 6810   0.840   5.278   5.661
 2289TIP3    H2 6811   0.774   5.247   5.528
 2290TIP3   OH2 6812   7.508   5.983   4.161
 2290TIP3    H1 6813   7.592   6.028   4.153
 2290TIP3    H2 6814   7.487   5.988   4.254
 2291TIP3   OH2 6815   7.480   1.144   3.726
 2291TIP3    H1 6816   7.423   1.068   3.726
 2291TIP3    H2 6817   7.568   1.109   3.715
 2292TIP3   OH2 6818   2.577   2.121   3.847
 2292TIP3    H1 6819   2.568   2.027   3.863
 2292TIP3    H2 6820   2.655   2.147   3.897
 2293TIP3   OH2 6821   6.337   3.261   2.360
 2293TIP3    H1 6822   6.344   3.179   2.311
 2293TIP3    H2 6823   6.369   3.240   2.447
 2294TIP3   OH2 6824   7.264   4.012   2.523
 2294TIP3    H1 6825   7.281   3.987   2.432
 2294TIP3    H2 6826   7.316   4.091   2.536
 2295TIP3   OH2 6827   4.776   1.860   5.968
 2295TIP3    H1 6828   4.850   1.899   6.015
 2295TIP3    H2 6829   4.791   1.766   5.972
 2296TIP3   OH2 6830   1.115   2.377   2.894
 2296TIP3    H1 6831   1.134   2.446   2.831
 2296TIP3    H2 6832   1.199   2.361   2.938
 2297TIP3   OH2 6833   5.940   2.763   2.116
 2297TIP3    H1 6834   5.921   2.727   2.203
 2297TIP3    H2 6835   5.854   2.781   2.078
 2298TIP3   OH2 6836   3.600   0.676   0.500
 2298TIP3    H1 6837   3.633   0.733   0.569
 2298TIP3    H2 6838   3.633   0.589   0.522
 2299TIP3   OH2 6839   8.113   6.012   2.984
 2299TIP3    H1 6840   8.183   6.006   3.049
 2299TIP3    H2 6841   8.129   6.096   2.940
 2300TIP3   OH2 6842   1.225   3.907   4.745
 2300TIP3    H1 6843   1.212   3.989   4.792
 2300TIP3    H2 6844   1.319   3.888   4.754
 2301TIP3   OH2 6845   2.020   1.210   2.673
 2301TIP3    H1 6846   1.979   1.133   2.712
 2301TIP3    H2 6847   1.968   1.283   2.705
 2302TIP3   OH2 6848   4.349   0.848   0.089
 2302TIP3    H1 6849   4.387   0.777   0.036
 2302TIP3    H2 6850   4.425   0.898   0.118
 2303TIP3   OH2 6851   2.978   3.477   0.888
 2303TIP3    H1 6852   2.992   3.515   0.975
 2303TIP3    H2 6853   3.011   3.388   0.896
 2304TIP3   OH2 6854   6.008   0.953   4.842
 2304TIP3    H1 6855   6.032   0.983   4.754
 2304TIP3    H2 6856   6.037   1.023   4.899
 2305TIP3   OH2 6857   5.979   5.178   2.985
 2305TIP3    H1 6858   5.885   5.179   2.967
 2305TIP3    H2 6859   5.986   5.201   3.078
 2306TIP3   OH2 6860   7.900   0.566   2.709
 2306TIP3    H1 6861   7.927   0.475   2.719
 2306TIP3    H2 6862   7.954   0.614   2.771
 2307TIP3   OH2 6863   2.793   1.776   6.485
 2307TIP3    H1 6864   2.716   1.748   6.534
 2307TIP3    H2 6865   2.796   1.871   6.498
 2308TIP3   OH2 6866   2.026   3.367   5.918
 2308TIP3    H1 6867   2.042   3.455   5.884
 2308TIP3    H2 6868   1.967   3.381   5.993
 2309TIP3   OH2 6869   7.945   0.081   2.352
 2309TIP3    H1 6870   7.957   0.049   2.262
 2309TIP3    H2 6871   7.955   0.003   2.407
 2310TIP3   OH2 6872   0.695   6.397   3.950
 2310TIP3    H1 6873   0.749   6.448   3.889
 2310TIP3    H2 6874   0.743   6.401   4.033
 2311TIP3   OH2 6875   3.639   4.047   3.195
 2311TIP3    H1 6876   3.694   4.021   3.121
 2311TIP3    H2 6877   3.563   4.088   3.154
 2312TIP3   OH2 6878   7.214   6.233   1.546
 2312TIP3    H1 6879   7.173   6.161   1.595
 2312TIP3    H2 6880   7.145   6.299   1.540
 2313TIP3   OH2 6881   3.383   3.562   5.343
 2313TIP3    H1 6882   3.356   3.568   5.251
 2313TIP3    H2 6883   3.326   3.494   5.380
 2314TIP3   OH2 6884   0.991   3.786   4.064
 2314TIP3    H1 6885   1.034   3.712   4.108
 2314TIP3    H2 6886   1.002   3.860   4.123
 2315TIP3   OH2 6887   2.461   7.379   6.482
 2315TIP3    H1 6888   2.423   7.415   6.562
 2315TIP3    H2 6889   2.514   7.450   6.446
 2316TIP3   OH2 6890   4.763   5.034   2.631
 2316TIP3    H1 6891   4.713   5.105   2.590
 2316TIP3    H2 6892   4.802   4.987   2.557
 2317TIP3   OH2 6893   6.839   6.201   0.701
 2317TIP3    H1 6894   6.850   6.110   0.671
 2317TIP3    H2 6895   6.915   6.216   0.758
 2318TIP3   OH2 6896   4.057   5.093   1.380
 2318TIP3    H1 6897   4.006   5.134   1.309
 2318TIP3    H2 6898   4.021   5.005   1.387
 2319TIP3   OH2 6899   2.270   4.012   6.306
 2319TIP3    H1 6900   2.212   3.993   6.379
 2319TIP3    H2 6901   2.353   4.037   6.347
 2320TIP3   OH2 6902   6.746   5.392   4.442
 2320TIP3    H1 6903   6.809   5.375   4.511
 2320TIP3    H2 6904   6.662   5.366   4.478
 2321TIP3   OH2 6905   8.164   0.815   4.083
 2321TIP3    H1 6906   8.210   0.735   4.056
 2321TIP3    H2 6907   8.194   0.882   4.021
 2322TIP3   OH2 6908   3.835   7.692   4.513
 2322TIP3    H1 6909   3.893   7.745   4.459
 2322TIP3    H2 6910   3.747   7.728   4.497
 2323TIP3   OH2 6911   3.988   1.534   6.128
 2323TIP3    H1 6912   4.038   1.524   6.047
 2323TIP3    H2 6913   4.029   1.609   6.172
 2324TIP3   OH2 6914   2.266   6.658   2.393
 2324TIP3    H1 6915   2.309   6.725   2.445
 2324TIP3    H2 6916   2.216   6.606   2.457
 2325TIP3   OH2 6917   2.683   0.401   4.741
 2325TIP3    H1 6918   2.734   0.366   4.814
 2325TIP3    H2 6919   2.675   0.327   4.680
 2326TIP3   OH2 6920   6.224   7.545   1.005
 2326TIP3    H1 6921   6.131   7.550   1.025
 2326TIP3    H2 6922   6.231   7.474   0.941
 2327TIP3   OH2 6923   5.983   1.582   1.739
 2327TIP3    H1 6924   5.935   1.501   1.721
 2327TIP3    H2 6925   5.952   1.610   1.825
 2328TIP3   OH2 6926   1.408   2.010   3.201
 2328TIP3    H1 6927   1.461   1.950   3.252
 2328TIP3    H2 6928   1.417   1.980   3.111
 2329TIP3   OH2 6929   7.014   2.654   6.295
 2329TIP3    H1 6930   6.950   2.648   6.224
 2329TIP3    H2 6931   6.961   2.653   6.375
 2330TIP3   OH2 6932   0.320   2.070   0.893
 2330TIP3    H1 6933   0.386   2.090   0.826
 2330TIP3    H2 6934   0.302   1.977   0.882
 2331TIP3   OH2 6935   5.283   3.373   4.670
 2331TIP3    H1 6936   5.207   3.412   4.712
 2331TIP3    H2 6937   5.257   3.282   4.653
 2332TIP3   OH2 6938   1.080   5.457   1.421
 2332TIP3    H1 6939   1.103   5.550   1.410
 2332TIP3    H2 6940   1.164   5.411   1.416
 2333TIP3   OH2 6941   1.937   1.618   3.818
 2333TIP3    H1 6942   1.856   1.569   3.807
 2333TIP3    H2 6943   1.976   1.620   3.730
 2334TIP3   OH2 6944   5.908   2.985   5.774
 2334TIP3    H1 6945   5.946   2.996   5.861
 2334TIP3    H2 6946   5.833   3.045   5.772
 2335TIP3   OH2 6947   3.541   5.223   3.082
 2335TIP3    H1 6948   3.555   5.134   3.116
 2335TIP3    H2 6949   3.459   5.217   3.033
 2336TIP3   OH2 6950   7.781   4.509   4.024
 2336TIP3    H1 6951   7.832   4.476   4.098
 2336TIP3    H2 6952   7.774   4.603   4.040
 2337TIP3   OH2 6953   1.112   7.059   6.274
 2337TIP3    H1 6954   1.126   7.054   6.179
 2337TIP3    H2 6955   1.019   7.039   6.285
 2338TIP3   OH2 6956   2.029   5.291   2.519
 2338TIP3    H1 6957   2.034   5.385   2.536
 2338TIP3    H2 6958   1.945   5.264   2.555
 2339TIP3   OH2 6959   4.052   7.366   3.926
 2339TIP3    H1 6960   4.010   7.453   3.927
 2339TIP3    H2 6961   3.983   7.306   3.954
 2340TIP3   OH2 6962   7.211   4.980   2.978
 2340TIP3    H1 6963   7.198   5.073   2.998
 2340TIP3    H2 6964   7.186   4.934   3.059
 2341TIP3   OH2 6965   6.085   0.274   4.243
 2341TIP3    H1 6966   6.044   0.360   4.248
 2341TIP3    H2 6967   6.033   0.226   4.179
 2342TIP3   OH2 6968   1.975   4.495   3.460
 2342TIP3    H1 6969   2.069   4.489   3.447
 2342TIP3    H2 6970   1.941   4.534   3.379
 2343TIP3   OH2 6971   0.013   2.224   2.445
 2343TIP3    H1 6972   0.085   2.246   2.387
 2343TIP3    H2 6973   0.053   2.213   2.531
 2344TIP3   OH2 6974   2.819   1.934   2.451
 2344TIP3    H1 6975   2.812   2.005   2.515
 2344TIP3    H2 6976   2.907   1.898   2.464
 2345TIP3   OH2 6977   2.845   2.839   1.891
 2345TIP3    H1 6978   2.839   2.934   1.900
 2345TIP3    H2 6979   2.787   2.818   1.818
 2346TIP3   OH2 6980   0.949   4.562   5.378
 2346TIP3    H1 6981   1.014   4.608   5.431
 2346TIP3    H2 6982   0.926   4.624   5.309
 2347TIP3   OH2 6983   2.839   7.109   5.626
 2347TIP3    H1 6984   2.795   7.188   5.658
 2347TIP3    H2 6985   2.857   7.127   5.534
 2348TIP3   OH2 6986   4.143   7.134   2.551
 2348TIP3    H1 6987   4.224   7.087   2.535
 2348TIP3    H2 6988   4.109   7.096   2.633
 2349TIP3   OH2 6989   0.445   5.460   6.268
 2349TIP3    H1 6990   0.378   5.526   6.286
 2349TIP3    H2 6991   0.527   5.510   6.261
 2350TIP3   OH2 6992   1.598   0.541   2.892
 2350TIP3    H1 6993   1.521   0.527   2.948
 2350TIP3    H2 6994   1.667   0.489   2.933
 2351TIP3   OH2 6995   3.313   6.587   1.041
 2351TIP3    H1 6996   3.402   6.608   1.070
 2351TIP3    H2 6997   3.263   6.576   1.122
 2352TIP3   OH2 6998   0.102   3.246   1.146
 2352TIP3    H1 6999   0.075   3.236   1.238
 2352TIP3    H2 7000   0.179   3.303   1.150
 2353TIP3   OH2 7001   6.134   6.543   2.942
 2353TIP3    H1 7002   6.131   6.510   3.032
 2353TIP3    H2 7003   6.083   6.625   2.946
 2354TIP3   OH2 7004   5.512   2.699   0.057
 2354TIP3    H1 7005   5.597   2.730   0.025
 2354TIP3    H2 7006   5.514   2.605   0.041
 2355TIP3   OH2 7007   7.570   0.303   1.605
 2355TIP3    H1 7008   7.491   0.313   1.657
 2355TIP3    H2 7009   7.614   0.388   1.611
 2356TIP3   OH2 7010   8.035   2.196   1.240
 2356TIP3    H1 7011   7.940   2.190   1.246
 2356TIP3    H2 7012   8.061   2.118   1.191
 2357TIP3   OH2 7013   4.640   3.267   5.343
 2357TIP3    H1 7014   4.652   3.328   5.416
 2357TIP3    H2 7015   4.688   3.308   5.270
 2358TIP3   OH2 7016   5.661   5.316   4.816
 2358TIP3    H1 7017   5.721   5.368   4.870
 2358TIP3    H2 7018   5.612   5.380   4.765
 2359TIP3   OH2 7019   4.287   2.100   3.132
 2359TIP3    H1 7020   4.196   2.121   3.110
 2359TIP3    H2 7021   4.324   2.066   3.051
 2360TIP3   OH2 7022   7.547   3.750   6.294
 2360TIP3    H1 7023   7.600   3.817   6.252
 2360TIP3    H2 7024   7.609   3.681   6.318
 2361TIP3   OH2 7025   2.211   7.361   3.595
 2361TIP3    H1 7026   2.299   7.352   3.559
 2361TIP3    H2 7027   2.225   7.375   3.689
 2362TIP3   OH2 7028   2.579   1.503   5.803
 2362TIP3    H1 7029   2.572   1.595   5.776
 2362TIP3    H2 7030   2.534   1.454   5.735
 2363TIP3   OH2 7031   1.122   1.626   1.423
 2363TIP3    H1 7032   1.083   1.609   1.337
 2363TIP3    H2 7033   1.105   1.547   1.473
 2364TIP3   OH2 7034   3.422   6.124   5.638
 2364TIP3    H1 7035   3.394   6.186   5.706
 2364TIP3    H2 7036   3.516   6.139   5.629
 2365TIP3   OH2 7037   6.650   3.737   1.920
 2365TIP3    H1 7038   6.610   3.749   1.834
 2365TIP3    H2 7039   6.603   3.663   1.959
 2366TIP3   OH2 7040   4.397   3.785   1.325
 2366TIP3    H1 7041   4.427   3.767   1.414
 2366TIP3    H2 7042   4.312   3.827   1.337
 2367TIP3   OH2 7043   3.008   7.811   1.849
 2367TIP3    H1 7044   3.030   7.723   1.882
 2367TIP3    H2 7045   3.068   7.869   1.896
 2368TIP3   OH2 7046   6.694   3.208   2.643
 2368TIP3    H1 7047   6.770   3.250   2.603
 2368TIP3    H2 7048   6.662   3.146   2.577
 2369TIP3   OH2 7049   1.410   5.484   4.064
 2369TIP3    H1 7050   1.495   5.483   4.020
 2369TIP3    H2 7051   1.385   5.392   4.070
 2370TIP3   OH2 7052   2.167   3.987   2.705
 2370TIP3    H1 7053   2.116   3.906   2.697
 2370TIP3    H2 7054   2.246   3.961   2.753
 2371TIP3   OH2 7055   2.245   6.088   1.040
 2371TIP3    H1 7056   2.175   6.027   1.017
 2371TIP3    H2 7057   2.201   6.172   1.054
 2372TIP3   OH2 7058   0.188   1.473   4.010
 2372TIP3    H1 7059   0.095   1.487   4.028
 2372TIP3    H2 7060   0.201   1.507   3.922
 2373TIP3   OH2 7061   7.701   6.036   4.525
 2373TIP3    H1 7062   7.648   6.116   4.517
 2373TIP3    H2 7063   7.786   6.061   4.490
 2374TIP3   OH2 7064   6.193   4.760   6.285
 2374TIP3    H1 7065   6.265   4.730   6.341
 2374TIP3    H2 7066   6.209   4.853   6.274
 2375TIP3   OH2 7067   2.828   3.773   4.898
 2375TIP3    H1 7068   2.761   3.789   4.965
 2375TIP3    H2 7069   2.788   3.710   4.838
 2376TIP3   OH2 7070   0.789   7.373   0.664
 2376TIP3    H1 7071   0.700   7.352   0.637
 2376TIP3    H2 7072   0.845   7.320   0.607
 2377TIP3   OH2 7073   2.780   3.556   1.433
 2377TIP3    H1 7074   2.698   3.570   1.480
 2377TIP3    H2 7075   2.807   3.644   1.406
 2378TIP3   OH2 7076   0.369   0.514   4.876
 2378TIP3    H1 7077   0.337   0.591   4.922
 2378TIP3    H2 7078   0.339   0.526   4.786
 2379TIP3   OH2 7079   3.436   2.144   1.811
 2379TIP3    H1 7080   3.443   2.117   1.902
 2379TIP3    H2 7081   3.511   2.201   1.796
 2380TIP3   OH2 7082   2.818   7.091   0.641
 2380TIP3    H1 7083   2.794   7.121   0.553
 2380TIP3    H2 7084   2.903   7.133   0.658
 2381TIP3   OH2 7085   5.658   4.455   3.637
 2381TIP3    H1 7086   5.646   4.371   3.681
 2381TIP3    H2 7087   5.674   4.432   3.546
 2382TIP3   OH2 7088   6.499   6.089   6.465
 2382TIP3    H1 7089   6.589   6.114   6.484
 2382TIP3    H2 7090   6.490   6.001   6.503
 2383TIP3   OH2 7091   1.296   7.204   6.691
 2383TIP3    H1 7092   1.372   7.173   6.740
 2383TIP3    H2 7093   1.253   7.125   6.659
 2384TIP3   OH2 7094   7.276   3.385   4.800
 2384TIP3    H1 7095   7.246   3.431   4.878
 2384TIP3    H2 7096   7.284   3.294   4.828
 2385TIP3   OH2 7097   3.455   7.112   1.986
 2385TIP3    H1 7098   3.464   7.196   1.941
 2385TIP3    H2 7099   3.409   7.056   1.924
 2386TIP3   OH2 7100   1.014   0.587   0.568
 2386TIP3    H1 7101   1.047   0.518   0.511
 2386TIP3    H2 7102   1.085   0.601   0.631
 2387TIP3   OH2 7103   6.601   6.894   0.587
 2387TIP3    H1 7104   6.506   6.880   0.584
 2387TIP3    H2 7105   6.611   6.985   0.614
 2388TIP3   OH2 7106   5.705   3.709   1.195
 2388TIP3    H1 7107   5.610   3.702   1.201
 2388TIP3    H2 7108   5.732   3.628   1.152
 2389TIP3   OH2 7109   8.127   5.287   0.086
 2389TIP3    H1 7110   8.148   5.204   0.044
 2389TIP3    H2 7111   8.033   5.296   0.077
 2390TIP3   OH2 7112   7.923   4.823   3.012
 2390TIP3    H1 7113   7.862   4.750   3.024
 2390TIP3    H2 7114   8.009   4.781   3.013
 2391TIP3   OH2 7115   7.638   6.233   3.456
 2391TIP3    H1 7116   7.703   6.289   3.499
 2391TIP3    H2 7117   7.691   6.173   3.403
 2392TIP3   OH2 7118   5.213   5.240   6.085
 2392TIP3    H1 7119   5.127   5.278   6.105
 2392TIP3    H2 7120   5.193   5.155   6.046
 2393TIP3   OH2 7121   6.847   3.184   3.850
 2393TIP3    H1 7122   6.856   3.234   3.769
 2393TIP3    H2 7123   6.816   3.248   3.914
 2394TIP3   OH2 7124   4.599   4.612   0.692
 2394TIP3    H1 7125   4.568   4.606   0.602
 2394TIP3    H2 7126   4.664   4.682   0.691
 2395TIP3   OH2 7127   0.598   5.386   4.328
 2395TIP3    H1 7128   0.507   5.372   4.354
 2395TIP3    H2 7129   0.614   5.321   4.260
 2396TIP3   OH2 7130   6.698   6.608   3.355
 2396TIP3    H1 7131   6.778   6.604   3.303
 2396TIP3    H2 7132   6.628   6.622   3.292
 2397TIP3   OH2 7133   2.936   5.573   2.023
 2397TIP3    H1 7134   2.870   5.640   2.005
 2397TIP3    H2 7135   2.919   5.504   1.958
 2398TIP3   OH2 7136   0.822   5.633   1.656
 2398TIP3    H1 7137   0.782   5.649   1.742
 2398TIP3    H2 7138   0.759   5.579   1.609
 2399TIP3   OH2 7139   7.367   4.083   3.717
 2399TIP3    H1 7140   7.294   4.094   3.777
 2399TIP3    H2 7141   7.435   4.141   3.750
 2400TIP3   OH2 7142   4.543   0.314   6.443
 2400TIP3    H1 7143   4.469   0.294   6.500
 2400TIP3    H2 7144   4.505   0.358   6.368
 2401TIP3   OH2 7145   7.607   6.246   0.655
 2401TIP3    H1 7146   7.701   6.229   0.653
 2401TIP3    H2 7147   7.570   6.190   0.587
 2402TIP3   OH2 7148   8.231   1.235   6.664
 2402TIP3    H1 7149   8.165   1.297   6.632
 2402TIP3    H2 7150   8.212   1.225   6.757
 2403TIP3   OH2 7151   6.412   2.173   4.287
 2403TIP3    H1 7152   6.383   2.105   4.225
 2403TIP3    H2 7153   6.334   2.192   4.340
 2404TIP3   OH2 7154   6.918   3.306   6.153
 2404TIP3    H1 7155   6.922   3.365   6.078
 2404TIP3    H2 7156   6.890   3.362   6.226
 2405TIP3   OH2 7157   7.688   3.524   0.489
 2405TIP3    H1 7158   7.766   3.537   0.436
 2405TIP3    H2 7159   7.684   3.602   0.545
 2406TIP3   OH2 7160   1.289   3.438   2.019
 2406TIP3    H1 7161   1.297   3.347   1.992
 2406TIP3    H2 7162   1.248   3.434   2.106
 2407TIP3   OH2 7163   6.134   3.356   6.225
 2407TIP3    H1 7164   6.103   3.315   6.145
 2407TIP3    H2 7165   6.228   3.336   6.227
 2408TIP3   OH2 7166   4.792   6.491   3.154
 2408TIP3    H1 7167   4.868   6.436   3.172
 2408TIP3    H2 7168   4.752   6.452   3.076
 2409TIP3   OH2 7169   5.096   3.347   0.287
 2409TIP3    H1 7170   5.145   3.421   0.250
 2409TIP3    H2 7171   5.141   3.269   0.253
 2410TIP3   OH2 7172   8.158   6.012   1.532
 2410TIP3    H1 7173   8.120   6.098   1.549
 2410TIP3    H2 7174   8.095   5.951   1.570
 2411TIP3   OH2 7175   4.122   7.598   3.602
 2411TIP3    H1 7176   4.165   7.657   3.665
 2411TIP3    H2 7177   4.155   7.512   3.625
 2412TIP3   OH2 7178   6.386   4.601   5.989
 2412TIP3    H1 7179   6.441   4.676   6.011
 2412TIP3    H2 7180   6.308   4.638   5.949
 2413TIP3   OH2 7181   6.221   4.058   0.683
 2413TIP3    H1 7182   6.239   4.083   0.774
 2413TIP3    H2 7183   6.249   4.133   0.631
 2414TIP3   OH2 7184   3.339   5.693   3.471
 2414TIP3    H1 7185   3.423   5.651   3.454
 2414TIP3    H2 7186   3.284   5.668   3.396
 2415TIP3   OH2 7187   5.490   5.149   1.445
 2415TIP3    H1 7188   5.569   5.120   1.492
 2415TIP3    H2 7189   5.424   5.162   1.513
 2416TIP3   OH2 7190   1.635   4.487   2.725
 2416TIP3    H1 7191   1.620   4.547   2.798
 2416TIP3    H2 7192   1.553   4.488   2.676
 2417TIP3   OH2 7193   3.297   4.517   5.538
 2417TIP3    H1 7194   3.297   4.422   5.549
 2417TIP3    H2 7195   3.205   4.542   5.547
 2418TIP3   OH2 7196   2.477   1.621   1.290
 2418TIP3    H1 7197   2.441   1.534   1.307
 2418TIP3    H2 7198   2.554   1.626   1.347
 2419TIP3   OH2 7199   6.376   0.208   3.332
 2419TIP3    H1 7200   6.302   0.159   3.298
 2419TIP3    H2 7201   6.399   0.164   3.414
 2420TIP3   OH2 7202   6.607   6.892   3.591
 2420TIP3    H1 7203   6.659   6.884   3.512
 2420TIP3    H2 7204   6.552   6.813   3.591
 2421TIP3   OH2 7205   5.083   5.155   2.949
 2421TIP3    H1 7206   5.041   5.098   2.884
 2421TIP3    H2 7207   5.124   5.224   2.897
 2422TIP3   OH2 7208   4.525   6.477   1.227
 2422TIP3    H1 7209   4.459   6.451   1.164
 2422TIP3    H2 7210   4.553   6.564   1.199
 2423TIP3   OH2 7211   5.912   5.103   4.458
 2423TIP3    H1 7212   5.959   5.174   4.415
 2423TIP3    H2 7213   5.881   5.047   4.386
 2424TIP3   OH2 7214   1.325   3.391   2.827
 2424TIP3    H1 7215   1.239   3.363   2.858
 2424TIP3    H2 7216   1.385   3.321   2.854
 2425TIP3   OH2 7217   3.570   4.282   5.061
 2425TIP3    H1 7218   3.519   4.324   5.131
 2425TIP3    H2 7219   3.568   4.189   5.083
 2426TIP3   OH2 7220   8.064   6.648   6.413
 2426TIP3    H1 7221   8.067   6.554   6.395
 2426TIP3    H2 7222   8.055   6.654   6.508
 2427TIP3   OH2 7223   2.865   7.813   2.247
 2427TIP3    H1 7224   2.922   7.806   2.323
 2427TIP3    H2 7225   2.845   7.723   2.223
 2428TIP3   OH2 7226   3.727   4.526   0.644
 2428TIP3    H1 7227   3.816   4.554   0.625
 2428TIP3    H2 7228   3.736   4.436   0.677
 2429TIP3   OH2 7229   7.809   2.457   0.907
 2429TIP3    H1 7230   7.787   2.447   0.814
 2429TIP3    H2 7231   7.735   2.505   0.944
 2430TIP3   OH2 7232   7.203   1.892   5.483
 2430TIP3    H1 7233   7.153   1.828   5.533
 2430TIP3    H2 7234   7.203   1.970   5.538
 2431TIP3   OH2 7235   6.556   4.504   3.857
 2431TIP3    H1 7236   6.520   4.561   3.790
 2431TIP3    H2 7237   6.595   4.564   3.921
 2432TIP3   OH2 7238   4.353   0.269   0.089
 2432TIP3    H1 7239   4.348   0.196   0.151
 2432TIP3    H2 7240   4.316   0.343   0.137
 2433TIP3   OH2 7241   0.595   5.242   2.630
 2433TIP3    H1 7242   0.563   5.225   2.718
 2433TIP3    H2 7243   0.529   5.300   2.591
 2434TIP3   OH2 7244   1.912   1.468   2.720
 2434TIP3    H1 7245   1.928   1.554   2.682
 2434TIP3    H2 7246   1.942   1.476   2.810
 2435TIP3   OH2 7247   3.412   0.064   1.099
 2435TIP3    H1 7248   3.386   0.142   1.051
 2435TIP3    H2 7249   3.507   0.074   1.112
 2436TIP3   OH2 7250   1.715   6.956   3.860
 2436TIP3    H1 7251   1.695   6.914   3.776
 2436TIP3    H2 7252   1.774   7.028   3.838
 2437TIP3   OH2 7253   7.561   6.989   0.952
 2437TIP3    H1 7254   7.636   6.971   1.008
 2437TIP3    H2 7255   7.560   6.917   0.889
 2438TIP3   OH2 7256   6.256   1.211   5.597
 2438TIP3    H1 7257   6.222   1.206   5.508
 2438TIP3    H2 7258   6.274   1.304   5.611
 2439TIP3   OH2 7259   5.275   1.748   1.116
 2439TIP3    H1 7260   5.252   1.833   1.079
 2439TIP3    H2 7261   5.207   1.689   1.084
 2440TIP3   OH2 7262   1.077   5.612   4.155
 2440TIP3    H1 7263   1.051   5.571   4.238
 2440TIP3    H2 7264   0.996   5.616   4.104
 2441TIP3   OH2 7265   5.204   3.835   3.178
 2441TIP3    H1 7266   5.193   3.869   3.089
 2441TIP3    H2 7267   5.172   3.905   3.235
 2442TIP3   OH2 7268   1.897   0.605   0.598
 2442TIP3    H1 7269   1.974   0.645   0.636
 2442TIP3    H2 7270   1.925   0.576   0.511
 2443TIP3   OH2 7271   6.888   4.191   2.821
 2443TIP3    H1 7272   6.979   4.219   2.812
 2443TIP3    H2 7273   6.892   4.117   2.881
 2444TIP3   OH2 7274   0.910   4.688   0.655
 2444TIP3    H1 7275   0.865   4.751   0.600
 2444TIP3    H2 7276   0.866   4.694   0.740
 2445TIP3   OH2 7277   1.608   2.120   4.415
 2445TIP3    H1 7278   1.635   2.034   4.446
 2445TIP3    H2 7279   1.514   2.110   4.395
 2446TIP3   OH2 7280   5.198   4.592   4.153
 2446TIP3    H1 7281   5.174   4.514   4.204
 2446TIP3    H2 7282   5.189   4.564   4.062
 2447TIP3   OH2 7283   5.447   5.427   3.160
 2447TIP3    H1 7284   5.465   5.342   3.201
 2447TIP3    H2 7285   5.517   5.438   3.096
 2448TIP3   OH2 7286   5.881   6.292   5.697
 2448TIP3    H1 7287   5.790   6.314   5.680
 2448TIP3    H2 7288   5.880   6.251   5.784
 2449TIP3   OH2 7289   7.008   7.629   3.039
 2449TIP3    H1 7290   6.941   7.665   3.096
 2449TIP3    H2 7291   7.018   7.538   3.069
 2450TIP3   OH2 7292   4.584   2.433   4.397
 2450TIP3    H1 7293   4.517   2.370   4.372
 2450TIP3    H2 7294   4.550   2.518   4.366
 2451TIP3   OH2 7295   6.122   3.644   2.628
 2451TIP3    H1 7296   6.058   3.679   2.566
 2451TIP3    H2 7297   6.071   3.588   2.687
 2452TIP3   OH2 7298   5.196   0.663   2.203
 2452TIP3    H1 7299   5.224   0.585   2.251
 2452TIP3    H2 7300   5.101   0.655   2.198
 2453TIP3   OH2 7301   7.373   2.173   0.267
 2453TIP3    H1 7302   7.341   2.185   0.356
 2453TIP3    H2 7303   7.381   2.078   0.258
 2454TIP3   OH2 7304   2.890   2.379   4.777
 2454TIP3    H1 7305   2.826   2.443   4.810
 2454TIP3    H2 7306   2.956   2.374   4.846
 2455TIP3   OH2 7307   1.567   0.301   3.364
 2455TIP3    H1 7308   1.613   0.218   3.355
 2455TIP3    H2 7309   1.579   0.345   3.280
 2456TIP3   OH2 7310   0.979   2.954   6.666
 2456TIP3    H1 7311   1.062   2.994   6.690
 2456TIP3    H2 7312   0.928   2.953   6.746
 2457TIP3   OH2 7313   5.350   5.005   5.907
 2457TIP3    H1 7314   5.364   4.959   5.825
 2457TIP3    H2 7315   5.273   5.060   5.891
 2458TIP3   OH2 7316   2.352   6.732   1.924
 2458TIP3    H1 7317   2.405   6.768   1.996
 2458TIP3    H2 7318   2.413   6.729   1.850
 2459TIP3   OH2 7319   7.802   5.003   4.254
 2459TIP3    H1 7320   7.724   5.051   4.281
 2459TIP3    H2 7321   7.792   4.917   4.294
 2460TIP3   OH2 7322   2.412   6.441   1.895
 2460TIP3    H1 7323   2.359   6.501   1.841
 2460TIP3    H2 7324   2.430   6.491   1.974
 2461TIP3   OH2 7325   2.598   2.457   1.723
 2461TIP3    H1 7326   2.549   2.384   1.685
 2461TIP3    H2 7327   2.647   2.418   1.795
 2462TIP3   OH2 7328   3.486   5.895   0.093
 2462TIP3    H1 7329   3.557   5.902   0.156
 2462TIP3    H2 7330   3.527   5.915   0.009
 2463TIP3   OH2 7331   5.071   5.838   4.377
 2463TIP3    H1 7332   4.984   5.878   4.381
 2463TIP3    H2 7333   5.127   5.904   4.335
 2464TIP3   OH2 7334   5.736   6.438   2.499
 2464TIP3    H1 7335   5.683   6.509   2.535
 2464TIP3    H2 7336   5.804   6.422   2.564
 2465TIP3   OH2 7337   1.641   1.101   4.571
 2465TIP3    H1 7338   1.680   1.068   4.652
 2465TIP3    H2 7339   1.633   1.195   4.585
 2466TIP3   OH2 7340   6.711   4.709   0.349
 2466TIP3    H1 7341   6.750   4.687   0.434
 2466TIP3    H2 7342   6.689   4.624   0.311
 2467TIP3   OH2 7343   1.883   1.314   4.448
 2467TIP3    H1 7344   1.814   1.319   4.514
 2467TIP3    H2 7345   1.958   1.278   4.494
 2468TIP3   OH2 7346   3.998   3.609   3.081
 2468TIP3    H1 7347   4.083   3.584   3.116
 2468TIP3    H2 7348   3.985   3.551   3.006
 2469TIP3   OH2 7349   0.905   2.661   2.520
 2469TIP3    H1 7350   0.903   2.692   2.610
 2469TIP3    H2 7351   0.815   2.674   2.488
 2470TIP3   OH2 7352   1.082   7.206   2.147
 2470TIP3    H1 7353   1.016   7.190   2.214
 2470TIP3    H2 7354   1.034   7.199   2.064
 2471TIP3   OH2 7355   1.484   0.752   6.623
 2471TIP3    H1 7356   1.462   0.732   6.714
 2471TIP3    H2 7357   1.540   0.829   6.628
 2472TIP3   OH2 7358   0.446   3.351   3.348
 2472TIP3    H1 7359   0.421   3.411   3.278
 2472TIP3    H2 7360   0.363   3.315   3.380
 2473TIP3   OH2 7361   2.018   1.809   5.329
 2473TIP3    H1 7362   1.997   1.856   5.410
 2473TIP3    H2 7363   1.964   1.730   5.332
 2474TIP3   OH2 7364   6.108   7.254   1.532
 2474TIP3    H1 7365   6.160   7.176   1.515
 2474TIP3    H2 7366   6.061   7.270   1.450
 2475TIP3   OH2 7367   1.834   5.404   0.539
 2475TIP3    H1 7368   1.775   5.453   0.482
 2475TIP3    H2 7369   1.788   5.322   0.556
 2476TIP3   OH2 7370   4.218   6.820   2.251
 2476TIP3    H1 7371   4.223   6.804   2.157
 2476TIP3    H2 7372   4.145   6.765   2.281
 2477TIP3   OH2 7373   6.334   0.882   6.043
 2477TIP3    H1 7374   6.293   0.955   5.995
 2477TIP3    H2 7375   6.286   0.878   6.126
 2478TIP3   OH2 7376   0.566   2.465   5.669
 2478TIP3    H1 7377   0.547   2.469   5.763
 2478TIP3    H2 7378   0.625   2.539   5.653
 2479TIP3   OH2 7379   7.318   3.648   4.224
 2479TIP3    H1 7380   7.387   3.632   4.288
 2479TIP3    H2 7381   7.312   3.744   4.220
 2480TIP3   OH2 7382   2.806   1.510   5.283
 2480TIP3    H1 7383   2.781   1.458   5.360
 2480TIP3    H2 7384   2.723   1.534   5.242
 2481TIP3   OH2 7385   6.896   3.987   3.424
 2481TIP3    H1 7386   6.920   4.064   3.475
 2481TIP3    H2 7387   6.803   3.975   3.439
 2482TIP3   OH2 7388   3.692   4.929   4.266
 2482TIP3    H1 7389   3.745   5.008   4.269
 2482TIP3    H2 7390   3.632   4.938   4.340
 2483TIP3   OH2 7391   3.975   4.040   5.904
 2483TIP3    H1 7392   3.959   4.121   5.855
 2483TIP3    H2 7393   3.888   4.004   5.919
 2484TIP3   OH2 7394   1.263   0.038   3.904
 2484TIP3    H1 7395   1.180   0.081   3.884
 2484TIP3    H2 7396   1.330   0.098   3.874
 2485TIP3   OH2 7397   6.348   0.804   4.399
 2485TIP3    H1 7398   6.424   0.857   4.422
 2485TIP3    H2 7399   6.293   0.806   4.478
 2486TIP3   OH2 7400   6.753   7.444   3.401
 2486TIP3    H1 7401   6.678   7.429   3.344
 2486TIP3    H2 7402   6.805   7.365   3.394
 2487TIP3   OH2 7403   0.956   5.308   3.807
 2487TIP3    H1 7404   0.893   5.350   3.748
 2487TIP3    H2 7405   1.041   5.341   3.778
 2488TIP3   OH2 7406   7.291   7.276   4.718
 2488TIP3    H1 7407   7.371   7.318   4.687
 2488TIP3    H2 7408   7.220   7.318   4.669
 2489TIP3   OH2 7409   6.858   4.348   6.738
 2489TIP3    H1 7410   6.898   4.394   6.664
 2489TIP3    H2 7411   6.826   4.417   6.796
 2490TIP3   OH2 7412   5.902   3.317   1.718
 2490TIP3    H1 7413   5.921   3.309   1.812
 2490TIP3    H2 7414   5.835   3.385   1.714
 2491TIP3   OH2 7415   7.612   3.240   5.314
 2491TIP3    H1 7416   7.616   3.309   5.380
 2491TIP3    H2 7417   7.567   3.167   5.357
 2492TIP3   OH2 7418   4.006   4.919   5.803
 2492TIP3    H1 7419   4.064   4.927   5.879
 2492TIP3    H2 7420   3.921   4.896   5.841
 2493TIP3   OH2 7421   5.733   1.203   2.910
 2493TIP3    H1 7422   5.691   1.117   2.913
 2493TIP3    H2 7423   5.818   1.189   2.952
 2494TIP3   OH2 7424   0.734   0.953   0.253
 2494TIP3    H1 7425   0.766   0.908   0.175
 2494TIP3    H2 7426   0.751   0.891   0.324
 2495TIP3   OH2 7427   4.844   2.663   0.121
 2495TIP3    H1 7428   4.857   2.757   0.137
 2495TIP3    H2 7429   4.902   2.643   0.048
 2496TIP3   OH2 7430   2.528   3.303   3.977
 2496TIP3    H1 7431   2.611   3.345   4.001
 2496TIP3    H2 7432   2.514   3.329   3.886
 2497TIP3   OH2 7433   3.129   4.664   2.689
 2497TIP3    H1 7434   3.041   4.631   2.673
 2497TIP3    H2 7435   3.168   4.600   2.749
 2498TIP3   OH2 7436   1.471   2.715   3.502
 2498TIP3    H1 7437   1.548   2.683   3.456
 2498TIP3    H2 7438   1.463   2.807   3.474
 2499TIP3   OH2 7439   5.089   0.284   2.395
 2499TIP3    H1 7440   5.161   0.337   2.360
 2499TIP3    H2 7441   5.127   0.197   2.408
 2500TIP3   OH2 7442   4.618   5.092   4.234
 2500TIP3    H1 7443   4.572   5.046   4.303
 2500TIP3    H2 7444   4.704   5.113   4.272
 2501TIP3   OH2 7445   0.939   4.565   2.157
 2501TIP3    H1 7446   0.914   4.556   2.249
 2501TIP3    H2 7447   1.000   4.493   2.141
 2502TIP3   OH2 7448   6.375   3.027   2.231
 2502TIP3    H1 7449   6.319   3.009   2.156
 2502TIP3    H2 7450   6.402   2.940   2.262
 2503TIP3   OH2 7451   2.718   7.439   0.250
 2503TIP3    H1 7452   2.768   7.490   0.314
 2503TIP3    H2 7453   2.777   7.432   0.174
 2504TIP3   OH2 7454   1.246   6.862   1.561
 2504TIP3    H1 7455   1.329   6.826   1.591
 2504TIP3    H2 7456   1.189   6.861   1.639
 2505TIP3   OH2 7457   6.094   3.052   1.872
 2505TIP3    H1 7458   6.142   3.014   1.798
 2505TIP3    H2 7459   6.019   2.994   1.883
 2506TIP3   OH2 7460   8.178   7.801   4.375
 2506TIP3    H1 7461   8.221   7.853   4.306
 2506TIP3    H2 7462   8.249   7.751   4.415
 2507TIP3   OH2 7463   1.064   2.144   1.687
 2507TIP3    H1 7464   1.092   2.203   1.617
 2507TIP3    H2 7465   1.101   2.059   1.663
 2508TIP3   OH2 7466   0.151   0.886   0.226
 2508TIP3    H1 7467   0.079   0.880   0.290
 2508TIP3    H2 7468   0.117   0.943   0.157
 2509TIP3   OH2 7469   2.878   0.408   2.581
 2509TIP3    H1 7470   2.846   0.493   2.611
 2509TIP3    H2 7471   2.926   0.427   2.500
 2510TIP3   OH2 7472   6.594   6.772   5.458
 2510TIP3    H1 7473   6.685   6.749   5.438
 2510TIP3    H2 7474   6.594   6.791   5.552
 2511TIP3   OH2 7475   2.596   2.054   0.063
 2511TIP3    H1 7476   2.538   2.011   0.001
 2511TIP3    H2 7477   2.556   2.139   0.078
 2512TIP3   OH2 7478   5.892   5.727   1.320
 2512TIP3    H1 7479   5.857   5.696   1.236
 2512TIP3    H2 7480   5.816   5.726   1.379
 2513TIP3   OH2 7481   0.961   4.093   2.500
 2513TIP3    H1 7482   1.027   4.039   2.457
 2513TIP3    H2 7483   0.943   4.049   2.583
 2514TIP3   OH2 7484   1.694   0.366   4.886
 2514TIP3    H1 7485   1.683   0.301   4.955
 2514TIP3    H2 7486   1.657   0.326   4.808
 2515TIP3   OH2 7487   0.213   5.789   1.327
 2515TIP3    H1 7488   0.260   5.716   1.369
 2515TIP3    H2 7489   0.274   5.862   1.332
 2516TIP3   OH2 7490   3.923   1.419   0.813
 2516TIP3    H1 7491   4.015   1.442   0.804
 2516TIP3    H2 7492   3.920   1.363   0.891
 2517TIP3   OH2 7493   0.252   1.552   3.755
 2517TIP3    H1 7494   0.316   1.566   3.685
 2517TIP3    H2 7495   0.176   1.514   3.710
 2518TIP3   OH2 7496   1.261   3.372   1.122
 2518TIP3    H1 7497   1.224   3.293   1.083
 2518TIP3    H2 7498   1.314   3.410   1.052
 2519TIP3   OH2 7499   6.687   3.430   5.296
 2519TIP3    H1 7500   6.733   3.418   5.213
 2519TIP3    H2 7501   6.634   3.351   5.306
 2520TIP3   OH2 7502   5.063   1.840   5.810
 2520TIP3    H1 7503   5.099   1.779   5.747
 2520TIP3    H2 7504   5.036   1.786   5.884
 2521TIP3   OH2 7505   7.900   3.630  -0.015
 2521TIP3    H1 7506   7.963   3.702  -0.018
 2521TIP3    H2 7507   7.831   3.660   0.044
 2522TIP3   OH2 7508   2.279   6.989   3.035
 2522TIP3    H1 7509   2.248   6.914   3.085
 2522TIP3    H2 7510   2.282   7.061   3.098
 2523TIP3   OH2 7511   6.249   2.897   2.563
 2523TIP3    H1 7512   6.309   2.854   2.625
 2523TIP3    H2 7513   6.262   2.851   2.481
 2524TIP3   OH2 7514   1.311   0.323   6.311
 2524TIP3    H1 7515   1.320   0.270   6.390
 2524TIP3    H2 7516   1.348   0.408   6.335
 2525TIP3   OH2 7517   1.820   1.314   3.943
 2525TIP3    H1 7518   1.913   1.325   3.962
 2525TIP3    H2 7519   1.783   1.277   4.023
 2526TIP3   OH2 7520   7.685   6.877   0.586
 2526TIP3    H1 7521   7.747   6.872   0.659
 2526TIP3    H2 7522   7.600   6.862   0.627
 2527TIP3   OH2 7523   6.579   1.465   4.703
 2527TIP3    H1 7524   6.515   1.418   4.650
 2527TIP3    H2 7525   6.656   1.408   4.704
 2528TIP3   OH2 7526   6.363   4.599   1.731
 2528TIP3    H1 7527   6.355   4.677   1.787
 2528TIP3    H2 7528   6.444   4.557   1.760
 2529TIP3   OH2 7529   3.624   0.873   2.695
 2529TIP3    H1 7530   3.637   0.968   2.704
 2529TIP3    H2 7531   3.624   0.858   2.601
 2530TIP3   OH2 7532   7.175   1.292   3.653
 2530TIP3    H1 7533   7.110   1.240   3.605
 2530TIP3    H2 7534   7.247   1.304   3.590
 2531TIP3   OH2 7535   0.484   4.107   5.643
 2531TIP3    H1 7536   0.522   4.167   5.706
 2531TIP3    H2 7537   0.396   4.142   5.627
 2532TIP3   OH2 7538   2.497   1.001   4.151
 2532TIP3    H1 7539   2.467   1.073   4.207
 2532TIP3    H2 7540   2.420   0.947   4.137
 2533TIP3   OH2 7541   2.008   1.474   2.973
 2533TIP3    H1 7542   2.042   1.392   3.009
 2533TIP3    H2 7543   2.069   1.541   3.004
 2534TIP3   OH2 7544   7.558   4.613   1.280
 2534TIP3    H1 7545   7.635   4.614   1.224
 2534TIP3    H2 7546   7.593   4.608   1.369
 2535TIP3   OH2 7547   7.760   5.122   0.622
 2535TIP3    H1 7548   7.818   5.072   0.565
 2535TIP3    H2 7549   7.791   5.212   0.615
 2536TIP3   OH2 7550   2.355   6.647   6.733
 2536TIP3    H1 7551   2.304   6.653   6.652
 2536TIP3    H2 7552   2.373   6.738   6.757
 2537TIP3   OH2 7553   5.187   5.061   0.965
 2537TIP3    H1 7554   5.144   5.132   0.918
 2537TIP3    H2 7555   5.258   5.104   1.013
 2538TIP3   OH2 7556   5.438   5.478   2.505
 2538TIP3    H1 7557   5.374   5.506   2.440
 2538TIP3    H2 7558   5.502   5.426   2.456
 2539TIP3   OH2 7559   3.539   5.997   4.680
 2539TIP3    H1 7560   3.559   5.907   4.704
 2539TIP3    H2 7561   3.621   6.045   4.697
 2540TIP3   OH2 7562   2.214   2.551   5.680
 2540TIP3    H1 7563   2.255   2.538   5.594
 2540TIP3    H2 7564   2.159   2.628   5.669
 2541TIP3   OH2 7565   1.067   2.023   3.352
 2541TIP3    H1 7566   1.007   2.045   3.423
 2541TIP3    H2 7567   1.142   2.081   3.365
 2542TIP3   OH2 7568   6.726   1.490   1.211
 2542TIP3    H1 7569   6.636   1.456   1.209
 2542TIP3    H2 7570   6.760   1.473   1.123
 2543TIP3   OH2 7571   2.715   6.043   1.682
 2543TIP3    H1 7572   2.750   6.072   1.598
 2543TIP3    H2 7573   2.677   6.123   1.720
 2544TIP3   OH2 7574   6.437   7.447   1.297
 2544TIP3    H1 7575   6.480   7.504   1.360
 2544TIP3    H2 7576   6.373   7.398   1.348
 2545TIP3   OH2 7577   1.034   4.686   1.868
 2545TIP3    H1 7578   0.940   4.681   1.848
 2545TIP3    H2 7579   1.046   4.774   1.903
 2546TIP3   OH2 7580   0.380   4.334   2.642
 2546TIP3    H1 7581   0.356   4.417   2.683
 2546TIP3    H2 7582   0.472   4.321   2.668
 2547TIP3   OH2 7583   3.547   5.865   2.086
 2547TIP3    H1 7584   3.634   5.857   2.047
 2547TIP3    H2 7585   3.553   5.819   2.169
 2548TIP3   OH2 7586   7.807   3.077   3.639
 2548TIP3    H1 7587   7.741   3.133   3.680
 2548TIP3    H2 7588   7.762   2.993   3.627
 2549TIP3   OH2 7589   5.583   7.203   3.552
 2549TIP3    H1 7590   5.511   7.214   3.614
 2549TIP3    H2 7591   5.659   7.244   3.596
 2550TIP3   OH2 7592   1.332   0.055   0.906
 2550TIP3    H1 7593   1.423   0.050   0.877
 2550TIP3    H2 7594   1.301   0.138   0.870
 2551TIP3   OH2 7595   6.886   6.554   4.283
 2551TIP3    H1 7596   6.936   6.592   4.355
 2551TIP3    H2 7597   6.820   6.621   4.263
 2552TIP3   OH2 7598   3.424   5.709   6.499
 2552TIP3    H1 7599   3.337   5.722   6.460
 2552TIP3    H2 7600   3.430   5.615   6.513
 2553TIP3   OH2 7601   5.078   4.633   6.348
 2553TIP3    H1 7602   5.013   4.590   6.291
 2553TIP3    H2 7603   5.155   4.643   6.292
 2554TIP3   OH2 7604   6.103   3.733   5.451
 2554TIP3    H1 7605   6.033   3.733   5.385
 2554TIP3    H2 7606   6.105   3.823   5.484
 2555TIP3   OH2 7607   5.779   1.902   5.461
 2555TIP3    H1 7608   5.800   1.855   5.542
 2555TIP3    H2 7609   5.699   1.950   5.483
 2556TIP3   OH2 7610   6.115   1.036   4.092
 2556TIP3    H1 7611   6.067   1.059   4.172
 2556TIP3    H2 7612   6.046   1.009   4.030
 2557TIP3   OH2 7613   6.278   3.703   6.562
 2557TIP3    H1 7614   6.368   3.678   6.583
 2557TIP3    H2 7615   6.230   3.694   6.644
 2558TIP3   OH2 7616   7.698   1.836   5.953
 2558TIP3    H1 7617   7.722   1.916   6.001
 2558TIP3    H2 7618   7.772   1.777   5.967
 2559TIP3   OH2 7619   0.450   1.641   3.570
 2559TIP3    H1 7620   0.508   1.612   3.641
 2559TIP3    H2 7621   0.510   1.668   3.500
 2560TIP3   OH2 7622   3.360   4.819   4.891
 2560TIP3    H1 7623   3.316   4.894   4.933
 2560TIP3    H2 7624   3.397   4.770   4.964
 2561TIP3   OH2 7625   5.432   7.103   4.649
 2561TIP3    H1 7626   5.472   7.159   4.582
 2561TIP3    H2 7627   5.359   7.155   4.683
 2562TIP3   OH2 7628   0.591   1.014   6.024
 2562TIP3    H1 7629   0.608   0.962   5.946
 2562TIP3    H2 7630   0.648   0.977   6.091
 2563TIP3   OH2 7631   7.603   7.636   2.794
 2563TIP3    H1 7632   7.627   7.728   2.789
 2563TIP3    H2 7633   7.511   7.633   2.768
 2564TIP3   OH2 7634   7.870   3.450   4.776
 2564TIP3    H1 7635   7.904   3.367   4.742
 2564TIP3    H2 7636   7.807   3.479   4.711
 2565TIP3   OH2 7637   4.616   4.957   0.402
 2565TIP3    H1 7638   4.684   5.020   0.424
 2565TIP3    H2 7639   4.662   4.886   0.356
 2566TIP3   OH2 7640   4.247   5.371   4.958
 2566TIP3    H1 7641   4.179   5.303   4.961
 2566TIP3    H2 7642   4.296   5.351   4.878
 2567TIP3   OH2 7643   3.218   2.761   3.745
 2567TIP3    H1 7644   3.270   2.704   3.802
 2567TIP3    H2 7645   3.282   2.818   3.704
 2568TIP3   OH2 7646   0.712  -0.006   5.853
 2568TIP3    H1 7647   0.736   0.086   5.858
 2568TIP3    H2 7648   0.733  -0.032   5.764
 2569TIP3   OH2 7649   5.816   2.982   1.819
 2569TIP3    H1 7650   5.831   2.887   1.812
 2569TIP3    H2 7651   5.822   3.014   1.729
 2570TIP3   OH2 7652   4.908   3.633   3.575
 2570TIP3    H1 7653   4.868   3.589   3.499
 2570TIP3    H2 7654   4.916   3.724   3.548
 2571TIP3   OH2 7655   6.577   5.652   1.454
 2571TIP3    H1 7656   6.619   5.622   1.374
 2571TIP3    H2 7657   6.632   5.618   1.525
 2572TIP3   OH2 7658   4.095   5.815   6.584
 2572TIP3    H1 7659   4.099   5.830   6.678
 2572TIP3    H2 7660   4.172   5.762   6.565
 2573TIP3   OH2 7661   7.183   7.006   6.104
 2573TIP3    H1 7662   7.193   7.016   6.009
 2573TIP3    H2 7663   7.139   7.087   6.132
 2574TIP3   OH2 7664   4.913   1.172   2.533
 2574TIP3    H1 7665   4.840   1.176   2.471
 2574TIP3    H2 7666   4.966   1.249   2.513
 2575TIP3   OH2 7667   8.153   6.025   6.392
 2575TIP3    H1 7668   8.121   6.089   6.456
 2575TIP3    H2 7669   8.085   5.958   6.389
 2576TIP3   OH2 7670   3.453   7.368   3.491
 2576TIP3    H1 7671   3.388   7.342   3.555
 2576TIP3    H2 7672   3.416   7.342   3.407
 2577TIP3   OH2 7673   3.154   0.018   3.565
 2577TIP3    H1 7674   3.232   0.025   3.510
 2577TIP3    H2 7675   3.081   0.036   3.506
 2578TIP3   OH2 7676   4.141   0.254   3.756
 2578TIP3    H1 7677   4.074   0.186   3.757
 2578TIP3    H2 7678   4.109   0.319   3.693
 2579TIP3   OH2 7679   2.087   3.492   3.900
 2579TIP3    H1 7680   2.001   3.527   3.877
 2579TIP3    H2 7681   2.086   3.483   3.995
 2580TIP3   OH2 7682   2.299   4.133   0.557
 2580TIP3    H1 7683   2.338   4.219   0.541
 2580TIP3    H2 7684   2.211   4.151   0.588
 2581TIP3   OH2 7685   5.194   5.839   0.452
 2581TIP3    H1 7686   5.098   5.832   0.454
 2581TIP3    H2 7687   5.223   5.752   0.423
 2582TIP3   OH2 7688   1.945   7.066   6.546
 2582TIP3    H1 7689   1.925   7.148   6.501
 2582TIP3    H2 7690   2.024   7.034   6.503
 2583TIP3   OH2 7691   5.425   1.757   6.722
 2583TIP3    H1 7692   5.446   1.833   6.776
 2583TIP3    H2 7693   5.349   1.718   6.765
 2584TIP3   OH2 7694   5.194   0.783   2.692
 2584TIP3    H1 7695   5.235   0.858   2.734
 2584TIP3    H2 7696   5.172   0.724   2.764
 2585TIP3   OH2 7697   7.755   2.594   4.022
 2585TIP3    H1 7698   7.759   2.689   4.011
 2585TIP3    H2 7699   7.661   2.574   4.022
 2586TIP3   OH2 7700   3.179   3.180   2.902
 2586TIP3    H1 7701   3.225   3.098   2.884
 2586TIP3    H2 7702   3.093   3.153   2.934
 2587TIP3   OH2 7703   1.502   4.572   0.664
 2587TIP3    H1 7704   1.578   4.612   0.706
 2587TIP3    H2 7705   1.516   4.588   0.570
 2588TIP3   OH2 7706   3.154   0.445   6.560
 2588TIP3    H1 7707   3.147   0.446   6.464
 2588TIP3    H2 7708   3.089   0.509   6.589
 2589TIP3   OH2 7709   4.371   7.278   6.435
 2589TIP3    H1 7710   4.390   7.186   6.414
 2589TIP3    H2 7711   4.391   7.286   6.528
 2590TIP3   OH2 7712   6.593   5.299   4.129
 2590TIP3    H1 7713   6.647   5.362   4.081
 2590TIP3    H2 7714   6.653   5.262   4.194
 2591TIP3   OH2 7715   4.307   1.801   6.637
 2591TIP3    H1 7716   4.349   1.749   6.706
 2591TIP3    H2 7717   4.293   1.887   6.678
 2592TIP3   OH2 7718   6.803   3.988   4.075
 2592TIP3    H1 7719   6.842   3.902   4.063
 2592TIP3    H2 7720   6.729   3.989   4.015
 2593TIP3   OH2 7721   0.154   2.728   4.837
 2593TIP3    H1 7722   0.112   2.813   4.849
 2593TIP3    H2 7723   0.181   2.701   4.925
 2594TIP3   OH2 7724   5.648   6.049   3.882
 2594TIP3    H1 7725   5.674   6.136   3.852
 2594TIP3    H2 7726   5.628   6.000   3.802
 2595TIP3   OH2 7727   7.102   7.269   1.686
 2595TIP3    H1 7728   7.160   7.208   1.731
 2595TIP3    H2 7729   7.017   7.258   1.729
 2596TIP3   OH2 7730   7.441   6.413   3.991
 2596TIP3    H1 7731   7.527   6.373   3.979
 2596TIP3    H2 7732   7.379   6.341   3.980
 2597TIP3   OH2 7733   2.652   7.605   2.278
 2597TIP3    H1 7734   2.634   7.658   2.355
 2597TIP3    H2 7735   2.698   7.528   2.311
 2598TIP3   OH2 7736   2.735   6.180   0.206
 2598TIP3    H1 7737   2.767   6.214   0.123
 2598TIP3    H2 7738   2.815   6.161   0.256
 2599TIP3   OH2 7739   4.171   5.749   0.616
 2599TIP3    H1 7740   4.243   5.721   0.672
 2599TIP3    H2 7741   4.212   5.801   0.547
 2600TIP3   OH2 7742   7.843   2.020   1.667
 2600TIP3    H1 7743   7.927   2.013   1.713
 2600TIP3    H2 7744   7.835   1.938   1.619
 2601TIP3   OH2 7745   2.095   4.283   4.947
 2601TIP3    H1 7746   2.084   4.188   4.953
 2601TIP3    H2 7747   2.088   4.313   5.037
 2602TIP3   OH2 7748   1.884   2.934   5.396
 2602TIP3    H1 7749   1.869   2.840   5.387
 2602TIP3    H2 7750   1.803   2.967   5.436
 2603TIP3   OH2 7751   2.799   0.395   4.986
 2603TIP3    H1 7752   2.871   0.458   4.988
 2603TIP3    H2 7753   2.722   0.445   5.015
 2604TIP3   OH2 7754   1.446   5.463   5.757
 2604TIP3    H1 7755   1.370   5.510   5.721
 2604TIP3    H2 7756   1.511   5.531   5.771
 2605TIP3   OH2 7757   2.161   0.970   3.938
 2605TIP3    H1 7758   2.138   0.893   3.886
 2605TIP3    H2 7759   2.248   0.996   3.906
 2606TIP3   OH2 7760   6.201   7.163   5.996
 2606TIP3    H1 7761   6.191   7.069   6.007
 2606TIP3    H2 7762   6.213   7.174   5.901
 2607TIP3   OH2 7763   5.415   2.957   0.815
 2607TIP3    H1 7764   5.471   2.916   0.881
 2607TIP3    H2 7765   5.326   2.946   0.849
 2608TIP3   OH2 7766   5.541   4.867   2.402
 2608TIP3    H1 7767   5.472   4.932   2.386
 2608TIP3    H2 7768   5.507   4.787   2.363
 2609TIP3   OH2 7769   3.196   5.606   1.627
 2609TIP3    H1 7770   3.211   5.565   1.542
 2609TIP3    H2 7771   3.106   5.583   1.650
 2610TIP3   OH2 7772   6.711   5.158   3.889
 2610TIP3    H1 7773   6.771   5.106   3.836
 2610TIP3    H2 7774   6.755   5.166   3.974
 2611TIP3   OH2 7775   8.024   0.294   5.743
 2611TIP3    H1 7776   7.994   0.311   5.653
 2611TIP3    H2 7777   7.943   0.281   5.793
 2612TIP3   OH2 7778   2.780   2.288   3.389
 2612TIP3    H1 7779   2.787   2.287   3.484
 2612TIP3    H2 7780   2.687   2.269   3.372
 2613TIP3   OH2 7781   0.728   4.816   4.101
 2613TIP3    H1 7782   0.729   4.907   4.132
 2613TIP3    H2 7783   0.640   4.785   4.120
 2614TIP3   OH2 7784   6.358   3.347   6.536
 2614TIP3    H1 7785   6.396   3.310   6.615
 2614TIP3    H2 7786   6.392   3.292   6.465
 2615TIP3   OH2 7787   4.267   0.943   2.567
 2615TIP3    H1 7788   4.212   0.866   2.554
 2615TIP3    H2 7789   4.230   1.009   2.509
 2616TIP3   OH2 7790   6.318   4.309   4.798
 2616TIP3    H1 7791   6.380   4.236   4.800
 2616TIP3    H2 7792   6.239   4.273   4.756
 2617TIP3   OH2 7793   3.312   5.830   2.567
 2617TIP3    H1 7794   3.402   5.799   2.574
 2617TIP3    H2 7795   3.313   5.917   2.608
 2618TIP3   OH2 7796   4.960   1.083   0.307
 2618TIP3    H1 7797   4.985   1.051   0.394
 2618TIP3    H2 7798   5.015   1.033   0.247
 2619TIP3   OH2 7799   3.441   1.962   3.292
 2619TIP3    H1 7800   3.359   2.008   3.274
 2619TIP3    H2 7801   3.428   1.923   3.378
 2620TIP3   OH2 7802   7.393   4.104   4.800
 2620TIP3    H1 7803   7.345   4.031   4.841
 2620TIP3    H2 7804   7.362   4.182   4.846
 2621TIP3   OH2 7805   2.798   0.758   3.402
 2621TIP3    H1 7806   2.873   0.711   3.366
 2621TIP3    H2 7807   2.831   0.846   3.420
 2622TIP3   OH2 7808   6.587   3.590   4.784
 2622TIP3    H1 7809   6.552   3.609   4.871
 2622TIP3    H2 7810   6.680   3.572   4.798
 2623TIP3   OH2 7811   3.756   6.799   3.052
 2623TIP3    H1 7812   3.847   6.821   3.074
 2623TIP3    H2 7813   3.722   6.757   3.131
 2624TIP3   OH2 7814   4.085   2.820   0.286
 2624TIP3    H1 7815   4.071   2.727   0.266
 2624TIP3    H2 7816   4.000   2.861   0.268
 2625TIP3   OH2 7817   4.526   7.162   2.117
 2625TIP3    H1 7818   4.501   7.093   2.056
 2625TIP3    H2 7819   4.459   7.230   2.107
 2626TIP3   OH2 7820   6.978   7.768   0.159
 2626TIP3    H1 7821   7.036   7.694   0.144
 2626TIP3    H2 7822   6.940   7.753   0.246
 2627TIP3   OH2 7823   7.207   6.850   2.250
 2627TIP3    H1 7824   7.237   6.899   2.327
 2627TIP3    H2 7825   7.131   6.899   2.219
 2628TIP3   OH2 7826   4.536   2.402   2.556
 2628TIP3    H1 7827   4.472   2.332   2.566
 2628TIP3    H2 7828   4.544   2.440   2.644
 2629TIP3   OH2 7829   0.257   2.508   6.371
 2629TIP3    H1 7830   0.270   2.419   6.404
 2629TIP3    H2 7831   0.257   2.563   6.449
 2630TIP3   OH2 7832   0.098   1.106   3.698
 2630TIP3    H1 7833   0.162   1.060   3.752
 2630TIP3    H2 7834   0.044   1.037   3.660
 2631TIP3   OH2 7835   2.185   7.122   2.196
 2631TIP3    H1 7836   2.241   7.100   2.122
 2631TIP3    H2 7837   2.136   7.041   2.213
 2632TIP3   OH2 7838   3.882   1.031   5.421
 2632TIP3    H1 7839   3.857   1.029   5.329
 2632TIP3    H2 7840   3.895   0.938   5.444
 2633TIP3   OH2 7841   1.872   2.001   1.303
 2633TIP3    H1 7842   1.796   2.051   1.273
 2633TIP3    H2 7843   1.858   1.913   1.267
 2634TIP3   OH2 7844   8.153   0.053   5.678
 2634TIP3    H1 7845   8.244   0.074   5.699
 2634TIP3    H2 7846   8.103   0.128   5.708
 2635TIP3   OH2 7847   2.772   7.196   0.387
 2635TIP3    H1 7848   2.741   7.278   0.349
 2635TIP3    H2 7849   2.769   7.133   0.315
 2636TIP3   OH2 7850   4.131   0.158   2.813
 2636TIP3    H1 7851   4.196   0.172   2.883
 2636TIP3    H2 7852   4.110   0.247   2.784
 2637TIP3   OH2 7853   0.290   3.708   6.747
 2637TIP3    H1 7854   0.361   3.658   6.707
 2637TIP3    H2 7855   0.284   3.788   6.693
 2638TIP3   OH2 7856   5.372   0.879   0.589
 2638TIP3    H1 7857   5.341   0.895   0.679
 2638TIP3    H2 7858   5.293   0.863   0.539
 2639TIP3   OH2 7859   6.703   1.722   6.509
 2639TIP3    H1 7860   6.797   1.722   6.530
 2639TIP3    H2 7861   6.690   1.643   6.457
 2640TIP3   OH2 7862   1.143   3.804   1.470
 2640TIP3    H1 7863   1.147   3.709   1.455
 2640TIP3    H2 7864   1.131   3.813   1.564
 2641TIP3   OH2 7865   4.269   6.200   4.599
 2641TIP3    H1 7866   4.339   6.186   4.662
 2641TIP3    H2 7867   4.203   6.134   4.621
 2642TIP3   OH2 7868   7.356   3.557   1.285
 2642TIP3    H1 7869   7.382   3.483   1.229
 2642TIP3    H2 7870   7.415   3.553   1.360
 2643TIP3   OH2 7871   3.978   7.420   2.951
 2643TIP3    H1 7872   3.970   7.503   2.997
 2643TIP3    H2 7873   3.904   7.420   2.890
 2644TIP3   OH2 7874   7.679   0.408   2.897
 2644TIP3    H1 7875   7.718   0.428   2.982
 2644TIP3    H2 7876   7.752   0.382   2.841
 2645TIP3   OH2 7877   6.205   6.180   0.831
 2645TIP3    H1 7878   6.160   6.102   0.864
 2645TIP3    H2 7879   6.288   6.182   0.878
 2646TIP3   OH2 7880   2.633   1.481   4.273
 2646TIP3    H1 7881   2.659   1.521   4.189
 2646TIP3    H2 7882   2.583   1.403   4.248
 2647TIP3   OH2 7883   0.329   6.977   4.371
 2647TIP3    H1 7884   0.289   7.048   4.322
 2647TIP3    H2 7885   0.373   6.923   4.305
 2648TIP3   OH2 7886   7.288   7.307   6.193
 2648TIP3    H1 7887   7.352   7.236   6.193
 2648TIP3    H2 7888   7.319   7.367   6.124
 2649TIP3   OH2 7889   0.918   5.891   4.960
 2649TIP3    H1 7890   0.980   5.868   5.028
 2649TIP3    H2 7891   0.859   5.954   5.001
 2650TIP3   OH2 7892   0.501   4.871   0.248
 2650TIP3    H1 7893   0.523   4.786   0.208
 2650TIP3    H2 7894   0.445   4.848   0.322
 2651TIP3   OH2 7895   7.325   5.589   2.303
 2651TIP3    H1 7896   7.350   5.667   2.352
 2651TIP3    H2 7897   7.403   5.533   2.304
 2652TIP3   OH2 7898   2.074   1.996   4.834
 2652TIP3    H1 7899   2.121   1.937   4.775
 2652TIP3    H2 7900   2.036   1.939   4.901
 2653TIP3   OH2 7901   6.636   2.513   2.945
 2653TIP3    H1 7902   6.547   2.496   2.976
 2653TIP3    H2 7903   6.645   2.608   2.948
 2654TIP3   OH2 7904   0.797   0.850   5.462
 2654TIP3    H1 7905   0.868   0.786   5.456
 2654TIP3    H2 7906   0.718   0.800   5.443
 2655TIP3   OH2 7907   0.401   6.520   0.839
 2655TIP3    H1 7908   0.437   6.605   0.863
 2655TIP3    H2 7909   0.306   6.532   0.838
 2656TIP3   OH2 7910   0.755   0.138   1.731
 2656TIP3    H1 7911   0.844   0.114   1.758
 2656TIP3    H2 7912   0.703   0.059   1.747
 2657TIP3   OH2 7913   4.353   1.909   4.943
 2657TIP3    H1 7914   4.440   1.932   4.909
 2657TIP3    H2 7915   4.371   1.868   5.028
 2658TIP3   OH2 7916   0.439   2.474   1.071
 2658TIP3    H1 7917   0.402   2.522   1.145
 2658TIP3    H2 7918   0.485   2.540   1.020
 2659TIP3   OH2 7919   6.947   7.683   0.408
 2659TIP3    H1 7920   7.042   7.676   0.413
 2659TIP3    H2 7921   6.925   7.755   0.467
 2660TIP3   OH2 7922   1.591   7.656   5.355
 2660TIP3    H1 7923   1.545   7.612   5.426
 2660TIP3    H2 7924   1.527   7.661   5.284
 2661TIP3   OH2 7925   7.633   3.806   2.845
 2661TIP3    H1 7926   7.664   3.870   2.780
 2661TIP3    H2 7927   7.554   3.769   2.805
 2662TIP3   OH2 7928   0.074   0.110   2.267
 2662TIP3    H1 7929   0.020   0.187   2.250
 2662TIP3    H2 7930   0.164   0.142   2.265
 2663TIP3   OH2 7931   0.318   4.366   4.321
 2663TIP3    H1 7932   0.259   4.439   4.341
 2663TIP3    H2 7933   0.401   4.390   4.363
 2664TIP3   OH2 7934   8.079   0.217   3.499
 2664TIP3    H1 7935   7.991   0.251   3.513
 2664TIP3    H2 7936   8.066   0.136   3.450
 2665TIP3   OH2 7937   1.069   6.578   1.319
 2665TIP3    H1 7938   1.071   6.544   1.230
 2665TIP3    H2 7939   1.096   6.505   1.374
 2666TIP3   OH2 7940   7.931   1.697   4.891
 2666TIP3    H1 7941   7.999   1.705   4.824
 2666TIP3    H2 7942   7.849   1.702   4.843
 2667TIP3   OH2 7943   4.362   1.907   2.387
 2667TIP3    H1 7944   4.349   2.001   2.376
 2667TIP3    H2 7945   4.397   1.877   2.303
 2668TIP3   OH2 7946   2.569   4.837   6.448
 2668TIP3    H1 7947   2.655   4.795   6.442
 2668TIP3    H2 7948   2.509   4.777   6.403
 2669TIP3   OH2 7949   5.048   3.775   5.921
 2669TIP3    H1 7950   5.084   3.863   5.938
 2669TIP3    H2 7951   4.957   3.781   5.948
 2670TIP3   OH2 7952   5.554   0.387   6.533
 2670TIP3    H1 7953   5.509   0.419   6.611
 2670TIP3    H2 7954   5.517   0.438   6.461
 2671TIP3   OH2 7955   5.513   0.178   0.485
 2671TIP3    H1 7956   5.459   0.133   0.420
 2671TIP3    H2 7957   5.454   0.244   0.523
 2672TIP3   OH2 7958   2.380   7.075   4.599
 2672TIP3    H1 7959   2.370   7.082   4.694
 2672TIP3    H2 7960   2.472   7.052   4.586
 2673TIP3   OH2 7961   1.800   1.177   1.035
 2673TIP3    H1 7962   1.772   1.087   1.018
 2673TIP3    H2 7963   1.887   1.169   1.074
 2674TIP3   OH2 7964   2.553   2.797   2.249
 2674TIP3    H1 7965   2.520   2.886   2.247
 2674TIP3    H2 7966   2.648   2.806   2.247
 2675TIP3   OH2 7967   4.248   4.414   5.141
 2675TIP3    H1 7968   4.284   4.489   5.093
 2675TIP3    H2 7969   4.207   4.360   5.074
 2676TIP3   OH2 7970   0.368   3.017   5.090
 2676TIP3    H1 7971   0.330   3.016   5.178
 2676TIP3    H2 7972   0.456   2.981   5.102
 2677TIP3   OH2 7973   5.960   5.214   1.018
 2677TIP3    H1 7974   5.937   5.125   0.992
 2677TIP3    H2 7975   5.896   5.270   0.974
 2678TIP3   OH2 7976   4.114   1.604   3.448
 2678TIP3    H1 7977   4.097   1.520   3.406
 2678TIP3    H2 7978   4.175   1.649   3.390
 2679TIP3   OH2 7979   4.494   5.349   3.435
 2679TIP3    H1 7980   4.588   5.368   3.433
 2679TIP3    H2 7981   4.487   5.262   3.395
 2680TIP3   OH2 7982   6.222   0.922   6.310
 2680TIP3    H1 7983   6.218   0.911   6.405
 2680TIP3    H2 7984   6.158   0.859   6.276
 2681TIP3   OH2 7985   0.943   7.148   4.282
 2681TIP3    H1 7986   0.984   7.175   4.364
 2681TIP3    H2 7987   0.949   7.052   4.283
 2682TIP3   OH2 7988   4.349   2.144   3.603
 2682TIP3    H1 7989   4.273   2.197   3.626
 2682TIP3    H2 7990   4.423   2.189   3.645
 2683TIP3   OH2 7991   1.941   5.694   4.222
 2683TIP3    H1 7992   1.856   5.738   4.217
 2683TIP3    H2 7993   1.942   5.655   4.310
 2684TIP3   OH2 7994   3.216   3.397   5.500
 2684TIP3    H1 7995   3.134   3.353   5.522
 2684TIP3    H2 7996   3.253   3.422   5.585
 2685TIP3   OH2 7997   5.390   3.890   2.240
 2685TIP3    H1 7998   5.309   3.844   2.220
 2685TIP3    H2 7999   5.402   3.879   2.334
 2686TIP3   OH2 8000   5.135   2.350   2.097
 2686TIP3    H1 8001   5.128   2.256   2.082
 2686TIP3    H2 8002   5.047   2.384   2.079
 2687TIP3   OH2 8003   2.280   5.379   5.509
 2687TIP3    H1 8004   2.365   5.344   5.534
 2687TIP3    H2 8005   2.219   5.337   5.571
 2688TIP3   OH2 8006   4.097   6.581   5.483
 2688TIP3    H1 8007   4.040   6.505   5.494
 2688TIP3    H2 8008   4.158   6.555   5.414
 2689TIP3   OH2 8009   2.762   0.597   2.732
 2689TIP3    H1 8010   2.719   0.674   2.696
 2689TIP3    H2 8011   2.836   0.631   2.781
 2690TIP3   OH2 8012   2.913   0.180   2.386
 2690TIP3    H1 8013   2.995   0.137   2.362
 2690TIP3    H2 8014   2.939   0.252   2.444
 2691TIP3   OH2 8015   1.076   4.944   3.381
 2691TIP3    H1 8016   1.061   4.983   3.295
 2691TIP3    H2 8017   1.118   4.860   3.362
 2692TIP3   OH2 8018   4.079   5.214   3.668
 2692TIP3    H1 8019   4.128   5.265   3.604
 2692TIP3    H2 8020   4.038   5.145   3.617
 2693TIP3   OH2 8021   0.166   4.592   6.535
 2693TIP3    H1 8022   0.223   4.636   6.598
 2693TIP3    H2 8023   0.172   4.645   6.455
 2694TIP3   OH2 8024   3.554   3.581   2.149
 2694TIP3    H1 8025   3.629   3.562   2.205
 2694TIP3    H2 8026   3.487   3.518   2.175
 2695TIP3   OH2 8027   2.306   5.579   1.893
 2695TIP3    H1 8028   2.372   5.511   1.881
 2695TIP3    H2 8029   2.355   5.661   1.888
 2696TIP3   OH2 8030   2.949   6.637   6.347
 2696TIP3    H1 8031   2.912   6.723   6.327
 2696TIP3    H2 8032   3.009   6.653   6.421
 2697TIP3   OH2 8033   1.780   0.067   3.858
 2697TIP3    H1 8034   1.727  -0.013   3.851
 2697TIP3    H2 8035   1.727   0.126   3.912
 2698TIP3   OH2 8036   4.196   2.434   5.105
 2698TIP3    H1 8037   4.139   2.409   5.178
 2698TIP3    H2 8038   4.260   2.363   5.099
 2699TIP3   OH2 8039   7.520   5.639   0.083
 2699TIP3    H1 8040   7.578   5.570   0.054
 2699TIP3    H2 8041   7.497   5.687   0.003
 2700TIP3   OH2 8042   8.213   2.486   0.926
 2700TIP3    H1 8043   8.272   2.414   0.945
 2700TIP3    H2 8044   8.270   2.562   0.913
 2701TIP3   OH2 8045   4.979   1.681   3.264
 2701TIP3    H1 8046   4.951   1.597   3.226
 2701TIP3    H2 8047   5.042   1.656   3.332
 2702TIP3   OH2 8048   2.196   5.165   2.697
 2702TIP3    H1 8049   2.281   5.143   2.660
 2702TIP3    H2 8050   2.150   5.212   2.627
 2703TIP3   OH2 8051   3.959   0.592   1.524
 2703TIP3    H1 8052   3.894   0.623   1.461
 2703TIP3    H2 8053   3.922   0.613   1.610
 2704TIP3   OH2 8054   4.871   2.152   5.862
 2704TIP3    H1 8055   4.902   2.099   5.936
 2704TIP3    H2 8056   4.813   2.216   5.902
 2705TIP3   OH2 8057   7.650   2.092   6.017
 2705TIP3    H1 8058   7.705   2.168   6.034
 2705TIP3    H2 8059   7.561   2.128   6.010
 2706TIP3   OH2 8060   7.764   1.214   4.133
 2706TIP3    H1 8061   7.776   1.270   4.210
 2706TIP3    H2 8062   7.699   1.261   4.080
 2707TIP3   OH2 8063   7.886   6.155   0.583
 2707TIP3    H1 8064   7.912   6.096   0.513
 2707TIP3    H2 8065   7.938   6.128   0.659
 2708TIP3   OH2 8066   5.147   2.389   4.064
 2708TIP3    H1 8067   5.170   2.331   3.992
 2708TIP3    H2 8068   5.148   2.477   4.025
 2709TIP3   OH2 8069   5.139   0.016   1.632
 2709TIP3    H1 8070   5.067   0.072   1.602
 2709TIP3    H2 8071   5.193   0.073   1.687
 2710TIP3   OH2 8072   6.160   3.342   1.650
 2710TIP3    H1 8073   6.168   3.376   1.561
 2710TIP3    H2 8074   6.068   3.356   1.673
 2711TIP3   OH2 8075   3.833   0.749   2.093
 2711TIP3    H1 8076   3.875   0.672   2.131
 2711TIP3    H2 8077   3.874   0.823   2.137
 2712TIP3   OH2 8078   6.408   7.392   3.673
 2712TIP3    H1 8079   6.383   7.320   3.616
 2712TIP3    H2 8080   6.448   7.350   3.749
 2713TIP3   OH2 8081   5.572   1.283   2.090
 2713TIP3    H1 8082   5.636   1.282   2.161
 2713TIP3    H2 8083   5.588   1.365   2.043
 2714TIP3   OH2 8084   7.431   6.605   1.165
 2714TIP3    H1 8085   7.464   6.531   1.217
 2714TIP3    H2 8086   7.473   6.682   1.203
 2715TIP3   OH2 8087   4.341   6.027   3.754
 2715TIP3    H1 8088   4.384   6.008   3.837
 2715TIP3    H2 8089   4.345   5.945   3.705
 2716TIP3   OH2 8090   3.396   7.386   4.319
 2716TIP3    H1 8091   3.410   7.326   4.246
 2716TIP3    H2 8092   3.433   7.341   4.395
 2717TIP3   OH2 8093   5.684   3.087   0.601
 2717TIP3    H1 8094   5.663   3.002   0.563
 2717TIP3    H2 8095   5.717   3.139   0.527
 2718TIP3   OH2 8096   1.792   4.899   5.983
 2718TIP3    H1 8097   1.819   4.907   6.074
 2718TIP3    H2 8098   1.807   4.807   5.962
 2719TIP3   OH2 8099   4.519   5.208   5.055
 2719TIP3    H1 8100   4.490   5.296   5.031
 2719TIP3    H2 8101   4.544   5.215   5.147
 2720TIP3   OH2 8102   7.813   5.344   1.680
 2720TIP3    H1 8103   7.879   5.315   1.743
 2720TIP3    H2 8104   7.736   5.365   1.734
 2721TIP3   OH2 8105   7.796   0.743   0.539
 2721TIP3    H1 8106   7.835   0.774   0.621
 2721TIP3    H2 8107   7.720   0.800   0.525
 2722TIP3   OH2 8108   4.825   0.380   5.155
 2722TIP3    H1 8109   4.898   0.330   5.193
 2722TIP3    H2 8110   4.827   0.464   5.201
 2723TIP3   OH2 8111   6.494   2.401   5.755
 2723TIP3    H1 8112   6.480   2.331   5.691
 2723TIP3    H2 8113   6.432   2.382   5.826
 2724TIP3   OH2 8114   8.058   0.776   3.457
 2724TIP3    H1 8115   8.105   0.839   3.512
 2724TIP3    H2 8116   8.070   0.809   3.367
 2725TIP3   OH2 8117   0.982   6.391   0.349
 2725TIP3    H1 8118   0.943   6.464   0.301
 2725TIP3    H2 8119   0.945   6.399   0.437
 2726TIP3   OH2 8120   4.027   7.796   2.873
 2726TIP3    H1 8121   4.071   7.711   2.876
 2726TIP3    H2 8122   3.999   7.811   2.964
 2727TIP3   OH2 8123   7.878   4.487   0.909
 2727TIP3    H1 8124   7.841   4.399   0.908
 2727TIP3    H2 8125   7.971   4.475   0.927
 2728TIP3   OH2 8126   5.729   7.580   4.274
 2728TIP3    H1 8127   5.647   7.599   4.229
 2728TIP3    H2 8128   5.788   7.650   4.246
 2729TIP3   OH2 8129   3.228   4.582   4.031
 2729TIP3    H1 8130   3.310   4.583   4.080
 2729TIP3    H2 8131   3.206   4.674   4.020
 2730TIP3   OH2 8132   3.730   3.883   6.095
 2730TIP3    H1 8133   3.808   3.851   6.142
 2730TIP3    H2 8134   3.676   3.922   6.163
 2731TIP3   OH2 8135   4.561   0.168   2.068
 2731TIP3    H1 8136   4.627   0.146   2.134
 2731TIP3    H2 8137   4.612   0.184   1.988
 2732TIP3   OH2 8138   1.462   1.753   2.448
 2732TIP3    H1 8139   1.399   1.741   2.377
 2732TIP3    H2 8140   1.524   1.818   2.415
 2733TIP3   OH2 8141   3.324   3.405   1.118
 2733TIP3    H1 8142   3.371   3.425   1.037
 2733TIP3    H2 8143   3.392   3.403   1.185
 2734TIP3   OH2 8144   6.226   6.361   2.054
 2734TIP3    H1 8145   6.302   6.376   1.998
 2734TIP3    H2 8146   6.240   6.417   2.129
 2735TIP3   OH2 8147   6.540   6.616   0.318
 2735TIP3    H1 8148   6.545   6.521   0.325
 2735TIP3    H2 8149   6.462   6.632   0.264
 2736TIP3   OH2 8150   6.169   3.036   6.360
 2736TIP3    H1 8151   6.085   3.059   6.399
 2736TIP3    H2 8152   6.160   3.061   6.268
 2737TIP3   OH2 8153   0.332   3.170   2.794
 2737TIP3    H1 8154   0.338   3.257   2.755
 2737TIP3    H2 8155   0.423   3.145   2.811
 2738TIP3   OH2 8156   6.122   5.339   2.804
 2738TIP3    H1 8157   6.191   5.358   2.868
 2738TIP3    H2 8158   6.054   5.294   2.855
 2739TIP3   OH2 8159   2.704   6.163   5.088
 2739TIP3    H1 8160   2.731   6.092   5.146
 2739TIP3    H2 8161   2.633   6.206   5.135
 2740TIP3   OH2 8162   3.444   3.477   4.828
 2740TIP3    H1 8163   3.535   3.492   4.802
 2740TIP3    H2 8164   3.395   3.547   4.785
 2741TIP3   OH2 8165   7.763   3.514   1.959
 2741TIP3    H1 8166   7.768   3.428   1.916
 2741TIP3    H2 8167   7.845   3.558   1.934
 2742TIP3   OH2 8168   0.331   5.405   2.677
 2742TIP3    H1 8169   0.279   5.347   2.621
 2742TIP3    H2 8170   0.356   5.477   2.620
 2743TIP3   OH2 8171   6.076   4.848   3.296
 2743TIP3    H1 8172   6.131   4.802   3.233
 2743TIP3    H2 8173   6.134   4.865   3.370
 2744TIP3   OH2 8174   5.616   2.520   5.768
 2744TIP3    H1 8175   5.590   2.456   5.701
 2744TIP3    H2 8176   5.697   2.557   5.734
 2745TIP3   OH2 8177   6.079   6.665   2.074
 2745TIP3    H1 8178   6.147   6.706   2.128
 2745TIP3    H2 8179   6.003   6.660   2.131
 2746TIP3   OH2 8180   0.432   4.108   0.710
 2746TIP3    H1 8181   0.454   4.080   0.621
 2746TIP3    H2 8182   0.406   4.028   0.754
 2747TIP3   OH2 8183   8.021   5.212   1.066
 2747TIP3    H1 8184   8.045   5.212   0.973
 2747TIP3    H2 8185   8.105   5.209   1.112
 2748TIP3   OH2 8186   5.075   4.566   2.219
 2748TIP3    H1 8187   5.035   4.568   2.306
 2748TIP3    H2 8188   5.066   4.474   2.191
 2749TIP3   OH2 8189   4.031   4.119   2.486
 2749TIP3    H1 8190   4.079   4.196   2.456
 2749TIP3    H2 8191   4.095   4.048   2.482
 2750TIP3   OH2 8192   8.045   4.478   2.657
 2750TIP3    H1 8193   8.117   4.540   2.669
 2750TIP3    H2 8194   8.025   4.483   2.564
 2751TIP3   OH2 8195   7.256   0.994   2.873
 2751TIP3    H1 8196   7.261   0.908   2.915
 2751TIP3    H2 8197   7.335   0.998   2.819
 2752TIP3   OH2 8198   3.874   5.669   5.328
 2752TIP3    H1 8199   3.913   5.698   5.410
 2752TIP3    H2 8200   3.923   5.591   5.304
 2753TIP3   OH2 8201   5.050   6.249   5.391
 2753TIP3    H1 8202   5.081   6.242   5.301
 2753TIP3    H2 8203   4.977   6.187   5.397
 2754TIP3   OH2 8204   8.257   5.363   3.236
 2754TIP3    H1 8205   8.345   5.328   3.248
 2754TIP3    H2 8206   8.223   5.373   3.325
 2755TIP3   OH2 8207   3.385   0.576   6.087
 2755TIP3    H1 8208   3.401   0.511   6.019
 2755TIP3    H2 8209   3.459   0.636   6.080
 2756TIP3   OH2 8210   2.820   5.826   0.239
 2756TIP3    H1 8211   2.896   5.768   0.238
 2756TIP3    H2 8212   2.822   5.866   0.325
 2757TIP3   OH2 8213   1.727   0.952   3.469
 2757TIP3    H1 8214   1.661   1.019   3.453
 2757TIP3    H2 8215   1.679   0.880   3.510
 2758TIP3   OH2 8216   5.095   5.544   5.574
 2758TIP3    H1 8217   5.015   5.595   5.565
 2758TIP3    H2 8218   5.145   5.563   5.495
 2759TIP3   OH2 8219   0.939   2.374   4.162
 2759TIP3    H1 8220   0.880   2.313   4.207
 2759TIP3    H2 8221   0.965   2.437   4.228
 2760TIP3   OH2 8222   6.672   1.048   1.570
 2760TIP3    H1 8223   6.736   0.993   1.615
 2760TIP3    H2 8224   6.686   1.135   1.606
 2761TIP3   OH2 8225   5.372   4.553   3.555
 2761TIP3    H1 8226   5.300   4.506   3.596
 2761TIP3    H2 8227   5.442   4.551   3.620
 2762TIP3   OH2 8228   4.346   2.997   3.382
 2762TIP3    H1 8229   4.431   3.011   3.341
 2762TIP3    H2 8230   4.366   2.960   3.468
 2763TIP3   OH2 8231   5.757   6.851   2.665
 2763TIP3    H1 8232   5.690   6.863   2.732
 2763TIP3    H2 8233   5.751   6.931   2.612
 2764TIP3   OH2 8234   2.892   4.472   1.441
 2764TIP3    H1 8235   2.863   4.521   1.518
 2764TIP3    H2 8236   2.983   4.448   1.461
 2765TIP3   OH2 8237   0.507   1.421   4.250
 2765TIP3    H1 8238   0.566   1.380   4.314
 2765TIP3    H2 8239   0.562   1.443   4.176
 2766TIP3   OH2 8240   8.099   5.315   6.033
 2766TIP3    H1 8241   8.133   5.284   6.117
 2766TIP3    H2 8242   8.177   5.336   5.982
 2767TIP3   OH2 8243   6.811   0.928   0.724
 2767TIP3    H1 8244   6.761   0.982   0.786
 2767TIP3    H2 8245   6.831   0.848   0.772
 2768TIP3   OH2 8246   6.277   7.307   3.193
 2768TIP3    H1 8247   6.201   7.298   3.135
 2768TIP3    H2 8248   6.256   7.384   3.247
 2769TIP3   OH2 8249   5.762   6.134   6.221
 2769TIP3    H1 8250   5.754   6.177   6.306
 2769TIP3    H2 8251   5.773   6.205   6.158
 2770TIP3   OH2 8252   6.839   2.358   0.982
 2770TIP3    H1 8253   6.858   2.395   0.895
 2770TIP3    H2 8254   6.814   2.268   0.965
 2771TIP3   OH2 8255   8.160   4.759   5.304
 2771TIP3    H1 8256   8.172   4.780   5.396
 2771TIP3    H2 8257   8.207   4.676   5.292
 2772TIP3   OH2 8258   1.359   3.213   6.435
 2772TIP3    H1 8259   1.415   3.230   6.359
 2772TIP3    H2 8260   1.298   3.286   6.437
 2773TIP3   OH2 8261   1.015   3.362   3.144
 2773TIP3    H1 8262   1.042   3.356   3.235
 2773TIP3    H2 8263   0.922   3.386   3.148
 2774TIP3   OH2 8264   5.403   3.689   4.858
 2774TIP3    H1 8265   5.455   3.610   4.840
 2774TIP3    H2 8266   5.400   3.694   4.953
 2775TIP3   OH2 8267   3.822   1.972   0.313
 2775TIP3    H1 8268   3.856   1.883   0.306
 2775TIP3    H2 8269   3.751   1.965   0.377
 2776TIP3   OH2 8270   7.268   4.277   0.287
 2776TIP3    H1 8271   7.204   4.225   0.336
 2776TIP3    H2 8272   7.353   4.244   0.315
 2777TIP3   OH2 8273   7.401   7.588   1.960
 2777TIP3    H1 8274   7.428   7.677   1.939
 2777TIP3    H2 8275   7.361   7.593   2.046
 2778TIP3   OH2 8276   4.580   1.744   1.855
 2778TIP3    H1 8277   4.673   1.764   1.845
 2778TIP3    H2 8278   4.544   1.818   1.904
 2779TIP3   OH2 8279   5.173   6.561   2.980
 2779TIP3    H1 8280   5.107   6.630   2.992
 2779TIP3    H2 8281   5.222   6.560   3.062
 2780TIP3   OH2 8282   0.468   7.456   6.647
 2780TIP3    H1 8283   0.484   7.453   6.553
 2780TIP3    H2 8284   0.390   7.402   6.660
 2781TIP3   OH2 8285   0.870   3.169   3.429
 2781TIP3    H1 8286   0.942   3.139   3.374
 2781TIP3    H2 8287   0.793   3.126   3.393
 2782TIP3   OH2 8288   0.353   7.762   5.355
 2782TIP3    H1 8289   0.308   7.741   5.273
 2782TIP3    H2 8290   0.440   7.723   5.345
 2783TIP3   OH2 8291   1.493   4.518   2.472
 2783TIP3    H1 8292   1.398   4.524   2.468
 2783TIP3    H2 8293   1.521   4.520   2.380
 2784TIP3   OH2 8294   3.840   2.167   5.442
 2784TIP3    H1 8295   3.899   2.240   5.425
 2784TIP3    H2 8296   3.816   2.135   5.355
 2785TIP3   OH2 8297   3.366   2.451   0.912
 2785TIP3    H1 8298   3.313   2.529   0.930
 2785TIP3    H2 8299   3.379   2.452   0.818
 2786TIP3   OH2 8300   3.600   7.233   0.869
 2786TIP3    H1 8301   3.524   7.231   0.927
 2786TIP3    H2 8302   3.631   7.142   0.867
 2787TIP3   OH2 8303   2.667   4.190   5.151
 2787TIP3    H1 8304   2.682   4.218   5.061
 2787TIP3    H2 8305   2.587   4.138   5.147
 2788TIP3   OH2 8306   7.101   3.920   4.205
 2788TIP3    H1 8307   7.041   3.978   4.252
 2788TIP3    H2 8308   7.046   3.847   4.176
 2789TIP3   OH2 8309   7.500   2.934   2.321
 2789TIP3    H1 8310   7.487   2.921   2.227
 2789TIP3    H2 8311   7.411   2.935   2.357
 2790TIP3   OH2 8312   8.224   3.361   4.245
 2790TIP3    H1 8313   8.260   3.314   4.170
 2790TIP3    H2 8314   8.152   3.305   4.275
 2791TIP3   OH2 8315   3.511   3.103   6.214
 2791TIP3    H1 8316   3.567   3.151   6.152
 2791TIP3    H2 8317   3.572   3.069   6.279
 2792TIP3   OH2 8318   6.814   6.044   6.437
 2792TIP3    H1 8319   6.790   5.951   6.439
 2792TIP3    H2 8320   6.792   6.077   6.523
 2793TIP3   OH2 8321   5.828   0.049   3.763
 2793TIP3    H1 8322   5.811   0.124   3.820
 2793TIP3    H2 8323   5.872  -0.014   3.820
 2794TIP3   OH2 8324   1.558   3.503   6.448
 2794TIP3    H1 8325   1.502   3.439   6.490
 2794TIP3    H2 8326   1.516   3.521   6.364
 2795TIP3   OH2 8327   6.878   4.518   5.350
 2795TIP3    H1 8328   6.960   4.545   5.309
 2795TIP3    H2 8329   6.889   4.537   5.443
 2796TIP3   OH2 8330   6.568   0.661   4.498
 2796TIP3    H1 8331   6.566   0.754   4.521
 2796TIP3    H2 8332   6.582   0.616   4.581
 2797TIP3   OH2 8333   4.393   4.304   4.490
 2797TIP3    H1 8334   4.480   4.290   4.452
 2797TIP3    H2 8335   4.406   4.371   4.557
 2798TIP3   OH2 8336   1.335   4.675   4.050
 2798TIP3    H1 8337   1.319   4.638   3.963
 2798TIP3    H2 8338   1.401   4.618   4.089
 2799TIP3   OH2 8339   5.811   3.490   0.659
 2799TIP3    H1 8340   5.776   3.577   0.640
 2799TIP3    H2 8341   5.883   3.506   0.720
 2800TIP3   OH2 8342   4.143   2.012   1.820
 2800TIP3    H1 8343   4.147   1.959   1.900
 2800TIP3    H2 8344   4.213   1.978   1.765
 2801TIP3   OH2 8345   6.580   5.956   2.425
 2801TIP3    H1 8346   6.566   5.961   2.519
 2801TIP3    H2 8347   6.612   6.042   2.400
 2802TIP3   OH2 8348   5.728   0.331   1.706
 2802TIP3    H1 8349   5.708   0.322   1.613
 2802TIP3    H2 8350   5.821   0.311   1.713
 2803TIP3   OH2 8351   4.709   0.983   1.145
 2803TIP3    H1 8352   4.757   0.901   1.143
 2803TIP3    H2 8353   4.629   0.962   1.193
 2804TIP3   OH2 8354   4.608   4.685   4.119
 2804TIP3    H1 8355   4.568   4.605   4.154
 2804TIP3    H2 8356   4.579   4.688   4.027
 2805TIP3   OH2 8357   2.475   2.928   5.423
 2805TIP3    H1 8358   2.486   2.855   5.484
 2805TIP3    H2 8359   2.459   3.003   5.480
 2806TIP3   OH2 8360   2.989   2.215   6.248
 2806TIP3    H1 8361   2.922   2.280   6.228
 2806TIP3    H2 8362   2.985   2.153   6.174
 2807TIP3   OH2 8363   2.470   0.016   0.682
 2807TIP3    H1 8364   2.556   0.058   0.688
 2807TIP3    H2 8365   2.438   0.039   0.595
 2808TIP3   OH2 8366   7.390   6.781   3.748
 2808TIP3    H1 8367   7.467   6.818   3.791
 2808TIP3    H2 8368   7.344   6.856   3.711
 2809TIP3   OH2 8369   0.066   6.638   6.456
 2809TIP3    H1 8370   0.102   6.723   6.480
 2809TIP3    H2 8371  -0.018   6.658   6.415
 2810TIP3   OH2 8372   2.333   3.657   4.479
 2810TIP3    H1 8373   2.395   3.633   4.410
 2810TIP3    H2 8374   2.250   3.673   4.433
 2811TIP3   OH2 8375   1.563   3.684   6.678
 2811TIP3    H1 8376   1.585   3.634   6.757
 2811TIP3    H2 8377   1.552   3.617   6.610
 2812TIP3   OH2 8378   7.914   1.700   6.090
 2812TIP3    H1 8379   7.925   1.606   6.077
 2812TIP3    H2 8380   7.954   1.718   6.175
 2813TIP3   OH2 8381   1.866   4.534   0.248
 2813TIP3    H1 8382   1.844   4.449   0.211
 2813TIP3    H2 8383   1.961   4.531   0.259
 2814TIP3   OH2 8384   6.166   5.857   2.554
 2814TIP3    H1 8385   6.145   5.775   2.509
 2814TIP3    H2 8386   6.084   5.884   2.594
 2815TIP3   OH2 8387   8.267   6.103   1.084
 2815TIP3    H1 8388   8.221   6.183   1.110
 2815TIP3    H2 8389   8.261   6.046   1.162
 2816TIP3   OH2 8390   4.662   4.228   5.764
 2816TIP3    H1 8391   4.591   4.236   5.700
 2816TIP3    H2 8392   4.620   4.194   5.843
 2817TIP3   OH2 8393   6.359   1.532   5.169
 2817TIP3    H1 8394   6.338   1.475   5.243
 2817TIP3    H2 8395   6.446   1.567   5.190
 2818TIP3   OH2 8396   0.979   3.988   6.434
 2818TIP3    H1 8397   1.024   3.945   6.507
 2818TIP3    H2 8398   0.949   4.071   6.470
 2819TIP3   OH2 8399   6.363   6.085   1.976
 2819TIP3    H1 8400   6.453   6.117   1.974
 2819TIP3    H2 8401   6.309   6.162   1.959
 2820TIP3   OH2 8402  -0.006   2.007   3.560
 2820TIP3    H1 8403   0.020   2.095   3.587
 2820TIP3    H2 8404   0.062   1.980   3.499
 2821TIP3   OH2 8405   3.134   1.572   1.095
 2821TIP3    H1 8406   3.185   1.519   1.156
 2821TIP3    H2 8407   3.118   1.515   1.020
 2822TIP3   OH2 8408   4.296   4.736   0.166
 2822TIP3    H1 8409   4.239   4.803   0.129
 2822TIP3    H2 8410   4.242   4.695   0.234
 2823TIP3   OH2 8411   6.335   4.104   4.169
 2823TIP3    H1 8412   6.358   4.043   4.099
 2823TIP3    H2 8413   6.369   4.188   4.139
 2824TIP3   OH2 8414   5.339   5.501   6.018
 2824TIP3    H1 8415   5.308   5.412   6.033
 2824TIP3    H2 8416   5.281   5.556   6.070
 2825TIP3   OH2 8417   4.112   6.866   0.308
 2825TIP3    H1 8418   4.184   6.804   0.314
 2825TIP3    H2 8419   4.041   6.825   0.357
 2826TIP3   OH2 8420   4.182   0.716   5.692
 2826TIP3    H1 8421   4.108   0.669   5.654
 2826TIP3    H2 8422   4.220   0.655   5.755
 2827TIP3   OH2 8423   7.892   5.246   3.432
 2827TIP3    H1 8424   7.806   5.279   3.460
 2827TIP3    H2 8425   7.944   5.324   3.418
 2828TIP3   OH2 8426   8.003   2.546   1.107
 2828TIP3    H1 8427   8.066   2.578   1.042
 2828TIP3    H2 8428   7.926   2.519   1.056
 2829TIP3   OH2 8429   3.629   3.041   0.557
 2829TIP3    H1 8430   3.569   2.990   0.503
 2829TIP3    H2 8431   3.577   3.115   0.587
 2830TIP3   OH2 8432   7.130   2.867   5.872
 2830TIP3    H1 8433   7.091   2.954   5.871
 2830TIP3    H2 8434   7.221   2.881   5.847
 2831TIP3   OH2 8435   0.646   7.705   6.543
 2831TIP3    H1 8436   0.599   7.787   6.559
 2831TIP3    H2 8437   0.613   7.645   6.610
 2832TIP3   OH2 8438   3.679   4.558   3.579
 2832TIP3    H1 8439   3.623   4.602   3.643
 2832TIP3    H2 8440   3.651   4.466   3.582
 2833TIP3   OH2 8441   7.902   4.051   5.599
 2833TIP3    H1 8442   7.920   4.011   5.684
 2833TIP3    H2 8443   7.988   4.054   5.556
 2834TIP3   OH2 8444   4.656   6.061   4.066
 2834TIP3    H1 8445   4.562   6.044   4.066
 2834TIP3    H2 8446   4.696   5.974   4.069
 2835TIP3   OH2 8447   5.044   0.536   3.915
 2835TIP3    H1 8448   4.956   0.524   3.878
 2835TIP3    H2 8449   5.035   0.511   4.007
 2836TIP3   OH2 8450   2.336   3.753   2.192
 2836TIP3    H1 8451   2.395   3.822   2.163
 2836TIP3    H2 8452   2.393   3.684   2.224
 2837TIP3   OH2 8453   4.646   6.386   4.403
 2837TIP3    H1 8454   4.566   6.338   4.382
 2837TIP3    H2 8455   4.640   6.402   4.497
 2838TIP3   OH2 8456   0.505   4.983   4.900
 2838TIP3    H1 8457   0.490   5.072   4.932
 2838TIP3    H2 8458   0.600   4.971   4.904
 2839TIP3   OH2 8459   1.718   2.430   1.937
 2839TIP3    H1 8460   1.694   2.493   2.005
 2839TIP3    H2 8461   1.634   2.398   1.904
 2840TIP3   OH2 8462   3.709   0.639   3.964
 2840TIP3    H1 8463   3.654   0.688   4.025
 2840TIP3    H2 8464   3.713   0.694   3.886
 2841TIP3   OH2 8465   2.295   3.151   6.698
 2841TIP3    H1 8466   2.378   3.109   6.720
 2841TIP3    H2 8467   2.315   3.245   6.693
 2842TIP3   OH2 8468   7.625   4.311   6.060
 2842TIP3    H1 8469   7.559   4.381   6.055
 2842TIP3    H2 8470   7.667   4.311   5.974
 2843TIP3   OH2 8471   4.640   1.427   3.553
 2843TIP3    H1 8472   4.616   1.383   3.635
 2843TIP3    H2 8473   4.566   1.484   3.533
 2844TIP3   OH2 8474   4.348   3.498   5.911
 2844TIP3    H1 8475   4.363   3.571   5.972
 2844TIP3    H2 8476   4.398   3.425   5.948
 2845TIP3   OH2 8477   4.940   4.776   4.982
 2845TIP3    H1 8478   4.988   4.851   5.019
 2845TIP3    H2 8479   4.852   4.809   4.967
 2846TIP3   OH2 8480   7.556   5.590   3.693
 2846TIP3    H1 8481   7.496   5.657   3.725
 2846TIP3    H2 8482   7.527   5.573   3.603
 2847TIP3   OH2 8483   1.556   3.405   5.953
 2847TIP3    H1 8484   1.494   3.424   5.882
 2847TIP3    H2 8485   1.580   3.491   5.987
 2848TIP3   OH2 8486   7.527   0.872   2.181
 2848TIP3    H1 8487   7.542   0.953   2.229
 2848TIP3    H2 8488   7.565   0.804   2.237
 2849TIP3   OH2 8489   5.967   5.243   1.290
 2849TIP3    H1 8490   6.028   5.174   1.314
 2849TIP3    H2 8491   5.955   5.233   1.196
 2850TIP3   OH2 8492   0.987   0.973   3.328
 2850TIP3    H1 8493   0.910   0.950   3.276
 2850TIP3    H2 8494   1.032   0.890   3.343
 2851TIP3   OH2 8495   2.047   6.803   6.677
 2851TIP3    H1 8496   2.069   6.815   6.770
 2851TIP3    H2 8497   2.019   6.889   6.648
 2852TIP3   OH2 8498   5.010   0.178   6.311
 2852TIP3    H1 8499   5.053   0.251   6.354
 2852TIP3    H2 8500   4.925   0.212   6.284
 2853TIP3   OH2 8501   6.190   3.818   6.328
 2853TIP3    H1 8502   6.202   3.771   6.411
 2853TIP3    H2 8503   6.272   3.804   6.280
 2854TIP3   OH2 8504   4.913   3.057   4.609
 2854TIP3    H1 8505   4.834   3.092   4.566
 2854TIP3    H2 8506   4.880   2.987   4.665
 2855TIP3   OH2 8507   7.538   4.243   0.189
 2855TIP3    H1 8508   7.570   4.153   0.186
 2855TIP3    H2 8509   7.512   4.262   0.099
 2856TIP3   OH2 8510   5.004   6.131   0.580
 2856TIP3    H1 8511   5.084   6.096   0.620
 2856TIP3    H2 8512   4.998   6.220   0.613
 2857TIP3   OH2 8513   1.884   7.156   0.862
 2857TIP3    H1 8514   1.913   7.242   0.891
 2857TIP3    H2 8515   1.821   7.128   0.928
 2858TIP3   OH2 8516   8.106   7.628   0.999
 2858TIP3    H1 8517   8.138   7.693   1.061
 2858TIP3    H2 8518   8.185   7.598   0.953
 2859TIP3   OH2 8519   3.231   2.200   6.078
 2859TIP3    H1 8520   3.211   2.227   5.989
 2859TIP3    H2 8521   3.210   2.276   6.132
 2860TIP3   OH2 8522   2.848   1.295   0.442
 2860TIP3    H1 8523   2.755   1.296   0.421
 2860TIP3    H2 8524   2.891   1.327   0.362
 2861TIP3   OH2 8525   7.871   6.554   5.425
 2861TIP3    H1 8526   7.951   6.509   5.451
 2861TIP3    H2 8527   7.848   6.514   5.341
 2862TIP3   OH2 8528   8.101   6.032   0.745
 2862TIP3    H1 8529   8.192   6.002   0.748
 2862TIP3    H2 8530   8.056   5.979   0.810
 2863TIP3   OH2 8531   7.846   6.185   1.942
 2863TIP3    H1 8532   7.757   6.150   1.945
 2863TIP3    H2 8533   7.869   6.183   1.850
 2864TIP3   OH2 8534   0.576   3.361   4.098
 2864TIP3    H1 8535   0.569   3.456   4.091
 2864TIP3    H2 8536   0.670   3.344   4.092
 2865TIP3   OH2 8537   1.453   0.555   5.933
 2865TIP3    H1 8538   1.482   0.645   5.918
 2865TIP3    H2 8539   1.534   0.508   5.956
 2866TIP3   OH2 8540   2.172   0.404   5.339
 2866TIP3    H1 8541   2.231   0.329   5.337
 2866TIP3    H2 8542   2.093   0.374   5.293
 2867TIP3   OH2 8543   0.512   6.034   5.511
 2867TIP3    H1 8544   0.540   5.949   5.476
 2867TIP3    H2 8545   0.423   6.019   5.542
 2868TIP3   OH2 8546   4.998   6.283   2.313
 2868TIP3    H1 8547   4.959   6.228   2.246
 2868TIP3    H2 8548   5.081   6.312   2.276
 2869TIP3   OH2 8549   5.243   1.197   0.757
 2869TIP3    H1 8550   5.333   1.227   0.767
 2869TIP3    H2 8551   5.240   1.115   0.807
 2870TIP3   OH2 8552   7.765   4.136   2.929
 2870TIP3    H1 8553   7.807   4.059   2.968
 2870TIP3    H2 8554   7.830   4.171   2.868
 2871TIP3   OH2 8555   4.113   1.550   0.194
 2871TIP3    H1 8556   4.064   1.536   0.113
 2871TIP3    H2 8557   4.188   1.603   0.166
 2872TIP3   OH2 8558   6.400   0.373   2.433
 2872TIP3    H1 8559   6.368   0.429   2.504
 2872TIP3    H2 8560   6.327   0.367   2.372
 2873TIP3   OH2 8561   7.690   3.522   5.009
 2873TIP3    H1 8562   7.619   3.576   4.976
 2873TIP3    H2 8563   7.689   3.444   4.954
 2874TIP3   OH2 8564   7.516   1.515   1.061
 2874TIP3    H1 8565   7.583   1.583   1.059
 2874TIP3    H2 8566   7.564   1.434   1.046
 2875TIP3   OH2 8567   6.052   1.858   4.839
 2875TIP3    H1 8568   6.069   1.940   4.792
 2875TIP3    H2 8569   6.124   1.852   4.902
 2876TIP3   OH2 8570   0.851   5.732   2.997
 2876TIP3    H1 8571   0.759   5.746   3.018
 2876TIP3    H2 8572   0.850   5.674   2.920
 2877TIP3   OH2 8573   0.402   6.031   1.735
 2877TIP3    H1 8574   0.472   6.051   1.673
 2877TIP3    H2 8575   0.324   6.071   1.697
 2878TIP3   OH2 8576   1.346   1.045   1.691
 2878TIP3    H1 8577   1.379   0.958   1.670
 2878TIP3    H2 8578   1.299   1.034   1.774
 2879TIP3   OH2 8579   6.900   2.920   1.007
 2879TIP3    H1 8580   6.912   2.835   1.048
 2879TIP3    H2 8581   6.910   2.983   1.079
 2880TIP3   OH2 8582   3.299   4.791   5.253
 2880TIP3    H1 8583   3.350   4.742   5.189
 2880TIP3    H2 8584   3.215   4.744   5.258
 2881TIP3   OH2 8585   5.731   1.682   3.753
 2881TIP3    H1 8586   5.777   1.717   3.829
 2881TIP3    H2 8587   5.639   1.692   3.773
 2882TIP3   OH2 8588   1.175   4.747   0.586
 2882TIP3    H1 8589   1.099   4.705   0.627
 2882TIP3    H2 8590   1.199   4.687   0.515
 2883TIP3   OH2 8591   4.664   6.212   0.329
 2883TIP3    H1 8592   4.585   6.215   0.275
 2883TIP3    H2 8593   4.674   6.302   0.362
 2884TIP3   OH2 8594   7.418   7.536   5.045
 2884TIP3    H1 8595   7.441   7.476   5.116
 2884TIP3    H2 8596   7.490   7.530   4.983
 2885TIP3   OH2 8597   7.640   0.344   2.123
 2885TIP3    H1 8598   7.696   0.419   2.103
 2885TIP3    H2 8599   7.677   0.308   2.204
 2886TIP3   OH2 8600   3.791   1.070   4.011
 2886TIP3    H1 8601   3.801   1.105   4.099
 2886TIP3    H2 8602   3.879   1.045   3.985
 2887TIP3   OH2 8603   0.743   3.500   1.466
 2887TIP3    H1 8604   0.715   3.590   1.452
 2887TIP3    H2 8605   0.680   3.465   1.529
 2888TIP3   OH2 8606   1.487   1.315   5.733
 2888TIP3    H1 8607   1.550   1.298   5.803
 2888TIP3    H2 8608   1.415   1.360   5.777
 2889TIP3   OH2 8609   4.145   0.787   1.734
 2889TIP3    H1 8610   4.155   0.848   1.660
 2889TIP3    H2 8611   4.205   0.715   1.713
 2890TIP3   OH2 8612   1.991   5.808   2.801
 2890TIP3    H1 8613   2.040   5.733   2.833
 2890TIP3    H2 8614   2.048   5.883   2.817
 2891TIP3   OH2 8615   2.689   5.991   5.803
 2891TIP3    H1 8616   2.604   6.006   5.845
 2891TIP3    H2 8617   2.747   5.966   5.874
 2892TIP3   OH2 8618   2.040   1.076   4.152
 2892TIP3    H1 8619   1.951   1.042   4.153
 2892TIP3    H2 8620   2.076   1.046   4.068
 2893TIP3   OH2 8621   3.831   4.330   6.628
 2893TIP3    H1 8622   3.829   4.416   6.586
 2893TIP3    H2 8623   3.779   4.342   6.708
 2894TIP3   OH2 8624   4.289   5.986   2.855
 2894TIP3    H1 8625   4.334   5.930   2.791
 2894TIP3    H2 8626   4.212   5.936   2.881
 2895TIP3   OH2 8627   7.335   0.958   3.181
 2895TIP3    H1 8628   7.244   0.963   3.210
 2895TIP3    H2 8629   7.336   0.887   3.116
 2896TIP3   OH2 8630   7.311   4.543   3.753
 2896TIP3    H1 8631   7.319   4.638   3.752
 2896TIP3    H2 8632   7.243   4.525   3.819
 2897TIP3   OH2 8633   3.705   4.935   1.077
 2897TIP3    H1 8634   3.630   4.918   1.134
 2897TIP3    H2 8635   3.718   4.854   1.029
 2898TIP3   OH2 8636   6.977   5.845   4.822
 2898TIP3    H1 8637   7.061   5.883   4.849
 2898TIP3    H2 8638   6.935   5.819   4.904
 2899TIP3   OH2 8639   1.878   3.121   3.011
 2899TIP3    H1 8640   1.958   3.174   3.005
 2899TIP3    H2 8641   1.818   3.163   2.949
 2900TIP3   OH2 8642   1.567   6.816   6.576
 2900TIP3    H1 8643   1.540   6.903   6.548
 2900TIP3    H2 8644   1.580   6.767   6.494
 2901TIP3   OH2 8645   5.484   5.860   3.158
 2901TIP3    H1 8646   5.404   5.809   3.144
 2901TIP3    H2 8647   5.454   5.951   3.161
 2902TIP3   OH2 8648   5.759   2.212   3.091
 2902TIP3    H1 8649   5.848   2.247   3.085
 2902TIP3    H2 8650   5.763   2.128   3.044
 2903TIP3   OH2 8651   5.873   6.479   3.627
 2903TIP3    H1 8652   5.881   6.551   3.565
 2903TIP3    H2 8653   5.918   6.509   3.706
 2904TIP3   OH2 8654   3.573   2.270   6.233
 2904TIP3    H1 8655   3.613   2.191   6.269
 2904TIP3    H2 8656   3.553   2.248   6.142
 2905TIP3   OH2 8657   2.854   7.095   1.232
 2905TIP3    H1 8658   2.797   7.168   1.252
 2905TIP3    H2 8659   2.879   7.107   1.141
 2906TIP3   OH2 8660   2.344   6.104   4.585
 2906TIP3    H1 8661   2.290   6.180   4.565
 2906TIP3    H2 8662   2.348   6.102   4.681
 2907TIP3   OH2 8663   0.040   5.956   5.406
 2907TIP3    H1 8664   0.010   5.870   5.435
 2907TIP3    H2 8665   0.016   5.960   5.314
 2908TIP3   OH2 8666   3.033   5.550   3.485
 2908TIP3    H1 8667   3.097   5.479   3.480
 2908TIP3    H2 8668   3.038   5.593   3.399
 2909TIP3   OH2 8669   0.290   6.399   1.837
 2909TIP3    H1 8670   0.243   6.384   1.754
 2909TIP3    H2 8671   0.280   6.317   1.885
 2910TIP3   OH2 8672   0.483   6.530   2.740
 2910TIP3    H1 8673   0.573   6.515   2.713
 2910TIP3    H2 8674   0.436   6.545   2.658
 2911TIP3   OH2 8675   3.619   1.009   5.513
 2911TIP3    H1 8676   3.591   0.929   5.557
 2911TIP3    H2 8677   3.701   0.985   5.469
 2912TIP3   OH2 8678   4.859   0.645   5.306
 2912TIP3    H1 8679   4.792   0.705   5.274
 2912TIP3    H2 8680   4.892   0.685   5.386
 2913TIP3   OH2 8681   5.592   6.038   1.369
 2913TIP3    H1 8682   5.601   6.118   1.317
 2913TIP3    H2 8683   5.605   5.967   1.306
 2914TIP3   OH2 8684   4.936   5.172   4.138
 2914TIP3    H1 8685   4.969   5.109   4.074
 2914TIP3    H2 8686   4.905   5.117   4.211
 2915TIP3   OH2 8687   0.989   5.302   0.225
 2915TIP3    H1 8688   0.964   5.365   0.291
 2915TIP3    H2 8689   0.934   5.225   0.242
 2916TIP3   OH2 8690   6.894   0.229   1.653
 2916TIP3    H1 8691   6.873   0.193   1.567
 2916TIP3    H2 8692   6.814   0.217   1.704
 2917TIP3   OH2 8693   2.993   4.261   4.784
 2917TIP3    H1 8694   3.051   4.279   4.858
 2917TIP3    H2 8695   3.002   4.338   4.728
 2918TIP3   OH2 8696   0.104   6.017   2.956
 2918TIP3    H1 8697   0.163   5.973   2.895
 2918TIP3    H2 8698   0.065   6.088   2.905
 2919TIP3   OH2 8699   2.711   6.654   6.111
 2919TIP3    H1 8700   2.755   6.614   6.185
 2919TIP3    H2 8701   2.767   6.635   6.036
 2920TIP3   OH2 8702   3.947   4.637   6.050
 2920TIP3    H1 8703   3.999   4.588   6.113
 2920TIP3    H2 8704   3.932   4.723   6.091
 2921TIP3   OH2 8705   6.507   2.091   5.085
 2921TIP3    H1 8706   6.473   2.107   5.173
 2921TIP3    H2 8707   6.478   2.166   5.034
 2922TIP3   OH2 8708   6.572   7.493   2.611
 2922TIP3    H1 8709   6.563   7.480   2.705
 2922TIP3    H2 8710   6.658   7.455   2.590
 2923TIP3   OH2 8711   2.094   6.879   0.529
 2923TIP3    H1 8712   2.069   6.924   0.448
 2923TIP3    H2 8713   2.189   6.867   0.521
 2924TIP3   OH2 8714   0.943   0.293   0.821
 2924TIP3    H1 8715   0.863   0.343   0.839
 2924TIP3    H2 8716   0.975   0.267   0.908
 2925TIP3   OH2 8717   1.932   1.123   1.633
 2925TIP3    H1 8718   1.886   1.168   1.704
 2925TIP3    H2 8719   1.862   1.083   1.581
 2926TIP3   OH2 8720   5.656   7.104   6.668
 2926TIP3    H1 8721   5.597   7.136   6.736
 2926TIP3    H2 8722   5.726   7.170   6.665
 2927TIP3   OH2 8723   1.098   1.026   0.384
 2927TIP3    H1 8724   1.161   0.978   0.438
 2927TIP3    H2 8725   1.091   0.975   0.303
 2928TIP3   OH2 8726   5.749   7.134   3.208
 2928TIP3    H1 8727   5.763   7.078   3.132
 2928TIP3    H2 8728   5.833   7.177   3.223
 2929TIP3   OH2 8729   4.474   1.845   3.694
 2929TIP3    H1 8730   4.466   1.760   3.649
 2929TIP3    H2 8731   4.432   1.907   3.635
 2930TIP3   OH2 8732   0.189   1.653   3.097
 2930TIP3    H1 8733   0.278   1.658   3.062
 2930TIP3    H2 8734   0.169   1.743   3.124
 2931TIP3   OH2 8735   7.433   2.255   1.658
 2931TIP3    H1 8736   7.393   2.280   1.575
 2931TIP3    H2 8737   7.525   2.237   1.636
 2932TIP3   OH2 8738   3.927   5.609   3.127
 2932TIP3    H1 8739   3.887   5.522   3.137
 2932TIP3    H2 8740   3.961   5.629   3.214
 2933TIP3   OH2 8741   7.739   2.221   5.575
 2933TIP3    H1 8742   7.765   2.147   5.630
 2933TIP3    H2 8743   7.755   2.191   5.485
 2934TIP3   OH2 8744   3.185   3.929   2.853
 2934TIP3    H1 8745   3.134   3.999   2.814
 2934TIP3    H2 8746   3.270   3.934   2.810
 2935TIP3   OH2 8747   3.082   5.973   0.833
 2935TIP3    H1 8748   3.026   5.945   0.906
 2935TIP3    H2 8749   3.064   6.067   0.824
 2936TIP3   OH2 8750   5.962   1.299   6.420
 2936TIP3    H1 8751   5.958   1.213   6.461
 2936TIP3    H2 8752   5.901   1.353   6.469
 2937TIP3   OH2 8753   3.227   7.241   2.979
 2937TIP3    H1 8754   3.212   7.231   3.073
 2937TIP3    H2 8755   3.173   7.315   2.954
 2938TIP3   OH2 8756   6.510   1.325   1.228
 2938TIP3    H1 8757   6.436   1.281   1.187
 2938TIP3    H2 8758   6.570   1.255   1.252
 2939TIP3   OH2 8759   8.166   1.949   0.192
 2939TIP3    H1 8760   8.136   1.859   0.203
 2939TIP3    H2 8761   8.131   1.976   0.107
 2940TIP3   OH2 8762   4.153   2.919   3.969
 2940TIP3    H1 8763   4.212   2.866   3.915
 2940TIP3    H2 8764   4.153   3.005   3.928
 2941TIP3   OH2 8765   7.707   3.497   2.717
 2941TIP3    H1 8766   7.613   3.480   2.710
 2941TIP3    H2 8767   7.727   3.552   2.642
 2942TIP3   OH2 8768   5.361   0.292   1.309
 2942TIP3    H1 8769   5.300   0.219   1.297
 2942TIP3    H2 8770   5.444   0.259   1.277
 2943TIP3   OH2 8771   1.705   4.594   1.483
 2943TIP3    H1 8772   1.797   4.576   1.504
 2943TIP3    H2 8773   1.658   4.574   1.564
 2944TIP3   OH2 8774   1.013   5.583   3.152
 2944TIP3    H1 8775   0.943   5.621   3.098
 2944TIP3    H2 8776   1.047   5.658   3.202
 2945TIP3   OH2 8777   2.871   6.790   1.108
 2945TIP3    H1 8778   2.824   6.758   1.031
 2945TIP3    H2 8779   2.849   6.727   1.177
 2946TIP3   OH2 8780   4.620   7.152   4.294
 2946TIP3    H1 8781   4.617   7.063   4.259
 2946TIP3    H2 8782   4.661   7.142   4.380
 2947TIP3   OH2 8783   5.868   1.851   3.956
 2947TIP3    H1 8784   5.826   1.936   3.943
 2947TIP3    H2 8785   5.936   1.847   3.889
 2948TIP3   OH2 8786   6.142   3.157   4.922
 2948TIP3    H1 8787   6.182   3.076   4.954
 2948TIP3    H2 8788   6.083   3.184   4.992
 2949TIP3   OH2 8789   7.486   1.166   0.972
 2949TIP3    H1 8790   7.575   1.201   0.980
 2949TIP3    H2 8791   7.486   1.121   0.888
 2950TIP3   OH2 8792   5.420   5.757   5.365
 2950TIP3    H1 8793   5.473   5.772   5.443
 2950TIP3    H2 8794   5.485   5.749   5.294
 2951TIP3   OH2 8795   2.861   2.604   0.199
 2951TIP3    H1 8796   2.836   2.695   0.187
 2951TIP3    H2 8797   2.937   2.591   0.141
 2952TIP3   OH2 8798   2.732   5.885  -0.010
 2952TIP3    H1 8799   2.645   5.924  -0.003
 2952TIP3    H2 8800   2.759   5.871   0.081
 2953TIP3   OH2 8801   1.550   7.249   4.746
 2953TIP3    H1 8802   1.536   7.325   4.803
 2953TIP3    H2 8803   1.493   7.181   4.783
 2954TIP3   OH2 8804   2.767   6.470   3.294
 2954TIP3    H1 8805   2.726   6.548   3.257
 2954TIP3    H2 8806   2.780   6.412   3.218
 2955TIP3   OH2 8807   0.049   3.335   5.528
 2955TIP3    H1 8808   0.045   3.242   5.548
 2955TIP3    H2 8809  -0.031   3.372   5.566
 2956TIP3   OH2 8810   3.951   4.648   4.380
 2956TIP3    H1 8811   3.859   4.631   4.359
 2956TIP3    H2 8812   3.983   4.564   4.413
 2957TIP3   OH2 8813   4.685   2.968   5.951
 2957TIP3    H1 8814   4.761   3.022   5.927
 2957TIP3    H2 8815   4.645   2.945   5.867
 2958TIP3   OH2 8816   4.170   5.985   6.188
 2958TIP3    H1 8817   4.236   5.977   6.258
 2958TIP3    H2 8818   4.088   5.962   6.230
 2959TIP3   OH2 8819   3.399   4.338   6.398
 2959TIP3    H1 8820   3.463   4.289   6.346
 2959TIP3    H2 8821   3.315   4.319   6.357
 2960TIP3   OH2 8822   3.247   4.075   1.090
 2960TIP3    H1 8823   3.243   4.115   1.176
 2960TIP3    H2 8824   3.323   4.115   1.048
 2961TIP3   OH2 8825   2.093   2.665   3.748
 2961TIP3    H1 8826   1.999   2.654   3.760
 2961TIP3    H2 8827   2.123   2.701   3.832
 2962TIP3   OH2 8828   1.737   5.853   2.966
 2962TIP3    H1 8829   1.692   5.932   2.935
 2962TIP3    H2 8830   1.815   5.846   2.911
 2963TIP3   OH2 8831   0.892   5.631   1.232
 2963TIP3    H1 8832   0.966   5.647   1.290
 2963TIP3    H2 8833   0.927   5.574   1.164
 2964TIP3   OH2 8834   4.739   1.261   0.302
 2964TIP3    H1 8835   4.831   1.235   0.308
 2964TIP3    H2 8836   4.709   1.265   0.392
 2965TIP3   OH2 8837   1.849   4.797   2.182
 2965TIP3    H1 8838   1.832   4.879   2.228
 2965TIP3    H2 8839   1.787   4.798   2.108
 2966TIP3   OH2 8840   5.682   3.787   2.738
 2966TIP3    H1 8841   5.670   3.696   2.710
 2966TIP3    H2 8842   5.614   3.800   2.805
 2967TIP3   OH2 8843   3.428   6.993   2.790
 2967TIP3    H1 8844   3.402   6.977   2.699
 2967TIP3    H2 8845   3.512   6.948   2.798
 2968TIP3   OH2 8846   6.736   1.167   0.068
 2968TIP3    H1 8847   6.810   1.156   0.127
 2968TIP3    H2 8848   6.716   1.261   0.073
 2969TIP3   OH2 8849   0.080   5.923   0.695
 2969TIP3    H1 8850   0.031   5.920   0.612
 2969TIP3    H2 8851   0.137   5.847   0.692
 2970TIP3   OH2 8852   2.897   7.627   4.529
 2970TIP3    H1 8853   2.932   7.657   4.613
 2970TIP3    H2 8854   2.968   7.642   4.467
 2971TIP3   OH2 8855   0.446   6.782   3.465
 2971TIP3    H1 8856   0.508   6.807   3.397
 2971TIP3    H2 8857   0.361   6.779   3.420
 2972TIP3   OH2 8858   1.294   1.177   3.909
 2972TIP3    H1 8859   1.286   1.087   3.942
 2972TIP3    H2 8860   1.368   1.214   3.957
 2973TIP3   OH2 8861   1.427   5.343   2.249
 2973TIP3    H1 8862   1.477   5.425   2.257
 2973TIP3    H2 8863   1.481   5.288   2.193
 2974TIP3   OH2 8864   7.993   2.743   5.859
 2974TIP3    H1 8865   7.902   2.768   5.877
 2974TIP3    H2 8866   8.020   2.798   5.786
 2975TIP3   OH2 8867   0.495   0.125   0.206
 2975TIP3    H1 8868   0.425   0.190   0.202
 2975TIP3    H2 8869   0.501   0.101   0.298
 2976TIP3   OH2 8870   0.871   6.450   2.080
 2976TIP3    H1 8871   0.879   6.472   2.173
 2976TIP3    H2 8872   0.820   6.522   2.043
 2977TIP3   OH2 8873   5.410   0.674   2.444
 2977TIP3    H1 8874   5.316   0.671   2.426
 2977TIP3    H2 8875   5.434   0.583   2.461
 2978TIP3   OH2 8876   1.907   4.371   4.468
 2978TIP3    H1 8877   1.858   4.299   4.427
 2978TIP3    H2 8878   1.950   4.331   4.543
 2979TIP3   OH2 8879   3.656   6.028   2.742
 2979TIP3    H1 8880   3.712   6.036   2.820
 2979TIP3    H2 8881   3.710   6.061   2.670
 2980TIP3   OH2 8882   4.625   1.269   2.995
 2980TIP3    H1 8883   4.701   1.247   2.941
 2980TIP3    H2 8884   4.554   1.218   2.956
 2981TIP3   OH2 8885   3.954   6.778   3.441
 2981TIP3    H1 8886   4.020   6.835   3.479
 2981TIP3    H2 8887   3.907   6.742   3.516
 2982TIP3   OH2 8888   2.331   7.704   3.059
 2982TIP3    H1 8889   2.285   7.758   3.123
 2982TIP3    H2 8890   2.261   7.659   3.010
 2983TIP3   OH2 8891   0.386   6.283   4.616
 2983TIP3    H1 8892   0.319   6.271   4.683
 2983TIP3    H2 8893   0.469   6.281   4.666
 2984TIP3   OH2 8894   3.537   6.616   4.802
 2984TIP3    H1 8895   3.624   6.646   4.775
 2984TIP3    H2 8896   3.504   6.687   4.857
 2985TIP3   OH2 8897   0.984   6.255   0.979
 2985TIP3    H1 8898   0.999   6.350   0.982
 2985TIP3    H2 8899   1.005   6.225   1.068
 2986TIP3   OH2 8900   1.876   3.233   0.413
 2986TIP3    H1 8901   1.948   3.288   0.444
 2986TIP3    H2 8902   1.799   3.289   0.418
 2987TIP3   OH2 8903   4.762   7.617   0.494
 2987TIP3    H1 8904   4.723   7.703   0.506
 2987TIP3    H2 8905   4.800   7.595   0.579
 2988TIP3   OH2 8906   0.552   3.616   6.660
 2988TIP3    H1 8907   0.571   3.692   6.606
 2988TIP3    H2 8908   0.590   3.637   6.745
 2989TIP3   OH2 8909   6.372   1.441   3.868
 2989TIP3    H1 8910   6.285   1.410   3.846
 2989TIP3    H2 8911   6.406   1.478   3.786
 2990TIP3   OH2 8912   4.427   6.258   0.209
 2990TIP3    H1 8913   4.425   6.340   0.159
 2990TIP3    H2 8914   4.434   6.189   0.143
 2991TIP3   OH2 8915   1.968   4.942   0.725
 2991TIP3    H1 8916   1.997   4.997   0.652
 2991TIP3    H2 8917   1.873   4.941   0.718
 2992TIP3   OH2 8918   2.552   3.561   1.588
 2992TIP3    H1 8919   2.480   3.504   1.561
 2992TIP3    H2 8920   2.509   3.642   1.615
 2993TIP3   OH2 8921   2.861   6.498   0.358
 2993TIP3    H1 8922   2.883   6.437   0.428
 2993TIP3    H2 8923   2.933   6.488   0.295
 2994TIP3   OH2 8924   2.741   0.172   4.046
 2994TIP3    H1 8925   2.688   0.246   4.076
 2994TIP3    H2 8926   2.761   0.192   3.955
 2995TIP3   OH2 8927   2.057   2.159   4.314
 2995TIP3    H1 8928   2.039   2.162   4.408
 2995TIP3    H2 8929   1.983   2.205   4.275
 2996TIP3   OH2 8930   6.547   2.486   3.740
 2996TIP3    H1 8931   6.503   2.406   3.712
 2996TIP3    H2 8932   6.492   2.520   3.812
 2997TIP3   OH2 8933   2.619   5.351   0.224
 2997TIP3    H1 8934   2.696   5.398   0.191
 2997TIP3    H2 8935   2.551   5.418   0.228
 2998TIP3   OH2 8936   3.248   0.380   5.887
 2998TIP3    H1 8937   3.240   0.294   5.845
 2998TIP3    H2 8938   3.262   0.360   5.980
 2999TIP3   OH2 8939   4.937   7.400   1.162
 2999TIP3    H1 8940   4.902   7.375   1.076
 2999TIP3    H2 8941   4.909   7.330   1.220
 3000TIP3   OH2 8942   6.761   0.256   4.269
 3000TIP3    H1 8943   6.807   0.253   4.353
 3000TIP3    H2 8944   6.668   0.262   4.294
 3001TIP3   OH2 8945   3.046   6.269   0.763
 3001TIP3    H1 8946   3.117   6.330   0.780
 3001TIP3    H2 8947   2.970   6.306   0.809
 3002TIP3   OH2 8948   4.004   4.301   2.087
 3002TIP3    H1 8949   3.960   4.216   2.082
 3002TIP3    H2 8950   4.049   4.310   2.003
 3003TIP3   OH2 8951   7.978   5.740   6.658
 3003TIP3    H1 8952   8.060   5.786   6.674
 3003TIP3    H2 8953   7.958   5.695   6.740
 3004TIP3   OH2 8954   4.739   4.852   0.644
 3004TIP3    H1 8955   4.727   4.900   0.562
 3004TIP3    H2 8956   4.805   4.903   0.691
 3005TIP3   OH2 8957   7.478   0.740   6.491
 3005TIP3    H1 8958   7.391   0.724   6.456
 3005TIP3    H2 8959   7.537   0.691   6.433
 3006TIP3   OH2 8960   2.977   4.368   2.238
 3006TIP3    H1 8961   2.964   4.361   2.333
 3006TIP3    H2 8962   3.064   4.407   2.229
 3007TIP3   OH2 8963   3.330   0.769   0.129
 3007TIP3    H1 8964   3.308   0.735   0.216
 3007TIP3    H2 8965   3.425   0.763   0.124
 3008TIP3   OH2 8966   0.241   5.287   6.628
 3008TIP3    H1 8967   0.240   5.367   6.681
 3008TIP3    H2 8968   0.301   5.229   6.675
 3009TIP3   OH2 8969   0.077   5.593   2.072
 3009TIP3    H1 8970   0.092   5.582   2.166
 3009TIP3    H2 8971   0.149   5.650   2.044
 3010TIP3   OH2 8972   4.147   7.196   1.426
 3010TIP3    H1 8973   4.066   7.213   1.377
 3010TIP3    H2 8974   4.214   7.187   1.359
 3011TIP3   OH2 8975   5.998   3.958   1.683
 3011TIP3    H1 8976   6.070   3.975   1.621
 3011TIP3    H2 8977   5.975   4.044   1.718
 3012TIP3   OH2 8978   2.338   1.355   1.312
 3012TIP3    H1 8979   2.376   1.272   1.283
 3012TIP3    H2 8980   2.244   1.339   1.312
 3013TIP3   OH2 8981   1.600   6.344   0.741
 3013TIP3    H1 8982   1.620   6.419   0.686
 3013TIP3    H2 8983   1.541   6.379   0.808
 3014TIP3   OH2 8984   2.526   1.174   3.522
 3014TIP3    H1 8985   2.547   1.086   3.491
 3014TIP3    H2 8986   2.603   1.227   3.501
 3015TIP3   OH2 8987   7.605   1.133   2.278
 3015TIP3    H1 8988   7.608   1.115   2.371
 3015TIP3    H2 8989   7.661   1.209   2.266
 3016TIP3   OH2 8990   1.984   4.073   5.688
 3016TIP3    H1 8991   1.912   4.031   5.641
 3016TIP3    H2 8992   1.973   4.166   5.670
 3017TIP3   OH2 8993   6.857  -0.001   5.060
 3017TIP3    H1 8994   6.894   0.086   5.048
 3017TIP3    H2 8995   6.830  -0.028   4.972
 3018TIP3   OH2 8996   2.411   1.327   2.159
 3018TIP3    H1 8997   2.481   1.371   2.206
 3018TIP3    H2 8998   2.431   1.341   2.066
 3019TIP3   OH2 8999   4.402   4.492   4.226
 3019TIP3    H1 9000   4.343   4.551   4.274
 3019TIP3    H2 9001   4.368   4.491   4.137
 3020TIP3   OH2 9002   1.076   4.564   4.491
 3020TIP3    H1 9003   0.988   4.578   4.456
 3020TIP3    H2 9004   1.121   4.514   4.423
 3021TIP3   OH2 9005   5.459   7.275   1.088
 3021TIP3    H1 9006   5.399   7.266   1.015
 3021TIP3    H2 9007   5.405   7.258   1.166
 3022TIP3   OH2 9008   7.430   3.280   2.520
 3022TIP3    H1 9009   7.499   3.214   2.530
 3022TIP3    H2 9010   7.426   3.324   2.605
 3023TIP3   OH2 9011   8.195   1.123   2.694
 3023TIP3    H1 9012   8.169   1.187   2.760
 3023TIP3    H2 9013   8.174   1.165   2.610
 3024TIP3   OH2 9014   6.998   3.443   0.191
 3024TIP3    H1 9015   7.014   3.378   0.123
 3024TIP3    H2 9016   7.082   3.487   0.202
 3025TIP3   OH2 9017   7.499   0.957   4.823
 3025TIP3    H1 9018   7.469   0.866   4.821
 3025TIP3    H2 9019   7.568   0.962   4.757
 3026TIP3   OH2 9020   0.089   6.568   2.824
 3026TIP3    H1 9021   0.119   6.546   2.736
 3026TIP3    H2 9022  -0.006   6.582   2.814
 3027TIP3   OH2 9023   5.721   3.919   4.525
 3027TIP3    H1 9024   5.630   3.914   4.496
 3027TIP3    H2 9025   5.725   3.861   4.601
 3028TIP3   OH2 9026   1.623   2.719   3.146
 3028TIP3    H1 9027   1.676   2.639   3.137
 3028TIP3    H2 9028   1.682   2.781   3.188
 3029TIP3   OH2 9029   4.555   3.280   3.056
 3029TIP3    H1 9030   4.489   3.321   3.000
 3029TIP3    H2 9031   4.596   3.213   3.001
 3030TIP3   OH2 9032   8.082   7.467   3.044
 3030TIP3    H1 9033   8.165   7.445   3.001
 3030TIP3    H2 9034   8.045   7.536   2.989
 3031TIP3   OH2 9035   4.750   6.026   3.610
 3031TIP3    H1 9036   4.739   5.968   3.685
 3031TIP3    H2 9037   4.832   6.072   3.626
 3032TIP3   OH2 9038   6.986   3.230   4.857
 3032TIP3    H1 9039   7.046   3.158   4.840
 3032TIP3    H2 9040   6.983   3.279   4.775
 3033TIP3   OH2 9041   8.284   1.922   5.606
 3033TIP3    H1 9042   8.219   1.860   5.574
 3033TIP3    H2 9043   8.308   1.889   5.693
 3034TIP3   OH2 9044   2.350   5.681   2.935
 3034TIP3    H1 9045   2.443   5.662   2.939
 3034TIP3    H2 9046   2.344   5.759   2.878
 3035TIP3   OH2 9047   8.078   6.605   2.728
 3035TIP3    H1 9048   8.019   6.677   2.752
 3035TIP3    H2 9049   8.138   6.644   2.665
 3036TIP3   OH2 9050   5.012   3.561   4.063
 3036TIP3    H1 9051   4.956   3.598   4.131
 3036TIP3    H2 9052   4.955   3.553   3.987
 3037TIP3   OH2 9053   3.294   4.037   0.602
 3037TIP3    H1 9054   3.215   4.042   0.547
 3037TIP3    H2 9055   3.261   4.027   0.691
 3038TIP3   OH2 9056   1.044   3.141   2.331
 3038TIP3    H1 9057   1.134   3.163   2.307
 3038TIP3    H2 9058   1.034   3.049   2.307
 3039TIP3   OH2 9059   2.596   6.748   6.485
 3039TIP3    H1 9060   2.532   6.682   6.508
 3039TIP3    H2 9061   2.552   6.804   6.420
 3040TIP3   OH2 9062   1.714   1.285   3.178
 3040TIP3    H1 9063   1.763   1.218   3.226
 3040TIP3    H2 9064   1.749   1.368   3.209
 3041TIP3   OH2 9065   4.870   0.783   2.184
 3041TIP3    H1 9066   4.906   0.822   2.264
 3041TIP3    H2 9067   4.837   0.857   2.134
 3042TIP3   OH2 9068   0.882   5.895   1.137
 3042TIP3    H1 9069   0.895   5.800   1.133
 3042TIP3    H2 9070   0.910   5.927   1.051
 3043TIP3   OH2 9071   6.290   0.344   0.841
 3043TIP3    H1 9072   6.294   0.317   0.933
 3043TIP3    H2 9073   6.197   0.355   0.823
 3044TIP3   OH2 9074   1.907   7.807   2.997
 3044TIP3    H1 9075   1.949   7.760   3.069
 3044TIP3    H2 9076   1.830   7.848   3.037
 3045TIP3   OH2 9077   7.547   0.532   5.966
 3045TIP3    H1 9078   7.616   0.586   6.004
 3045TIP3    H2 9079   7.471   0.548   6.022
 3046TIP3   OH2 9080   8.000   0.815   6.530
 3046TIP3    H1 9081   7.909   0.810   6.502
 3046TIP3    H2 9082   8.005   0.755   6.605
 3047TIP3   OH2 9083   0.774   3.300   5.360
 3047TIP3    H1 9084   0.811   3.257   5.436
 3047TIP3    H2 9085   0.720   3.233   5.317
 3048TIP3   OH2 9086   1.371   4.164   0.872
 3048TIP3    H1 9087   1.382   4.207   0.787
 3048TIP3    H2 9088   1.369   4.235   0.936
 3049TIP3   OH2 9089   8.115   0.834   2.320
 3049TIP3    H1 9090   8.057   0.764   2.351
 3049TIP3    H2 9091   8.169   0.856   2.396
 3050TIP3   OH2 9092   5.525   7.171   1.663
 3050TIP3    H1 9093   5.512   7.101   1.726
 3050TIP3    H2 9094   5.618   7.193   1.672
 3051TIP3   OH2 9095   7.582   7.505   0.067
 3051TIP3    H1 9096   7.590   7.430   0.126
 3051TIP3    H2 9097   7.536   7.571   0.119
 3052TIP3   OH2 9098   6.210   4.864   4.198
 3052TIP3    H1 9099   6.143   4.833   4.137
 3052TIP3    H2 9100   6.169   4.858   4.284
 3053TIP3   OH2 9101   4.584   3.987   1.211
 3053TIP3    H1 9102   4.530   3.924   1.258
 3053TIP3    H2 9103   4.523   4.055   1.183
 3054TIP3   OH2 9104   7.040   6.872   1.515
 3054TIP3    H1 9105   7.044   6.778   1.498
 3054TIP3    H2 9106   7.082   6.883   1.600
 3055TIP3   OH2 9107   5.239   3.617   6.541
 3055TIP3    H1 9108   5.265   3.585   6.454
 3055TIP3    H2 9109   5.320   3.647   6.581
 3056TIP3   OH2 9110   1.733   7.528   3.579
 3056TIP3    H1 9111   1.808   7.469   3.576
 3056TIP3    H2 9112   1.663   7.474   3.616
 3057TIP3   OH2 9113   3.620   5.870   5.986
 3057TIP3    H1 9114   3.542   5.836   5.942
 3057TIP3    H2 9115   3.588   5.896   6.072
 3058TIP3   OH2 9116   3.811   6.822   4.702
 3058TIP3    H1 9117   3.856   6.786   4.626
 3058TIP3    H2 9118   3.772   6.904   4.671
 3059TIP3   OH2 9119   1.829   3.913   2.228
 3059TIP3    H1 9120   1.760   3.885   2.168
 3059TIP3    H2 9121   1.872   3.986   2.184
 3060TIP3   OH2 9122   2.993   4.396   3.616
 3060TIP3    H1 9123   2.981   4.434   3.703
 3060TIP3    H2 9124   3.087   4.392   3.604
 3061TIP3   OH2 9125   1.527   4.942   2.931
 3061TIP3    H1 9126   1.526   4.929   2.836
 3061TIP3    H2 9127   1.618   4.963   2.951
 3062TIP3   OH2 9128   2.529   0.498   0.835
 3062TIP3    H1 9129   2.624   0.499   0.823
 3062TIP3    H2 9130   2.513   0.437   0.906
 3063TIP3   OH2 9131   0.081   2.277   4.954
 3063TIP3    H1 9132   0.053   2.341   5.020
 3063TIP3    H2 9133   0.164   2.311   4.921
 3064TIP3   OH2 9134   4.979   3.425   4.523
 3064TIP3    H1 9135   5.010   3.515   4.532
 3064TIP3    H2 9136   4.973   3.393   4.613
 3065TIP3   OH2 9137   5.671   7.729   2.963
 3065TIP3    H1 9138   5.578   7.753   2.959
 3065TIP3    H2 9139   5.675   7.642   2.922
 3066TIP3   OH2 9140   1.404   0.384   4.362
 3066TIP3    H1 9141   1.416   0.299   4.402
 3066TIP3    H2 9142   1.359   0.436   4.428
 3067TIP3   OH2 9143   5.935   1.719   4.620
 3067TIP3    H1 9144   6.003   1.666   4.579
 3067TIP3    H2 9145   5.965   1.731   4.710
 3068TIP3   OH2 9146   7.458   4.637   2.690
 3068TIP3    H1 9147   7.515   4.626   2.614
 3068TIP3    H2 9148   7.518   4.635   2.765
 3069TIP3   OH2 9149   8.143   1.696   2.384
 3069TIP3    H1 9150   8.158   1.604   2.361
 3069TIP3    H2 9151   8.055   1.697   2.421
 3070TIP3   OH2 9152   2.787   4.947   4.543
 3070TIP3    H1 9153   2.723   4.890   4.587
 3070TIP3    H2 9154   2.741   4.980   4.466
 3071TIP3   OH2 9155   1.015   0.387   1.656
 3071TIP3    H1 9156   1.008   0.482   1.645
 3071TIP3    H2 9157   0.939   0.363   1.709
 3072TIP3   OH2 9158   4.233   4.776   6.107
 3072TIP3    H1 9159   4.169   4.830   6.060
 3072TIP3    H2 9160   4.289   4.839   6.153
 3073TIP3   OH2 9161   5.666   6.413   4.230
 3073TIP3    H1 9162   5.729   6.356   4.273
 3073TIP3    H2 9163   5.588   6.358   4.216
 3074TIP3   OH2 9164   2.016   7.654   3.188
 3074TIP3    H1 9165   2.054   7.568   3.208
 3074TIP3    H2 9166   2.070   7.716   3.238
 3075TIP3   OH2 9167   1.078   1.861   2.709
 3075TIP3    H1 9168   1.165   1.895   2.730
 3075TIP3    H2 9169   1.094   1.774   2.672
 3076TIP3   OH2 9170   7.194   7.497   5.935
 3076TIP3    H1 9171   7.103   7.488   5.907
 3076TIP3    H2 9172   7.243   7.509   5.854
 3077TIP3   OH2 9173   1.201   5.316   4.636
 3077TIP3    H1 9174   1.211   5.391   4.577
 3077TIP3    H2 9175   1.290   5.284   4.650
 3078TIP3   OH2 9176   6.036   2.598   4.224
 3078TIP3    H1 9177   6.006   2.647   4.147
 3078TIP3    H2 9178   6.064   2.666   4.286
 3079TIP3   OH2 9179   3.523   5.277   2.312
 3079TIP3    H1 9180   3.440   5.322   2.326
 3079TIP3    H2 9181   3.559   5.317   2.232
 3080TIP3   OH2 9182   5.362   4.197   6.287
 3080TIP3    H1 9183   5.336   4.250   6.363
 3080TIP3    H2 9184   5.451   4.168   6.307
 3081TIP3   OH2 9185   8.048   4.907   4.534
 3081TIP3    H1 9186   7.972   4.961   4.555
 3081TIP3    H2 9187   8.122   4.968   4.534
 3082TIP3   OH2 9188   3.135   4.324   2.519
 3082TIP3    H1 9189   3.093   4.247   2.557
 3082TIP3    H2 9190   3.157   4.379   2.594
 3083TIP3   OH2 9191   6.485   3.137   1.790
 3083TIP3    H1 9192   6.498   3.190   1.712
 3083TIP3    H2 9193   6.469   3.200   1.860
 3084TIP3   OH2 9194   3.430   4.014   0.289
 3084TIP3    H1 9195   3.366   3.943   0.300
 3084TIP3    H2 9196   3.384   4.077   0.233
 3085TIP3   OH2 9197   6.327   3.708   1.854
 3085TIP3    H1 9198   6.293   3.775   1.794
 3085TIP3    H2 9199   6.315   3.745   1.941
 3086TIP3   OH2 9200   6.997   5.919   5.555
 3086TIP3    H1 9201   7.031   6.009   5.555
 3086TIP3    H2 9202   7.065   5.868   5.599
 3087TIP3   OH2 9203   6.753   4.022   1.725
 3087TIP3    H1 9204   6.794   3.944   1.688
 3087TIP3    H2 9205   6.676   4.036   1.670
 3088TIP3   OH2 9206   5.354   3.828   0.281
 3088TIP3    H1 9207   5.385   3.841   0.371
 3088TIP3    H2 9208   5.429   3.790   0.235
 3089TIP3   OH2 9209   7.970   7.404   1.055
 3089TIP3    H1 9210   7.934   7.363   0.976
 3089TIP3    H2 9211   8.016   7.482   1.022
 3090TIP3   OH2 9212   3.897   5.883   4.878
 3090TIP3    H1 9213   3.827   5.932   4.834
 3090TIP3    H2 9214   3.958   5.861   4.807
 3091TIP3   OH2 9215   1.312   7.610   1.050
 3091TIP3    H1 9216   1.361   7.691   1.062
 3091TIP3    H2 9217   1.302   7.575   1.139
 3092TIP3   OH2 9218   7.303   4.071   5.419
 3092TIP3    H1 9219   7.355   4.015   5.363
 3092TIP3    H2 9220   7.309   4.031   5.506
 3093TIP3   OH2 9221   8.210   6.792   2.588
 3093TIP3    H1 9222   8.279   6.826   2.530
 3093TIP3    H2 9223   8.158   6.869   2.611
 3094TIP3   OH2 9224   0.592   5.477   5.668
 3094TIP3    H1 9225   0.668   5.427   5.640
 3094TIP3    H2 9226   0.615   5.511   5.754
 3095TIP3   OH2 9227   4.987   3.818   6.350
 3095TIP3    H1 9228   4.968   3.730   6.317
 3095TIP3    H2 9229   5.066   3.845   6.302
 3096TIP3   OH2 9230   4.059   5.001   0.899
 3096TIP3    H1 9231   4.148   5.035   0.887
 3096TIP3    H2 9232   4.005   5.053   0.839
 3097TIP3   OH2 9233   0.087   1.920   6.304
 3097TIP3    H1 9234   0.029   1.863   6.252
 3097TIP3    H2 9235   0.167   1.926   6.252
 3098TIP3   OH2 9236   2.483   2.586   5.378
 3098TIP3    H1 9237   2.436   2.528   5.438
 3098TIP3    H2 9238   2.565   2.540   5.358
 3099TIP3   OH2 9239   3.951   2.783   4.708
 3099TIP3    H1 9240   3.965   2.697   4.667
 3099TIP3    H2 9241   4.030   2.797   4.761
 3100TIP3   OH2 9242   7.411   6.150   2.110
 3100TIP3    H1 9243   7.364   6.209   2.169
 3100TIP3    H2 9244   7.493   6.131   2.156
 3101TIP3   OH2 9245   4.726   0.360   3.966
 3101TIP3    H1 9246   4.790   0.367   4.037
 3101TIP3    H2 9247   4.744   0.436   3.910
 3102TIP3   OH2 9248   1.982   1.306   0.322
 3102TIP3    H1 9249   1.927   1.312   0.401
 3102TIP3    H2 9250   2.044   1.236   0.341
 3103TIP3   OH2 9251   8.157   4.969   2.195
 3103TIP3    H1 9252   8.083   4.988   2.253
 3103TIP3    H2 9253   8.141   4.879   2.166
 3104TIP3   OH2 9254   4.434   4.437   2.023
 3104TIP3    H1 9255   4.432   4.405   2.113
 3104TIP3    H2 9256   4.345   4.426   1.991
 3105TIP3   OH2 9257   3.958   1.514   5.658
 3105TIP3    H1 9258   4.025   1.504   5.591
 3105TIP3    H2 9259   3.923   1.426   5.670
 3106TIP3   OH2 9260   5.520   5.629   4.383
 3106TIP3    H1 9261   5.450   5.594   4.328
 3106TIP3    H2 9262   5.500   5.722   4.391
 3107TIP3   OH2 9263   4.947   1.369   0.571
 3107TIP3    H1 9264   4.966   1.461   0.552
 3107TIP3    H2 9265   4.856   1.357   0.542
 3108TIP3   OH2 9266   1.648   0.352   0.004
 3108TIP3    H1 9267   1.575   0.302  -0.033
 3108TIP3    H2 9268   1.711   0.285   0.033
 3109TIP3   OH2 9269   4.576   5.592   5.982
 3109TIP3    H1 9270   4.517   5.667   5.978
 3109TIP3    H2 9271   4.652   5.619   5.930
 3110TIP3   OH2 9272   2.976   3.615   2.148
 3110TIP3    H1 9273   2.962   3.698   2.194
 3110TIP3    H2 9274   2.888   3.582   2.132
 3111TIP3   OH2 9275   2.288   5.275   6.281
 3111TIP3    H1 9276   2.356   5.300   6.219
 3111TIP3    H2 9277   2.222   5.229   6.229
 3112TIP3   OH2 9278   5.786   0.802   4.838
 3112TIP3    H1 9279   5.736   0.845   4.908
 3112TIP3    H2 9280   5.863   0.858   4.828
 3113TIP3   OH2 9281   3.115   5.990   4.631
 3113TIP3    H1 9282   3.176   6.019   4.699
 3113TIP3    H2 9283   3.155   6.020   4.549
 3114TIP3   OH2 9284   1.233   2.943   2.561
 3114TIP3    H1 9285   1.148   2.979   2.585
 3114TIP3    H2 9286   1.265   3.002   2.493
 3115TIP3   OH2 9287   4.671   0.595   3.581
 3115TIP3    H1 9288   4.637   0.681   3.555
 3115TIP3    H2 9289   4.601   0.556   3.633
 3116TIP3   OH2 9290   6.683   6.767   1.826
 3116TIP3    H1 9291   6.773   6.764   1.857
 3116TIP3    H2 9292   6.652   6.676   1.833
 3117TIP3   OH2 9293   2.678   6.345   5.901
 3117TIP3    H1 9294   2.760   6.354   5.950
 3117TIP3    H2 9295   2.612   6.334   5.969
 3118TIP3   OH2 9296   3.875   5.290   2.181
 3118TIP3    H1 9297   3.811   5.347   2.137
 3118TIP3    H2 9298   3.931   5.259   2.110
 3119TIP3   OH2 9299   7.743   4.926   6.006
 3119TIP3    H1 9300   7.714   4.935   6.097
 3119TIP3    H2 9301   7.814   4.989   5.997
 3120TIP3   OH2 9302   5.798   3.283   5.440
 3120TIP3    H1 9303   5.731   3.216   5.451
 3120TIP3    H2 9304   5.838   3.263   5.355
 3121TIP3   OH2 9305   2.953   0.416   4.210
 3121TIP3    H1 9306   3.023   0.364   4.171
 3121TIP3    H2 9307   2.995   0.498   4.235
 3122TIP3   OH2 9308   6.607   6.104   4.974
 3122TIP3    H1 9309   6.678   6.042   4.986
 3122TIP3    H2 9310   6.643   6.172   4.916
 3123TIP3   OH2 9311   0.580   4.167   3.825
 3123TIP3    H1 9312   0.502   4.175   3.771
 3123TIP3    H2 9313   0.561   4.219   3.903
 3124TIP3   OH2 9314   7.702   5.459   6.664
 3124TIP3    H1 9315   7.762   5.415   6.604
 3124TIP3    H2 9316   7.627   5.484   6.609
 3125TIP3   OH2 9317   6.051   2.631   1.142
 3125TIP3    H1 9318   6.123   2.689   1.121
 3125TIP3    H2 9319   6.048   2.629   1.238
 3126TIP3   OH2 9320   1.524   2.288   4.634
 3126TIP3    H1 9321   1.566   2.279   4.549
 3126TIP3    H2 9322   1.491   2.200   4.654
 3127TIP3   OH2 9323   0.086   1.578   4.978
 3127TIP3    H1 9324   0.044   1.512   4.923
 3127TIP3    H2 9325   0.088   1.657   4.924
 3128TIP3   OH2 9326   5.247   5.811   5.791
 3128TIP3    H1 9327   5.256   5.824   5.885
 3128TIP3    H2 9328   5.215   5.895   5.758
 3129TIP3   OH2 9329   5.729   6.315   2.183
 3129TIP3    H1 9330   5.816   6.282   2.206
 3129TIP3    H2 9331   5.706   6.267   2.104
 3130TIP3   OH2 9332   4.873   0.134   6.787
 3130TIP3    H1 9333   4.882   0.039   6.783
 3130TIP3    H2 9334   4.817   0.157   6.712
 3131TIP3   OH2 9335   4.586   3.763   4.295
 3131TIP3    H1 9336   4.597   3.800   4.207
 3131TIP3    H2 9337   4.576   3.839   4.352
 3132TIP3   OH2 9338   4.664   4.295   2.275
 3132TIP3    H1 9339   4.720   4.347   2.333
 3132TIP3    H2 9340   4.607   4.246   2.334
 3133TIP3   OH2 9341   3.323   6.965   3.093
 3133TIP3    H1 9342   3.303   6.928   3.007
 3133TIP3    H2 9343   3.415   6.992   3.086
 3134TIP3   OH2 9344   0.355   1.524   1.126
 3134TIP3    H1 9345   0.363   1.532   1.030
 3134TIP3    H2 9346   0.438   1.558   1.159
 3135TIP3   OH2 9347   7.185   1.889   0.843
 3135TIP3    H1 9348   7.233   1.806   0.854
 3135TIP3    H2 9349   7.095   1.862   0.823
 3136TIP3   OH2 9350   3.078   4.028   4.635
 3136TIP3    H1 9351   3.147   4.065   4.580
 3136TIP3    H2 9352   3.040   4.103   4.680
 3137TIP3   OH2 9353   0.832   1.067   1.339
 3137TIP3    H1 9354   0.868   1.024   1.262
 3137TIP3    H2 9355   0.750   1.107   1.308
 3138TIP3   OH2 9356   7.006   5.987   0.914
 3138TIP3    H1 9357   6.928   5.955   0.959
 3138TIP3    H2 9358   7.078   5.935   0.951
 3139TIP3   OH2 9359   8.208   3.266   4.931
 3139TIP3    H1 9360   8.287   3.229   4.970
 3139TIP3    H2 9361   8.137   3.233   4.985
 3140TIP3   OH2 9362   8.025   2.825   1.919
 3140TIP3    H1 9363   8.064   2.849   1.834
 3140TIP3    H2 9364   8.021   2.730   1.917
 3141TIP3   OH2 9365   3.854   5.351   3.108
 3141TIP3    H1 9366   3.811   5.274   3.145
 3141TIP3    H2 9367   3.787   5.393   3.054
 3142TIP3   OH2 9368   3.812   0.973   0.995
 3142TIP3    H1 9369   3.769   1.037   0.938
 3142TIP3    H2 9370   3.896   0.956   0.954
 3143TIP3   OH2 9371   0.241   5.303   1.915
 3143TIP3    H1 9372   0.223   5.229   1.858
 3143TIP3    H2 9373   0.178   5.370   1.888
 3144TIP3   OH2 9374   7.006   3.324   3.360
 3144TIP3    H1 9375   6.984   3.247   3.308
 3144TIP3    H2 9376   7.041   3.387   3.296
 3145TIP3   OH2 9377   6.067   2.737   3.038
 3145TIP3    H1 9378   6.135   2.784   3.087
 3145TIP3    H2 9379   6.005   2.805   3.011
 3146TIP3   OH2 9380   1.988   6.644   2.849
 3146TIP3    H1 9381   2.043   6.722   2.842
 3146TIP3    H2 9382   1.900   6.674   2.827
 3147TIP3   OH2 9383   7.809   2.274   1.976
 3147TIP3    H1 9384   7.827   2.344   2.039
 3147TIP3    H2 9385   7.720   2.291   1.946
 3148TIP3   OH2 9386   7.720   4.984   2.039
 3148TIP3    H1 9387   7.806   4.971   1.997
 3148TIP3    H2 9388   7.710   4.907   2.095
 3149TIP3   OH2 9389   7.404   2.141   1.391
 3149TIP3    H1 9390   7.416   2.181   1.304
 3149TIP3    H2 9391   7.474   2.077   1.398
 3150TIP3   OH2 9392   2.411   6.587   4.668
 3150TIP3    H1 9393   2.445   6.603   4.756
 3150TIP3    H2 9394   2.488   6.559   4.618
 3151TIP3   OH2 9395   2.451   7.613   5.870
 3151TIP3    H1 9396   2.533   7.591   5.828
 3151TIP3    H2 9397   2.471   7.691   5.922
 3152TIP3   OH2 9398   2.362   2.769   2.486
 3152TIP3    H1 9399   2.371   2.829   2.412
 3152TIP3    H2 9400   2.413   2.810   2.556
 3153TIP3   OH2 9401   4.602   7.765   2.938
 3153TIP3    H1 9402   4.642   7.834   2.886
 3153TIP3    H2 9403   4.532   7.731   2.883
 3154TIP3   OH2 9404   3.394   5.719   1.249
 3154TIP3    H1 9405   3.476   5.745   1.209
 3154TIP3    H2 9406   3.358   5.652   1.190
 3155TIP3   OH2 9407   3.137   4.874   6.644
 3155TIP3    H1 9408   3.144   4.790   6.689
 3155TIP3    H2 9409   3.205   4.929   6.683
 3156TIP3   OH2 9410   7.113   3.506   2.137
 3156TIP3    H1 9411   7.172   3.469   2.072
 3156TIP3    H2 9412   7.031   3.519   2.090
 3157TIP3   OH2 9413   2.292   6.186   5.758
 3157TIP3    H1 9414   2.320   6.278   5.765
 3157TIP3    H2 9415   2.240   6.182   5.678
 3158TIP3   OH2 9416   1.634   3.701   4.570
 3158TIP3    H1 9417   1.682   3.702   4.488
 3158TIP3    H2 9418   1.596   3.789   4.577
 3159TIP3   OH2 9419   6.496   2.430   4.341
 3159TIP3    H1 9420   6.430   2.482   4.294
 3159TIP3    H2 9421   6.494   2.344   4.298
 3160TIP3   OH2 9422   7.427   2.266   6.013
 3160TIP3    H1 9423   7.332   2.264   5.996
 3160TIP3    H2 9424   7.434   2.255   6.108
 3161TIP3   OH2 9425   2.460   7.332   6.161
 3161TIP3    H1 9426   2.513   7.383   6.222
 3161TIP3    H2 9427   2.408   7.275   6.217
 3162TIP3   OH2 9428   0.906   0.688   3.567
 3162TIP3    H1 9429   0.929   0.633   3.492
 3162TIP3    H2 9430   0.858   0.630   3.626
 3163TIP3   OH2 9431   2.146   0.685   4.953
 3163TIP3    H1 9432   2.096   0.606   4.934
 3163TIP3    H2 9433   2.082   0.745   4.993
 3164TIP3   OH2 9434   7.040   1.778   1.521
 3164TIP3    H1 9435   6.950   1.806   1.538
 3164TIP3    H2 9436   7.038   1.744   1.432
 3165TIP3   OH2 9437   3.943   0.231   4.962
 3165TIP3    H1 9438   3.906   0.162   5.016
 3165TIP3    H2 9439   3.978   0.186   4.885
 3166TIP3   OH2 9440   1.674   1.774   6.041
 3166TIP3    H1 9441   1.726   1.854   6.051
 3166TIP3    H2 9442   1.599   1.787   6.099
 3167TIP3   OH2 9443   3.773   3.728   1.320
 3167TIP3    H1 9444   3.685   3.759   1.342
 3167TIP3    H2 9445   3.764   3.686   1.235
 3168TIP3   OH2 9446   4.303   5.841   4.954
 3168TIP3    H1 9447   4.248   5.794   5.017
 3168TIP3    H2 9448   4.384   5.859   5.001
 3169TIP3   OH2 9449   6.742   4.005   4.349
 3169TIP3    H1 9450   6.760   3.990   4.256
 3169TIP3    H2 9451   6.825   3.990   4.393
 3170TIP3   OH2 9452   2.727   4.571   1.175
 3170TIP3    H1 9453   2.724   4.653   1.224
 3170TIP3    H2 9454   2.763   4.596   1.090
 3171TIP3   OH2 9455   0.278   6.669   0.505
 3171TIP3    H1 9456   0.268   6.584   0.547
 3171TIP3    H2 9457   0.298   6.648   0.413
 3172TIP3   OH2 9458   6.850   4.031   2.282
 3172TIP3    H1 9459   6.871   4.121   2.304
 3172TIP3    H2 9460   6.842   3.986   2.366
 3173TIP3   OH2 9461   6.682   1.250   6.621
 3173TIP3    H1 9462   6.728   1.330   6.593
 3173TIP3    H2 9463   6.745   1.180   6.605
 3174TIP3   OH2 9464   5.742   1.551   5.464
 3174TIP3    H1 9465   5.679   1.602   5.514
 3174TIP3    H2 9466   5.712   1.558   5.374
 3175TIP3   OH2 9467   0.511   7.376   0.708
 3175TIP3    H1 9468   0.435   7.434   0.701
 3175TIP3    H2 9469   0.517   7.356   0.802
 3176TIP3   OH2 9470   3.485   0.966   3.104
 3176TIP3    H1 9471   3.470   0.899   3.037
 3176TIP3    H2 9472   3.544   0.924   3.166
 3177TIP3   OH2 9473   1.349   6.712   4.760
 3177TIP3    H1 9474   1.323   6.772   4.689
 3177TIP3    H2 9475   1.433   6.746   4.790
 3178TIP3   OH2 9476   5.540   7.138   5.648
 3178TIP3    H1 9477   5.542   7.211   5.709
 3178TIP3    H2 9478   5.632   7.122   5.627
 3179TIP3   OH2 9479   3.610   5.893   1.502
 3179TIP3    H1 9480   3.647   5.945   1.431
 3179TIP3    H2 9481   3.548   5.951   1.545
 3180TIP3   OH2 9482   4.971   6.097   4.911
 3180TIP3    H1 9483   5.017   6.148   4.844
 3180TIP3    H2 9484   4.879   6.103   4.887
 3181TIP3   OH2 9485   1.103   4.327   2.371
 3181TIP3    H1 9486   1.158   4.317   2.293
 3181TIP3    H2 9487   1.059   4.243   2.381
 3182TIP3   OH2 9488   8.200   2.902   5.192
 3182TIP3    H1 9489   8.114   2.881   5.229
 3182TIP3    H2 9490   8.187   2.901   5.098
 3183TIP3   OH2 9491   7.973   6.639   0.703
 3183TIP3    H1 9492   7.984   6.706   0.770
 3183TIP3    H2 9493   7.911   6.577   0.740
 3184TIP3   OH2 9494   0.355   4.197   6.589
 3184TIP3    H1 9495   0.325   4.195   6.680
 3184TIP3    H2 9496   0.395   4.284   6.579
 3185TIP3   OH2 9497   3.270   1.214   2.254
 3185TIP3    H1 9498   3.225   1.243   2.333
 3185TIP3    H2 9499   3.217   1.141   2.221
 3186TIP3   OH2 9500   7.357   6.655   5.747
 3186TIP3    H1 9501   7.381   6.722   5.810
 3186TIP3    H2 9502   7.266   6.633   5.769
 3187TIP3   OH2 9503   1.482   5.252   1.538
 3187TIP3    H1 9504   1.555   5.201   1.503
 3187TIP3    H2 9505   1.514   5.286   1.622
 3188TIP3   OH2 9506   5.072   1.922   2.498
 3188TIP3    H1 9507   5.018   2.000   2.481
 3188TIP3    H2 9508   5.161   1.956   2.503
 3189TIP3   OH2 9509   6.154   5.139   5.039
 3189TIP3    H1 9510   6.110   5.148   4.955
 3189TIP3    H2 9511   6.231   5.195   5.031
 3190TIP3   OH2 9512   3.457   5.166   1.263
 3190TIP3    H1 9513   3.540   5.151   1.308
 3190TIP3    H2 9514   3.433   5.081   1.227
 3191TIP3   OH2 9515   2.309   3.692   4.738
 3191TIP3    H1 9516   2.312   3.670   4.645
 3191TIP3    H2 9517   2.224   3.657   4.768
 3192TIP3   OH2 9518   7.991   5.279   2.123
 3192TIP3    H1 9519   8.059   5.244   2.067
 3192TIP3    H2 9520   7.995   5.374   2.109
 3193TIP3   OH2 9521   2.991   5.448   5.663
 3193TIP3    H1 9522   3.033   5.362   5.653
 3193TIP3    H2 9523   3.040   5.490   5.735
 3194TIP3   OH2 9524   0.423   4.874   6.555
 3194TIP3    H1 9525   0.495   4.930   6.526
 3194TIP3    H2 9526   0.426   4.798   6.497
 3195TIP3   OH2 9527   4.502   1.174   4.697
 3195TIP3    H1 9528   4.438   1.237   4.663
 3195TIP3    H2 9529   4.574   1.177   4.634
 3196TIP3   OH2 9530   6.616   1.214   3.921
 3196TIP3    H1 9531   6.661   1.142   3.876
 3196TIP3    H2 9532   6.526   1.208   3.891
 3197TIP3   OH2 9533   2.077   0.521   1.487
 3197TIP3    H1 9534   2.067   0.438   1.441
 3197TIP3    H2 9535   2.172   0.536   1.487
 3198TIP3   OH2 9536   6.333   7.355   6.427
 3198TIP3    H1 9537   6.313   7.381   6.337
 3198TIP3    H2 9538   6.406   7.293   6.418
 3199TIP3   OH2 9539   6.892   2.756   3.553
 3199TIP3    H1 9540   6.931   2.699   3.620
 3199TIP3    H2 9541   6.801   2.725   3.546
 3200TIP3   OH2 9542   0.759   6.567   0.261
 3200TIP3    H1 9543   0.672   6.602   0.238
 3200TIP3    H2 9544   0.769   6.491   0.204
 3201TIP3   OH2 9545   1.830   2.282   6.603
 3201TIP3    H1 9546   1.903   2.286   6.665
 3201TIP3    H2 9547   1.864   2.232   6.529
 3202TIP3   OH2 9548   1.128   4.059   4.194
 3202TIP3    H1 9549   1.137   4.118   4.119
 3202TIP3    H2 9550   1.214   4.060   4.236
 3203TIP3   OH2 9551   3.228   6.136   5.447
 3203TIP3    H1 9552   3.284   6.120   5.523
 3203TIP3    H2 9553   3.207   6.050   5.413
 3204TIP3   OH2 9554   5.671   2.185   1.463
 3204TIP3    H1 9555   5.670   2.225   1.550
 3204TIP3    H2 9556   5.754   2.215   1.425
 3205TIP3   OH2 9557   2.102   2.964   5.059
 3205TIP3    H1 9558   2.007   2.963   5.075
 3205TIP3    H2 9559   2.140   2.964   5.147
 3206TIP3   OH2 9560   5.856   4.036   2.476
 3206TIP3    H1 9561   5.919   4.099   2.442
 3206TIP3    H2 9562   5.783   4.089   2.507
 3207TIP3   OH2 9563   0.786   0.637   4.619
 3207TIP3    H1 9564   0.856   0.613   4.559
 3207TIP3    H2 9565   0.782   0.565   4.681
 3208TIP3   OH2 9566   3.231   4.688   4.700
 3208TIP3    H1 9567   3.315   4.712   4.739
 3208TIP3    H2 9568   3.176   4.765   4.714
 3209TIP3   OH2 9569   7.860   2.822   6.419
 3209TIP3    H1 9570   7.791   2.858   6.475
 3209TIP3    H2 9571   7.814   2.759   6.363
 3210TIP3   OH2 9572   7.832   0.288   1.223
 3210TIP3    H1 9573   7.738   0.284   1.240
 3210TIP3    H2 9574   7.853   0.203   1.186
 3211TIP3   OH2 9575   3.947   4.268   4.583
 3211TIP3    H1 9576   3.879   4.233   4.640
 3211TIP3    H2 9577   3.928   4.232   4.496
 3212TIP3   OH2 9578   7.754   6.317   0.203
 3212TIP3    H1 9579   7.727   6.333   0.112
 3212TIP3    H2 9580   7.672   6.315   0.252
 3213TIP3   OH2 9581   1.091   0.744   3.818
 3213TIP3    H1 9582   1.040   0.675   3.862
 3213TIP3    H2 9583   1.163   0.697   3.776
 3214TIP3   OH2 9584   7.286   4.667   1.628
 3214TIP3    H1 9585   7.196   4.699   1.616
 3214TIP3    H2 9586   7.300   4.670   1.722
 3215TIP3   OH2 9587   2.585   6.959   4.059
 3215TIP3    H1 9588   2.565   6.872   4.093
 3215TIP3    H2 9589   2.574   7.017   4.135
 3216TIP3   OH2 9590   1.828   1.059   5.563
 3216TIP3    H1 9591   1.839   1.154   5.556
 3216TIP3    H2 9592   1.887   1.033   5.634
 3217TIP3   OH2 9593   3.822   0.482   6.657
 3217TIP3    H1 9594   3.815   0.452   6.747
 3217TIP3    H2 9595   3.864   0.410   6.611
 3218TIP3   OH2 9596   7.684   3.734   5.452
 3218TIP3    H1 9597   7.695   3.741   5.547
 3218TIP3    H2 9598   7.763   3.775   5.416
 3219TIP3   OH2 9599   0.970   0.518   2.020
 3219TIP3    H1 9600   0.966   0.569   2.101
 3219TIP3    H2 9601   1.028   0.445   2.041
 3220TIP3   OH2 9602   5.760   2.183   1.015
 3220TIP3    H1 9603   5.780   2.203   0.923
 3220TIP3    H2 9604   5.731   2.267   1.052
 3221TIP3   OH2 9605   7.492   4.260   3.337
 3221TIP3    H1 9606   7.457   4.291   3.253
 3221TIP3    H2 9607   7.506   4.341   3.387
 3222TIP3   OH2 9608   7.327   1.850   4.945
 3222TIP3    H1 9609   7.351   1.923   5.002
 3222TIP3    H2 9610   7.262   1.886   4.885
 3223TIP3   OH2 9611   0.970   0.948   2.126
 3223TIP3    H1 9612   0.957   1.023   2.068
 3223TIP3    H2 9613   1.033   0.892   2.079
 3224TIP3   OH2 9614   0.759   2.782   4.284
 3224TIP3    H1 9615   0.773   2.743   4.370
 3224TIP3    H2 9616   0.723   2.869   4.303
 3225TIP3   OH2 9617   7.659   3.168   6.084
 3225TIP3    H1 9618   7.591   3.228   6.052
 3225TIP3    H2 9619   7.660   3.181   6.179
 3226TIP3   OH2 9620   0.643   5.537   1.262
 3226TIP3    H1 9621   0.670   5.461   1.313
 3226TIP3    H2 9622   0.724   5.586   1.248
 3227TIP3   OH2 9623   4.299   1.084   0.934
 3227TIP3    H1 9624   4.381   1.045   0.902
 3227TIP3    H2 9625   4.326   1.139   1.008
 3228TIP3   OH2 9626   1.102   5.704   1.655
 3228TIP3    H1 9627   1.093   5.734   1.565
 3228TIP3    H2 9628   1.013   5.677   1.680
 3229TIP3   OH2 9629   5.942   2.191   6.496
 3229TIP3    H1 9630   5.863   2.151   6.533
 3229TIP3    H2 9631   5.931   2.285   6.510
 3230TIP3   OH2 9632   3.988   4.850   2.378
 3230TIP3    H1 9633   3.916   4.863   2.316
 3230TIP3    H2 9634   4.067   4.857   2.324
 3231TIP3   OH2 9635   0.846   5.980   6.457
 3231TIP3    H1 9636   0.773   5.921   6.440
 3231TIP3    H2 9637   0.893   5.986   6.374
 3232TIP3   OH2 9638   0.908   3.745   1.718
 3232TIP3    H1 9639   0.920   3.650   1.716
 3232TIP3    H2 9640   0.814   3.756   1.736
 3233TIP3   OH2 9641   4.035   4.308   1.308
 3233TIP3    H1 9642   4.117   4.356   1.316
 3233TIP3    H2 9643   4.055   4.220   1.340
 3234TIP3   OH2 9644   1.918   2.090   2.286
 3234TIP3    H1 9645   1.954   2.032   2.218
 3234TIP3    H2 9646   1.928   2.178   2.251
 3235TIP3   OH2 9647   0.555   3.626   4.040
 3235TIP3    H1 9648   0.531   3.700   4.097
 3235TIP3    H2 9649   0.625   3.659   3.985
 3236TIP3   OH2 9650   0.671   4.978   5.141
 3236TIP3    H1 9651   0.726   5.057   5.142
 3236TIP3    H2 9652   0.600   4.998   5.202
 3237TIP3   OH2 9653   5.100   3.973   4.403
 3237TIP3    H1 9654   5.027   3.970   4.465
 3237TIP3    H2 9655   5.136   3.884   4.404
 3238TIP3   OH2 9656   2.228   3.971   2.375
 3238TIP3    H1 9657   2.134   3.988   2.372
 3238TIP3    H2 9658   2.235   3.876   2.364
 3239TIP3   OH2 9659   0.324   4.804   6.099
 3239TIP3    H1 9660   0.342   4.840   6.012
 3239TIP3    H2 9661   0.410   4.778   6.132
 3240TIP3   OH2 9662   0.100   3.682   5.253
 3240TIP3    H1 9663   0.097   3.696   5.158
 3240TIP3    H2 9664   0.106   3.587   5.263
 3241TIP3   OH2 9665   5.290   5.798   1.231
 3241TIP3    H1 9666   5.220   5.849   1.272
 3241TIP3    H2 9667   5.278   5.709   1.263
 3242TIP3   OH2 9668   1.852   4.188   4.061
 3242TIP3    H1 9669   1.799   4.209   4.138
 3242TIP3    H2 9670   1.942   4.197   4.092
 3243TIP3   OH2 9671   2.025   0.976   3.069
 3243TIP3    H1 9672   1.995   0.988   2.979
 3243TIP3    H2 9673   2.093   0.908   3.063
 3244TIP3   OH2 9674   7.658   7.245   4.856
 3244TIP3    H1 9675   7.633   7.154   4.872
 3244TIP3    H2 9676   7.750   7.241   4.831
 3245TIP3   OH2 9677   4.994   7.364   2.349
 3245TIP3    H1 9678   5.047   7.316   2.287
 3245TIP3    H2 9679   4.951   7.432   2.297
 3246TIP3   OH2 9680   6.023   4.644   2.949
 3246TIP3    H1 9681   5.992   4.656   2.860
 3246TIP3    H2 9682   5.967   4.701   3.002
 3247TIP3   OH2 9683   1.039   2.314   3.409
 3247TIP3    H1 9684   1.114   2.310   3.470
 3247TIP3    H2 9685   1.076   2.349   3.328
 3248TIP3   OH2 9686   7.605   5.075   0.148
 3248TIP3    H1 9687   7.557   5.043   0.224
 3248TIP3    H2 9688   7.599   5.170   0.153
 3249TIP3   OH2 9689   7.014   6.054   3.454
 3249TIP3    H1 9690   7.063   6.033   3.533
 3249TIP3    H2 9691   6.968   5.973   3.432
 3250TIP3   OH2 9692   4.961   1.673   1.330
 3250TIP3    H1 9693   4.910   1.739   1.282
 3250TIP3    H2 9694   5.010   1.723   1.395
 3251TIP3   OH2 9695   1.904   4.644   5.964
 3251TIP3    H1 9696   1.943   4.587   6.031
 3251TIP3    H2 9697   1.977   4.669   5.908
 3252TIP3   OH2 9698   7.634   2.462   5.962
 3252TIP3    H1 9699   7.609   2.527   5.895
 3252TIP3    H2 9700   7.553   2.415   5.981
 3253TIP3   OH2 9701   5.842   1.575   6.144
 3253TIP3    H1 9702   5.878   1.487   6.136
 3253TIP3    H2 9703   5.891   1.614   6.217
 3254TIP3   OH2 9704   1.294   4.421   5.658
 3254TIP3    H1 9705   1.372   4.373   5.684
 3254TIP3    H2 9706   1.231   4.405   5.728
 3255TIP3   OH2 9707   7.348   7.156   3.449
 3255TIP3    H1 9708   7.322   7.135   3.539
 3255TIP3    H2 9709   7.333   7.250   3.440
 3256TIP3   OH2 9710   5.174   4.280   3.304
 3256TIP3    H1 9711   5.248   4.267   3.245
 3256TIP3    H2 9712   5.126   4.197   3.301
 3257TIP3   OH2 9713   5.970   5.513   6.136
 3257TIP3    H1 9714   5.929   5.551   6.214
 3257TIP3    H2 9715   5.933   5.563   6.063
 3258TIP3   OH2 9716   4.077   5.854   2.969
 3258TIP3    H1 9717   4.018   5.870   3.043
 3258TIP3    H2 9718   4.141   5.791   3.003
 3259TIP3   OH2 9719   2.211   5.672   4.160
 3259TIP3    H1 9720   2.125   5.706   4.185
 3259TIP3    H2 9721   2.198   5.635   4.073
 3260TIP3   OH2 9722   4.470   6.738   5.291
 3260TIP3    H1 9723   4.515   6.758   5.209
 3260TIP3    H2 9724   4.414   6.813   5.308
 3261TIP3   OH2 9725   4.824   3.377   6.011
 3261TIP3    H1 9726   4.834   3.294   5.965
 3261TIP3    H2 9727   4.872   3.441   5.958
 3262TIP3   OH2 9728   0.402   1.680   4.016
 3262TIP3    H1 9729   0.329   1.618   4.009
 3262TIP3    H2 9730   0.480   1.626   4.002
 3263TIP3   OH2 9731   4.921   2.229   1.245
 3263TIP3    H1 9732   4.831   2.213   1.276
 3263TIP3    H2 9733   4.975   2.173   1.301
 3264TIP3   OH2 9734   4.364   2.531   5.932
 3264TIP3    H1 9735   4.326   2.465   5.875
 3264TIP3    H2 9736   4.405   2.594   5.872
 3265TIP3   OH2 9737   3.699   4.971   0.011
 3265TIP3    H1 9738   3.631   5.036   0.027
 3265TIP3    H2 9739   3.655   4.887   0.023
 3266TIP3   OH2 9740   4.049   3.170   0.066
 3266TIP3    H1 9741   4.038   3.133  -0.022
 3266TIP3    H2 9742   4.127   3.128   0.100
 3267TIP3   OH2 9743   4.410   6.730   4.174
 3267TIP3    H1 9744   4.323   6.689   4.170
 3267TIP3    H2 9745   4.447   6.698   4.256
 3268TIP3   OH2 9746   6.456   6.998   5.841
 3268TIP3    H1 9747   6.492   6.919   5.801
 3268TIP3    H2 9748   6.513   7.068   5.809
 3269TIP3   OH2 9749   1.577   5.198   4.080
 3269TIP3    H1 9750   1.567   5.136   4.153
 3269TIP3    H2 9751   1.633   5.153   4.017
 3270TIP3   OH2 9752   2.262   5.418   5.915
 3270TIP3    H1 9753   2.271   5.329   5.881
 3270TIP3    H2 9754   2.316   5.471   5.857
 3271TIP3   OH2 9755   5.819   2.809   6.162
 3271TIP3    H1 9756   5.823   2.788   6.256
 3271TIP3    H2 9757   5.788   2.728   6.121
 3272TIP3   OH2 9758   1.491   1.321   0.746
 3272TIP3    H1 9759   1.405   1.355   0.771
 3272TIP3    H2 9760   1.486   1.227   0.763
 3273TIP3   OH2 9761   7.084   5.698   1.278
 3273TIP3    H1 9762   7.119   5.735   1.359
 3273TIP3    H2 9763   7.161   5.678   1.225
 3274TIP3   OH2 9764   4.966   3.016   6.243
 3274TIP3    H1 9765   4.944   2.946   6.181
 3274TIP3    H2 9766   5.024   3.074   6.194
 3275TIP3   OH2 9767   1.963   4.046   0.483
 3275TIP3    H1 9768   1.895   4.112   0.466
 3275TIP3    H2 9769   2.007   4.035   0.398
 3276TIP3   OH2 9770   4.176   0.155   2.034
 3276TIP3    H1 9771   4.241   0.100   2.075
 3276TIP3    H2 9772   4.202   0.158   1.941
 3277TIP3   OH2 9773   1.687   0.333   5.908
 3277TIP3    H1 9774   1.711   0.301   5.995
 3277TIP3    H2 9775   1.712   0.262   5.848
 3278TIP3   OH2 9776   0.609   7.151   3.308
 3278TIP3    H1 9777   0.560   7.195   3.377
 3278TIP3    H2 9778   0.557   7.073   3.286
 3279TIP3   OH2 9779   7.126   7.390   5.082
 3279TIP3    H1 9780   7.203   7.337   5.058
 3279TIP3    H2 9781   7.135   7.469   5.029
 3280TIP3   OH2 9782   1.079   2.623   1.047
 3280TIP3    H1 9783   1.080   2.588   0.958
 3280TIP3    H2 9784   1.152   2.686   1.049
 3281TIP3   OH2 9785   8.087   3.013   6.621
 3281TIP3    H1 9786   8.143   2.964   6.560
 3281TIP3    H2 9787   8.140   3.089   6.646
 3282TIP3   OH2 9788   5.642   5.904   5.198
 3282TIP3    H1 9789   5.648   5.938   5.109
 3282TIP3    H2 9790   5.577   5.960   5.240
 3283TIP3   OH2 9791   0.298   3.913   0.108
 3283TIP3    H1 9792   0.220   3.872   0.070
 3283TIP3    H2 9793   0.275   3.928   0.200
 3284TIP3   OH2 9794   8.063   7.000   0.061
 3284TIP3    H1 9795   8.044   7.009  -0.033
 3284TIP3    H2 9796   7.976   6.991   0.102
 3285TIP3   OH2 9797   1.398   0.855   3.294
 3285TIP3    H1 9798   1.305   0.832   3.292
 3285TIP3    H2 9799   1.399   0.946   3.324
 3286TIP3   OH2 9800   2.018   2.575   6.368
 3286TIP3    H1 9801   2.087   2.633   6.337
 3286TIP3    H2 9802   2.032   2.569   6.463
 3287TIP3   OH2 9803   2.159   6.480   1.411
 3287TIP3    H1 9804   2.171   6.567   1.449
 3287TIP3    H2 9805   2.107   6.495   1.332
 3288TIP3   OH2 9806   7.429   2.782   4.954
 3288TIP3    H1 9807   7.336   2.762   4.947
 3288TIP3    H2 9808   7.449   2.831   4.874
 3289TIP3   OH2 9809   5.261   0.231   3.221
 3289TIP3    H1 9810   5.284   0.220   3.313
 3289TIP3    H2 9811   5.177   0.278   3.223
 3290TIP3   OH2 9812   3.519   6.132   5.048
 3290TIP3    H1 9813   3.459   6.145   5.121
 3290TIP3    H2 9814   3.550   6.042   5.058
 3291TIP3   OH2 9815   4.535   0.629   0.139
 3291TIP3    H1 9816   4.579   0.707   0.173
 3291TIP3    H2 9817   4.590   0.556   0.167
 3292TIP3   OH2 9818   3.188   5.718   4.760
 3292TIP3    H1 9819   3.144   5.744   4.679
 3292TIP3    H2 9820   3.281   5.735   4.743
 3293TIP3   OH2 9821   7.729   5.738   6.179
 3293TIP3    H1 9822   7.699   5.655   6.142
 3293TIP3    H2 9823   7.652   5.773   6.224
 3294TIP3   OH2 9824   6.276   1.564   6.565
 3294TIP3    H1 9825   6.348   1.596   6.620
 3294TIP3    H2 9826   6.239   1.491   6.614
 3295TIP3   OH2 9827   3.155   5.859   6.458
 3295TIP3    H1 9828   3.181   5.777   6.417
 3295TIP3    H2 9829   3.212   5.925   6.417
 3296TIP3   OH2 9830   5.544   3.799   2.970
 3296TIP3    H1 9831   5.513   3.719   3.013
 3296TIP3    H2 9832   5.591   3.847   3.038
 3297TIP3   OH2 9833   1.740   0.434   2.408
 3297TIP3    H1 9834   1.712   0.499   2.344
 3297TIP3    H2 9835   1.769   0.486   2.483
 3298TIP3   OH2 9836   2.987   2.173   5.459
 3298TIP3    H1 9837   2.940   2.108   5.511
 3298TIP3    H2 9838   2.932   2.188   5.382
 3299TIP3   OH2 9839   7.825   3.109   4.079
 3299TIP3    H1 9840   7.856   3.080   4.165
 3299TIP3    H2 9841   7.749   3.053   4.061
 3300TIP3   OH2 9842   3.781   4.429   5.360
 3300TIP3    H1 9843   3.726   4.358   5.393
 3300TIP3    H2 9844   3.868   4.390   5.354
 3301TIP3   OH2 9845   5.487   4.623   3.822
 3301TIP3    H1 9846   5.502   4.717   3.833
 3301TIP3    H2 9847   5.574   4.586   3.812
 3302TIP3   OH2 9848   1.277   3.550   1.323
 3302TIP3    H1 9849   1.327   3.625   1.290
 3302TIP3    H2 9850   1.250   3.503   1.244
 3303TIP3   OH2 9851   4.885   7.705   2.470
 3303TIP3    H1 9852   4.887   7.770   2.540
 3303TIP3    H2 9853   4.914   7.753   2.392
 3304TIP3   OH2 9854   3.394   3.363   1.689
 3304TIP3    H1 9855   3.406   3.270   1.673
 3304TIP3    H2 9856   3.393   3.371   1.784
 3305TIP3   OH2 9857   6.192   6.840   5.322
 3305TIP3    H1 9858   6.222   6.895   5.394
 3305TIP3    H2 9859   6.271   6.794   5.292
 3306TIP3   OH2 9860   1.542   6.047   4.638
 3306TIP3    H1 9861   1.601   6.017   4.707
 3306TIP3    H2 9862   1.599   6.061   4.562
 3307TIP3   OH2 9863   2.696   5.947   4.614
 3307TIP3    H1 9864   2.642   5.939   4.536
 3307TIP3    H2 9865   2.636   5.975   4.683
 3308TIP3   OH2 9866   2.211   1.979   0.766
 3308TIP3    H1 9867   2.136   2.038   0.759
 3308TIP3    H2 9868   2.214   1.954   0.858
 3309TIP3   OH2 9869   4.468   0.470   3.710
 3309TIP3    H1 9870   4.473   0.374   3.705
 3309TIP3    H2 9871   4.401   0.486   3.777
 3310TIP3   OH2 9872   1.783   5.077   5.371
 3310TIP3    H1 9873   1.715   5.123   5.323
 3310TIP3    H2 9874   1.804   5.134   5.444
 3311TIP3   OH2 9875   7.714   7.281   5.717
 3311TIP3    H1 9876   7.761   7.202   5.692
 3311TIP3    H2 9877   7.780   7.337   5.759
 3312TIP3   OH2 9878   5.709   4.089   1.515
 3312TIP3    H1 9879   5.623   4.055   1.538
 3312TIP3    H2 9880   5.754   4.016   1.474
 3313TIP3   OH2 9881   1.347   5.419   1.372
 3313TIP3    H1 9882   1.420   5.372   1.413
 3313TIP3    H2 9883   1.373   5.511   1.375
 3314TIP3   OH2 9884   0.729   2.463   0.690
 3314TIP3    H1 9885   0.725   2.483   0.784
 3314TIP3    H2 9886   0.810   2.412   0.680
 3315TIP3   OH2 9887   0.174   1.465   2.385
 3315TIP3    H1 9888   0.233   1.405   2.339
 3315TIP3    H2 9889   0.173   1.433   2.475
 3316TIP3   OH2 9890   4.774   2.285   3.454
 3316TIP3    H1 9891   4.787   2.332   3.536
 3316TIP3    H2 9892   4.769   2.193   3.480
 3317TIP3   OH2 9893   2.780   4.193   3.516
 3317TIP3    H1 9894   2.830   4.214   3.595
 3317TIP3    H2 9895   2.832   4.229   3.444
 3318TIP3   OH2 9896   1.236   3.495   3.589
 3318TIP3    H1 9897   1.231   3.399   3.585
 3318TIP3    H2 9898   1.264   3.521   3.501
 3319TIP3   OH2 9899   5.814   7.335   4.337
 3319TIP3    H1 9900   5.726   7.306   4.361
 3319TIP3    H2 9901   5.804   7.427   4.314
 3320TIP3   OH2 9902   5.964   2.437   4.682
 3320TIP3    H1 9903   6.001   2.414   4.597
 3320TIP3    H2 9904   6.039   2.468   4.733
 3321TIP3   OH2 9905   4.997   3.753   4.538
 3321TIP3    H1 9906   5.068   3.771   4.600
 3321TIP3    H2 9907   4.920   3.795   4.578
 3322TIP3   OH2 9908   7.595   3.190   3.815
 3322TIP3    H1 9909   7.566   3.115   3.868
 3322TIP3    H2 9910   7.529   3.195   3.745
 3323TIP3   OH2 9911   7.940   5.402   2.768
 3323TIP3    H1 9912   7.907   5.456   2.839
 3323TIP3    H2 9913   8.019   5.361   2.804
 3324TIP3   OH2 9914   7.044   5.821   0.496
 3324TIP3    H1 9915   7.002   5.756   0.440
 3324TIP3    H2 9916   7.118   5.774   0.536
 3325TIP3   OH2 9917   3.702   3.326   1.464
 3325TIP3    H1 9918   3.649   3.402   1.491
 3325TIP3    H2 9919   3.715   3.276   1.544
 3326TIP3   OH2 9920   0.025   2.806   0.447
 3326TIP3    H1 9921   0.111   2.788   0.484
 3326TIP3    H2 9922  -0.016   2.864   0.511
 3327TIP3   OH2 9923   7.733   4.605   4.584
 3327TIP3    H1 9924   7.780   4.606   4.668
 3327TIP3    H2 9925   7.645   4.576   4.606
 3328TIP3   OH2 9926   5.058   5.226   3.209
 3328TIP3    H1 9927   5.146   5.204   3.239
 3328TIP3    H2 9928   5.062   5.214   3.114
 3329TIP3   OH2 9929   7.868   2.001   2.076
 3329TIP3    H1 9930   7.829   2.074   2.028
 3329TIP3    H2 9931   7.871   2.031   2.167
 3330TIP3   OH2 9932   3.430   0.348   3.303
 3330TIP3    H1 9933   3.431   0.289   3.378
 3330TIP3    H2 9934   3.517   0.341   3.265
 3331TIP3   OH2 9935   0.074   5.351   4.543
 3331TIP3    H1 9936   0.128   5.430   4.532
 3331TIP3    H2 9937  -0.007   5.370   4.496
 3332TIP3   OH2 9938   3.657   4.711   4.116
 3332TIP3    H1 9939   3.718   4.746   4.181
 3332TIP3    H2 9940   3.583   4.772   4.117
 3333TIP3   OH2 9941   2.508   0.878   5.428
 3333TIP3    H1 9942   2.487   0.957   5.479
 3333TIP3    H2 9943   2.438   0.816   5.451
 3334TIP3   OH2 9944   5.783   0.233   1.067
 3334TIP3    H1 9945   5.836   0.160   1.036
 3334TIP3    H2 9946   5.837   0.276   1.133
 3335TIP3   OH2 9947   1.609   5.045   1.244
 3335TIP3    H1 9948   1.646   5.001   1.320
 3335TIP3    H2 9949   1.662   5.016   1.170
 3336TIP3   OH2 9950   7.232   5.874   6.470
 3336TIP3    H1 9951   7.323   5.888   6.496
 3336TIP3    H2 9952   7.188   5.846   6.550
 3337TIP3   OH2 9953   6.579   1.788   4.448
 3337TIP3    H1 9954   6.594   1.850   4.520
 3337TIP3    H2 9955   6.492   1.752   4.466
 3338TIP3   OH2 9956   0.703   1.655   0.213
 3338TIP3    H1 9957   0.758   1.620   0.283
 3338TIP3    H2 9958   0.730   1.606   0.135
 3339TIP3   OH2 9959   3.721   3.538   3.056
 3339TIP3    H1 9960   3.789   3.582   3.106
 3339TIP3    H2 9961   3.703   3.458   3.104
 3340TIP3   OH2 9962   3.507   3.810   2.011
 3340TIP3    H1 9963   3.542   3.749   2.076
 3340TIP3    H2 9964   3.459   3.876   2.062
 3341TIP3   OH2 9965   0.554   0.792   3.376
 3341TIP3    H1 9966   0.602   0.830   3.302
 3341TIP3    H2 9967   0.515   0.712   3.340
 3342TIP3   OH2 9968   3.795   1.279   5.639
 3342TIP3    H1 9969   3.816   1.241   5.553
 3342TIP3    H2 9970   3.718   1.230   5.669
 3343TIP3   OH2 9971   1.653   4.565   0.417
 3343TIP3    H1 9972   1.708   4.550   0.494
 3343TIP3    H2 9973   1.715   4.566   0.344
 3344TIP3   OH2 9974   3.124   2.739   1.284
 3344TIP3    H1 9975   3.080   2.654   1.295
 3344TIP3    H2 9976   3.057   2.804   1.307
 3345TIP3   OH2 9977   4.918   3.007   4.962
 3345TIP3    H1 9978   5.005   2.971   4.947
 3345TIP3    H2 9979   4.932   3.081   5.021
 3346TIP3   OH2 9980   0.792   1.557   5.982
 3346TIP3    H1 9981   0.702   1.533   5.963
 3346TIP3    H2 9982   0.831   1.575   5.896
 3347TIP3   OH2 9983   0.647   2.003   1.953
 3347TIP3    H1 9984   0.621   1.925   2.003
 3347TIP3    H2 9985   0.707   1.969   1.887
 3348TIP3   OH2 9986   2.385   2.363   5.552
 3348TIP3    H1 9987   2.293   2.365   5.524
 3348TIP3    H2 9988   2.394   2.282   5.601
 3349TIP3   OH2 9989   5.619   1.361   3.122
 3349TIP3    H1 9990   5.652   1.451   3.110
 3349TIP3    H2 9991   5.658   1.312   3.050
 3350TIP3   OH2 9992   7.133   3.320   2.813
 3350TIP3    H1 9993   7.151   3.236   2.773
 3350TIP3    H2 9994   7.103   3.375   2.741
 3351TIP3   OH2 9995   3.607   1.170   1.900
 3351TIP3    H1 9996   3.587   1.179   1.807
 3351TIP3    H2 9997   3.676   1.104   1.904
 3352TIP3   OH2 9998   0.273   2.582   0.841
 3352TIP3    H1 9999   0.332   2.599   0.767
 3352TIP3    H210000   0.199   2.640   0.827
 3353TIP3   OH210001   3.402   4.651   4.422
 3353TIP3    H110002   3.371   4.576   4.473
 3353TIP3    H210003   3.459   4.699   4.482
 3354TIP3   OH210004   6.965   5.215   1.100
 3354TIP3    H110005   7.056   5.241   1.086
 3354TIP3    H210006   6.970   5.149   1.170
 3355TIP3   OH210007   4.177   5.189   2.526
 3355TIP3    H110008   4.086   5.194   2.497
 3355TIP3    H210009   4.228   5.198   2.446
 3356TIP3   OH210010   4.548   3.498   4.992
 3356TIP3    H110011   4.534   3.583   5.036
 3356TIP3    H210012   4.460   3.460   4.988
 3357TIP3   OH210013   7.448   4.721   6.537
 3357TIP3    H110014   7.379   4.788   6.535
 3357TIP3    H210015   7.401   4.638   6.535
 3358TIP3   OH210016   5.552   4.891   0.900
 3358TIP3    H110017   5.536   4.942   0.980
 3358TIP3    H210018   5.533   4.800   0.926
 3359TIP3   OH210019   2.092   4.987   4.612
 3359TIP3    H110020   2.044   5.066   4.587
 3359TIP3    H210021   2.126   5.005   4.699
 3360TIP3   OH210022   0.661   3.715   0.556
 3360TIP3    H110023   0.582   3.683   0.514
 3360TIP3    H210024   0.712   3.637   0.576
 3361TIP3   OH210025   4.107   6.031   1.609
 3361TIP3    H110026   4.092   6.118   1.573
 3361TIP3    H210027   4.021   6.002   1.640
 3362TIP3   OH210028   6.979   2.438   4.769
 3362TIP3    H110029   6.921   2.437   4.693
 3362TIP3    H210030   7.065   2.460   4.733
 3363TIP3   OH210031   1.745   6.209   5.982
 3363TIP3    H110032   1.783   6.178   5.900
 3363TIP3    H210033   1.669   6.152   5.997
 3364TIP3   OH210034   3.756   1.583   3.145
 3364TIP3    H110035   3.731   1.530   3.221
 3364TIP3    H210036   3.762   1.520   3.073
 3365TIP3   OH210037   1.239   0.625   3.607
 3365TIP3    H110038   1.236   0.543   3.557
 3365TIP3    H210039   1.321   0.619   3.656
 3366TIP3   OH210040   1.315   1.004   0.725
 3366TIP3    H110041   1.375   0.965   0.788
 3366TIP3    H210042   1.305   0.937   0.657
 3367TIP3   OH210043   4.407   6.351   2.870
 3367TIP3    H110044   4.315   6.363   2.846
 3367TIP3    H210045   4.452   6.426   2.831
 3368TIP3   OH210046   2.599   3.615   3.295
 3368TIP3    H110047   2.682   3.647   3.260
 3368TIP3    H210048   2.566   3.688   3.348
 3369TIP3   OH210049   0.416   2.273   4.211
 3369TIP3    H110050   0.361   2.340   4.170
 3369TIP3    H210051   0.457   2.318   4.285
 3370TIP3   OH210052   2.529   5.920   4.120
 3370TIP3    H110053   2.495   5.990   4.064
 3370TIP3    H210054   2.516   5.952   4.209
 3371TIP3   OH210055   5.743   4.643   0.115
 3371TIP3    H110056   5.822   4.627   0.168
 3371TIP3    H210057   5.716   4.732   0.137
 3372TIP3   OH210058   2.904   3.222   4.836
 3372TIP3    H110059   2.848   3.178   4.901
 3372TIP3    H210060   2.980   3.165   4.827
 3373TIP3   OH210061   5.751   4.102   3.246
 3373TIP3    H110062   5.744   4.137   3.157
 3373TIP3    H210063   5.735   4.008   3.235
 3374TIP3   OH210064   2.759   1.037   4.453
 3374TIP3    H110065   2.808   1.100   4.507
 3374TIP3    H210066   2.827   0.978   4.418
 3375TIP3   OH210067   1.103   6.607   0.596
 3375TIP3    H110068   1.035   6.543   0.575
 3375TIP3    H210069   1.165   6.559   0.651
 3376TIP3   OH210070   2.707   4.064   2.426
 3376TIP3    H110071   2.728   4.040   2.516
 3376TIP3    H210072   2.616   4.036   2.414
 3377TIP3   OH210073   2.806   4.922   6.754
 3377TIP3    H110074   2.883   4.922   6.697
 3377TIP3    H210075   2.746   4.984   6.713
 3378TIP3   OH210076   0.396   4.258   4.637
 3378TIP3    H110077   0.441   4.231   4.717
 3378TIP3    H210078   0.465   4.266   4.572
 3379TIP3   OH210079   5.393   4.327   6.789
 3379TIP3    H110080   5.343   4.404   6.762
 3379TIP3    H210081   5.469   4.326   6.730
 3380TIP3   OH210082   3.268   7.223   2.167
 3380TIP3    H110083   3.248   7.211   2.074
 3380TIP3    H210084   3.340   7.163   2.184
 3381TIP3   OH210085   7.886   5.001   1.390
 3381TIP3    H110086   7.927   5.087   1.402
 3381TIP3    H210087   7.850   4.979   1.476
 3382TIP3   OH210088   5.739   5.191   0.317
 3382TIP3    H110089   5.825   5.200   0.276
 3382TIP3    H210090   5.754   5.134   0.393
 3383TIP3   OH210091   5.486   2.040   1.916
 3383TIP3    H110092   5.405   2.007   1.877
 3383TIP3    H210093   5.509   2.116   1.863
 3384TIP3   OH210094   6.218   4.850   5.005
 3384TIP3    H110095   6.199   4.935   5.044
 3384TIP3    H210096   6.136   4.801   5.012
 3385TIP3   OH210097   6.849   0.483   1.947
 3385TIP3    H110098   6.792   0.408   1.926
 3385TIP3    H210099   6.806   0.525   2.022
 3386TIP3   OH210100   6.730   5.402   6.705
 3386TIP3    H110101   6.710   5.311   6.724
 3386TIP3    H210102   6.649   5.437   6.668
 3387TIP3   OH210103   6.439   2.390   3.118
 3387TIP3    H110104   6.401   2.328   3.181
 3387TIP3    H210105   6.403   2.363   3.033
 3388TIP3   OH210106   2.346   6.259   6.722
 3388TIP3    H110107   2.278   6.325   6.738
 3388TIP3    H210108   2.337   6.239   6.628
 3389TIP3   OH210109   6.001   7.138   2.621
 3389TIP3    H110110   6.049   7.217   2.644
 3389TIP3    H210111   5.938   7.167   2.554
 3390TIP3   OH210112   3.941   7.208   4.862
 3390TIP3    H110113   3.999   7.131   4.860
 3390TIP3    H210114   3.922   7.221   4.955
 3391TIP3   OH210115   1.095   7.356   5.188
 3391TIP3    H110116   1.039   7.292   5.145
 3391TIP3    H210117   1.183   7.337   5.153
 3392TIP3   OH210118   5.285   2.355   3.705
 3392TIP3    H110119   5.224   2.428   3.716
 3392TIP3    H210120   5.241   2.295   3.646
 3393TIP3   OH210121   1.212   1.344   1.218
 3393TIP3    H110122   1.139   1.396   1.184
 3393TIP3    H210123   1.201   1.345   1.313
 3394TIP3   OH210124   0.083   0.085   6.582
 3394TIP3    H110125   0.101   0.059   6.673
 3394TIP3    H210126  -0.003   0.049   6.563
 3395TIP3   OH210127   1.847   4.368   5.852
 3395TIP3    H110128   1.839   4.463   5.841
 3395TIP3    H210129   1.888   4.338   5.771
 3396TIP3   OH210130   7.593   1.160   5.653
 3396TIP3    H110131   7.584   1.146   5.748
 3396TIP3    H210132   7.528   1.227   5.632
 3397TIP3   OH210133   3.023   1.892   1.379
 3397TIP3    H110134   2.980   1.973   1.350
 3397TIP3    H210135   3.117   1.910   1.369
 3398TIP3   OH210136   1.842   5.213   1.383
 3398TIP3    H110137   1.857   5.229   1.477
 3398TIP3    H210138   1.910   5.150   1.359
 3399TIP3   OH210139   7.189   2.991   2.192
 3399TIP3    H110140   7.248   2.928   2.232
 3399TIP3    H210141   7.163   2.950   2.109
 3400TIP3   OH210142   2.106   4.330   6.493
 3400TIP3    H110143   2.115   4.307   6.586
 3400TIP3    H210144   2.017   4.301   6.470
 3401TIP3   OH210145   7.153   2.215   3.984
 3401TIP3    H110146   7.234   2.251   3.947
 3401TIP3    H210147   7.108   2.290   4.022
 3402TIP3   OH210148   7.292   3.708   3.066
 3402TIP3    H110149   7.229   3.727   3.136
 3402TIP3    H210150   7.349   3.785   3.065
 3403TIP3   OH210151   6.724   3.744   6.466
 3403TIP3    H110152   6.761   3.736   6.555
 3403TIP3    H210153   6.642   3.696   6.470
 3404TIP3   OH210154   5.456   2.545   4.438
 3404TIP3    H110155   5.394   2.502   4.380
 3404TIP3    H210156   5.466   2.486   4.512
 3405TIP3   OH210157   2.662   1.479   1.824
 3405TIP3    H110158   2.741   1.449   1.780
 3405TIP3    H210159   2.679   1.571   1.844
 3406TIP3   OH210160   0.019   3.789   3.508
 3406TIP3    H110161   0.030   3.700   3.538
 3406TIP3    H210162   0.024   3.843   3.587
 3407TIP3   OH210163   5.579   3.983   5.027
 3407TIP3    H110164   5.576   4.053   5.093
 3407TIP3    H210165   5.651   4.008   4.969
 3408TIP3   OH210166   5.037   4.512   3.074
 3408TIP3    H110167   4.971   4.444   3.064
 3408TIP3    H210168   5.022   4.548   3.161
 3409TIP3   OH210169   7.002   1.586   3.911
 3409TIP3    H110170   7.056   1.508   3.919
 3409TIP3    H210171   7.061   1.654   3.878
 3410TIP3   OH210172   2.407   0.127   5.612
 3410TIP3    H110173   2.410   0.208   5.562
 3410TIP3    H210174   2.365   0.151   5.695
 3411TIP3   OH210175   0.211   7.746   0.508
 3411TIP3    H110176   0.123   7.784   0.513
 3411TIP3    H210177   0.241   7.766   0.420
 3412TIP3   OH210178   3.733   7.704   2.661
 3412TIP3    H110179   3.811   7.752   2.633
 3412TIP3    H210180   3.718   7.734   2.751
 3413TIP3   OH210181   5.776   7.396   2.957
 3413TIP3    H110182   5.696   7.422   3.002
 3413TIP3    H210183   5.747   7.362   2.873
 3414TIP3   OH210184   4.733   3.288   6.588
 3414TIP3    H110185   4.810   3.232   6.587
 3414TIP3    H210186   4.669   3.243   6.532
 3415TIP3   OH210187   1.681   4.612   0.963
 3415TIP3    H110188   1.678   4.659   1.047
 3415TIP3    H210189   1.656   4.678   0.898
 3416TIP3   OH210190   6.497   1.563   0.415
 3416TIP3    H110191   6.584   1.578   0.378
 3416TIP3    H210192   6.506   1.588   0.507
 3417TIP3   OH210193   0.642   0.475   2.478
 3417TIP3    H110194   0.700   0.402   2.496
 3417TIP3    H210195   0.568   0.437   2.430
 3418TIP3   OH210196   4.190   0.964   1.518
 3418TIP3    H110197   4.097   0.987   1.511
 3418TIP3    H210198   4.225   0.980   1.431
 3419TIP3   OH210199   2.357   5.193   2.319
 3419TIP3    H110200   2.346   5.169   2.227
 3419TIP3    H210201   2.317   5.279   2.326
 3420TIP3   OH210202   7.877   5.058   0.179
 3420TIP3    H110203   7.888   5.108   0.260
 3420TIP3    H210204   7.784   5.062   0.160
 3421TIP3   OH210205   6.650   5.093   4.702
 3421TIP3    H110206   6.626   5.145   4.625
 3421TIP3    H210207   6.567   5.078   4.747
 3422TIP3   OH210208   2.580   2.497   0.912
 3422TIP3    H110209   2.534   2.481   0.995
 3422TIP3    H210210   2.524   2.457   0.846
 3423TIP3   OH210211   5.406   1.260   0.480
 3423TIP3    H110212   5.429   1.171   0.452
 3423TIP3    H210213   5.362   1.248   0.564
 3424TIP3   OH210214   7.900   7.212   2.647
 3424TIP3    H110215   7.847   7.170   2.715
 3424TIP3    H210216   7.890   7.306   2.664
 3425TIP3   OH210217   2.930   7.740   4.838
 3425TIP3    H110218   2.997   7.683   4.875
 3425TIP3    H210219   2.877   7.766   4.914
 3426TIP3   OH210220   5.231   5.503   2.993
 3426TIP3    H110221   5.246   5.467   2.905
 3426TIP3    H210222   5.317   5.499   3.035
 3427TIP3   OH210223   0.638   5.807   5.458
 3427TIP3    H110224   0.657   5.824   5.366
 3427TIP3    H210225   0.719   5.772   5.494
 3428TIP3   OH210226   7.779   2.844   3.903
 3428TIP3    H110227   7.852   2.809   3.853
 3428TIP3    H210228   7.723   2.887   3.838
 3429TIP3   OH210229   1.153   3.466   4.781
 3429TIP3    H110230   1.225   3.411   4.811
 3429TIP3    H210231   1.089   3.404   4.746
 3430TIP3   OH210232   4.561   5.640   1.394
 3430TIP3    H110233   4.557   5.645   1.490
 3430TIP3    H210234   4.650   5.614   1.375
 3431TIP3   OH210235   6.706   2.952   0.842
 3431TIP3    H110236   6.667   2.867   0.822
 3431TIP3    H210237   6.776   2.932   0.904
 3432TIP3   OH210238   7.415   2.964   0.853
 3432TIP3    H110239   7.340   2.995   0.904
 3432TIP3    H210240   7.445   3.041   0.805
 3433TIP3   OH210241   3.196   2.936   2.748
 3433TIP3    H110242   3.279   2.941   2.701
 3433TIP3    H210243   3.187   2.843   2.772
 3434TIP3   OH210244   4.109   4.134   1.541
 3434TIP3    H110245   4.038   4.189   1.573
 3434TIP3    H210246   4.170   4.129   1.615
 3435TIP3   OH210247   6.710   4.173   2.085
 3435TIP3    H110248   6.618   4.147   2.086
 3435TIP3    H210249   6.756   4.101   2.127
 3436TIP3   OH210250   6.368   2.355   5.991
 3436TIP3    H110251   6.401   2.400   6.068
 3436TIP3    H210252   6.414   2.271   5.991
 3437TIP3   OH210253   8.047   4.693   3.982
 3437TIP3    H110254   7.954   4.716   3.990
 3437TIP3    H210255   8.089   4.737   4.056
 3438TIP3   OH210256   7.427   5.745   1.424
 3438TIP3    H110257   7.443   5.817   1.363
 3438TIP3    H210258   7.337   5.757   1.453
 3439TIP3   OH210259   1.210   0.810   4.714
 3439TIP3    H110260   1.250   0.765   4.788
 3439TIP3    H210261   1.282   0.860   4.675
 3440TIP3   OH210262   6.424   0.417   5.379
 3440TIP3    H110263   6.491   0.456   5.435
 3440TIP3    H210264   6.436   0.459   5.294
 3441TIP3   OH210265   1.246   4.605   5.241
 3441TIP3    H110266   1.285   4.625   5.156
 3441TIP3    H210267   1.167   4.555   5.221
 3442TIP3   OH210268   6.346   0.000   4.497
 3442TIP3    H110269   6.301  -0.066   4.444
 3442TIP3    H210270   6.289   0.077   4.495
 3443TIP3   OH210271   2.394   4.891   5.823
 3443TIP3    H110272   2.483   4.898   5.858
 3443TIP3    H210273   2.401   4.919   5.732
 3444TIP3   OH210274   4.356   0.551   2.263
 3444TIP3    H110275   4.382   0.577   2.352
 3444TIP3    H210276   4.368   0.456   2.262
 3445TIP3   OH210277   2.553   7.672   0.171
 3445TIP3    H110278   2.608   7.607   0.214
 3445TIP3    H210279   2.610   7.714   0.107
 3446TIP3   OH210280   0.098   3.114   4.394
 3446TIP3    H110281   0.139   3.174   4.457
 3446TIP3    H210282   0.068   3.171   4.323
 3447TIP3   OH210283   5.391   6.334   1.966
 3447TIP3    H110284   5.466   6.288   1.930
 3447TIP3    H210285   5.427   6.417   1.999
 3448TIP3   OH210286   1.890   0.367   0.863
 3448TIP3    H110287   1.886   0.335   0.773
 3448TIP3    H210288   1.937   0.451   0.856
 3449TIP3   OH210289   5.747   0.975   3.456
 3449TIP3    H110290   5.717   0.887   3.434
 3449TIP3    H210291   5.833   0.983   3.414
 3450TIP3   OH210292   6.971   4.282   3.881
 3450TIP3    H110293   6.915   4.216   3.840
 3450TIP3    H210294   7.035   4.231   3.931
 3451TIP3   OH210295   7.279   5.494   3.712
 3451TIP3    H110296   7.281   5.589   3.723
 3451TIP3    H210297   7.199   5.466   3.758
 3452TIP3   OH210298   7.289   0.138   1.727
 3452TIP3    H110299   7.328   0.190   1.798
 3452TIP3    H210300   7.277   0.051   1.766
 3453TIP3   OH210301   0.924   7.272   6.768
 3453TIP3    H110302   1.009   7.283   6.811
 3453TIP3    H210303   0.944   7.228   6.686
 3454TIP3   OH210304   6.961   0.736   2.427
 3454TIP3    H110305   6.990   0.827   2.434
 3454TIP3    H210306   6.895   0.737   2.357
 3455TIP3   OH210307   2.046   2.813   6.697
 3455TIP3    H110308   1.960   2.774   6.683
 3455TIP3    H210309   2.031   2.907   6.694
 3456TIP3   OH210310   4.587   7.834   5.548
 3456TIP3    H110311   4.562   7.776   5.620
 3456TIP3    H210312   4.631   7.777   5.485
 3457TIP3   OH210313   2.934   2.937   2.806
 3457TIP3    H110314   3.023   2.915   2.778
 3457TIP3    H210315   2.878   2.896   2.740
 3458TIP3   OH210316   1.092   1.552   5.520
 3458TIP3    H110317   1.073   1.475   5.573
 3458TIP3    H210318   1.094   1.520   5.430
 3459TIP3   OH210319   3.385   1.350   3.291
 3459TIP3    H110320   3.477   1.333   3.312
 3459TIP3    H210321   3.380   1.445   3.280
 3460TIP3   OH210322   4.379   5.415   3.942
 3460TIP3    H110323   4.439   5.387   3.872
 3460TIP3    H210324   4.293   5.384   3.913
 3461TIP3   OH210325   0.693   3.232   4.342
 3461TIP3    H110326   0.744   3.298   4.295
 3461TIP3    H210327   0.603   3.247   4.315
 3462TIP3   OH210328   2.752   0.657   4.641
 3462TIP3    H110329   2.723   0.568   4.659
 3462TIP3    H210330   2.793   0.686   4.722
 3463TIP3   OH210331   3.752   5.313   5.378
 3463TIP3    H110332   3.688   5.360   5.432
 3463TIP3    H210333   3.699   5.260   5.319
 3464TIP3   OH210334   2.137   6.812   3.754
 3464TIP3    H110335   2.084   6.757   3.811
 3464TIP3    H210336   2.203   6.850   3.811
 3465TIP3   OH210337   1.190   5.603   6.245
 3465TIP3    H110338   1.173   5.696   6.227
 3465TIP3    H210339   1.105   5.568   6.270
 3466TIP3   OH210340   8.184   6.795   2.979
 3466TIP3    H110341   8.138   6.874   2.952
 3466TIP3    H210342   8.115   6.733   3.003
 3467TIP3   OH210343   7.950   4.368   3.010
 3467TIP3    H110344   7.944   4.301   2.941
 3467TIP3    H210345   7.999   4.325   3.080
 3468TIP3   OH210346   0.314   3.945   0.379
 3468TIP3    H110347   0.323   4.038   0.360
 3468TIP3    H210348   0.390   3.923   0.433
 3469TIP3   OH210349   5.258   1.530   0.362
 3469TIP3    H110350   5.223   1.450   0.323
 3469TIP3    H210351   5.183   1.571   0.404
 3470TIP3   OH210352   6.114   1.915   5.421
 3470TIP3    H110353   6.096   2.008   5.437
 3470TIP3    H210354   6.194   1.897   5.470
 3471TIP3   OH210355   1.262   3.089   5.030
 3471TIP3    H110356   1.222   3.170   4.999
 3471TIP3    H210357   1.244   3.088   5.124
 3472TIP3   OH210358   7.042   4.533   0.841
 3472TIP3    H110359   7.047   4.592   0.767
 3472TIP3    H210360   7.133   4.514   0.864
 3473TIP3   OH210361   6.443   1.473   0.120
 3473TIP3    H110362   6.504   1.488   0.047
 3473TIP3    H210363   6.362   1.446   0.077
 3474TIP3   OH210364   0.725   2.803   6.661
 3474TIP3    H110365   0.751   2.721   6.619
 3474TIP3    H210366   0.800   2.861   6.649
 3475TIP3   OH210367   3.365   2.064   2.082
 3475TIP3    H110368   3.433   2.028   2.139
 3475TIP3    H210369   3.283   2.041   2.125
 3476TIP3   OH210370   2.249   4.193   3.370
 3476TIP3    H110371   2.312   4.253   3.331
 3476TIP3    H210372   2.243   4.222   3.461
 3477TIP3   OH210373   0.070   1.780   2.796
 3477TIP3    H110374   0.103   1.716   2.859
 3477TIP3    H210375  -0.003   1.823   2.841
 3478TIP3   OH210376   4.988   1.351   1.099
 3478TIP3    H110377   4.908   1.320   1.143
 3478TIP3    H210378   4.988   1.304   1.016
 3479TIP3   OH210379   7.910   5.846   3.134
 3479TIP3    H110380   7.987   5.893   3.104
 3479TIP3    H210381   7.837   5.889   3.089
 3480TIP3   OH210382   1.139   3.708   0.762
 3480TIP3    H110383   1.050   3.736   0.741
 3480TIP3    H210384   1.192   3.740   0.690
 3481TIP3   OH210385   1.206   3.460   2.534
 3481TIP3    H110386   1.233   3.395   2.599
 3481TIP3    H210387   1.110   3.455   2.534
 3482TIP3   OH210388   2.227  -0.028   6.643
 3482TIP3    H110389   2.296  -0.022   6.709
 3482TIP3    H210390   2.199   0.062   6.629
 3483TIP3   OH210391   5.560   6.671   0.071
 3483TIP3    H110392   5.584   6.653  -0.020
 3483TIP3    H210393   5.481   6.619   0.086
 3484TIP3   OH210394   6.729   4.665   5.829
 3484TIP3    H110395   6.662   4.613   5.786
 3484TIP3    H210396   6.724   4.640   5.921
 3485TIP3   OH210397   7.629   1.851   2.842
 3485TIP3    H110398   7.635   1.760   2.811
 3485TIP3    H210399   7.668   1.903   2.771
 3486TIP3   OH210400   3.581   6.426   0.085
 3486TIP3    H110401   3.519   6.381   0.026
 3486TIP3    H210402   3.625   6.355   0.132
 3487TIP3   OH210403   5.206   0.203   4.161
 3487TIP3    H110404   5.128   0.258   4.174
 3487TIP3    H210405   5.267   0.231   4.229
 3488TIP3   OH210406   7.934   5.820   0.874
 3488TIP3    H110407   7.859   5.813   0.933
 3488TIP3    H210408   8.008   5.785   0.923
 3489TIP3   OH210409   7.110   6.588   0.246
 3489TIP3    H110410   7.061   6.661   0.283
 3489TIP3    H210411   7.151   6.546   0.322
 3490TIP3   OH210412   6.949   3.396   5.869
 3490TIP3    H110413   6.994   3.401   5.784
 3490TIP3    H210414   6.861   3.428   5.850
 3491TIP3   OH210415   6.043   7.446   4.684
 3491TIP3    H110416   6.038   7.520   4.624
 3491TIP3    H210417   6.080   7.374   4.632
 3492TIP3   OH210418   4.722   6.046   4.614
 3492TIP3    H110419   4.716   6.042   4.518
 3492TIP3    H210420   4.649   6.104   4.639
 3493TIP3   OH210421   5.556   4.772   0.650
 3493TIP3    H110422   5.546   4.838   0.719
 3493TIP3    H210423   5.466   4.746   0.629
 3494TIP3   OH210424   0.463   1.582   2.427
 3494TIP3    H110425   0.410   1.540   2.494
 3494TIP3    H210426   0.431   1.672   2.423
 3495TIP3   OH210427   8.025   0.053   5.997
 3495TIP3    H110428   8.103   0.098   5.963
 3495TIP3    H210429   8.058  -0.029   6.032
 3496TIP3   OH210430   7.181   3.549   1.759
 3496TIP3    H110431   7.168   3.465   1.803
 3496TIP3    H210432   7.264   3.539   1.713
 3497TIP3   OH210433   6.572   5.971   1.753
 3497TIP3    H110434   6.493   5.934   1.794
 3497TIP3    H210435   6.641   5.908   1.774
 3498TIP3   OH210436   1.915   2.282   1.378
 3498TIP3    H110437   1.843   2.279   1.442
 3498TIP3    H210438   1.904   2.203   1.326
 3499TIP3   OH210439   3.347   6.390   0.390
 3499TIP3    H110440   3.270   6.427   0.345
 3499TIP3    H210441   3.368   6.312   0.339
 3500TIP3   OH210442   1.119   2.616   0.417
 3500TIP3    H110443   1.077   2.611   0.331
 3500TIP3    H210444   1.167   2.534   0.426
 3501TIP3   OH210445   4.048   2.033   6.090
 3501TIP3    H110446   3.973   2.010   6.145
 3501TIP3    H210447   4.034   1.986   6.008
 3502TIP3   OH210448   2.025   1.696   1.403
 3502TIP3    H110449   1.985   1.686   1.489
 3502TIP3    H210450   1.951   1.701   1.343
 3503TIP3   OH210451   4.904   3.000   3.620
 3503TIP3    H110452   4.945   3.083   3.643
 3503TIP3    H210453   4.914   2.946   3.699
 3504TIP3   OH210454   0.559   0.730   2.636
 3504TIP3    H110455   0.572   0.662   2.569
 3504TIP3    H210456   0.645   0.740   2.677
 3505TIP3   OH210457   8.037   1.786   5.851
 3505TIP3    H110458   8.010   1.736   5.928
 3505TIP3    H210459   8.075   1.721   5.792
 3506TIP3   OH210460   0.287   6.511   4.946
 3506TIP3    H110461   0.199   6.495   4.912
 3506TIP3    H210462   0.320   6.424   4.968
 3507TIP3   OH210463   6.629   0.930   6.132
 3507TIP3    H110464   6.540   0.912   6.104
 3507TIP3    H210465   6.624   1.013   6.180
 3508TIP3   OH210466   7.158   6.176   4.705
 3508TIP3    H110467   7.127   6.138   4.622
 3508TIP3    H210468   7.194   6.102   4.753
 3509TIP3   OH210469   4.247   1.213   1.616
 3509TIP3    H110470   4.320   1.159   1.645
 3509TIP3    H210471   4.191   1.153   1.566
 3510TIP3   OH210472   1.698   2.306   3.615
 3510TIP3    H110473   1.615   2.271   3.647
 3510TIP3    H210474   1.762   2.281   3.682
 3511TIP3   OH210475   0.302   6.295   3.160
 3511TIP3    H110476   0.294   6.366   3.224
 3511TIP3    H210477   0.300   6.340   3.075
 3512TIP3   OH210478   1.761   3.386   1.746
 3512TIP3    H110479   1.684   3.357   1.697
 3512TIP3    H210480   1.835   3.355   1.693
 3513TIP3   OH210481   1.122   0.690   5.274
 3513TIP3    H110482   1.149   0.761   5.333
 3513TIP3    H210483   1.105   0.733   5.191
 3514TIP3   OH210484   5.303   4.941   2.665
 3514TIP3    H110485   5.259   4.979   2.589
 3514TIP3    H210486   5.252   4.863   2.686
 3515TIP3   OH210487   6.010   3.221   5.272
 3515TIP3    H110488   6.076   3.290   5.261
 3515TIP3    H210489   6.034   3.178   5.354
 3516TIP3   OH210490   1.288   0.586   4.493
 3516TIP3    H110491   1.296   0.634   4.575
 3516TIP3    H210492   1.341   0.636   4.431
 3517TIP3   OH210493   2.484   5.223   3.049
 3517TIP3    H110494   2.495   5.218   3.144
 3517TIP3    H210495   2.404   5.174   3.031
 3518TIP3   OH210496   5.442   4.651   2.218
 3518TIP3    H110497   5.501   4.691   2.155
 3518TIP3    H210498   5.422   4.565   2.180
 3519TIP3   OH210499   5.354   0.525   5.901
 3519TIP3    H110500   5.283   0.476   5.859
 3519TIP3    H210501   5.433   0.493   5.858
 3520TIP3   OH210502   0.607   1.220   1.305
 3520TIP3    H110503   0.588   1.242   1.397
 3520TIP3    H210504   0.657   1.295   1.273
 3521TIP3   OH210505   0.135   4.087   1.347
 3521TIP3    H110506   0.154   4.020   1.413
 3521TIP3    H210507   0.045   4.115   1.365
 3522TIP3   OH210508   5.392   4.467   6.405
 3522TIP3    H110509   5.378   4.476   6.311
 3522TIP3    H210510   5.306   4.445   6.440
 3523TIP3   OH210511   3.822   1.199   2.752
 3523TIP3    H110512   3.790   1.171   2.666
 3523TIP3    H210513   3.914   1.222   2.738
 3524TIP3   OH210514   4.523   2.122   0.154
 3524TIP3    H110515   4.561   2.063   0.220
 3524TIP3    H210516   4.500   2.201   0.204
 3525TIP3   OH210517   5.068   0.404   1.836
 3525TIP3    H110518   5.146   0.458   1.848
 3525TIP3    H210519   5.099   0.330   1.784
 3526TIP3   OH210520   4.008   1.958   1.314
 3526TIP3    H110521   3.920   1.973   1.279
 3526TIP3    H210522   3.999   1.880   1.368
 3527TIP3   OH210523   6.252   6.873   3.344
 3527TIP3    H110524   6.309   6.939   3.305
 3527TIP3    H210525   6.279   6.867   3.435
 3528TIP3   OH210526   8.117   5.901   1.950
 3528TIP3    H110527   8.206   5.898   1.917
 3528TIP3    H210528   8.063   5.870   1.878
 3529TIP3   OH210529   7.305   5.687   1.744
 3529TIP3    H110530   7.391   5.668   1.782
 3529TIP3    H210531   7.251   5.711   1.819
 3530TIP3   OH210532   2.743   1.536   2.878
 3530TIP3    H110533   2.728   1.443   2.862
 3530TIP3    H210534   2.756   1.573   2.791
 3531TIP3   OH210535   6.330   5.620   0.424
 3531TIP3    H110536   6.263   5.686   0.409
 3531TIP3    H210537   6.320   5.558   0.351
 3532TIP3   OH210538   5.244   4.396   0.153
 3532TIP3    H110539   5.168   4.341   0.175
 3532TIP3    H210540   5.234   4.474   0.209
 3533TIP3   OH210541   7.006   4.352   3.572
 3533TIP3    H110542   7.063   4.280   3.600
 3533TIP3    H210543   6.952   4.371   3.649
 3534TIP3   OH210544   4.764   6.646   1.056
 3534TIP3    H110545   4.671   6.660   1.071
 3534TIP3    H210546   4.802   6.734   1.053
 3535TIP3   OH210547   1.292   7.652   6.119
 3535TIP3    H110548   1.330   7.717   6.179
 3535TIP3    H210549   1.217   7.697   6.081
 3536TIP3   OH210550   0.617   4.658   0.567
 3536TIP3    H110551   0.694   4.605   0.590
 3536TIP3    H210552   0.549   4.594   0.546
 3537TIP3   OH210553   6.204   4.339   2.854
 3537TIP3    H110554   6.192   4.251   2.889
 3537TIP3    H210555   6.147   4.342   2.776
 3538TIP3   OH210556   4.617   2.968   3.021
 3538TIP3    H110557   4.560   2.904   2.978
 3538TIP3    H210558   4.706   2.936   3.004
 3539TIP3   OH210559   0.052   1.385   0.915
 3539TIP3    H110560  -0.007   1.428   0.853
 3539TIP3    H210561   0.139   1.419   0.894
 3540TIP3   OH210562   5.415   3.323   4.418
 3540TIP3    H110563   5.431   3.364   4.503
 3540TIP3    H210564   5.320   3.321   4.410
 3541TIP3   OH210565   5.785   3.401   1.147
 3541TIP3    H110566   5.817   3.343   1.215
 3541TIP3    H210567   5.865   3.435   1.106
 3542TIP3   OH210568   6.997   4.168   0.431
 3542TIP3    H110569   6.921   4.159   0.490
 3542TIP3    H210570   6.993   4.259   0.401
 3543TIP3   OH210571   0.748   5.934   0.489
 3543TIP3    H110572   0.680   5.989   0.526
 3543TIP3    H210573   0.813   5.995   0.453
 3544TIP3   OH210574   5.632   3.663   5.929
 3544TIP3    H110575   5.722   3.694   5.935
 3544TIP3    H210576   5.640   3.567   5.923
 3545TIP3   OH210577   7.750   3.650   6.462
 3545TIP3    H110578   7.711   3.643   6.548
 3545TIP3    H210579   7.818   3.718   6.472
 3546TIP3   OH210580   2.953   6.576   5.410
 3546TIP3    H110581   2.873   6.618   5.440
 3546TIP3    H210582   2.954   6.592   5.315
 3547TIP3   OH210583   3.742   7.336   5.618
 3547TIP3    H110584   3.748   7.269   5.686
 3547TIP3    H210585   3.804   7.403   5.644
 3548TIP3   OH210586   0.674   7.458   6.051
 3548TIP3    H110587   0.734   7.511   6.104
 3548TIP3    H210588   0.656   7.512   5.974
 3549TIP3   OH210589   4.815   5.975   4.354
 3549TIP3    H110590   4.791   5.920   4.279
 3549TIP3    H210591   4.872   6.043   4.317
 3550TIP3   OH210592   2.146   3.151   0.254
 3550TIP3    H110593   2.100   3.067   0.252
 3550TIP3    H210594   2.097   3.206   0.192
 3551TIP3   OH210595   0.788   6.822   4.400
 3551TIP3    H110596   0.740   6.844   4.320
 3551TIP3    H210597   0.879   6.811   4.370
 3552TIP3   OH210598   3.148   4.192   2.801
 3552TIP3    H110599   3.235   4.195   2.761
 3552TIP3    H210600   3.164   4.184   2.895
 3553TIP3   OH210601   3.517   2.588   2.934
 3553TIP3    H110602   3.530   2.582   3.029
 3553TIP3    H210603   3.602   2.617   2.901
 3554TIP3   OH210604   5.871   7.296   6.617
 3554TIP3    H110605   5.802   7.362   6.611
 3554TIP3    H210606   5.952   7.347   6.614
 3555TIP3   OH210607   2.145   5.972   6.398
 3555TIP3    H110608   2.201   5.924   6.460
 3555TIP3    H210609   2.152   5.921   6.317
 3556TIP3   OH210610   6.855   0.263   6.281
 3556TIP3    H110611   6.930   0.285   6.225
 3556TIP3    H210612   6.835   0.344   6.327
 3557TIP3   OH210613   0.905   3.422   4.661
 3557TIP3    H110614   0.930   3.334   4.686
 3557TIP3    H210615   0.918   3.425   4.566
 3558TIP3   OH210616   6.704   2.773   5.468
 3558TIP3    H110617   6.767   2.808   5.531
 3558TIP3    H210618   6.757   2.732   5.400
 3559TIP3   OH210619   3.967   0.596   6.068
 3559TIP3    H110620   4.006   0.672   6.025
 3559TIP3    H210621   3.883   0.583   6.023
 3560TIP3   OH210622   4.509   3.239   3.521
 3560TIP3    H110623   4.566   3.262   3.595
 3560TIP3    H210624   4.567   3.235   3.445
 3561TIP3   OH210625   2.157   0.793   0.272
 3561TIP3    H110626   2.235   0.754   0.311
 3561TIP3    H210627   2.085   0.756   0.323
 3562TIP3   OH210628   1.395   5.267   3.693
 3562TIP3    H110629   1.475   5.215   3.684
 3562TIP3    H210630   1.341   5.217   3.754
 3563TIP3   OH210631   4.191   1.597   0.864
 3563TIP3    H110632   4.204   1.538   0.938
 3563TIP3    H210633   4.132   1.665   0.897
 3564TIP3   OH210634   0.423   3.049   0.618
 3564TIP3    H110635   0.498   3.049   0.557
 3564TIP3    H210636   0.463   3.040   0.704
 3565TIP3   OH210637   1.896   0.696   0.304
 3565TIP3    H110638   1.889   0.679   0.210
 3565TIP3    H210639   1.814   0.738   0.328
 3566TIP3   OH210640   3.901   0.383   5.392
 3566TIP3    H110641   3.978   0.430   5.359
 3566TIP3    H210642   3.931   0.339   5.471
 3567TIP3   OH210643   5.157   0.851   4.242
 3567TIP3    H110644   5.154   0.917   4.312
 3567TIP3    H210645   5.069   0.813   4.241
 3568TIP3   OH210646   7.272   6.070   5.493
 3568TIP3    H110647   7.249   6.016   5.418
 3568TIP3    H210648   7.267   6.160   5.461
 3569TIP3   OH210649   7.059   1.322   5.158
 3569TIP3    H110650   7.094   1.331   5.070
 3569TIP3    H210651   7.085   1.234   5.186
 3570TIP3   OH210652   6.546   6.413   4.106
 3570TIP3    H110653   6.530   6.445   4.195
 3570TIP3    H210654   6.481   6.458   4.052
 3571TIP3   OH210655   2.126   1.606   4.568
 3571TIP3    H110656   2.130   1.541   4.638
 3571TIP3    H210657   2.080   1.562   4.496
 3572TIP3   OH210658   4.098   5.504   4.353
 3572TIP3    H110659   4.014   5.494   4.398
 3572TIP3    H210660   4.087   5.582   4.299
 3573TIP3   OH210661   2.101   0.878   4.531
 3573TIP3    H110662   2.147   0.804   4.573
 3573TIP3    H210663   2.021   0.888   4.583
 3574TIP3   OH210664   0.477   1.562   5.871
 3574TIP3    H110665   0.513   1.475   5.854
 3574TIP3    H210666   0.418   1.578   5.797
 3575TIP3   OH210667   3.458   1.466   3.650
 3575TIP3    H110668   3.539   1.516   3.659
 3575TIP3    H210669   3.401   1.522   3.597
 3576TIP3   OH210670   6.773   4.249   6.319
 3576TIP3    H110671   6.757   4.156   6.334
 3576TIP3    H210672   6.859   4.252   6.276
 3577TIP3   OH210673   7.372   1.528   2.269
 3577TIP3    H110674   7.320   1.591   2.219
 3577TIP3    H210675   7.341   1.539   2.359
 3578TIP3   OH210676   1.082   5.915   3.007
 3578TIP3    H110677   1.022   5.981   3.041
 3578TIP3    H210678   1.038   5.832   3.026
 3579TIP3   OH210679   3.554   2.797   5.876
 3579TIP3    H110680   3.471   2.762   5.908
 3579TIP3    H210681   3.620   2.760   5.935
 3580TIP3   OH210682   0.088   3.401   2.606
 3580TIP3    H110683   0.148   3.450   2.549
 3580TIP3    H210684   0.125   3.413   2.694
 3581TIP3   OH210685   6.090   3.575   2.093
 3581TIP3    H110686   6.110   3.490   2.052
 3581TIP3    H210687   6.172   3.625   2.086
 3582TIP3   OH210688   0.648   0.557   3.524
 3582TIP3    H110689   0.645   0.652   3.510
 3582TIP3    H210690   0.627   0.520   3.438
 3583TIP3   OH210691   7.497   5.251   3.683
 3583TIP3    H110692   7.586   5.220   3.700
 3583TIP3    H210693   7.509   5.327   3.627
 3584TIP3   OH210694   6.443   5.458   0.233
 3584TIP3    H110695   6.506   5.428   0.299
 3584TIP3    H210696   6.494   5.517   0.177
 3585TIP3   OH210697   0.683   5.218   1.968
 3585TIP3    H110698   0.773   5.246   1.947
 3585TIP3    H210699   0.674   5.234   2.062
 3586TIP3   OH210700   5.066   7.693   4.110
 3586TIP3    H110701   5.145   7.672   4.060
 3586TIP3    H210702   5.098   7.716   4.197
 3587TIP3   OH210703   5.556   5.861   2.202
 3587TIP3    H110704   5.528   5.931   2.144
 3587TIP3    H210705   5.492   5.791   2.188
 3588TIP3   OH210706   4.351   4.365   2.281
 3588TIP3    H110707   4.395   4.287   2.315
 3588TIP3    H210708   4.407   4.438   2.307
 3589TIP3   OH210709   2.410   3.610   3.891
 3589TIP3    H110710   2.341   3.554   3.854
 3589TIP3    H210711   2.478   3.612   3.824
 3590TIP3   OH210712   2.970   0.996   5.709
 3590TIP3    H110713   3.042   1.059   5.699
 3590TIP3    H210714   2.897   1.036   5.663
 3591TIP3   OH210715   6.514   2.180   5.583
 3591TIP3    H110716   6.556   2.231   5.513
 3591TIP3    H210717   6.584   2.125   5.618
 3592TIP3   OH210718   8.080   6.175   6.605
 3592TIP3    H110719   8.006   6.232   6.624
 3592TIP3    H210720   8.097   6.129   6.688
 3593TIP3   OH210721   3.101   6.488   3.984
 3593TIP3    H110722   3.184   6.447   3.960
 3593TIP3    H210723   3.034   6.437   3.939
 3594TIP3   OH210724   5.874   3.747   0.796
 3594TIP3    H110725   5.958   3.707   0.820
 3594TIP3    H210726   5.890   3.787   0.711
 3595TIP3   OH210727   3.072   5.827   3.033
 3595TIP3    H110728   3.138   5.764   3.005
 3595TIP3    H210729   3.122   5.899   3.073
 3596TIP3   OH210730   4.463   7.792   2.062
 3596TIP3    H110731   4.459   7.746   2.146
 3596TIP3    H210732   4.385   7.847   2.061
 3597TIP3   OH210733   1.302   7.639   6.517
 3597TIP3    H110734   1.267   7.561   6.561
 3597TIP3    H210735   1.326   7.698   6.587
 3598TIP3   OH210736   7.552   5.545   1.574
 3598TIP3    H110737   7.484   5.478   1.586
 3598TIP3    H210738   7.507   5.618   1.532
 3599TIP3   OH210739   7.666   6.556   1.616
 3599TIP3    H110740   7.736   6.610   1.651
 3599TIP3    H210741   7.585   6.600   1.644
 3600TIP3   OH210742   7.402   1.430   0.034
 3600TIP3    H110743   7.330   1.468  -0.016
 3600TIP3    H210744   7.359   1.377   0.101
 3601TIP3   OH210745   5.116   5.857   1.889
 3601TIP3    H110746   5.131   5.893   1.802
 3601TIP3    H210747   5.033   5.810   1.883
 3602TIP3   OH210748   5.697   1.427   4.948
 3602TIP3    H110749   5.746   1.350   4.976
 3602TIP3    H210750   5.743   1.457   4.870
 3603TIP3   OH210751   4.703   5.611   3.694
 3603TIP3    H110752   4.669   5.548   3.758
 3603TIP3    H210753   4.725   5.557   3.618
 3604TIP3   OH210754   5.711   0.846   2.465
 3604TIP3    H110755   5.697   0.941   2.461
 3604TIP3    H210756   5.625   0.809   2.447
 3605TIP3   OH210757   5.140   2.617   3.691
 3605TIP3    H110758   5.230   2.638   3.665
 3605TIP3    H210759   5.093   2.611   3.608
 3606TIP3   OH210760   2.060   3.409   0.535
 3606TIP3    H110761   2.055   3.411   0.630
 3606TIP3    H210762   2.153   3.395   0.516
 3607TIP3   OH210763   2.913   1.714   3.576
 3607TIP3    H110764   2.986   1.652   3.585
 3607TIP3    H210765   2.892   1.712   3.482
 3608TIP3   OH210766   0.296   2.281   5.585
 3608TIP3    H110767   0.377   2.313   5.544
 3608TIP3    H210768   0.278   2.344   5.654
 3609TIP3   OH210769   4.917   0.516   1.053
 3609TIP3    H110770   4.886   0.538   0.965
 3609TIP3    H210771   4.890   0.589   1.107
 3610TIP3   OH210772   3.650   5.666   5.535
 3610TIP3    H110773   3.733   5.673   5.488
 3610TIP3    H210774   3.662   5.590   5.592
 3611TIP3   OH210775   3.617   6.711   6.186
 3611TIP3    H110776   3.626   6.724   6.281
 3611TIP3    H210777   3.615   6.800   6.150
 3612TIP3   OH210778   2.208   5.022   6.540
 3612TIP3    H110779   2.130   5.028   6.596
 3612TIP3    H210780   2.173   5.022   6.451
 3613TIP3   OH210781   3.857   3.572   0.290
 3613TIP3    H110782   3.858   3.621   0.372
 3613TIP3    H210783   3.940   3.524   0.289
 3614TIP3   OH210784   4.322   7.509   0.214
 3614TIP3    H110785   4.357   7.423   0.237
 3614TIP3    H210786   4.227   7.499   0.219
 3615TIP3   OH210787   2.389   5.319   1.773
 3615TIP3    H110788   2.305   5.324   1.728
 3615TIP3    H210789   2.454   5.340   1.706
 3616TIP3   OH210790   1.623   1.936   6.616
 3616TIP3    H110791   1.716   1.912   6.614
 3616TIP3    H210792   1.576   1.853   6.606
 3617TIP3   OH210793   4.711   0.688   3.236
 3617TIP3    H110794   4.745   0.674   3.148
 3617TIP3    H210795   4.622   0.653   3.233
 3618TIP3   OH210796   1.208   6.269   0.264
 3618TIP3    H110797   1.280   6.329   0.287
 3618TIP3    H210798   1.130   6.310   0.301
 3619TIP3   OH210799   0.631   7.185   5.057
 3619TIP3    H110800   0.595   7.179   4.969
 3619TIP3    H210801   0.593   7.265   5.093
 3620TIP3   OH210802   0.409   3.633   0.520
 3620TIP3    H110803   0.382   3.643   0.428
 3620TIP3    H210804   0.430   3.540   0.528
 3621TIP3   OH210805   4.126   1.270   2.750
 3621TIP3    H110806   4.216   1.241   2.765
 3621TIP3    H210807   4.106   1.242   2.660
 3622TIP3   OH210808   7.647   1.760   3.211
 3622TIP3    H110809   7.595   1.753   3.291
 3622TIP3    H210810   7.694   1.843   3.221
 3623TIP3   OH210811   6.469   0.449   4.935
 3623TIP3    H110812   6.413   0.522   4.907
 3623TIP3    H210813   6.503   0.477   5.021
 3624TIP3   OH210814   0.120   6.149   4.230
 3624TIP3    H110815   0.057   6.213   4.198
 3624TIP3    H210816   0.108   6.147   4.325
 3625TIP3   OH210817   1.292   0.578   4.142
 3625TIP3    H110818   1.346   0.569   4.220
 3625TIP3    H210819   1.341   0.635   4.084
 3626TIP3   OH210820   6.268   2.502   3.519
 3626TIP3    H110821   6.251   2.589   3.484
 3626TIP3    H210822   6.353   2.510   3.562
 3627TIP3   OH210823   7.577   5.685   2.551
 3627TIP3    H110824   7.514   5.753   2.525
 3627TIP3    H210825   7.609   5.649   2.468
 3628TIP3   OH210826   6.458   6.866   1.675
 3628TIP3    H110827   6.530   6.825   1.723
 3628TIP3    H210828   6.383   6.862   1.736
 3629TIP3   OH210829   7.725   3.057   2.069
 3629TIP3    H110830   7.629   3.057   2.079
 3629TIP3    H210831   7.752   2.973   2.105
 3630TIP3   OH210832   7.352   3.727   3.419
 3630TIP3    H110833   7.338   3.768   3.504
 3630TIP3    H210834   7.265   3.700   3.390
 3631TIP3   OH210835   5.700   5.116   3.712
 3631TIP3    H110836   5.648   5.053   3.762
 3631TIP3    H210837   5.784   5.117   3.758
 3632TIP3   OH210838   3.786   0.768   5.850
 3632TIP3    H110839   3.822   0.720   5.775
 3632TIP3    H210840   3.860   0.776   5.910
 3633TIP3   OH210841   4.086   6.466   3.754
 3633TIP3    H110842   3.990   6.462   3.756
 3633TIP3    H210843   4.106   6.552   3.790
 3634TIP3   OH210844   5.702   2.270   0.213
 3634TIP3    H110845   5.793   2.299   0.205
 3634TIP3    H210846   5.704   2.178   0.187
 3635TIP3   OH210847   0.745   1.508   0.865
 3635TIP3    H110848   0.763   1.416   0.886
 3635TIP3    H210849   0.818   1.556   0.903
 3636TIP3   OH210850   2.220   1.924   3.025
 3636TIP3    H110851   2.155   1.991   3.004
 3636TIP3    H210852   2.298   1.950   2.976
 3637TIP3   OH210853   4.501   6.686   4.420
 3637TIP3    H110854   4.456   6.703   4.503
 3637TIP3    H210855   4.591   6.663   4.446
 3638TIP3   OH210856   6.792   5.432   1.042
 3638TIP3    H110857   6.768   5.394   0.957
 3638TIP3    H210858   6.850   5.366   1.082
 3639TIP3   OH210859   4.944   2.097   0.694
 3639TIP3    H110860   4.939   2.101   0.789
 3639TIP3    H210861   5.024   2.145   0.672
 3640TIP3   OH210862   7.260   1.829   3.800
 3640TIP3    H110863   7.202   1.891   3.844
 3640TIP3    H210864   7.307   1.786   3.872
 3641TIP3   OH210865   2.027   2.575   0.142
 3641TIP3    H110866   1.985   2.639   0.199
 3641TIP3    H210867   2.110   2.615   0.117
 3642TIP3   OH210868   4.565   7.617   3.599
 3642TIP3    H110869   4.615   7.562   3.537
 3642TIP3    H210870   4.529   7.555   3.662
 3643TIP3   OH210871   2.774   0.810   5.227
 3643TIP3    H110872   2.723   0.835   5.304
 3643TIP3    H210873   2.733   0.729   5.197
 3644TIP3   OH210874   7.014   3.279   0.458
 3644TIP3    H110875   6.963   3.269   0.378
 3644TIP3    H210876   7.105   3.288   0.429
 3645TIP3   OH210877   7.054   2.186   5.259
 3645TIP3    H110878   7.063   2.280   5.244
 3645TIP3    H210879   7.104   2.145   5.189
 3646TIP3   OH210880   6.327   6.052   1.262
 3646TIP3    H110881   6.381   6.008   1.328
 3646TIP3    H210882   6.248   6.079   1.309
 3647TIP3   OH210883   5.200   5.272   1.227
 3647TIP3    H110884   5.122   5.222   1.202
 3647TIP3    H210885   5.256   5.208   1.271
 3648TIP3   OH210886   3.066   4.242   6.407
 3648TIP3    H110887   3.092   4.166   6.459
 3648TIP3    H210888   3.035   4.305   6.471
 3649TIP3   OH210889   7.153   5.311   4.461
 3649TIP3    H110890   7.177   5.391   4.414
 3649TIP3    H210891   7.111   5.341   4.541
 3650TIP3   OH210892   7.810   4.212   0.940
 3650TIP3    H110893   7.749   4.165   0.997
 3650TIP3    H210894   7.882   4.150   0.926
 3651TIP3   OH210895   1.246   7.589   5.498
 3651TIP3    H110896   1.281   7.512   5.543
 3651TIP3    H210897   1.289   7.663   5.539
 3652TIP3   OH210898   0.650   2.484   4.211
 3652TIP3    H110899   0.578   2.435   4.171
 3652TIP3    H210900   0.723   2.422   4.214
 3653TIP3   OH210901   0.224   2.274   2.626
 3653TIP3    H110902   0.210   2.359   2.584
 3653TIP3    H210903   0.223   2.293   2.720
 3654TIP3   OH210904   3.077   0.655   4.273
 3654TIP3    H110905   3.113   0.710   4.342
 3654TIP3    H210906   3.151   0.633   4.217
 3655TIP3   OH210907   8.118   6.421   5.808
 3655TIP3    H110908   8.036   6.371   5.811
 3655TIP3    H210909   8.187   6.354   5.811
 3656TIP3   OH210910   7.492   6.054   0.480
 3656TIP3    H110911   7.482   6.042   0.386
 3656TIP3    H210912   7.497   5.964   0.514
 3657TIP3   OH210913   0.505   6.848   0.539
 3657TIP3    H110914   0.442   6.789   0.497
 3657TIP3    H210915   0.488   6.838   0.633
 3658TIP3   OH210916   0.443   7.152   0.529
 3658TIP3    H110917   0.511   7.101   0.485
 3658TIP3    H210918   0.489   7.228   0.565
 3659TIP3   OH210919   1.698   2.624   2.147
 3659TIP3    H110920   1.660   2.572   2.218
 3659TIP3    H210921   1.642   2.701   2.142
 3660TIP3   OH210922   3.835   2.578   2.388
 3660TIP3    H110923   3.776   2.516   2.344
 3660TIP3    H210924   3.788   2.605   2.467
 3661TIP3   OH210925   2.603   1.383   0.998
 3661TIP3    H110926   2.580   1.473   0.975
 3661TIP3    H210927   2.518   1.339   1.011
 3662TIP3   OH210928   1.752   7.802   1.537
 3662TIP3    H110929   1.780   7.722   1.580
 3662TIP3    H210930   1.725   7.774   1.450
 3663TIP3   OH210931   5.393   6.944   0.870
 3663TIP3    H110932   5.475   6.985   0.842
 3663TIP3    H210933   5.415   6.898   0.950
 3664TIP3   OH210934   2.465   7.227   3.515
 3664TIP3    H110935   2.424   7.158   3.462
 3664TIP3    H210936   2.544   7.187   3.550
 3665TIP3   OH210937   4.945   4.004   3.787
 3665TIP3    H110938   4.862   3.965   3.759
 3665TIP3    H210939   4.922   4.093   3.813
 3666TIP3   OH210940   1.291   7.620   2.423
 3666TIP3    H110941   1.241   7.591   2.499
 3666TIP3    H210942   1.243   7.585   2.348
 3667TIP3   OH210943   4.969   6.280   0.897
 3667TIP3    H110944   5.061   6.304   0.909
 3667TIP3    H210945   4.957   6.279   0.802
 3668TIP3   OH210946   1.626   6.543   6.344
 3668TIP3    H110947   1.698   6.603   6.325
 3668TIP3    H210948   1.575   6.541   6.263
 3669TIP3   OH210949   0.679   6.224   3.491
 3669TIP3    H110950   0.597   6.236   3.538
 3669TIP3    H210951   0.737   6.293   3.523
 3670TIP3   OH210952   6.701   4.234   1.203
 3670TIP3    H110953   6.625   4.287   1.226
 3670TIP3    H210954   6.678   4.145   1.230
 3671TIP3   OH210955   0.955   5.562   0.902
 3671TIP3    H110956   0.956   5.492   0.967
 3671TIP3    H210957   0.886   5.622   0.931
 3672TIP3   OH210958   4.345   1.513   2.708
 3672TIP3    H110959   4.293   1.593   2.703
 3672TIP3    H210960   4.301   1.452   2.648
 3673TIP3   OH210961   5.812   2.459   3.369
 3673TIP3    H110962   5.726   2.486   3.403
 3673TIP3    H210963   5.808   2.478   3.275
 3674TIP3   OH210964   2.118   3.040   4.121
 3674TIP3    H110965   2.084   3.060   4.034
 3674TIP3    H210966   2.189   3.103   4.135
 3675TIP3   OH210967   6.271   4.202   6.709
 3675TIP3    H110968   6.215   4.231   6.781
 3675TIP3    H210969   6.288   4.110   6.727
 3676TIP3   OH210970   7.417   6.803   6.245
 3676TIP3    H110971   7.471   6.769   6.316
 3676TIP3    H210972   7.329   6.770   6.264
 3677TIP3   OH210973   6.104   6.065   3.985
 3677TIP3    H110974   6.047   6.141   4.000
 3677TIP3    H210975   6.044   5.996   3.955
 3678TIP3   OH210976   1.412   4.248   2.995
 3678TIP3    H110977   1.323   4.212   2.995
 3678TIP3    H210978   1.403   4.337   2.962
 3679TIP3   OH210979   5.383   7.375   2.340
 3679TIP3    H110980   5.450   7.410   2.282
 3679TIP3    H210981   5.320   7.333   2.281
 3680TIP3   OH210982   3.224   0.171   4.208
 3680TIP3    H110983   3.290   0.183   4.276
 3680TIP3    H210984   3.201   0.078   4.213
 3681TIP3   OH210985   3.554   0.956   0.294
 3681TIP3    H110986   3.599   0.909   0.225
 3681TIP3    H210987   3.593   0.923   0.375
 3682TIP3   OH210988   1.725   0.885   1.107
 3682TIP3    H110989   1.686   0.806   1.071
 3682TIP3    H210990   1.662   0.916   1.172
 3683TIP3   OH210991   1.039   7.733   6.356
 3683TIP3    H110992   1.085   7.793   6.296
 3683TIP3    H210993   1.107   7.704   6.417
 3684TIP3   OH210994   7.654   4.862   3.803
 3684TIP3    H110995   7.703   4.813   3.737
 3684TIP3    H210996   7.710   4.936   3.825
 3685TIP3   OH210997   1.769   1.820   0.514
 3685TIP3    H110998   1.678   1.819   0.542
 3685TIP3    H210999   1.782   1.736   0.469
 3686TIP3   OH211000   3.226   2.734   5.675
 3686TIP3    H111001   3.197   2.825   5.687
 3686TIP3    H211002   3.219   2.695   5.762
 3687TIP3   OH211003   2.835   3.325   4.579
 3687TIP3    H111004   2.901   3.384   4.542
 3687TIP3    H211005   2.852   3.325   4.673
 3688TIP3   OH211006   1.988   6.351   1.643
 3688TIP3    H111007   2.062   6.362   1.583
 3688TIP3    H211008   2.014   6.396   1.723
 3689TIP3   OH211009   7.810   0.327   3.543
 3689TIP3    H111010   7.717   0.327   3.564
 3689TIP3    H211011   7.832   0.419   3.530
 3690TIP3   OH211012   1.932   1.059   6.717
 3690TIP3    H111013   1.880   0.981   6.732
 3690TIP3    H211014   2.018   1.038   6.754
 3691TIP3   OH211015   7.100   7.638   5.298
 3691TIP3    H111016   7.085   7.572   5.230
 3691TIP3    H211017   7.027   7.699   5.289
 3692TIP3   OH211018   3.319   1.892   0.040
 3692TIP3    H111019   3.400   1.942   0.028
 3692TIP3    H211020   3.258   1.929  -0.024
 3693TIP3   OH211021   1.981   2.731   2.108
 3693TIP3    H111022   1.944   2.714   2.021
 3693TIP3    H211023   1.914   2.699   2.169
 3694TIP3   OH211024   3.895   0.626   1.794
 3694TIP3    H111025   3.990   0.624   1.803
 3694TIP3    H211026   3.865   0.685   1.864
 3695TIP3   OH211027   0.244   5.531   3.560
 3695TIP3    H111028   0.311   5.520   3.627
 3695TIP3    H211029   0.168   5.564   3.607
 3696TIP3   OH211030   2.326   6.190   1.901
 3696TIP3    H111031   2.338   6.284   1.892
 3696TIP3    H211032   2.265   6.166   1.831
 3697TIP3   OH211033   4.721   3.784   4.022
 3697TIP3    H111034   4.686   3.870   3.997
 3697TIP3    H211035   4.784   3.763   3.953
 3698TIP3   OH211036   5.040   6.956   3.831
 3698TIP3    H111037   5.014   6.892   3.765
 3698TIP3    H211038   5.031   6.909   3.914
 3699TIP3   OH211039   8.087   0.044   6.525
 3699TIP3    H111040   8.062   0.014   6.437
 3699TIP3    H211041   8.017   0.011   6.582
 3700TIP3   OH211042   8.226   5.102   4.409
 3700TIP3    H111043   8.228   5.197   4.394
 3700TIP3    H211044   8.195   5.066   4.326
 3701TIP3   OH211045   6.010   2.185   0.047
 3701TIP3    H111046   5.995   2.143  -0.038
 3701TIP3    H211047   6.100   2.218   0.041
 3702TIP3   OH211048   2.929   5.761   5.681
 3702TIP3    H111049   2.953   5.669   5.669
 3702TIP3    H211050   2.900   5.789   5.595
 3703TIP3   OH211051   0.573   1.323   5.770
 3703TIP3    H111052   0.611   1.333   5.682
 3703TIP3    H211053   0.519   1.245   5.765
 3704TIP3   OH211054   7.114   1.050   2.235
 3704TIP3    H111055   7.057   0.981   2.200
 3704TIP3    H211056   7.068   1.131   2.215
 3705TIP3   OH211057   4.795   4.750   1.394
 3705TIP3    H111058   4.772   4.757   1.487
 3705TIP3    H211059   4.766   4.663   1.368
 3706TIP3   OH211060   3.276   4.226   3.916
 3706TIP3    H111061   3.236   4.169   3.851
 3706TIP3    H211062   3.360   4.184   3.937
 3707TIP3   OH211063   5.777   3.440   5.823
 3707TIP3    H111064   5.815   3.455   5.736
 3707TIP3    H211065   5.850   3.410   5.877
 3708TIP3   OH211066   6.972   0.561   4.818
 3708TIP3    H111067   6.911   0.633   4.803
 3708TIP3    H211068   7.021   0.585   4.897
 3709TIP3   OH211069   0.939   0.694   2.541
 3709TIP3    H111070   0.892   0.635   2.600
 3709TIP3    H211071   0.985   0.754   2.600
 3710TIP3   OH211072   1.128   0.345   3.696
 3710TIP3    H111073   1.167   0.349   3.608
 3710TIP3    H211074   1.034   0.357   3.681
 3711TIP3   OH211075   7.579   3.229   0.078
 3711TIP3    H111076   7.627   3.214  -0.004
 3711TIP3    H211077   7.522   3.303   0.059
 3712TIP3   OH211078   5.043   1.652   0.763
 3712TIP3    H111079   4.958   1.622   0.793
 3712TIP3    H211080   5.023   1.719   0.697
 3713TIP3   OH211081   4.484   6.822   2.219
 3713TIP3    H111082   4.520   6.879   2.288
 3713TIP3    H211083   4.390   6.821   2.235
 3714TIP3   OH211084   2.371   1.690   5.929
 3714TIP3    H111085   2.306   1.756   5.905
 3714TIP3    H211086   2.446   1.710   5.872
 3715TIP3   OH211087   2.897   5.358   1.836
 3715TIP3    H111088   2.872   5.360   1.744
 3715TIP3    H211089   2.992   5.367   1.835
 3716TIP3   OH211090   1.899   5.736   0.890
 3716TIP3    H111091   1.918   5.647   0.858
 3716TIP3    H211092   1.835   5.724   0.959
 3717TIP3   OH211093   4.371   7.001   5.634
 3717TIP3    H111094   4.460   7.035   5.625
 3717TIP3    H211095   4.347   7.018   5.725
 3718TIP3   OH211096   1.139   4.310   6.474
 3718TIP3    H111097   1.174   4.240   6.419
 3718TIP3    H211098   1.161   4.391   6.428
 3719TIP3   OH211099   5.549   0.764   6.010
 3719TIP3    H111100   5.478   0.699   6.016
 3719TIP3    H211101   5.624   0.721   6.051
 3720TIP3   OH211102   6.506   7.404   5.645
 3720TIP3    H111103   6.425   7.386   5.693
 3720TIP3    H211104   6.477   7.425   5.557
 3721TIP3   OH211105   0.350   4.806   1.072
 3721TIP3    H111106   0.277   4.748   1.051
 3721TIP3    H211107   0.312   4.874   1.127
 3722TIP3   OH211108   3.135   0.648   4.550
 3722TIP3    H111109   3.180   0.722   4.510
 3722TIP3    H211110   3.170   0.571   4.505
 3723TIP3   OH211111   3.449   0.931   2.011
 3723TIP3    H111112   3.512   0.872   2.051
 3723TIP3    H211113   3.478   1.019   2.035
 3724TIP3   OH211114   0.358   0.943   5.022
 3724TIP3    H111115   0.336   1.013   5.083
 3724TIP3    H211116   0.389   0.871   5.078
 3725TIP3   OH211117   3.336   6.021   2.021
 3725TIP3    H111118   3.344   5.978   2.106
 3725TIP3    H211119   3.417   5.997   1.974
 3726TIP3   OH211120   2.167   6.904   0.200
 3726TIP3    H111121   2.207   6.945   0.123
 3726TIP3    H211122   2.236   6.848   0.235
 3727TIP3   OH211123   2.732   7.509   5.509
 3727TIP3    H111124   2.791   7.569   5.554
 3727TIP3    H211125   2.756   7.516   5.416
 3728TIP3   OH211126   5.627   1.047   0.079
 3728TIP3    H111127   5.583   0.990   0.017
 3728TIP3    H211128   5.556   1.089   0.128
 3729TIP3   OH211129   2.031   2.170   0.728
 3729TIP3    H111130   2.030   2.226   0.806
 3729TIP3    H211131   2.077   2.222   0.662
 3730TIP3   OH211132   2.196   4.032   4.549
 3730TIP3    H111133   2.267   4.016   4.610
 3730TIP3    H211134   2.153   3.947   4.539
 3731TIP3   OH211135   8.298   0.452   4.339
 3731TIP3    H111136   8.218   0.494   4.307
 3731TIP3    H211137   8.270   0.401   4.415
 3732TIP3   OH211138   6.838   7.598   1.363
 3732TIP3    H111139   6.808   7.537   1.296
 3732TIP3    H211140   6.933   7.583   1.368
 3733TIP3   OH211141   5.209   5.801   3.153
 3733TIP3    H111142   5.162   5.720   3.171
 3733TIP3    H211143   5.140   5.864   3.130
 3734TIP3   OH211144   5.241   1.507   3.162
 3734TIP3    H111145   5.292   1.589   3.169
 3734TIP3    H211146   5.300   1.440   3.196
 3735TIP3   OH211147   1.882   1.600   5.716
 3735TIP3    H111148   1.909   1.660   5.785
 3735TIP3    H211149   1.787   1.614   5.709
 3736TIP3   OH211150   0.509   3.213   6.530
 3736TIP3    H111151   0.446   3.151   6.495
 3736TIP3    H211152   0.534   3.267   6.456
 3737TIP3   OH211153   7.119   3.036   6.259
 3737TIP3    H111154   7.199   2.988   6.237
 3737TIP3    H211155   7.082   2.988   6.333
 3738TIP3   OH211156   1.702   7.123   3.191
 3738TIP3    H111157   1.698   7.210   3.151
 3738TIP3    H211158   1.661   7.065   3.127
 3739TIP3   OH211159   4.513   1.033   2.619
 3739TIP3    H111160   4.419   1.025   2.606
 3739TIP3    H211161   4.546   1.067   2.535
 3740TIP3   OH211162   1.320   1.476   2.261
 3740TIP3    H111163   1.384   1.417   2.300
 3740TIP3    H211164   1.311   1.547   2.325
 3741TIP3   OH211165   2.707   4.678   3.283
 3741TIP3    H111166   2.780   4.664   3.344
 3741TIP3    H211167   2.650   4.740   3.327
 3742TIP3   OH211168   6.731   2.957   1.741
 3742TIP3    H111169   6.788   2.897   1.790
 3742TIP3    H211170   6.673   2.995   1.807
 3743TIP3   OH211171   1.634   4.762   4.217
 3743TIP3    H111172   1.713   4.778   4.269
 3743TIP3    H211173   1.589   4.691   4.264
 3744TIP3   OH211174   3.478   6.566   3.098
 3744TIP3    H111175   3.385   6.550   3.115
 3744TIP3    H211176   3.516   6.479   3.090
 3745TIP3   OH211177   7.955   3.552   1.294
 3745TIP3    H111178   8.016   3.489   1.333
 3745TIP3    H211179   8.011   3.625   1.268
 3746TIP3   OH211180   6.905   6.591   1.146
 3746TIP3    H111181   6.847   6.517   1.159
 3746TIP3    H211182   6.849   6.660   1.109
 3747TIP3   OH211183   4.293   7.461   5.816
 3747TIP3    H111184   4.324   7.384   5.768
 3747TIP3    H211185   4.219   7.493   5.764
 3748TIP3   OH211186   0.473   6.577   2.200
 3748TIP3    H111187   0.385   6.556   2.168
 3748TIP3    H211188   0.528   6.577   2.122
 3749TIP3   OH211189   5.121   1.313   2.883
 3749TIP3    H111190   5.152   1.248   2.946
 3749TIP3    H211191   5.186   1.311   2.813
 3750TIP3   OH211192   2.513   3.052   5.059
 3750TIP3    H111193   2.454   3.108   5.109
 3750TIP3    H211194   2.468   3.037   4.976
 3751TIP3   OH211195   4.415   4.017   0.382
 3751TIP3    H111196   4.505   3.985   0.376
 3751TIP3    H211197   4.399   4.060   0.298
 3752TIP3   OH211198   6.148   4.880   4.466
 3752TIP3    H111199   6.235   4.877   4.506
 3752TIP3    H211200   6.102   4.948   4.515
 3753TIP3   OH211201   3.152   5.039   5.238
 3753TIP3    H111202   3.201   5.107   5.285
 3753TIP3    H211203   3.208   4.962   5.244
 3754TIP3   OH211204   0.463   5.545   2.458
 3754TIP3    H111205   0.479   5.640   2.462
 3754TIP3    H211206   0.536   5.511   2.406
 3755TIP3   OH211207   0.227   4.811   3.289
 3755TIP3    H111208   0.284   4.765   3.228
 3755TIP3    H211209   0.164   4.856   3.233
 3756TIP3   OH211210   0.759   5.058   4.214
 3756TIP3    H111211   0.675   5.104   4.227
 3756TIP3    H211212   0.823   5.128   4.208
 3757TIP3   OH211213   4.815   3.630   2.271
 3757TIP3    H111214   4.746   3.577   2.311
 3757TIP3    H211215   4.895   3.601   2.315
 3758TIP3   OH211216   6.051   7.055   3.751
 3758TIP3    H111217   6.040   6.983   3.689
 3758TIP3    H211218   6.133   7.036   3.796
 3759TIP3   OH211219   6.426   4.685   3.704
 3759TIP3    H111220   6.469   4.733   3.634
 3759TIP3    H211221   6.335   4.678   3.677
 3760TIP3   OH211222   2.032   2.909   0.293
 3760TIP3    H111223   1.936   2.909   0.296
 3760TIP3    H211224   2.058   2.920   0.385
 3761TIP3   OH211225   2.159   1.241   6.294
 3761TIP3    H111226   2.104   1.181   6.343
 3761TIP3    H211227   2.152   1.211   6.203
 3762TIP3   OH211228   1.275   5.201   4.299
 3762TIP3    H111229   1.296   5.137   4.366
 3762TIP3    H211230   1.350   5.260   4.297
 3763TIP3   OH211231   7.744   0.060   6.407
 3763TIP3    H111232   7.803  -0.004   6.367
 3763TIP3    H211233   7.678   0.077   6.339
 3764TIP3   OH211234   0.891   5.732   2.603
 3764TIP3    H111235   0.852   5.788   2.536
 3764TIP3    H211236   0.928   5.793   2.667
 3765TIP3   OH211237   6.715   5.297   2.142
 3765TIP3    H111238   6.667   5.267   2.220
 3765TIP3    H211239   6.701   5.229   2.077
 3766TIP3   OH211240   4.124   5.246   6.295
 3766TIP3    H111241   4.139   5.214   6.384
 3766TIP3    H211242   4.058   5.187   6.259
 3767TIP3   OH211243   8.109   2.774   0.239
 3767TIP3    H111244   8.171   2.798   0.309
 3767TIP3    H211245   8.148   2.810   0.160
 3768TIP3   OH211246   5.645   7.442   2.098
 3768TIP3    H111247   5.603   7.526   2.080
 3768TIP3    H211248   5.704   7.459   2.171
 3769TIP3   OH211249   5.321   6.549   0.136
 3769TIP3    H111250   5.261   6.620   0.111
 3769TIP3    H211251   5.348   6.571   0.225
 3770TIP3   OH211252   6.359   2.095   5.306
 3770TIP3    H111253   6.360   2.000   5.316
 3770TIP3    H211254   6.380   2.129   5.393
 3771TIP3   OH211255   4.003   2.801   1.774
 3771TIP3    H111256   3.920   2.807   1.726
 3771TIP3    H211257   4.059   2.869   1.735
 3772TIP3   OH211258   3.352   3.504   5.071
 3772TIP3    H111259   3.257   3.495   5.060
 3772TIP3    H211260   3.388   3.488   4.984
 3773TIP3   OH211261   2.530   0.505   3.751
 3773TIP3    H111262   2.564   0.498   3.661
 3773TIP3    H211263   2.484   0.422   3.765
 3774TIP3   OH211264   2.021   6.308   0.670
 3774TIP3    H111265   2.062   6.222   0.684
 3774TIP3    H211266   1.951   6.312   0.735
 3775TIP3   OH211267   6.437   4.874   3.899
 3775TIP3    H111268   6.496   4.847   3.970
 3775TIP3    H211269   6.442   4.804   3.835
 3776TIP3   OH211270   4.327   0.252   1.811
 3776TIP3    H111271   4.359   0.297   1.889
 3776TIP3    H211272   4.405   0.235   1.759
 3777TIP3   OH211273   0.771   2.541   1.717
 3777TIP3    H111274   0.863   2.568   1.724
 3777TIP3    H211275   0.730   2.575   1.796
 3778TIP3   OH211276   1.104   4.899   3.672
 3778TIP3    H111277   1.120   4.947   3.753
 3778TIP3    H211278   1.071   4.965   3.611
 3779TIP3   OH211279   6.264   6.069   3.078
 3779TIP3    H111280   6.190   6.125   3.058
 3779TIP3    H211281   6.339   6.129   3.083
 3780TIP3   OH211282   6.905   5.573   3.006
 3780TIP3    H111283   6.916   5.481   3.030
 3780TIP3    H211284   6.863   5.570   2.920
 3781TIP3   OH211285   0.117   4.437   2.051
 3781TIP3    H111286   0.195   4.383   2.039
 3781TIP3    H211287   0.143   4.502   2.117
 3782TIP3   OH211288   0.452   7.440   5.074
 3782TIP3    H111289   0.445   7.531   5.047
 3782TIP3    H211290   0.388   7.430   5.145
 3783TIP3   OH211291   6.086   0.682   1.849
 3783TIP3    H111292   6.103   0.613   1.913
 3783TIP3    H211293   6.090   0.763   1.899
 3784TIP3   OH211294   8.078   0.191   0.621
 3784TIP3    H111295   8.024   0.115   0.600
 3784TIP3    H211296   8.059   0.209   0.713
 3785TIP3   OH211297   6.125   2.333   5.834
 3785TIP3    H111298   6.215   2.331   5.868
 3785TIP3    H211299   6.125   2.267   5.765
 3786TIP3   OH211300   6.245   4.805   0.132
 3786TIP3    H111301   6.169   4.860   0.152
 3786TIP3    H211302   6.210   4.716   0.128
 3787TIP3   OH211303   4.965   5.424   3.896
 3787TIP3    H111304   4.917   5.367   3.956
 3787TIP3    H211305   4.947   5.389   3.809
 3788TIP3   OH211306   7.863   0.703   1.787
 3788TIP3    H111307   7.950   0.737   1.809
 3788TIP3    H211308   7.816   0.779   1.752
 3789TIP3   OH211309   0.697   1.948   3.711
 3789TIP3    H111310   0.653   1.935   3.626
 3789TIP3    H211311   0.632   1.920   3.775
 3790TIP3   OH211312   0.226   3.452   0.257
 3790TIP3    H111313   0.318   3.429   0.256
 3790TIP3    H211314   0.195   3.435   0.168
 3791TIP3   OH211315   7.604   5.100   0.832
 3791TIP3    H111316   7.670   5.097   0.762
 3791TIP3    H211317   7.543   5.168   0.805
 3792TIP3   OH211318   7.673   5.039   4.961
 3792TIP3    H111319   7.664   5.005   4.872
 3792TIP3    H211320   7.690   4.961   5.015
 3793TIP3   OH211321   0.969   7.466   0.137
 3793TIP3    H111322   1.017   7.523   0.197
 3793TIP3    H211323   0.882   7.458   0.176
 3794TIP3   OH211324   7.208   0.240   1.483
 3794TIP3    H111325   7.215   0.336   1.485
 3794TIP3    H211326   7.212   0.213   1.574
 3795TIP3   OH211327   0.048   7.168   6.019
 3795TIP3    H111328   0.023   7.215   5.940
 3795TIP3    H211329  -0.022   7.104   6.032
 3796TIP3   OH211330   6.438   5.081   2.002
 3796TIP3    H111331   6.533   5.093   2.007
 3796TIP3    H211332   6.416   5.107   1.913
 3797TIP3   OH211333   1.009   4.430   0.749
 3797TIP3    H111334   0.963   4.509   0.719
 3797TIP3    H211335   0.948   4.389   0.810
 3798TIP3   OH211336   7.363   0.913   5.586
 3798TIP3    H111337   7.396   0.891   5.673
 3798TIP3    H211338   7.441   0.939   5.537
 3799TIP3   OH211339   7.596   3.734   1.858
 3799TIP3    H111340   7.631   3.652   1.894
 3799TIP3    H211341   7.509   3.742   1.898
 3800TIP3   OH211342   0.257   4.427   1.056
 3800TIP3    H111343   0.204   4.385   1.124
 3800TIP3    H211344   0.196   4.483   1.010
 3801TIP3   OH211345   3.803   2.433   5.266
 3801TIP3    H111346   3.727   2.407   5.317
 3801TIP3    H211347   3.830   2.353   5.221
 3802TIP3   OH211348   3.570   4.390   1.329
 3802TIP3    H111349   3.577   4.295   1.340
 3802TIP3    H211350   3.580   4.425   1.418
 3803TIP3   OH211351   7.405   5.127   6.425
 3803TIP3    H111352   7.454   5.107   6.506
 3803TIP3    H211353   7.405   5.223   6.421
 3804TIP3   OH211354   5.481   7.155   5.007
 3804TIP3    H111355   5.558   7.118   5.050
 3804TIP3    H211356   5.466   7.097   4.932
 3805TIP3   OH211357   5.470   6.983   3.336
 3805TIP3    H111358   5.507   7.065   3.368
 3805TIP3    H211359   5.376   6.998   3.335
 3806TIP3   OH211360   4.937   7.745   3.176
 3806TIP3    H111361   4.926   7.812   3.244
 3806TIP3    H211362   4.849   7.735   3.139
 3807TIP3   OH211363   5.196   4.329   2.801
 3807TIP3    H111364   5.197   4.282   2.717
 3807TIP3    H211365   5.192   4.260   2.867
 3808TIP3   OH211366   7.451   3.453   0.630
 3808TIP3    H111367   7.521   3.496   0.581
 3808TIP3    H211368   7.474   3.360   0.627
 3809TIP3   OH211369   0.664  -0.007   4.718
 3809TIP3    H111370   0.628   0.076   4.747
 3809TIP3    H211371   0.745  -0.016   4.768
 3810TIP3   OH211372   0.748   7.403   1.694
 3810TIP3    H111373   0.736   7.309   1.680
 3810TIP3    H211374   0.834   7.410   1.736
 3811TIP3   OH211375   6.638   2.844   3.990
 3811TIP3    H111376   6.580   2.829   4.065
 3811TIP3    H211377   6.707   2.901   4.024
 3812TIP3   OH211378   0.163   2.104   3.982
 3812TIP3    H111379   0.080   2.151   3.976
 3812TIP3    H211380   0.141   2.014   3.956
 3813TIP3   OH211381   2.447   5.047   0.872
 3813TIP3    H111382   2.407   5.092   0.947
 3813TIP3    H211383   2.384   5.058   0.801
 3814TIP3   OH211384   7.351   7.761   5.175
 3814TIP3    H111385   7.375   7.690   5.115
 3814TIP3    H211386   7.283   7.724   5.230
 3815TIP3   OH211387   2.346   0.416   4.428
 3815TIP3    H111388   2.403   0.488   4.401
 3815TIP3    H211389   2.258   0.452   4.423
 3816TIP3   OH211390   6.974   1.290   2.175
 3816TIP3    H111391   6.880   1.292   2.160
 3816TIP3    H211392   7.012   1.345   2.107
 3817TIP3   OH211393   4.497   4.160   1.457
 3817TIP3    H111394   4.482   4.098   1.528
 3817TIP3    H211395   4.423   4.220   1.461
 3818TIP3   OH211396   6.478   3.792   3.337
 3818TIP3    H111397   6.440   3.710   3.370
 3818TIP3    H211398   6.420   3.860   3.369
 3819TIP3   OH211399   0.903   6.958   3.341
 3819TIP3    H111400   0.975   7.014   3.312
 3819TIP3    H211401   0.869   6.919   3.260
 3820TIP3   OH211402   0.644   6.163   5.843
 3820TIP3    H111403   0.552   6.151   5.819
 3820TIP3    H211404   0.692   6.154   5.761
 3821TIP3   OH211405   5.057   2.289   1.772
 3821TIP3    H111406   5.007   2.220   1.815
 3821TIP3    H211407   4.991   2.344   1.730
 3822TIP3   OH211408   4.515   1.142   1.978
 3822TIP3    H111409   4.512   1.226   2.023
 3822TIP3    H211410   4.473   1.159   1.893
 3823TIP3   OH211411   3.887   3.233   2.956
 3823TIP3    H111412   3.974   3.274   2.958
 3823TIP3    H211413   3.883   3.181   3.036
 3824TIP3   OH211414   3.182   5.531   2.125
 3824TIP3    H111415   3.252   5.590   2.097
 3824TIP3    H211416   3.104   5.565   2.081
 3825TIP3   OH211417   7.987   3.016   5.433
 3825TIP3    H111418   7.981   3.094   5.489
 3825TIP3    H211419   7.931   3.036   5.358
 3826TIP3   OH211420   2.245   2.466   0.767
 3826TIP3    H111421   2.201   2.413   0.833
 3826TIP3    H211422   2.332   2.426   0.759
 3827TIP3   OH211423   4.215   3.123   0.878
 3827TIP3    H111424   4.260   3.144   0.796
 3827TIP3    H211425   4.258   3.178   0.944
 3828TIP3   OH211426   4.438   7.683   2.751
 3828TIP3    H111427   4.410   7.767   2.713
 3828TIP3    H211428   4.357   7.633   2.760
 3829TIP3   OH211429   5.597   0.404   4.038
 3829TIP3    H111430   5.569   0.314   4.058
 3829TIP3    H211431   5.527   0.439   3.983
 3830TIP3   OH211432   4.271   2.365   1.534
 3830TIP3    H111433   4.222   2.445   1.515
 3830TIP3    H211434   4.214   2.315   1.592
 3831TIP3   OH211435   6.904   7.362   5.573
 3831TIP3    H111436   6.857   7.377   5.491
 3831TIP3    H211437   6.996   7.376   5.551
 3832TIP3   OH211438   4.914   5.848   6.758
 3832TIP3    H111439   4.999   5.845   6.715
 3832TIP3    H211440   4.874   5.763   6.737
 3833TIP3   OH211441   0.562   5.167   2.917
 3833TIP3    H111442   0.613   5.248   2.927
 3833TIP3    H211443   0.572   5.123   3.001
 3834TIP3   OH211444   7.184   6.868   0.127
 3834TIP3    H111445   7.132   6.788   0.123
 3834TIP3    H211446   7.198   6.892   0.035
 3835TIP3   OH211447   4.317   7.455   2.433
 3835TIP3    H111448   4.398   7.403   2.432
 3835TIP3    H211449   4.294   7.461   2.526
 3836TIP3   OH211450   5.421   5.122   6.227
 3836TIP3    H111451   5.368   5.177   6.169
 3836TIP3    H211452   5.382   5.134   6.314
 3837TIP3   OH211453   1.639   5.101   5.942
 3837TIP3    H111454   1.714   5.043   5.959
 3837TIP3    H211455   1.564   5.041   5.940
 3838TIP3   OH211456   3.372   3.393   2.240
 3838TIP3    H111457   3.427   3.346   2.302
 3838TIP3    H211458   3.287   3.401   2.285
 3839TIP3   OH211459   2.386   5.958   0.592
 3839TIP3    H111460   2.327   5.886   0.569
 3839TIP3    H211461   2.430   5.979   0.510
 3840TIP3   OH211462   0.378   1.139   6.134
 3840TIP3    H111463   0.461   1.092   6.130
 3840TIP3    H211464   0.402   1.231   6.141
 3841TIP3   OH211465   7.631   4.026   6.229
 3841TIP3    H111466   7.681   4.106   6.217
 3841TIP3    H211467   7.539   4.054   6.224
 3842TIP3   OH211468   5.331   5.901   4.215
 3842TIP3    H111469   5.316   5.991   4.245
 3842TIP3    H211470   5.412   5.874   4.258
 3843TIP3   OH211471   7.965   2.986   3.265
 3843TIP3    H111472   7.888   2.930   3.272
 3843TIP3    H211473   7.950   3.039   3.187
 3844TIP3   OH211474   3.285   5.883   5.034
 3844TIP3    H111475   3.281   5.905   4.941
 3844TIP3    H211476   3.223   5.943   5.076
 3845TIP3   OH211477   5.998   1.470   3.235
 3845TIP3    H111478   5.933   1.418   3.282
 3845TIP3    H211479   5.946   1.525   3.176
 3846TIP3   OH211480   1.964   6.411   3.955
 3846TIP3    H111481   1.992   6.503   3.962
 3846TIP3    H211482   2.026   6.372   3.894
 3847TIP3   OH211483   3.081   0.197   1.254
 3847TIP3    H111484   2.994   0.205   1.294
 3847TIP3    H211485   3.102   0.104   1.260
 3848TIP3   OH211486   4.863   2.932   0.837
 3848TIP3    H111487   4.850   2.981   0.756
 3848TIP3    H211488   4.909   2.992   0.894
 3849TIP3   OH211489   6.865   5.935   5.319
 3849TIP3    H111490   6.906   5.923   5.404
 3849TIP3    H211491   6.787   5.879   5.321
 3850TIP3   OH211492   6.762   1.577   4.090
 3850TIP3    H111493   6.790   1.599   4.179
 3850TIP3    H211494   6.814   1.634   4.034
 3851TIP3   OH211495   2.453   3.274   4.395
 3851TIP3    H111496   2.428   3.334   4.465
 3851TIP3    H211497   2.541   3.302   4.370
 3852TIP3   OH211498   3.259   3.754   0.336
 3852TIP3    H111499   3.252   3.769   0.430
 3852TIP3    H211500   3.176   3.786   0.300
 3853TIP3   OH211501   2.514   2.445   2.901
 3853TIP3    H111502   2.568   2.448   2.979
 3853TIP3    H211503   2.506   2.537   2.874
 3854TIP3   OH211504   1.489   3.530   3.752
 3854TIP3    H111505   1.485   3.591   3.826
 3854TIP3    H211506   1.451   3.449   3.786
 3855TIP3   OH211507   4.534   3.485   4.369
 3855TIP3    H111508   4.530   3.580   4.380
 3855TIP3    H211509   4.624   3.468   4.342
 3856TIP3   OH211510   0.490   6.419   2.423
 3856TIP3    H111511   0.397   6.418   2.400
 3856TIP3    H211512   0.529   6.480   2.360
 3857TIP3   OH211513   4.517   2.705   2.309
 3857TIP3    H111514   4.575   2.712   2.233
 3857TIP3    H211515   4.527   2.789   2.355
 3858TIP3   OH211516   0.178   2.928   1.144
 3858TIP3    H111517   0.229   2.904   1.221
 3858TIP3    H211518   0.147   3.016   1.163
 3859TIP3   OH211519   0.300   4.257   6.016
 3859TIP3    H111520   0.392   4.281   6.002
 3859TIP3    H211521   0.287   4.180   5.960
 3860TIP3   OH211522   5.804   5.841   1.056
 3860TIP3    H111523   5.851   5.874   1.132
 3860TIP3    H211524   5.719   5.814   1.090
 3861TIP3   OH211525   4.067   6.583   6.157
 3861TIP3    H111526   4.001   6.513   6.162
 3861TIP3    H211527   4.041   6.645   6.224
 3862TIP3   OH211528   1.216   4.687   4.685
 3862TIP3    H111529   1.218   4.611   4.743
 3862TIP3    H211530   1.176   4.654   4.604
 3863TIP3   OH211531   3.930   5.808   2.154
 3863TIP3    H111532   3.887   5.769   2.079
 3863TIP3    H211533   3.930   5.902   2.136
 3864TIP3   OH211534   7.983   0.452   2.053
 3864TIP3    H111535   8.058   0.511   2.058
 3864TIP3    H211536   7.910   0.502   2.088
 3865TIP3   OH211537   3.634   5.827   1.143
 3865TIP3    H111538   3.689   5.897   1.178
 3865TIP3    H211539   3.655   5.825   1.050
 3866TIP3   OH211540   6.912   4.525   2.374
 3866TIP3    H111541   6.851   4.544   2.445
 3866TIP3    H211542   6.925   4.431   2.378
 3867TIP3   OH211543   6.978   2.398   2.008
 3867TIP3    H111544   7.026   2.480   2.004
 3867TIP3    H211545   6.940   2.388   1.921
 3868TIP3   OH211546   2.604   6.256   1.059
 3868TIP3    H111547   2.618   6.208   0.977
 3868TIP3    H211548   2.692   6.282   1.086
 3869TIP3   OH211549   7.628   0.204   3.150
 3869TIP3    H111550   7.707   0.178   3.103
 3869TIP3    H211551   7.569   0.235   3.082
 3870TIP3   OH211552   2.063   0.766   0.757
 3870TIP3    H111553   2.081   0.694   0.817
 3870TIP3    H211554   2.008   0.826   0.807
 3871TIP3   OH211555   2.977   3.976   5.681
 3871TIP3    H111556   3.065   4.001   5.652
 3871TIP3    H211557   2.919   4.042   5.643
 3872TIP3   OH211558   4.425   4.933   6.199
 3872TIP3    H111559   4.469   4.876   6.263
 3872TIP3    H211560   4.433   5.021   6.236
 3873TIP3   OH211561   0.086   0.272   4.134
 3873TIP3    H111562   0.072   0.305   4.046
 3873TIP3    H211563   0.071   0.348   4.191
 3874TIP3   OH211564   4.200   0.839   3.226
 3874TIP3    H111565   4.224   0.814   3.137
 3874TIP3    H211566   4.270   0.899   3.253
 3875TIP3   OH211567   0.754   1.895   5.427
 3875TIP3    H111568   0.823   1.869   5.488
 3875TIP3    H211569   0.737   1.817   5.375
 3876TIP3   OH211570   1.510   5.715   3.401
 3876TIP3    H111571   1.509   5.734   3.307
 3876TIP3    H211572   1.432   5.662   3.416
 3877TIP3   OH211573   7.589   2.087   0.918
 3877TIP3    H111574   7.579   2.156   0.853
 3877TIP3    H211575   7.502   2.077   0.956
 3878TIP3   OH211576   0.837   6.662  -0.025
 3878TIP3    H111577   0.853   6.639   0.066
 3878TIP3    H211578   0.853   6.756  -0.030
 3879TIP3   OH211579   8.061   1.103   5.825
 3879TIP3    H111580   8.088   1.011   5.829
 3879TIP3    H211581   8.108   1.145   5.896
 3880TIP3   OH211582   7.935   7.721   2.892
 3880TIP3    H111583   7.993   7.788   2.929
 3880TIP3    H211584   7.979   7.694   2.811
 3881TIP3   OH211585   2.079   7.352   3.083
 3881TIP3    H111586   2.147   7.366   3.148
 3881TIP3    H211587   2.002   7.324   3.133
 3882TIP3   OH211588   3.849   1.716   4.742
 3882TIP3    H111589   3.850   1.621   4.741
 3882TIP3    H211590   3.904   1.742   4.668
 3883TIP3   OH211591   3.038   0.915   1.255
 3883TIP3    H111592   3.024   0.983   1.321
 3883TIP3    H211593   2.969   0.930   1.190
 3884TIP3   OH211594   5.655   4.331   3.394
 3884TIP3    H111595   5.701   4.257   3.353
 3884TIP3    H211596   5.676   4.406   3.338
 3885TIP3   OH211597   3.726   3.192   4.265
 3885TIP3    H111598   3.743   3.286   4.275
 3885TIP3    H211599   3.781   3.165   4.192
 3886TIP3   OH211600   5.472   7.074   2.993
 3886TIP3    H111601   5.557   7.031   2.981
 3886TIP3    H211602   5.479   7.154   2.941
 3887TIP3   OH211603   7.940   2.418   4.124
 3887TIP3    H111604   7.868   2.461   4.076
 3887TIP3    H211605   8.019   2.444   4.076
 3888TIP3   OH211606   7.139   2.094   2.558
 3888TIP3    H111607   7.187   2.155   2.502
 3888TIP3    H211608   7.065   2.145   2.592
 3889TIP3   OH211609   2.164   4.494   1.438
 3889TIP3    H111610   2.164   4.481   1.344
 3889TIP3    H211611   2.257   4.495   1.462
 3890TIP3   OH211612   1.639   3.960   6.716
 3890TIP3    H111613   1.636   3.868   6.690
 3890TIP3    H211614   1.653   3.957   6.811
 3891TIP3   OH211615   6.603   0.513   5.550
 3891TIP3    H111616   6.666   0.583   5.533
 3891TIP3    H211617   6.653   0.446   5.596
 3892TIP3   OH211618   7.422   0.751   5.810
 3892TIP3    H111619   7.430   0.676   5.869
 3892TIP3    H211620   7.489   0.736   5.743
 3893TIP3   OH211621   5.478   2.502   2.080
 3893TIP3    H111622   5.479   2.414   2.119
 3893TIP3    H211623   5.569   2.531   2.084
 3894TIP3   OH211624   6.368   2.065   1.410
 3894TIP3    H111625   6.308   1.992   1.427
 3894TIP3    H211626   6.351   2.088   1.319
 3895TIP3   OH211627   2.636   7.336   1.739
 3895TIP3    H111628   2.678   7.280   1.673
 3895TIP3    H211629   2.655   7.425   1.709
 3896TIP3   OH211630   3.798   3.743   0.099
 3896TIP3    H111631   3.793   3.672   0.162
 3896TIP3    H211632   3.784   3.702   0.014
 3897TIP3   OH211633   7.823   1.963   2.987
 3897TIP3    H111634   7.750   1.914   2.949
 3897TIP3    H211635   7.787   2.049   3.006
 3898TIP3   OH211636   4.854   7.209   3.557
 3898TIP3    H111637   4.836   7.303   3.554
 3898TIP3    H211638   4.947   7.202   3.579
 3899TIP3   OH211639   6.334   0.466   1.162
 3899TIP3    H111640   6.325   0.443   1.254
 3899TIP3    H211641   6.279   0.544   1.151
 3900TIP3   OH211642   6.455   5.879   0.453
 3900TIP3    H111643   6.416   5.825   0.522
 3900TIP3    H211644   6.504   5.817   0.399
 3901TIP3   OH211645   3.806   3.841   6.615
 3901TIP3    H111646   3.771   3.910   6.558
 3901TIP3    H211647   3.813   3.882   6.701
 3902TIP3   OH211648   1.252   0.711   1.134
 3902TIP3    H111649   1.247   0.656   1.212
 3902TIP3    H211650   1.163   0.746   1.123
 3903TIP3   OH211651   1.623   1.396   1.530
 3903TIP3    H111652   1.663   1.433   1.608
 3903TIP3    H211653   1.556   1.335   1.562
 3904TIP3   OH211654   6.963   7.706   1.754
 3904TIP3    H111655   7.000   7.726   1.840
 3904TIP3    H211656   6.874   7.677   1.773
 3905TIP3   OH211657   6.016   6.526   5.803
 3905TIP3    H111658   5.984   6.600   5.751
 3905TIP3    H211659   5.991   6.449   5.751
 3906TIP3   OH211660   3.512   6.499   5.765
 3906TIP3    H111661   3.587   6.449   5.733
 3906TIP3    H211662   3.440   6.435   5.768
 3907TIP3   OH211663   4.538   0.372   1.317
 3907TIP3    H111664   4.447   0.383   1.345
 3907TIP3    H211665   4.535   0.302   1.252
 3908TIP3   OH211666   6.751   2.751   2.785
 3908TIP3    H111667   6.811   2.825   2.795
 3908TIP3    H211668   6.715   2.761   2.697
 3909TIP3   OH211669   7.597   4.574   0.187
 3909TIP3    H111670   7.506   4.602   0.196
 3909TIP3    H211671   7.648   4.646   0.225
 3910TIP3   OH211672   7.648   6.265   2.660
 3910TIP3    H111673   7.728   6.317   2.668
 3910TIP3    H211674   7.606   6.271   2.746
 3911TIP3   OH211675   1.691   7.462   2.122
 3911TIP3    H111676   1.640   7.492   2.198
 3911TIP3    H211677   1.781   7.459   2.153
 3912TIP3   OH211678   1.923   7.695   0.500
 3912TIP3    H111679   1.988   7.632   0.531
 3912TIP3    H211680   1.846   7.641   0.478
 3913TIP3   OH211681   4.616   7.090   0.140
 3913TIP3    H111682   4.707   7.069   0.163
 3913TIP3    H211683   4.616   7.095   0.044
 3914TIP3   OH211684   7.481   1.267   1.425
 3914TIP3    H111685   7.459   1.186   1.471
 3914TIP3    H211686   7.525   1.237   1.345
 3915TIP3   OH211687   4.586   0.530   1.098
 3915TIP3    H111688   4.677   0.547   1.122
 3915TIP3    H211689   4.549   0.484   1.174
 3916TIP3   OH211690   3.234   0.519   0.969
 3916TIP3    H111691   3.302   0.582   0.995
 3916TIP3    H211692   3.209   0.547   0.881
 3917TIP3   OH211693   7.209   0.853   4.411
 3917TIP3    H111694   7.156   0.911   4.466
 3917TIP3    H211695   7.177   0.765   4.432
 3918TIP3   OH211696   3.305   4.828   2.045
 3918TIP3    H111697   3.349   4.852   1.963
 3918TIP3    H211698   3.375   4.796   2.101
 3919TIP3   OH211699   7.802   1.352   4.652
 3919TIP3    H111700   7.824   1.292   4.723
 3919TIP3    H211701   7.711   1.376   4.669
 3920TIP3   OH211702   1.253   3.234   6.144
 3920TIP3    H111703   1.220   3.268   6.061
 3920TIP3    H211704   1.326   3.176   6.120
 3921TIP3   OH211705   0.361   6.266   5.022
 3921TIP3    H111706   0.271   6.262   5.054
 3921TIP3    H211707   0.412   6.220   5.088
 3922TIP3   OH211708   2.621   1.060   1.515
 3922TIP3    H111709   2.629   0.966   1.499
 3922TIP3    H211710   2.583   1.066   1.603
 3923TIP3   OH211711   0.473   4.013   2.182
 3923TIP3    H111712   0.550   3.980   2.228
 3923TIP3    H211713   0.399   3.971   2.226
 3924TIP3   OH211714   1.836   7.207   2.354
 3924TIP3    H111715   1.864   7.298   2.354
 3924TIP3    H211716   1.811   7.189   2.264
 3925TIP3   OH211717   6.634   4.774   1.224
 3925TIP3    H111718   6.623   4.786   1.129
 3925TIP3    H211719   6.608   4.683   1.239
 3926TIP3   OH211720   3.392   6.854   6.449
 3926TIP3    H111721   3.387   6.803   6.368
 3926TIP3    H211722   3.440   6.933   6.424
 3927TIP3   OH211723   6.109   3.766   0.953
 3927TIP3    H111724   6.111   3.701   0.882
 3927TIP3    H211725   6.195   3.806   0.950
 3928TIP3   OH211726   4.249   5.827   4.517
 3928TIP3    H111727   4.220   5.816   4.427
 3928TIP3    H211728   4.343   5.810   4.514
 3929TIP3   OH211729   4.181   1.885   0.269
 3929TIP3    H111730   4.232   1.964   0.284
 3929TIP3    H211731   4.140   1.867   0.354
 3930TIP3   OH211732   5.880   6.755   1.148
 3930TIP3    H111733   5.867   6.807   1.228
 3930TIP3    H211734   5.813   6.687   1.153
 3931TIP3   OH211735   6.009   0.944   0.745
 3931TIP3    H111736   5.939   0.958   0.808
 3931TIP3    H211737   5.965   0.939   0.661
 3932TIP3   OH211738   5.561   6.943   6.192
 3932TIP3    H111739   5.600   7.015   6.144
 3932TIP3    H211740   5.470   6.970   6.207
 3933TIP3   OH211741   2.232   3.082   2.566
 3933TIP3    H111742   2.150   3.121   2.536
 3933TIP3    H211743   2.268   3.038   2.489
 3934TIP3   OH211744   6.693   7.791   5.111
 3934TIP3    H111745   6.733   7.704   5.108
 3934TIP3    H211746   6.613   7.779   5.163
 3935TIP3   OH211747   2.291   6.467   3.845
 3935TIP3    H111748   2.237   6.399   3.806
 3935TIP3    H211749   2.344   6.500   3.772
 3936TIP3   OH211750   2.739   1.573   0.131
 3936TIP3    H111751   2.692   1.598   0.052
 3936TIP3    H211752   2.711   1.636   0.197
 3937TIP3   OH211753   5.323   5.046   3.923
 3937TIP3    H111754   5.304   5.130   3.881
 3937TIP3    H211755   5.266   4.983   3.878
 3938TIP3   OH211756   7.818   5.932   1.235
 3938TIP3    H111757   7.754   5.871   1.199
 3938TIP3    H211758   7.817   5.915   1.329
 3939TIP3   OH211759   5.468   4.452   4.205
 3939TIP3    H111760   5.385   4.495   4.184
 3939TIP3    H211761   5.445   4.381   4.265
 3940TIP3   OH211762   1.546   4.806   5.187
 3940TIP3    H111763   1.516   4.796   5.277
 3940TIP3    H211764   1.478   4.859   5.145
 3941TIP3   OH211765   2.518   2.221   1.922
 3941TIP3    H111766   2.468   2.224   1.841
 3941TIP3    H211767   2.452   2.221   1.991
 3942TIP3   OH211768   6.901   1.992   5.122
 3942TIP3    H111769   6.909   2.061   5.188
 3942TIP3    H211770   6.898   2.039   5.039
 3943TIP3   OH211771   7.792   4.757   3.597
 3943TIP3    H111772   7.757   4.741   3.509
 3943TIP3    H211773   7.863   4.820   3.583
 3944TIP3   OH211774   1.478   4.195   2.228
 3944TIP3    H111775   1.520   4.277   2.255
 3944TIP3    H211776   1.504   4.131   2.293
 3945TIP3   OH211777   4.870   4.196   1.180
 3945TIP3    H111778   4.950   4.247   1.194
 3945TIP3    H211779   4.881   4.155   1.094
 3946TIP3   OH211780   5.781   6.852   3.765
 3946TIP3    H111781   5.780   6.925   3.703
 3946TIP3    H211782   5.819   6.888   3.845
 3947TIP3   OH211783   2.717   1.427   4.823
 3947TIP3    H111784   2.693   1.503   4.770
 3947TIP3    H211785   2.657   1.359   4.796
 3948TIP3   OH211786   5.085   1.180   4.690
 3948TIP3    H111787   4.992   1.200   4.689
 3948TIP3    H211788   5.099   1.136   4.774
 3949TIP3   OH211789   2.041   5.486   4.807
 3949TIP3    H111790   1.972   5.551   4.795
 3949TIP3    H211791   2.006   5.425   4.871
 3950TIP3   OH211792   7.468   4.511   5.273
 3950TIP3    H111793   7.390   4.459   5.291
 3950TIP3    H211794   7.534   4.447   5.244
 3951TIP3   OH211795   7.710   4.501   1.712
 3951TIP3    H111796   7.785   4.442   1.702
 3951TIP3    H211797   7.732   4.555   1.787
 3952TIP3   OH211798   0.901   2.859   2.284
 3952TIP3    H111799   0.910   2.838   2.377
 3952TIP3    H211800   0.886   2.774   2.241
 3953TIP3   OH211801   1.761   3.257   4.441
 3953TIP3    H111802   1.697   3.191   4.412
 3953TIP3    H211803   1.846   3.215   4.430
 3954TIP3   OH211804   6.399   5.416   4.777
 3954TIP3    H111805   6.418   5.381   4.864
 3954TIP3    H211806   6.327   5.477   4.792
 3955TIP3   OH211807   0.375   5.648   4.852
 3955TIP3    H111808   0.310   5.589   4.813
 3955TIP3    H211809   0.447   5.591   4.878
 3956TIP3   OH211810   7.703   2.251   1.599
 3956TIP3    H111811   7.753   2.171   1.615
 3956TIP3    H211812   7.749   2.318   1.649
 3957TIP3   OH211813   0.110   2.521   5.474
 3957TIP3    H111814   0.195   2.512   5.517
 3957TIP3    H211815   0.047   2.523   5.546
 3958TIP3   OH211816   2.802   0.991   1.128
 3958TIP3    H111817   2.771   1.059   1.188
 3958TIP3    H211818   2.802   1.032   1.042
 3959TIP3   OH211819   0.025   6.875   5.934
 3959TIP3    H111820   0.002   6.794   5.889
 3959TIP3    H211821   0.115   6.862   5.963
 3960TIP3   OH211822   2.631   1.658   4.706
 3960TIP3    H111823   2.588   1.725   4.760
 3960TIP3    H211824   2.564   1.631   4.644
 3961TIP3   OH211825   5.704   2.107   3.496
 3961TIP3    H111826   5.790   2.065   3.493
 3961TIP3    H211827   5.662   2.071   3.573
 3962TIP3   OH211828   4.804   5.319   1.342
 3962TIP3    H111829   4.782   5.320   1.249
 3962TIP3    H211830   4.779   5.231   1.371
 3963TIP3   OH211831   3.928   5.993   6.316
 3963TIP3    H111832   3.892   5.906   6.333
 3963TIP3    H211833   3.936   6.034   6.402
 3964TIP3   OH211834   7.076   4.533   2.657
 3964TIP3    H111835   7.074   4.626   2.681
 3964TIP3    H211836   7.051   4.487   2.737
 3965TIP3   OH211837   5.124   0.088   0.488
 3965TIP3    H111838   5.171   0.170   0.501
 3965TIP3    H211839   5.127   0.074   0.393
 3966TIP3   OH211840   7.152   1.285   4.413
 3966TIP3    H111841   7.164   1.238   4.331
 3966TIP3    H211842   7.110   1.368   4.388
 3967TIP3   OH211843   7.773   3.674   3.430
 3967TIP3    H111844   7.736   3.684   3.517
 3967TIP3    H211845   7.796   3.582   3.423
 3968TIP3   OH211846   7.639   4.375   2.649
 3968TIP3    H111847   7.717   4.390   2.702
 3968TIP3    H211848   7.630   4.455   2.597
 3969TIP3   OH211849   6.343   2.253   4.833
 3969TIP3    H111850   6.281   2.325   4.839
 3969TIP3    H211851   6.423   2.293   4.798
 3970TIP3   OH211852   5.762   6.065   2.753
 3970TIP3    H111853   5.834   6.002   2.763
 3970TIP3    H211854   5.687   6.012   2.728
 3971TIP3   OH211855   5.557   3.576   6.334
 3971TIP3    H111856   5.567   3.484   6.360
 3971TIP3    H211857   5.646   3.610   6.330
 3972TIP3   OH211858   2.209   0.811   1.318
 3972TIP3    H111859   2.192   0.900   1.349
 3972TIP3    H211860   2.122   0.771   1.311
 3973TIP3   OH211861   5.254   3.288   5.077
 3973TIP3    H111862   5.213   3.374   5.078
 3973TIP3    H211863   5.346   3.305   5.058
 3974TIP3   OH211864   2.740   0.160   5.058
 3974TIP3    H111865   2.776   0.245   5.032
 3974TIP3    H211866   2.671   0.181   5.121
 3975TIP3   OH211867   0.388   7.174   1.272
 3975TIP3    H111868   0.442   7.099   1.248
 3975TIP3    H211869   0.325   7.183   1.200
 3976TIP3   OH211870   3.034   0.681   6.599
 3976TIP3    H111871   3.099   0.743   6.568
 3976TIP3    H211872   3.025   0.700   6.692
 3977TIP3   OH211873   1.446   6.469   4.642
 3977TIP3    H111874   1.517   6.498   4.585
 3977TIP3    H211875   1.389   6.545   4.649
 3978TIP3   OH211876   2.549   4.783   3.827
 3978TIP3    H111877   2.584   4.858   3.875
 3978TIP3    H211878   2.457   4.803   3.814
 3979TIP3   OH211879   0.897   3.167   5.878
 3979TIP3    H111880   0.821   3.151   5.933
 3979TIP3    H211881   0.961   3.101   5.905
 3980TIP3   OH211882   7.234   7.162   0.864
 3980TIP3    H111883   7.197   7.228   0.923
 3980TIP3    H211884   7.248   7.086   0.920
 3981TIP3   OH211885   1.901   4.589   2.361
 3981TIP3    H111886   1.877   4.583   2.453
 3981TIP3    H211887   1.824   4.627   2.319
 3982TIP3   OH211888   0.568   4.684   2.507
 3982TIP3    H111889   0.523   4.603   2.531
 3982TIP3    H211890   0.612   4.711   2.588
 3983TIP3   OH211891   7.828   7.739   0.904
 3983TIP3    H111892   7.882   7.668   0.939
 3983TIP3    H211893   7.867   7.759   0.819
 3984TIP3   OH211894   2.619   4.404   0.137
 3984TIP3    H111895   2.710   4.400   0.168
 3984TIP3    H211896   2.584   4.317   0.154
 3985TIP3   OH211897   1.773   1.871   3.053
 3985TIP3    H111898   1.726   1.946   3.090
 3985TIP3    H211899   1.776   1.889   2.959
 3986TIP3   OH211900   3.874   5.163   1.135
 3986TIP3    H111901   3.837   5.093   1.081
 3986TIP3    H211902   3.898   5.231   1.073
 3987TIP3   OH211903   8.109   7.206   0.795
 3987TIP3    H111904   8.128   7.299   0.790
 3987TIP3    H211905   8.155   7.168   0.720
 3988TIP3   OH211906   5.597   6.437   5.318
 3988TIP3    H111907   5.668   6.472   5.264
 3988TIP3    H211908   5.524   6.497   5.303
 3989TIP3   OH211909   8.245   0.450   6.638
 3989TIP3    H111910   8.228   0.506   6.713
 3989TIP3    H211911   8.294   0.505   6.577
 3990TIP3   OH211912   3.187   7.286   2.548
 3990TIP3    H111913   3.200   7.204   2.594
 3990TIP3    H211914   3.256   7.288   2.481
 3991TIP3   OH211915   2.312   1.024   6.504
 3991TIP3    H111916   2.302   0.985   6.417
 3991TIP3    H211917   2.292   0.952   6.564
 3992TIP3   OH211918   5.302   4.602   6.174
 3992TIP3    H111919   5.377   4.650   6.138
 3992TIP3    H211920   5.268   4.552   6.100
 3993TIP3   OH211921   6.897   4.985   5.500
 3993TIP3    H111922   6.920   4.913   5.441
 3993TIP3    H211923   6.825   5.030   5.455
 3994TIP3   OH211924   5.645   3.039   6.093
 3994TIP3    H111925   5.703   2.964   6.107
 3994TIP3    H211926   5.640   3.048   5.998
 3995TIP3   OH211927   2.090   4.848   4.280
 3995TIP3    H111928   2.095   4.791   4.357
 3995TIP3    H211929   2.172   4.833   4.234
 3996TIP3   OH211930   1.810   0.567   2.641
 3996TIP3    H111931   1.833   0.659   2.656
 3996TIP3    H211932   1.873   0.517   2.691
 3997TIP3   OH211933   4.370   7.125   5.005
 3997TIP3    H111934   4.291   7.097   4.958
 3997TIP3    H211935   4.356   7.096   5.095
 3998TIP3   OH211936   5.368   6.264   0.295
 3998TIP3    H111937   5.310   6.340   0.297
 3998TIP3    H211938   5.409   6.267   0.209
 3999TIP3   OH211939   7.852   4.851  -0.004
 3999TIP3    H111940   7.876   4.885   0.082
 3999TIP3    H211941   7.847   4.929  -0.060
 4000TIP3   OH211942   5.384   2.553   0.357
 4000TIP3    H111943   5.433   2.473   0.378
 4000TIP3    H211944   5.434   2.623   0.398
 4001TIP3   OH211945   8.189   5.423   2.401
 4001TIP3    H111946   8.269   5.475   2.390
 4001TIP3    H211947   8.194   5.389   2.490
 4002TIP3   OH211948   3.599   7.444   0.049
 4002TIP3    H111949   3.607   7.365  -0.005
 4002TIP3    H211950   3.506   7.451   0.068
 4003TIP3   OH211951   1.947   1.524   3.512
 4003TIP3    H111952   1.987   1.486   3.434
 4003TIP3    H211953   1.909   1.450   3.558
 4004TIP3   OH211954   2.102   1.020   5.114
 4004TIP3    H111955   2.051   0.940   5.124
 4004TIP3    H211956   2.130   1.020   5.023
 4005TIP3   OH211957   5.662   5.274   4.492
 4005TIP3    H111958   5.651   5.181   4.510
 4005TIP3    H211959   5.693   5.278   4.402
 4006TIP3   OH211960   1.238   6.509   5.408
 4006TIP3    H111961   1.317   6.561   5.424
 4006TIP3    H211962   1.177   6.570   5.367
 4007TIP3   OH211963   2.752   3.112   5.384
 4007TIP3    H111964   2.778   3.035   5.435
 4007TIP3    H211965   2.721   3.076   5.301
 4008TIP3   OH211966   4.726   4.985   4.649
 4008TIP3    H111967   4.777   4.910   4.621
 4008TIP3    H211968   4.778   5.025   4.719
 4009TIP3   OH211969   7.462   7.769   4.778
 4009TIP3    H111970   7.516   7.782   4.700
 4009TIP3    H211971   7.373   7.789   4.749
 4010TIP3   OH211972   7.177   5.811   1.543
 4010TIP3    H111973   7.221   5.760   1.611
 4010TIP3    H211974   7.138   5.884   1.590
 4011TIP3   OH211975   5.080   4.353   6.773
 4011TIP3    H111976   5.115   4.349   6.684
 4011TIP3    H211977   5.074   4.447   6.792
 4012TIP3   OH211978   0.866   2.733   1.201
 4012TIP3    H111979   0.917   2.704   1.125
 4012TIP3    H211980   0.822   2.813   1.171
 4013TIP3   OH211981   0.858   1.472   2.997
 4013TIP3    H111982   0.770   1.443   2.973
 4013TIP3    H211983   0.914   1.445   2.924
 4014TIP3   OH211984   4.365   1.214   0.011
 4014TIP3    H111985   4.437   1.274  -0.002
 4014TIP3    H211986   4.334   1.232   0.100
 4015TIP3   OH211987   0.037   5.312   6.416
 4015TIP3    H111988  -0.015   5.380   6.459
 4015TIP3    H211989   0.110   5.359   6.377
 4016TIP3   OH211990   0.407   5.158   3.403
 4016TIP3    H111991   0.431   5.183   3.492
 4016TIP3    H211992   0.390   5.064   3.409
 4017TIP3   OH211993   7.363   2.609   4.591
 4017TIP3    H111994   7.447   2.654   4.597
 4017TIP3    H211995   7.381   2.521   4.624
 4018TIP3   OH211996   6.727   7.419   4.656
 4018TIP3    H111997   6.777   7.348   4.697
 4018TIP3    H211998   6.638   7.385   4.650
 4019TIP3   OH211999   5.239   0.439   5.634
 4019TIP3    H112000   5.265   0.397   5.552
 4019TIP3    H212001   5.258   0.532   5.621
 4020TIP3   OH212002   7.347   0.947   3.584
 4020TIP3    H112003   7.269   0.896   3.562
 4020TIP3    H212004   7.394   0.958   3.502
 4021TIP3   OH212005   4.120   6.833   5.318
 4021TIP3    H112006   4.043   6.882   5.345
 4021TIP3    H212007   4.128   6.763   5.382
 4022TIP3   OH212008   6.909   4.919   4.393
 4022TIP3    H112009   6.892   4.867   4.315
 4022TIP3    H212010   7.003   4.937   4.390
 4023TIP3   OH212011   4.683   1.341   0.551
 4023TIP3    H112012   4.673   1.337   0.646
 4023TIP3    H212013   4.600   1.376   0.519
 4024TIP3   OH212014   7.147   4.743   3.137
 4024TIP3    H112015   7.239   4.725   3.158
 4024TIP3    H212016   7.149   4.775   3.047
 4025TIP3   OH212017   1.614   2.567   6.158
 4025TIP3    H112018   1.699   2.604   6.184
 4025TIP3    H212019   1.635   2.509   6.085
 4026TIP3   OH212020   4.492   3.573   0.563
 4026TIP3    H112021   4.558   3.587   0.631
 4026TIP3    H212022   4.423   3.635   0.584
 4027TIP3   OH212023   4.037   6.000   5.903
 4027TIP3    H112024   4.120   5.972   5.866
 4027TIP3    H212025   4.049   5.993   5.998
 4028TIP3   OH212026   0.051   1.172   4.056
 4028TIP3    H112027   0.105   1.197   3.981
 4028TIP3    H212028  -0.037   1.204   4.035
 4029TIP3   OH212029   0.417   3.266   4.785
 4029TIP3    H112030   0.399   3.344   4.837
 4029TIP3    H212031   0.422   3.195   4.849
 4030TIP3   OH212032   1.593   5.438   1.927
 4030TIP3    H112033   1.604   5.345   1.910
 4030TIP3    H212034   1.629   5.451   2.015
 4031TIP3   OH212035   8.105   1.283   5.594
 4031TIP3    H112036   8.024   1.258   5.639
 4031TIP3    H212037   8.092   1.255   5.504
 4032TIP3   OH212038   0.421   1.178   2.665
 4032TIP3    H112039   0.437   1.113   2.597
 4032TIP3    H212040   0.476   1.151   2.738
 4033TIP3   OH212041   6.657   4.183   0.068
 4033TIP3    H112042   6.720   4.129   0.116
 4033TIP3    H212043   6.581   4.127   0.056
 4034TIP3   OH212044   4.864   7.594   1.592
 4034TIP3    H112045   4.794   7.656   1.571
 4034TIP3    H212046   4.942   7.631   1.551
 4035TIP3   OH212047   2.358   2.969   0.776
 4035TIP3    H112048   2.339   2.876   0.785
 4035TIP3    H212049   2.419   2.988   0.848
 4036TIP3   OH212050   5.802   2.159   6.133
 4036TIP3    H112051   5.773   2.247   6.157
 4036TIP3    H212052   5.877   2.142   6.189
 4037TIP3   OH212053   5.219   7.176   2.240
 4037TIP3    H112054   5.190   7.117   2.310
 4037TIP3    H212055   5.202   7.127   2.159
 4038TIP3   OH212056   3.877   7.386   4.462
 4038TIP3    H112057   3.951   7.400   4.403
 4038TIP3    H212058   3.801   7.387   4.404
 4039TIP3   OH212059   6.460   2.198   6.239
 4039TIP3    H112060   6.529   2.244   6.191
 4039TIP3    H212061   6.496   2.111   6.255
 4040TIP3   OH212062   1.713   5.746   1.393
 4040TIP3    H112063   1.661   5.804   1.449
 4040TIP3    H212064   1.778   5.804   1.353
 4041TIP3   OH212065   0.923   7.166   3.760
 4041TIP3    H112066   0.884   7.083   3.788
 4041TIP3    H212067   0.852   7.229   3.767
 4042TIP3   OH212068   2.535   4.699   1.895
 4042TIP3    H112069   2.504   4.616   1.859
 4042TIP3    H212070   2.500   4.702   1.984
 4043TIP3   OH212071   4.245   6.807   1.693
 4043TIP3    H112072   4.172   6.752   1.663
 4043TIP3    H212073   4.221   6.895   1.667
 4044TIP3   OH212074   3.798   3.054   0.194
 4044TIP3    H112075   3.848   3.104   0.130
 4044TIP3    H212076   3.840   3.074   0.278
 4045TIP3   OH212077   7.839   7.568   1.239
 4045TIP3    H112078   7.836   7.532   1.328
 4045TIP3    H212079   7.881   7.500   1.187
 4046TIP3   OH212080   3.400   1.074   2.550
 4046TIP3    H112081   3.340   1.125   2.605
 4046TIP3    H212082   3.348   0.998   2.523
 4047TIP3   OH212083   2.442   2.697   1.344
 4047TIP3    H112084   2.523   2.711   1.294
 4047TIP3    H212085   2.465   2.630   1.408
 4048TIP3   OH212086   5.236   1.994   4.266
 4048TIP3    H112087   5.228   1.994   4.171
 4048TIP3    H212088   5.154   2.033   4.297
 4049TIP3   OH212089   7.421   3.724   1.627
 4049TIP3    H112090   7.458   3.720   1.715
 4049TIP3    H212091   7.492   3.761   1.574
 4050TIP3   OH212092   0.043   4.262   0.683
 4050TIP3    H112093   0.062   4.301   0.598
 4050TIP3    H212094   0.128   4.256   0.727
 4051TIP3   OH212095   4.911   3.126   5.886
 4051TIP3    H112096   4.995   3.124   5.932
 4051TIP3    H212097   4.925   3.074   5.807
 4052TIP3   OH212098   0.875   3.803   0.168
 4052TIP3    H112099   0.826   3.832   0.091
 4052TIP3    H212100   0.947   3.867   0.175
 4053TIP3   OH212101   1.818   5.977   0.242
 4053TIP3    H112102   1.896   6.022   0.209
 4053TIP3    H212103   1.756   5.981   0.169
 4054TIP3   OH212104   3.182   1.129   5.523
 4054TIP3    H112105   3.195   1.172   5.607
 4054TIP3    H212106   3.262   1.147   5.474
 4055TIP3   OH212107   5.908   6.093   2.459
 4055TIP3    H112108   5.907   6.022   2.522
 4055TIP3    H212109   5.862   6.059   2.383
 4056TIP3   OH212110   5.078   6.942   1.027
 4056TIP3    H112111   5.142   6.927   1.097
 4056TIP3    H212112   5.074   6.858   0.981
 4057TIP3   OH212113   2.887   7.663   6.282
 4057TIP3    H112114   2.923   7.641   6.196
 4057TIP3    H212115   2.930   7.603   6.342
 4058TIP3   OH212116   7.380   3.343   1.644
 4058TIP3    H112117   7.399   3.250   1.656
 4058TIP3    H212118   7.392   3.381   1.731
 4059TIP3   OH212119   1.978   4.852   3.803
 4059TIP3    H112120   1.995   4.819   3.892
 4059TIP3    H212121   1.965   4.772   3.751
 4060TIP3   OH212122   6.696   1.838   1.268
 4060TIP3    H112123   6.714   1.915   1.322
 4060TIP3    H212124   6.620   1.797   1.309
 4061TIP3   OH212125   0.928   0.031   1.974
 4061TIP3    H112126   0.835   0.020   1.953
 4061TIP3    H212127   0.966   0.068   1.894
 4062TIP3   OH212128   1.364   6.082   3.386
 4062TIP3    H112129   1.370   6.014   3.452
 4062TIP3    H212130   1.420   6.153   3.419
 4063TIP3   OH212131   5.374   3.270   5.353
 4063TIP3    H112132   5.356   3.347   5.408
 4063TIP3    H212133   5.300   3.266   5.293
 4064TIP3   OH212134   3.568   7.707   0.397
 4064TIP3    H112135   3.538   7.650   0.468
 4064TIP3    H212136   3.630   7.766   0.438
 4065TIP3   OH212137   0.036   2.424   5.177
 4065TIP3    H112138  -0.033   2.414   5.244
 4065TIP3    H212139   0.061   2.516   5.183
 4066TIP3   OH212140   7.477   3.580   4.820
 4066TIP3    H112141   7.414   3.649   4.841
 4066TIP3    H212142   7.423   3.505   4.796
 4067TIP3   OH212143   6.809   1.450   0.104
 4067TIP3    H112144   6.805   1.516   0.034
 4067TIP3    H212145   6.817   1.500   0.184
 4068TIP3   OH212146   3.961   7.455   5.963
 4068TIP3    H112147   4.034   7.440   6.023
 4068TIP3    H212148   4.003   7.466   5.877
 4069TIP3   OH212149   4.111   1.260   4.011
 4069TIP3    H112150   4.144   1.191   4.068
 4069TIP3    H212151   4.176   1.330   4.016
 4070TIP3   OH212152   0.464   4.049   5.331
 4070TIP3    H112153   0.403   4.066   5.403
 4070TIP3    H212154   0.464   3.953   5.322
 4071TIP3   OH212155   7.359   1.785   1.411
 4071TIP3    H112156   7.426   1.805   1.346
 4071TIP3    H212157   7.282   1.760   1.359
 4072TIP3   OH212158   1.470   1.680   4.193
 4072TIP3    H112159   1.534   1.750   4.180
 4072TIP3    H212160   1.504   1.629   4.267
 4073TIP3   OH212161   5.565   5.562   5.748
 4073TIP3    H112162   5.508   5.565   5.824
 4073TIP3    H212163   5.542   5.640   5.697
 4074TIP3   OH212164   1.861   6.348   5.615
 4074TIP3    H112165   1.776   6.367   5.656
 4074TIP3    H212166   1.858   6.395   5.532
 4075TIP3   OH212167   3.011   0.154   6.216
 4075TIP3    H112168   3.078   0.213   6.180
 4075TIP3    H212169   2.954   0.212   6.267
 4076TIP3   OH212170   2.017   7.561   4.923
 4076TIP3    H112171   1.944   7.512   4.885
 4076TIP3    H212172   1.984   7.592   5.007
 4077TIP3   OH212173   1.721   6.495   0.503
 4077TIP3    H112174   1.754   6.418   0.457
 4077TIP3    H212175   1.797   6.553   0.512
 4078TIP3   OH212176   2.114   1.103   1.019
 4078TIP3    H112177   2.134   1.104   1.112
 4078TIP3    H212178   2.198   1.122   0.976
 4079TIP3   OH212179   4.605   7.041   3.853
 4079TIP3    H112180   4.605   6.959   3.902
 4079TIP3    H212181   4.693   7.076   3.866
 4080TIP3   OH212182   4.285   2.867   4.238
 4080TIP3    H112183   4.239   2.880   4.156
 4080TIP3    H212184   4.232   2.912   4.303
 4081TIP3   OH212185   8.038   2.536   0.106
 4081TIP3    H112186   7.995   2.522   0.021
 4081TIP3    H212187   8.049   2.631   0.111
 4082TIP3   OH212188   1.767   3.649   5.811
 4082TIP3    H112189   1.843   3.708   5.807
 4082TIP3    H212190   1.742   3.649   5.903
 4083TIP3   OH212191   4.564   2.792   5.153
 4083TIP3    H112192   4.509   2.856   5.109
 4083TIP3    H212193   4.507   2.717   5.168
 4084TIP3   OH212194   3.183   4.645   5.852
 4084TIP3    H112195   3.126   4.667   5.779
 4084TIP3    H212196   3.179   4.549   5.858
 4085TIP3   OH212197   4.802   7.213   2.498
 4085TIP3    H112198   4.871   7.271   2.468
 4085TIP3    H212199   4.795   7.146   2.429
 4086TIP3   OH212200   4.549   2.231   3.784
 4086TIP3    H112201   4.584   2.261   3.868
 4086TIP3    H212202   4.564   2.137   3.784
 4087TIP3   OH212203   0.807   5.584   5.851
 4087TIP3    H112204   0.791   5.551   5.939
 4087TIP3    H212205   0.870   5.523   5.813
 4088TIP3   OH212206   7.371   0.542   4.163
 4088TIP3    H112207   7.278   0.538   4.138
 4088TIP3    H212208   7.380   0.627   4.207
 4089TIP3   OH212209   2.183   0.291   1.262
 4089TIP3    H112210   2.238   0.212   1.258
 4089TIP3    H212211   2.118   0.279   1.193
 4090TIP3   OH212212   0.311   5.043   0.395
 4090TIP3    H112213   0.346   5.064   0.481
 4090TIP3    H212214   0.332   5.119   0.341
 4091TIP3   OH212215   7.394   6.516   4.896
 4091TIP3    H112216   7.421   6.428   4.923
 4091TIP3    H212217   7.337   6.502   4.820
 4092TIP3   OH212218   1.701   6.491   4.227
 4092TIP3    H112219   1.625   6.538   4.192
 4092TIP3    H212220   1.766   6.559   4.241
 4093TIP3   OH212221   0.762   1.982   0.443
 4093TIP3    H112222   0.740   2.010   0.532
 4093TIP3    H212223   0.698   1.914   0.424
 4094TIP3   OH212224   2.717   1.863   1.625
 4094TIP3    H112225   2.710   1.803   1.551
 4094TIP3    H212226   2.627   1.883   1.649
 4095TIP3   OH212227   7.548   7.414   4.674
 4095TIP3    H112228   7.529   7.365   4.593
 4095TIP3    H212229   7.588   7.350   4.732
 4096TIP3   OH212230   4.515   1.300   1.736
 4096TIP3    H112231   4.603   1.339   1.743
 4096TIP3    H212232   4.522   1.240   1.662
 4097TIP3   OH212233   4.697   0.905   6.265
 4097TIP3    H112234   4.726   0.891   6.175
 4097TIP3    H212235   4.774   0.937   6.311
 4098TIP3   OH212236   1.813   3.209   6.620
 4098TIP3    H112237   1.841   3.131   6.572
 4098TIP3    H212238   1.719   3.198   6.632
 4099TIP3   OH212239   7.088   4.114   6.161
 4099TIP3    H112240   7.099   4.207   6.140
 4099TIP3    H212241   7.053   4.076   6.080
 4100TIP3   OH212242   6.656   5.994   1.241
 4100TIP3    H112243   6.644   5.962   1.331
 4100TIP3    H212244   6.627   6.085   1.243
 4101TIP3   OH212245   6.651   7.594   3.817
 4101TIP3    H112246   6.656   7.603   3.722
 4101TIP3    H212247   6.714   7.658   3.850
 4102TIP3   OH212248   6.791   1.164   5.036
 4102TIP3    H112249   6.748   1.249   5.031
 4102TIP3    H212250   6.811   1.142   4.945
 4103TIP3   OH212251   7.252   4.992   1.774
 4103TIP3    H112252   7.307   5.012   1.850
 4103TIP3    H212253   7.177   4.945   1.810
 4104TIP3   OH212254   7.889   6.084   3.880
 4104TIP3    H112255   7.922   6.123   3.961
 4104TIP3    H212256   7.854   5.999   3.906
 4105TIP3   OH212257   0.908   6.592   5.763
 4105TIP3    H112258   0.827   6.552   5.733
 4105TIP3    H212259   0.887   6.628   5.850
 4106TIP3   OH212260   6.831   6.987   4.336
 4106TIP3    H112261   6.798   6.903   4.368
 4106TIP3    H212262   6.828   6.979   4.240
 4107TIP3   OH212263   5.351   6.073   1.566
 4107TIP3    H112264   5.446   6.070   1.550
 4107TIP3    H212265   5.321   6.148   1.515
 4108TIP3   OH212266   4.870   2.678   0.445
 4108TIP3    H112267   4.821   2.638   0.372
 4108TIP3    H212268   4.922   2.606   0.481
 4109TIP3   OH212269   6.061   5.967   0.944
 4109TIP3    H112270   5.998   5.923   1.002
 4109TIP3    H212271   6.141   5.915   0.953
 4110TIP3   OH212272   8.269   6.235   2.168
 4110TIP3    H112273   8.182   6.273   2.153
 4110TIP3    H212274   8.299   6.210   2.081
 4111TIP3   OH212275   7.303   2.339   2.079
 4111TIP3    H112276   7.314   2.251   2.042
 4111TIP3    H212277   7.249   2.384   2.014
 4112TIP3   OH212278   4.640   4.253   0.050
 4112TIP3    H112279   4.717   4.234  -0.004
 4112TIP3    H212280   4.642   4.348   0.062
 4113TIP3   OH212281   6.341   6.956   1.312
 4113TIP3    H112282   6.317   6.864   1.323
 4113TIP3    H212283   6.363   6.986   1.401
 4114TIP3   OH212284   1.288   1.112   1.450
 4114TIP3    H112285   1.253   1.200   1.456
 4114TIP3    H212286   1.294   1.082   1.541
 4115TIP3   OH212287   6.642   7.580   1.785
 4115TIP3    H112288   6.681   7.525   1.717
 4115TIP3    H212289   6.573   7.526   1.823
 4116TIP3   OH212290   6.329   3.607   5.393
 4116TIP3    H112291   6.245   3.647   5.417
 4116TIP3    H212292   6.389   3.634   5.463
 4117TIP3   OH212293   7.869   0.763   3.067
 4117TIP3    H112294   7.850   0.676   3.101
 4117TIP3    H212295   7.955   0.784   3.103
 4118TIP3   OH212296   6.391   3.895   5.609
 4118TIP3    H112297   6.375   3.846   5.690
 4118TIP3    H212298   6.432   3.976   5.638
 4119TIP3   OH212299   0.209   6.862   6.492
 4119TIP3    H112300   0.249   6.916   6.424
 4119TIP3    H212301   0.264   6.876   6.569
 4120TIP3   OH212302   3.682   0.237   1.580
 4120TIP3    H112303   3.667   0.307   1.644
 4120TIP3    H212304   3.597   0.193   1.574
 4121TIP3   OH212305   4.110   3.167   3.844
 4121TIP3    H112306   4.144   3.154   3.756
 4121TIP3    H212307   4.030   3.219   3.832
 4122TIP3   OH212308   6.329   5.364   2.428
 4122TIP3    H112309   6.341   5.451   2.390
 4122TIP3    H212310   6.397   5.357   2.495
 4123TIP3   OH212311   0.541   6.333   5.393
 4123TIP3    H112312   0.580   6.248   5.414
 4123TIP3    H212313   0.611   6.380   5.345
 4124TIP3   OH212314   5.134   0.168   1.258
 4124TIP3    H112315   5.122   0.073   1.252
 4124TIP3    H212316   5.056   0.199   1.303
 4125TIP3   OH212317   3.554   6.540   4.349
 4125TIP3    H112318   3.588   6.451   4.338
 4125TIP3    H212319   3.546   6.573   4.259
 4126TIP3   OH212320   7.957   2.550   6.195
 4126TIP3    H112321   7.978   2.641   6.175
 4126TIP3    H212322   7.965   2.544   6.290
 4127TIP3   OH212323   0.913   6.272   2.332
 4127TIP3    H112324   0.946   6.357   2.361
 4127TIP3    H212325   0.987   6.231   2.286
 4128TIP3   OH212326   5.937   1.268   2.672
 4128TIP3    H112327   6.011   1.229   2.718
 4128TIP3    H212328   5.960   1.262   2.579
 4129TIP3   OH212329   5.104   1.655   3.536
 4129TIP3    H112330   5.179   1.603   3.507
 4129TIP3    H212331   5.051   1.595   3.587
 4130TIP3   OH212332   7.169   5.410   4.744
 4130TIP3    H112333   7.167   5.385   4.836
 4130TIP3    H212334   7.232   5.482   4.740
 4131TIP3   OH212335   6.003   2.368   1.483
 4131TIP3    H112336   5.955   2.312   1.422
 4131TIP3    H212337   6.046   2.433   1.428
 4132TIP3   OH212338   4.826   7.599   0.185
 4132TIP3    H112339   4.872   7.617   0.267
 4132TIP3    H212340   4.809   7.505   0.187
 4133TIP3   OH212341   2.730   1.155   2.260
 4133TIP3    H112342   2.783   1.082   2.291
 4133TIP3    H212343   2.736   1.221   2.330
 4134TIP3   OH212344   3.955   7.230   1.139
 4134TIP3    H112345   3.898   7.225   1.217
 4134TIP3    H212346   3.988   7.320   1.141
 4135TIP3   OH212347   7.047   5.309   5.890
 4135TIP3    H112348   6.983   5.259   5.839
 4135TIP3    H212349   7.128   5.259   5.883
 4136TIP3   OH212350   6.912   7.208   5.793
 4136TIP3    H112351   6.909   7.264   5.715
 4136TIP3    H212352   6.852   7.136   5.773
 4137TIP3   OH212353   5.723   6.300   6.463
 4137TIP3    H112354   5.687   6.380   6.425
 4137TIP3    H212355   5.804   6.328   6.507
 4138TIP3   OH212356   8.139   7.589   3.575
 4138TIP3    H112357   8.071   7.645   3.538
 4138TIP3    H212358   8.165   7.532   3.503
 4139TIP3   OH212359   7.630   5.050   2.592
 4139TIP3    H112360   7.700   5.000   2.552
 4139TIP3    H212361   7.653   5.055   2.685
 4140TIP3   OH212362   6.277   3.075   3.076
 4140TIP3    H112363   6.281   2.981   3.093
 4140TIP3    H212364   6.306   3.084   2.985
 4141TIP3   OH212365   0.790   2.092   6.605
 4141TIP3    H112366   0.861   2.157   6.600
 4141TIP3    H212367   0.803   2.037   6.527
 4142TIP3   OH212368   6.925   7.058   1.272
 4142TIP3    H112369   6.876   6.994   1.324
 4142TIP3    H212370   6.865   7.081   1.201
 4143TIP3   OH212371   3.296   1.841   0.309
 4143TIP3    H112372   3.216   1.887   0.336
 4143TIP3    H212373   3.304   1.861   0.216
 4144TIP3   OH212374   7.884   0.817   0.854
 4144TIP3    H112375   7.879   0.802   0.948
 4144TIP3    H212376   7.816   0.881   0.835
 4145TIP3   OH212377   5.406   0.829   5.360
 4145TIP3    H112378   5.354   0.830   5.280
 4145TIP3    H212379   5.403   0.920   5.391
 4146TIP3   OH212380   8.034   6.402   0.475
 4146TIP3    H112381   7.947   6.363   0.488
 4146TIP3    H212382   8.017   6.494   0.456
 4147TIP3   OH212383   6.796   2.432   6.316
 4147TIP3    H112384   6.793   2.355   6.373
 4147TIP3    H212385   6.791   2.507   6.376
 4148TIP3   OH212386   0.992   6.275   4.730
 4148TIP3    H112387   1.057   6.310   4.669
 4148TIP3    H212388   1.030   6.291   4.817
 4149TIP3   OH212389   5.817   6.902   1.753
 4149TIP3    H112390   5.870   6.930   1.828
 4149TIP3    H212391   5.806   6.808   1.765
 4150TIP3   OH212392   1.309   7.163   0.546
 4150TIP3    H112393   1.236   7.118   0.588
 4150TIP3    H212394   1.276   7.251   0.529
 4151TIP3   OH212395   2.026   7.098   0.348
 4151TIP3    H112396   2.070   7.181   0.364
 4151TIP3    H212397   2.067   7.063   0.269
 4152TIP3   OH212398   7.668   5.498   5.158
 4152TIP3    H112399   7.751   5.452   5.174
 4152TIP3    H212400   7.602   5.441   5.196
 4153TIP3   OH212401   2.404   5.255   6.532
 4153TIP3    H112402   2.348   5.264   6.455
 4153TIP3    H212403   2.348   5.212   6.597
 4154TIP3   OH212404   1.558   3.942   3.592
 4154TIP3    H112405   1.563   3.852   3.560
 4154TIP3    H212406   1.509   3.935   3.674
 4155TIP3   OH212407   4.030   1.903   5.838
 4155TIP3    H112408   4.093   1.872   5.773
 4155TIP3    H212409   3.964   1.949   5.786
 4156TIP3   OH212410   1.859   5.495   6.579
 4156TIP3    H112411   1.934   5.444   6.549
 4156TIP3    H212412   1.787   5.466   6.525
 4157TIP3   OH212413   6.709   6.723   4.157
 4157TIP3    H112414   6.684   6.815   4.151
 4157TIP3    H212415   6.679   6.684   4.075
 4158TIP3   OH212416   5.208   2.317   2.346
 4158TIP3    H112417   5.194   2.349   2.257
 4158TIP3    H212418   5.127   2.271   2.368
 4159TIP3   OH212419   3.922   4.999   0.406
 4159TIP3    H112420   3.929   5.078   0.352
 4159TIP3    H212421   4.010   4.986   0.442
 4160TIP3   OH212422   7.744   0.697   1.359
 4160TIP3    H112423   7.720   0.631   1.294
 4160TIP3    H212424   7.749   0.649   1.441
 4161TIP3   OH212425   5.232   5.272   5.100
 4161TIP3    H112426   5.248   5.237   5.188
 4161TIP3    H212427   5.157   5.330   5.109
 4162TIP3   OH212428   4.350   0.843   4.148
 4162TIP3    H112429   4.323   0.754   4.123
 4162TIP3    H212430   4.386   0.832   4.237
 4163TIP3   OH212431   1.415   2.080   2.497
 4163TIP3    H112432   1.434   2.150   2.559
 4163TIP3    H212433   1.473   2.098   2.422
 4164TIP3   OH212434   2.183   3.800   4.026
 4164TIP3    H112435   2.104   3.800   3.973
 4164TIP3    H212436   2.234   3.726   3.993
 4165TIP3   OH212437   7.740   3.937   3.676
 4165TIP3    H112438   7.747   4.025   3.639
 4165TIP3    H212439   7.659   3.902   3.638
 4166TIP3   OH212440   8.243   2.852   6.285
 4166TIP3    H112441   8.156   2.872   6.251
 4166TIP3    H212442   8.260   2.762   6.256
 4167TIP3   OH212443   1.633   4.065   3.380
 4167TIP3    H112444   1.715   4.108   3.407
 4167TIP3    H212445   1.606   4.016   3.457
 4168TIP3   OH212446   0.487   2.402   6.585
 4168TIP3    H112447   0.428   2.476   6.597
 4168TIP3    H212448   0.436   2.337   6.536
 4169TIP3   OH212449   3.581   6.292   6.383
 4169TIP3    H112450   3.616   6.371   6.424
 4169TIP3    H212451   3.645   6.270   6.315
 4170TIP3   OH212452   7.588   4.513   0.901
 4170TIP3    H112453   7.573   4.465   0.982
 4170TIP3    H212454   7.667   4.474   0.864
 4171TIP3   OH212455   0.208   7.584   1.572
 4171TIP3    H112456   0.240   7.647   1.636
 4171TIP3    H212457   0.152   7.524   1.622
 4172TIP3   OH212458   1.643   4.269   2.460
 4172TIP3    H112459   1.607   4.357   2.457
 4172TIP3    H212460   1.609   4.232   2.541
 4173TIP3   OH212461   5.937   7.157   4.659
 4173TIP3    H112462   6.008   7.188   4.604
 4173TIP3    H212463   5.948   7.062   4.662
 4174TIP3   OH212464   3.857   2.990   4.543
 4174TIP3    H112465   3.882   2.931   4.614
 4174TIP3    H212466   3.793   2.942   4.492
 4175TIP3   OH212467   1.866   0.721   2.188
 4175TIP3    H112468   1.900   0.758   2.269
 4175TIP3    H212469   1.942   0.716   2.130
 4176TIP3   OH212470   1.041   6.550   1.048
 4176TIP3    H112471   1.112   6.588   0.996
 4176TIP3    H212472   0.961   6.587   1.010
 4177TIP3   OH212473   0.803   5.498   4.497
 4177TIP3    H112474   0.871   5.463   4.440
 4177TIP3    H212475   0.722   5.462   4.461
 4178TIP3   OH212476   2.804   3.318   2.465
 4178TIP3    H112477   2.804   3.368   2.384
 4178TIP3    H212478   2.818   3.383   2.534
 4179TIP3   OH212479   2.989   3.134   2.465
 4179TIP3    H112480   2.933   3.209   2.484
 4179TIP3    H212481   3.072   3.156   2.507
 4180TIP3   OH212482   7.404   6.922   0.328
 4180TIP3    H112483   7.329   6.977   0.351
 4180TIP3    H212484   7.368   6.833   0.327
 4181TIP3   OH212485   4.304   0.522   2.747
 4181TIP3    H112486   4.261   0.584   2.807
 4181TIP3    H212487   4.232   0.475   2.706
 4182TIP3   OH212488   5.496   0.089   2.561
 4182TIP3    H112489   5.574   0.143   2.553
 4182TIP3    H212490   5.528  -0.001   2.551
 4183TIP3   OH212491   6.408   4.829   4.526
 4183TIP3    H112492   6.493   4.821   4.569
 4183TIP3    H212493   6.425   4.883   4.449
 4184TIP3   OH212494   0.789   3.570   1.100
 4184TIP3    H112495   0.860   3.607   1.152
 4184TIP3    H212496   0.827   3.557   1.013
 4185TIP3   OH212497   3.108   3.303   6.676
 4185TIP3    H112498   3.181   3.276   6.621
 4185TIP3    H212499   3.110   3.399   6.673
 4186TIP3   OH212500   1.784   6.657   5.158
 4186TIP3    H112501   1.777   6.569   5.123
 4186TIP3    H212502   1.835   6.705   5.092
 4187TIP3   OH212503   4.213   3.864   1.852
 4187TIP3    H112504   4.271   3.806   1.802
 4187TIP3    H212505   4.139   3.808   1.877
 4188TIP3   OH212506   7.049   6.203   6.489
 4188TIP3    H112507   7.027   6.148   6.563
 4188TIP3    H212508   7.000   6.284   6.504
 4189TIP3   OH212509   3.176   4.176   3.488
 4189TIP3    H112510   3.209   4.265   3.471
 4189TIP3    H212511   3.236   4.141   3.554
 4190TIP3   OH212512   3.997   6.889   3.164
 4190TIP3    H112513   3.997   6.847   3.250
 4190TIP3    H212514   4.041   6.973   3.179
 4191TIP3   OH212515   5.295   3.343   2.361
 4191TIP3    H112516   5.271   3.342   2.269
 4191TIP3    H212517   5.378   3.295   2.365
 4192TIP3   OH212518   4.028   1.630   2.175
 4192TIP3    H112519   3.992   1.543   2.157
 4192TIP3    H212520   3.990   1.655   2.259
 4193TIP3   OH212521   5.509   6.983   6.463
 4193TIP3    H112522   5.577   7.028   6.513
 4193TIP3    H212523   5.545   6.977   6.374
 4194TIP3   OH212524   2.722   4.040   4.444
 4194TIP3    H112525   2.812   4.013   4.424
 4194TIP3    H212526   2.691   4.083   4.364
 4195TIP3   OH212527   3.355   2.306   3.508
 4195TIP3    H112528   3.270   2.334   3.541
 4195TIP3    H212529   3.335   2.252   3.432
 4196TIP3   OH212530   2.552   4.367   3.701
 4196TIP3    H112531   2.592   4.281   3.706
 4196TIP3    H212532   2.622   4.428   3.725
 4197TIP3   OH212533   4.082   7.535   1.416
 4197TIP3    H112534   4.013   7.480   1.454
 4197TIP3    H212535   4.114   7.586   1.490
 4198TIP3   OH212536   1.703   1.956   3.605
 4198TIP3    H112537   1.675   1.868   3.628
 4198TIP3    H212538   1.657   2.013   3.667
 4199TIP3   OH212539   1.794   3.497   4.268
 4199TIP3    H112540   1.786   3.431   4.337
 4199TIP3    H212541   1.833   3.451   4.194
 4200TIP3   OH212542   2.225   1.702   6.553
 4200TIP3    H112543   2.188   1.748   6.628
 4200TIP3    H212544   2.154   1.646   6.522
 4201TIP3   OH212545   6.921   1.586   4.673
 4201TIP3    H112546   6.910   1.491   4.674
 4201TIP3    H212547   6.860   1.617   4.739
 4202TIP3   OH212548   1.475   7.231   5.862
 4202TIP3    H112549   1.459   7.315   5.907
 4202TIP3    H212550   1.539   7.252   5.794
 4203TIP3   OH212551   2.387   6.004   3.188
 4203TIP3    H112552   2.292   6.008   3.176
 4203TIP3    H212553   2.415   5.932   3.131
 4204TIP3   OH212554   6.925   0.235   4.495
 4204TIP3    H112555   6.980   0.271   4.565
 4204TIP3    H212556   6.916   0.142   4.517
 4205TIP3   OH212557   1.965   1.110   6.440
 4205TIP3    H112558   2.026   1.038   6.456
 4205TIP3    H212559   1.927   1.129   6.526
 4206TIP3   OH212560   5.823   4.098   4.898
 4206TIP3    H112561   5.780   4.173   4.857
 4206TIP3    H212562   5.866   4.133   4.975
 4207TIP3   OH212563   6.866   5.180   2.415
 4207TIP3    H112564   6.943   5.157   2.363
 4207TIP3    H212565   6.809   5.104   2.407
 4208TIP3   OH212566   1.698   0.056   3.313
 4208TIP3    H112567   1.766   0.054   3.246
 4208TIP3    H212568   1.643  -0.020   3.295
 4209TIP3   OH212569   6.198   4.226   2.197
 4209TIP3    H112570   6.224   4.296   2.138
 4209TIP3    H212571   6.152   4.163   2.140
 4210TIP3   OH212572   8.181   5.359   1.343
 4210TIP3    H112573   8.268   5.342   1.307
 4210TIP3    H212574   8.140   5.418   1.280
 4211TIP3   OH212575   8.179   2.469   4.422
 4211TIP3    H112576   8.173   2.507   4.509
 4211TIP3    H212577   8.246   2.402   4.429
 4212TIP3   OH212578   4.200   1.023   1.257
 4212TIP3    H112579   4.239   1.068   1.182
 4212TIP3    H212580   4.106   1.023   1.239
 4213TIP3   OH212581   5.587   4.337   0.730
 4213TIP3    H112582   5.514   4.327   0.669
 4213TIP3    H212583   5.628   4.250   0.733
 4214TIP3   OH212584   3.316   3.102   4.597
 4214TIP3    H112585   3.369   3.090   4.676
 4214TIP3    H212586   3.270   3.185   4.612
 4215TIP3   OH212587   4.876   5.710   2.676
 4215TIP3    H112588   4.816   5.635   2.671
 4215TIP3    H212589   4.823   5.784   2.648
 4216TIP3   OH212590   1.524   3.652   0.432
 4216TIP3    H112591   1.487   3.674   0.347
 4216TIP3    H212592   1.592   3.718   0.446
 4217TIP3   OH212593   2.073   5.689   1.316
 4217TIP3    H112594   2.055   5.782   1.303
 4217TIP3    H212595   2.005   5.645   1.264
 4218TIP3   OH212596   3.876   5.378   2.695
 4218TIP3    H112597   3.836   5.313   2.752
 4218TIP3    H212598   3.941   5.329   2.645
 4219TIP3   OH212599   2.985   3.968   6.226
 4219TIP3    H112600   2.946   3.954   6.313
 4219TIP3    H212601   2.965   3.887   6.178
 4220TIP3   OH212602   6.968   2.059   1.715
 4220TIP3    H112603   7.034   2.077   1.648
 4220TIP3    H212604   6.955   2.143   1.758
 4221TIP3   OH212605   6.516   6.241   2.341
 4221TIP3    H112606   6.458   6.179   2.297
 4221TIP3    H212607   6.471   6.264   2.422
 4222TIP3   OH212608   3.705   4.798   0.389
 4222TIP3    H112609   3.737   4.888   0.373
 4222TIP3    H212610   3.621   4.795   0.343
 4223TIP3   OH212611   7.139   1.714   3.273
 4223TIP3    H112612   7.102   1.639   3.226
 4223TIP3    H212613   7.209   1.676   3.326
 4224TIP3   OH212614   6.967   0.251   0.510
 4224TIP3    H112615   6.885   0.240   0.558
 4224TIP3    H212616   6.976   0.170   0.458
 4225TIP3   OH212617   1.588   3.103   0.756
 4225TIP3    H112618   1.622   3.193   0.757
 4225TIP3    H212619   1.662   3.050   0.726
 4226TIP3   OH212620   0.356   6.626   5.168
 4226TIP3    H112621   0.365   6.720   5.152
 4226TIP3    H212622   0.343   6.588   5.081
 4227TIP3   OH212623   4.953   2.966   4.297
 4227TIP3    H112624   4.903   2.889   4.325
 4227TIP3    H212625   4.943   3.028   4.370
 4228TIP3   OH212626   5.029   6.688   1.840
 4228TIP3    H112627   4.961   6.634   1.798
 4228TIP3    H212628   5.014   6.677   1.933
 4229TIP3   OH212629   2.449   5.250   2.576
 4229TIP3    H112630   2.455   5.277   2.485
 4229TIP3    H212631   2.497   5.317   2.624
 4230TIP3   OH212632   4.788   0.611   4.769
 4230TIP3    H112633   4.831   0.661   4.701
 4230TIP3    H212634   4.858   0.584   4.828
 4231TIP3   OH212635   6.290   2.066   3.810
 4231TIP3    H112636   6.352   1.993   3.816
 4231TIP3    H212637   6.294   2.108   3.896
 4232TIP3   OH212638   0.244   7.724   3.304
 4232TIP3    H112639   0.274   7.788   3.240
 4232TIP3    H212640   0.153   7.746   3.320
 4233TIP3   OH212641   5.783   2.069   2.255
 4233TIP3    H112642   5.754   1.978   2.247
 4233TIP3    H212643   5.877   2.065   2.236
 4234TIP3   OH212644   1.452   2.460   5.640
 4234TIP3    H112645   1.535   2.424   5.610
 4234TIP3    H212646   1.387   2.395   5.614
 4235TIP3   OH212647   2.212   3.867   5.140
 4235TIP3    H112648   2.283   3.882   5.203
 4235TIP3    H212649   2.219   3.774   5.118
 4236TIP3   OH212650   5.398   3.411   3.111
 4236TIP3    H112651   5.356   3.387   3.194
 4236TIP3    H212652   5.411   3.329   3.065
 4237TIP3   OH212653   6.073   3.041   5.530
 4237TIP3    H112654   5.994   3.033   5.584
 4237TIP3    H212655   6.145   3.034   5.593
 4238TIP3   OH212656   2.650   5.836   6.612
 4238TIP3    H112657   2.590   5.858   6.683
 4238TIP3    H212658   2.703   5.764   6.645
 4239TIP3   OH212659   5.259   5.568   0.368
 4239TIP3    H112660   5.247   5.512   0.291
 4239TIP3    H212661   5.344   5.610   0.354
 4240TIP3   OH212662   2.013   0.176   6.314
 4240TIP3    H112663   2.052   0.214   6.392
 4240TIP3    H212664   2.007   0.083   6.333
 4241TIP3   OH212665   6.860   5.529   4.235
 4241TIP3    H112666   6.921   5.578   4.291
 4241TIP3    H212667   6.815   5.469   4.295
 4242TIP3   OH212668   5.669   4.373   0.994
 4242TIP3    H112669   5.636   4.377   0.904
 4242TIP3    H212670   5.688   4.280   1.008
 4243TIP3   OH212671   1.783   7.453   1.540
 4243TIP3    H112672   1.834   7.430   1.617
 4243TIP3    H212673   1.696   7.476   1.575
 4244TIP3   OH212674   6.030   6.383   0.916
 4244TIP3    H112675   6.094   6.326   0.873
 4244TIP3    H212676   5.976   6.323   0.968
 4245TIP3   OH212677   4.293   0.520   1.764
 4245TIP3    H112678   4.275   0.433   1.730
 4245TIP3    H212679   4.291   0.511   1.859
 4246TIP3   OH212680   2.710   0.002   1.808
 4246TIP3    H112681   2.715   0.098   1.800
 4246TIP3    H212682   2.775  -0.019   1.875
 4247TIP3   OH212683   3.732   6.790   2.256
 4247TIP3    H112684   3.704   6.773   2.346
 4247TIP3    H212685   3.651   6.804   2.208
 4248TIP3   OH212686   5.402   4.173   5.773
 4248TIP3    H112687   5.357   4.159   5.856
 4248TIP3    H212688   5.439   4.087   5.751
 4249TIP3   OH212689   5.566   7.000   0.658
 4249TIP3    H112690   5.574   7.089   0.694
 4249TIP3    H212691   5.472   6.986   0.650
 4250TIP3   OH212692   1.778   3.482   2.327
 4250TIP3    H112693   1.687   3.456   2.344
 4250TIP3    H212694   1.827   3.400   2.330
 4251TIP3   OH212695   5.821   6.930   1.374
 4251TIP3    H112696   5.791   7.012   1.336
 4251TIP3    H212697   5.856   6.954   1.460
 4252TIP3   OH212698   0.843   6.388   4.175
 4252TIP3    H112699   0.904   6.387   4.248
 4252TIP3    H212700   0.788   6.311   4.189
 4253TIP3   OH212701   4.593   3.748   2.055
 4253TIP3    H112702   4.523   3.685   2.037
 4253TIP3    H212703   4.571   3.784   2.141
 4254TIP3   OH212704   4.889   4.767   4.543
 4254TIP3    H112705   4.878   4.775   4.449
 4254TIP3    H212706   4.980   4.791   4.559
 4255TIP3   OH212707   5.294   0.215   1.772
 4255TIP3    H112708   5.313   0.266   1.693
 4255TIP3    H212709   5.380   0.186   1.803
 4256TIP3   OH212710   1.568   3.593   0.728
 4256TIP3    H112711   1.658   3.614   0.702
 4256TIP3    H212712   1.531   3.678   0.755
 4257TIP3   OH212713   3.268   0.918   2.910
 4257TIP3    H112714   3.261   0.977   2.985
 4257TIP3    H212715   3.253   0.973   2.834
 4258TIP3   OH212716   7.966   6.329   4.062
 4258TIP3    H112717   7.945   6.402   4.120
 4258TIP3    H212718   8.057   6.308   4.081
 4259TIP3   OH212719   2.975   5.544   4.754
 4259TIP3    H112720   3.031   5.621   4.764
 4259TIP3    H212721   2.979   5.500   4.840
 4260TIP3   OH212722   7.419  -0.016   1.535
 4260TIP3    H112723   7.392   0.036   1.611
 4260TIP3    H212724   7.503   0.022   1.508
 4261TIP3   OH212725   1.501   3.452   2.375
 4261TIP3    H112726   1.516   3.480   2.465
 4261TIP3    H212727   1.451   3.524   2.336
 4262TIP3   OH212728   1.777   2.987   2.117
 4262TIP3    H112729   1.769   2.960   2.209
 4262TIP3    H212730   1.765   3.082   2.119
 4263TIP3   OH212731   4.609   4.217   6.459
 4263TIP3    H112732   4.577   4.134   6.491
 4263TIP3    H212733   4.640   4.263   6.537
 4264TIP3   OH212734   7.107   6.058   3.756
 4264TIP3    H112735   7.176   6.119   3.728
 4264TIP3    H212736   7.029   6.113   3.764
 4265TIP3   OH212737   6.950   4.260   3.123
 4265TIP3    H112738   7.022   4.206   3.154
 4265TIP3    H212739   6.901   4.203   3.063
 4266TIP3   OH212740   8.237   5.879   6.680
 4266TIP3    H112741   8.209   5.951   6.737
 4266TIP3    H212742   8.329   5.898   6.661
 4267TIP3   OH212743   5.175   7.011   3.406
 4267TIP3    H112744   5.107   6.994   3.341
 4267TIP3    H212745   5.140   7.084   3.458
 4268TIP3   OH212746   3.397   0.584   0.373
 4268TIP3    H112747   3.316   0.630   0.397
 4268TIP3    H212748   3.466   0.630   0.420
 4269TIP3   OH212749   6.640   6.624   4.674
 4269TIP3    H112750   6.647   6.678   4.595
 4269TIP3    H212751   6.557   6.578   4.664
 4270TIP3   OH212752   5.510   6.210   0.052
 4270TIP3    H112753   5.440   6.149   0.026
 4270TIP3    H212754   5.540   6.248  -0.031
 4271TIP3   OH212755   8.024   6.980   4.872
 4271TIP3    H112756   8.025   7.071   4.842
 4271TIP3    H212757   7.938   6.947   4.845
 4272TIP3   OH212758   1.690   0.126   5.737
 4272TIP3    H112759   1.766   0.069   5.739
 4272TIP3    H212760   1.654   0.115   5.649
 4273TIP3   OH212761   0.672   6.248   2.512
 4273TIP3    H112762   0.600   6.310   2.507
 4273TIP3    H212763   0.736   6.281   2.449
 4274TIP3   OH212764   4.690   3.831   6.219
 4274TIP3    H112765   4.774   3.871   6.199
 4274TIP3    H212766   4.636   3.903   6.252
 4275TIP3   OH212767   0.520   4.485   3.106
 4275TIP3    H112768   0.585   4.423   3.073
 4275TIP3    H212769   0.556   4.516   3.189
 4276TIP3   OH212770   5.341   4.303   0.612
 4276TIP3    H112771   5.274   4.251   0.568
 4276TIP3    H212772   5.293   4.351   0.681
 4277TIP3   OH212773   3.127   2.667   5.946
 4277TIP3    H112774   3.126   2.722   6.024
 4277TIP3    H212775   3.062   2.599   5.964
 4278TIP3   OH212776   2.927   0.076   1.512
 4278TIP3    H112777   2.844   0.115   1.540
 4278TIP3    H212778   2.905  -0.014   1.489
 4279TIP3   OH212779   5.671   0.190   6.385
 4279TIP3    H112780   5.593   0.135   6.376
 4279TIP3    H212781   5.653   0.245   6.461
 4280TIP3   OH212782   1.176   5.417   3.629
 4280TIP3    H112783   1.129   5.363   3.566
 4280TIP3    H212784   1.265   5.381   3.630
 4281TIP3   OH212785   5.672   3.826   3.217
 4281TIP3    H112786   5.743   3.786   3.267
 4281TIP3    H212787   5.599   3.831   3.278
 4282TIP3   OH212788   5.763   7.798   1.421
 4282TIP3    H112789   5.842   7.795   1.367
 4282TIP3    H212790   5.693   7.764   1.364
 4283TIP3   OH212791   7.493   6.407   3.132
 4283TIP3    H112792   7.460   6.400   3.221
 4283TIP3    H212793   7.489   6.500   3.112
 4284TIP3   OH212794   1.948   7.344   1.750
 4284TIP3    H112795   1.994   7.286   1.810
 4284TIP3    H212796   1.978   7.318   1.663
 4285TIP3   OH212797   0.291   3.371   6.259
 4285TIP3    H112798   0.334   3.320   6.189
 4285TIP3    H212799   0.359   3.383   6.325
 4286TIP3   OH212800   6.319   7.026   3.859
 4286TIP3    H112801   6.360   6.942   3.883
 4286TIP3    H212802   6.390   7.077   3.821
 4287TIP3   OH212803   6.270   3.051   0.488
 4287TIP3    H112804   6.333   3.096   0.430
 4287TIP3    H212805   6.205   3.118   0.509
 4288TIP3   OH212806   0.681   2.641   3.457
 4288TIP3    H112807   0.764   2.595   3.466
 4288TIP3    H212808   0.651   2.620   3.369
 4289TIP3   OH212809   1.826   4.290   1.712
 4289TIP3    H112810   1.794   4.308   1.800
 4289TIP3    H212811   1.826   4.376   1.669
 4290TIP3   OH212812   1.452   3.615   0.143
 4290TIP3    H112813   1.529   3.631   0.089
 4290TIP3    H212814   1.379   3.652   0.093
 4291TIP3   OH212815   7.321   4.503   0.887
 4291TIP3    H112816   7.319   4.442   0.813
 4291TIP3    H212817   7.414   4.521   0.901
 4292TIP3   OH212818   4.679   6.833   0.604
 4292TIP3    H112819   4.658   6.880   0.685
 4292TIP3    H212820   4.675   6.900   0.536
 4293TIP3   OH212821   0.452   1.902   5.581
 4293TIP3    H112822   0.475   1.974   5.521
 4293TIP3    H212823   0.362   1.880   5.558
 4294TIP3   OH212824   7.584   3.144   0.728
 4294TIP3    H112825   7.626   3.060   0.707
 4294TIP3    H212826   7.656   3.207   0.732
 4295TIP3   OH212827   3.918   6.075   2.056
 4295TIP3    H112828   3.979   6.141   2.089
 4295TIP3    H212829   3.835   6.121   2.046
 4296TIP3   OH212830   3.483   4.561   1.142
 4296TIP3    H112831   3.498   4.491   1.206
 4296TIP3    H212832   3.501   4.642   1.190
 4297TIP3   OH212833   4.451   6.402   5.852
 4297TIP3    H112834   4.420   6.340   5.918
 4297TIP3    H212835   4.525   6.446   5.893
 4298TIP3   OH212836   0.554   1.092   0.069
 4298TIP3    H112837   0.623   1.049   0.119
 4298TIP3    H212838   0.582   1.183   0.062
 4299TIP3   OH212839   5.040   7.604   2.223
 4299TIP3    H112840   5.052   7.600   2.128
 4299TIP3    H212841   4.989   7.684   2.237
 4300TIP3   OH212842   8.266   6.644   5.809
 4300TIP3    H112843   8.333   6.599   5.758
 4300TIP3    H212844   8.190   6.584   5.807
 4301TIP3   OH212845   0.268   3.929   2.333
 4301TIP3    H112846   0.237   3.977   2.410
 4301TIP3    H212847   0.188   3.901   2.289
 4302TIP3   OH212848   3.634   6.752   0.902
 4302TIP3    H112849   3.671   6.837   0.927
 4302TIP3    H212850   3.590   6.770   0.818
 4303TIP3   OH212851   1.770   1.589   3.107
 4303TIP3    H112852   1.859   1.555   3.095
 4303TIP3    H212853   1.781   1.684   3.110
 4304TIP3   OH212854   3.609   4.281   6.221
 4304TIP3    H112855   3.620   4.367   6.180
 4304TIP3    H212856   3.694   4.263   6.261
 4305TIP3   OH212857   5.224   7.053   1.988
 4305TIP3    H112858   5.254   7.000   1.913
 4305TIP3    H212859   5.197   7.136   1.950
 4306TIP3   OH212860   4.681   5.941   2.654
 4306TIP3    H112861   4.630   6.006   2.701
 4306TIP3    H212862   4.627   5.919   2.578
 4307TIP3   OH212863   1.435   6.334   1.327
 4307TIP3    H112864   1.500   6.372   1.385
 4307TIP3    H212865   1.353   6.335   1.378
 4308TIP3   OH212866   2.318   1.456   0.298
 4308TIP3    H112867   2.382   1.473   0.366
 4308TIP3    H212868   2.233   1.474   0.339
 4309TIP3   OH212869   3.020   2.649   5.262
 4309TIP3    H112870   3.096   2.670   5.208
 4309TIP3    H212871   2.958   2.607   5.202
 4310TIP3   OH212872   3.903   3.387   2.226
 4310TIP3    H112873   3.857   3.410   2.145
 4310TIP3    H212874   3.836   3.395   2.294
 4311TIP3   OH212875   4.125   7.039   1.634
 4311TIP3    H112876   4.031   7.025   1.630
 4311TIP3    H212877   4.144   7.100   1.563
 4312TIP3   OH212878   1.832   1.294   1.407
 4312TIP3    H112879   1.819   1.199   1.412
 4312TIP3    H212880   1.751   1.331   1.444
 4313TIP3   OH212881   7.103   1.705   2.364
 4313TIP3    H112882   7.009   1.717   2.374
 4313TIP3    H212883   7.140   1.742   2.444
 4314TIP3   OH212884   7.751   3.696   4.236
 4314TIP3    H112885   7.736   3.623   4.175
 4314TIP3    H212886   7.769   3.654   4.320
 4315TIP3   OH212887   5.231   7.168   2.742
 4315TIP3    H112888   5.174   7.245   2.738
 4315TIP3    H212889   5.315   7.202   2.773
 4316TIP3   OH212890   1.846   0.802   3.659
 4316TIP3    H112891   1.798   0.871   3.614
 4316TIP3    H212892   1.817   0.721   3.616
 4317TIP3   OH212893   6.110   6.332   5.009
 4317TIP3    H112894   6.081   6.261   5.066
 4317TIP3    H212895   6.202   6.310   4.990
 4318TIP3   OH212896   7.992   1.461   1.848
 4318TIP3    H112897   8.077   1.446   1.806
 4318TIP3    H212898   8.011   1.460   1.942
 4319TIP3   OH212899   5.332   4.968   2.152
 4319TIP3    H112900   5.282   4.955   2.071
 4319TIP3    H212901   5.307   4.893   2.207
 4320TIP3   OH212902   4.075   7.612   5.723
 4320TIP3    H112903   4.121   7.670   5.662
 4320TIP3    H212904   3.984   7.615   5.693
 4321TIP3   OH212905   0.112   2.052   4.539
 4321TIP3    H112906   0.142   1.980   4.483
 4321TIP3    H212907   0.019   2.035   4.552
 4322TIP3   OH212908   0.821   0.259   5.851
 4322TIP3    H112909   0.784   0.312   5.780
 4322TIP3    H212910   0.797   0.307   5.931
 4323TIP3   OH212911   5.924   1.967   3.491
 4323TIP3    H112912   5.959   2.035   3.549
 4323TIP3    H212913   5.936   1.885   3.540
 4324TIP3   OH212914   1.911   1.554   0.952
 4324TIP3    H112915   1.986   1.494   0.955
 4324TIP3    H212916   1.843   1.505   0.906
 4325TIP3   OH212917   0.387   3.924   2.866
 4325TIP3    H112918   0.402   3.930   2.960
 4325TIP3    H212919   0.434   3.999   2.829
 4326TIP3   OH212920   1.473   5.567   6.286
 4326TIP3    H112921   1.381   5.578   6.262
 4326TIP3    H212922   1.497   5.647   6.332
 4327TIP3   OH212923   0.760   2.783   3.016
 4327TIP3    H112924   0.811   2.703   3.005
 4327TIP3    H212925   0.799   2.826   3.093
 4328TIP3   OH212926   0.348   3.386   6.643
 4328TIP3    H112927   0.412   3.317   6.626
 4328TIP3    H212928   0.396   3.467   6.629
 4329TIP3   OH212929   4.549   4.267   1.174
 4329TIP3    H112930   4.479   4.331   1.167
 4329TIP3    H212931   4.540   4.213   1.095
 4330TIP3   OH212932   3.449   5.932   3.338
 4330TIP3    H112933   3.389   5.870   3.380
 4330TIP3    H212934   3.529   5.881   3.321
 4331TIP3   OH212935   7.088   7.521   0.150
 4331TIP3    H112936   7.139   7.447   0.183
 4331TIP3    H212937   7.003   7.483   0.126
 4332TIP3   OH212938   5.397   0.092   6.420
 4332TIP3    H112939   5.360   0.154   6.483
 4332TIP3    H212940   5.321   0.057   6.373
 4333TIP3   OH212941   0.294   3.026   1.910
 4333TIP3    H112942   0.244   2.971   1.849
 4333TIP3    H212943   0.240   3.028   1.990
 4334TIP3   OH212944   1.995   5.397   4.208
 4334TIP3    H112945   1.911   5.352   4.216
 4334TIP3    H212946   1.971   5.490   4.204
 4335TIP3   OH212947   6.493   4.855   0.382
 4335TIP3    H112948   6.455   4.812   0.305
 4335TIP3    H212949   6.585   4.829   0.380
 4336TIP3   OH212950   4.916   7.617   6.733
 4336TIP3    H112951   4.987   7.579   6.784
 4336TIP3    H212952   4.959   7.649   6.653
 4337TIP3   OH212953   2.705   7.063   0.159
 4337TIP3    H112954   2.649   6.986   0.167
 4337TIP3    H212955   2.794   7.028   0.154
 4338TIP3   OH212956   7.265   1.380   4.119
 4338TIP3    H112957   7.202   1.385   4.191
 4338TIP3    H212958   7.219   1.334   4.049
 4339TIP3   OH212959   6.747   1.399   2.020
 4339TIP3    H112960   6.720   1.459   2.090
 4339TIP3    H212961   6.738   1.450   1.940
 4340TIP3   OH212962   0.434   0.432   0.078
 4340TIP3    H112963   0.436   0.525   0.055
 4340TIP3    H212964   0.409   0.431   0.170
 4341TIP3   OH212965   8.207   5.754   2.370
 4341TIP3    H112966   8.235   5.828   2.314
 4341TIP3    H212967   8.286   5.701   2.379
 4342TIP3   OH212968   1.622   4.550   1.724
 4342TIP3    H112969   1.679   4.594   1.788
 4342TIP3    H212970   1.563   4.497   1.777
 4343TIP3   OH212971   3.029   4.768   3.572
 4343TIP3    H112972   2.941   4.793   3.600
 4343TIP3    H212973   3.087   4.807   3.638
 4344TIP3   OH212974   3.153   0.794   1.034
 4344TIP3    H112975   3.239   0.762   1.062
 4344TIP3    H212976   3.134   0.867   1.094
 4345TIP3   OH212977   5.651   4.067   0.681
 4345TIP3    H112978   5.635   3.993   0.740
 4345TIP3    H212979   5.745   4.068   0.669
 4346TIP3   OH212980   2.354   0.099   0.123
 4346TIP3    H112981   2.363   0.100   0.028
 4346TIP3    H212982   2.330   0.189   0.146
 4347TIP3   OH212983   1.925   1.111   3.275
 4347TIP3    H112984   1.899   1.050   3.344
 4347TIP3    H212985   1.951   1.056   3.202
 4348TIP3   OH212986   1.937   6.663   0.623
 4348TIP3    H112987   1.971   6.753   0.625
 4348TIP3    H212988   1.985   6.617   0.692
 4349TIP3   OH212989   5.075   6.373   6.552
 4349TIP3    H112990   5.015   6.435   6.509
 4349TIP3    H212991   5.022   6.335   6.622
 4350TIP3   OH212992   4.805   0.274   1.869
 4350TIP3    H112993   4.866   0.338   1.832
 4350TIP3    H212994   4.745   0.253   1.798
 4351TIP3   OH212995   6.323   1.151   1.177
 4351TIP3    H112996   6.297   1.154   1.085
 4351TIP3    H212997   6.265   1.084   1.216
 4352TIP3   OH212998   4.278   6.742   3.227
 4352TIP3    H112999   4.369   6.769   3.220
 4352TIP3    H213000   4.249   6.776   3.312
 4353TIP3   OH213001   4.887   5.219   0.948
 4353TIP3    H113002   4.969   5.249   0.911
 4353TIP3    H213003   4.831   5.297   0.950
 4354TIP3   OH213004   6.696   7.283   5.345
 4354TIP3    H113005   6.698   7.188   5.355
 4354TIP3    H213006   6.762   7.301   5.278
 4355TIP3   OH213007   2.831   2.537   1.548
 4355TIP3    H113008   2.898   2.533   1.616
 4355TIP3    H213009   2.812   2.630   1.538
 4356TIP3   OH213010   8.033   3.539   3.219
 4356TIP3    H113011   7.963   3.479   3.246
 4356TIP3    H213012   8.073   3.567   3.301
 4357TIP3   OH213013   4.525   0.878   0.920
 4357TIP3    H113014   4.599   0.938   0.934
 4357TIP3    H213015   4.563   0.804   0.873
 4358TIP3   OH213016   3.020   1.624   2.419
 4358TIP3    H113017   3.052   1.649   2.332
 4358TIP3    H213018   3.095   1.637   2.477
 4359TIP3   OH213019   1.200   5.081   1.855
 4359TIP3    H113020   1.208   5.127   1.938
 4359TIP3    H213021   1.169   5.147   1.793
 4360TIP3   OH213022   6.000   4.783   5.282
 4360TIP3    H113023   5.984   4.769   5.189
 4360TIP3    H213024   5.984   4.698   5.323
 4361TIP3   OH213025   7.928   2.708   2.932
 4361TIP3    H113026   7.958   2.640   2.873
 4361TIP3    H213027   7.834   2.693   2.942
 4362TIP3   OH213028   6.372   5.805   5.281
 4362TIP3    H113029   6.334   5.854   5.208
 4362TIP3    H213030   6.319   5.829   5.357
 4363TIP3   OH213031   2.220   6.907   5.530
 4363TIP3    H113032   2.176   6.989   5.512
 4363TIP3    H213033   2.294   6.931   5.587
 4364TIP3   OH213034   0.753   4.895   0.595
 4364TIP3    H113035   0.720   4.975   0.554
 4364TIP3    H213036   0.686   4.830   0.578
 4365TIP3   OH213037   1.196   5.582   0.065
 4365TIP3    H113038   1.254   5.597   0.139
 4365TIP3    H213039   1.236   5.631  -0.007
 4366TIP3   OH213040   2.328   3.421   0.496
 4366TIP3    H113041   2.377   3.432   0.577
 4366TIP3    H213042   2.386   3.455   0.428
 4367TIP3   OH213043   7.160   1.648   6.073
 4367TIP3    H113044   7.238   1.698   6.098
 4367TIP3    H213045   7.139   1.679   5.985
 4368TIP3   OH213046   4.607   5.900   1.579
 4368TIP3    H113047   4.654   5.958   1.520
 4368TIP3    H213048   4.540   5.955   1.619
 4369TIP3   OH213049   7.979   6.222   6.100
 4369TIP3    H113050   7.988   6.310   6.135
 4369TIP3    H213051   7.918   6.231   6.026
 4370TIP3   OH213052   5.497   1.198   4.735
 4370TIP3    H113053   5.589   1.198   4.708
 4370TIP3    H213054   5.500   1.187   4.830
 4371TIP3   OH213055   5.492   3.475   4.021
 4371TIP3    H113056   5.526   3.403   4.073
 4371TIP3    H213057   5.401   3.486   4.050
 4372TIP3   OH213058   3.623   1.685   3.944
 4372TIP3    H113059   3.653   1.594   3.940
 4372TIP3    H213060   3.693   1.731   3.990
 4373TIP3   OH213061   8.094   2.563   1.859
 4373TIP3    H113062   8.076   2.477   1.895
 4373TIP3    H213063   8.134   2.546   1.773
 4374TIP3   OH213064   2.990   4.875   6.366
 4374TIP3    H113065   3.020   4.877   6.457
 4374TIP3    H213066   3.070   4.863   6.314
 4375TIP3   OH213067   6.856   4.404   1.363
 4375TIP3    H113068   6.847   4.348   1.440
 4375TIP3    H213069   6.816   4.354   1.292
 4376TIP3   OH213070   5.451   6.387   4.442
 4376TIP3    H113071   5.449   6.379   4.346
 4376TIP3    H213072   5.425   6.301   4.474
 4377TIP3   OH213073   4.274   1.624   5.188
 4377TIP3    H113074   4.304   1.709   5.221
 4377TIP3    H213075   4.255   1.573   5.266
 4378TIP3   OH213076   5.978   2.943   4.194
 4378TIP3    H113077   6.039   2.910   4.128
 4378TIP3    H213078   6.016   2.915   4.277
 4379TIP3   OH213079   3.239   7.436   3.915
 4379TIP3    H113080   3.149   7.465   3.930
 4379TIP3    H213081   3.274   7.418   4.002
 4380TIP3   OH213082   8.079   6.343   3.477
 4380TIP3    H113083   8.154   6.401   3.484
 4380TIP3    H213084   8.079   6.315   3.385
 4381TIP3   OH213085   4.077   1.348   1.782
 4381TIP3    H113086   3.989   1.367   1.752
 4381TIP3    H213087   4.125   1.324   1.702
 4382TIP3   OH213088   6.159   1.375   5.006
 4382TIP3    H113089   6.229   1.438   5.025
 4382TIP3    H213090   6.079   1.429   5.001
 4383TIP3   OH213091   6.350   2.234   2.568
 4383TIP3    H113092   6.287   2.302   2.590
 4383TIP3    H213093   6.430   2.260   2.613
 4384TIP3   OH213094   6.425   7.776   6.380
 4384TIP3    H113095   6.463   7.767   6.292
 4384TIP3    H213096   6.384   7.863   6.379
 4385TIP3   OH213097   4.482   5.931   4.349
 4385TIP3    H113098   4.476   5.873   4.272
 4385TIP3    H213099   4.537   5.883   4.410
 4386TIP3   OH213100   5.187   4.656   1.961
 4386TIP3    H113101   5.208   4.575   1.914
 4386TIP3    H213102   5.193   4.633   2.054
 4387TIP3   OH213103   3.819   6.795   5.867
 4387TIP3    H113104   3.849   6.876   5.909
 4387TIP3    H213105   3.724   6.802   5.866
 4388TIP3   OH213106   3.455   7.288   3.184
 4388TIP3    H113107   3.460   7.204   3.137
 4388TIP3    H213108   3.369   7.286   3.227
 4389TIP3   OH213109   1.969   1.577   1.900
 4389TIP3    H113110   2.027   1.564   1.975
 4389TIP3    H213111   2.022   1.623   1.836
 4390TIP3   OH213112   0.374   5.054   1.198
 4390TIP3    H113113   0.340   5.090   1.116
 4390TIP3    H213114   0.468   5.043   1.181
 4391TIP3   OH213115   1.851   4.054   6.172
 4391TIP3    H113116   1.846   4.091   6.260
 4391TIP3    H213117   1.759   4.043   6.145
 4392TIP3   OH213118   2.080   5.914   0.404
 4392TIP3    H113119   2.070   6.009   0.392
 4392TIP3    H213120   2.033   5.895   0.485
 4393TIP3   OH213121   6.939   6.221   1.935
 4393TIP3    H113122   6.921   6.184   1.849
 4393TIP3    H213123   6.988   6.152   1.981
 4394TIP3   OH213124   2.617   6.546   5.257
 4394TIP3    H113125   2.706   6.525   5.286
 4394TIP3    H213126   2.621   6.636   5.227
 4395TIP3   OH213127   7.142   6.262   2.879
 4395TIP3    H113128   7.177   6.220   2.958
 4395TIP3    H213129   7.182   6.349   2.879
 4396TIP3   OH213130   4.952   2.251   3.188
 4396TIP3    H113131   4.948   2.317   3.119
 4396TIP3    H213132   4.880   2.274   3.247
 4397TIP3   OH213133   8.172   1.533   5.756
 4397TIP3    H113134   8.247   1.475   5.740
 4397TIP3    H213135   8.164   1.585   5.676
 4398TIP3   OH213136   7.940   3.843   0.800
 4398TIP3    H113137   7.967   3.752   0.802
 4398TIP3    H213138   7.936   3.865   0.707
 4399TIP3   OH213139   2.340   6.472   6.039
 4399TIP3    H113140   2.250   6.504   6.041
 4399TIP3    H213141   2.392   6.543   6.076
 4400TIP3   OH213142   3.607   1.265   4.412
 4400TIP3    H113143   3.575   1.354   4.425
 4400TIP3    H213144   3.620   1.231   4.501
 4401TIP3   OH213145   6.059   0.825   3.767
 4401TIP3    H113146   5.991   0.840   3.832
 4401TIP3    H213147   6.058   0.730   3.752
 4402TIP3   OH213148   2.637   5.606   3.862
 4402TIP3    H113149   2.644   5.657   3.781
 4402TIP3    H213150   2.713   5.548   3.860
 4403TIP3   OH213151   7.459   1.428   3.753
 4403TIP3    H113152   7.452   1.333   3.763
 4403TIP3    H213153   7.427   1.445   3.664
 4404TIP3   OH213154   8.002   5.574   1.277
 4404TIP3    H113155   8.015   5.657   1.232
 4404TIP3    H213156   7.907   5.559   1.274
 4405TIP3   OH213157   1.227   1.106   3.363
 4405TIP3    H113158   1.178   1.182   3.332
 4405TIP3    H213159   1.160   1.042   3.386
 4406TIP3   OH213160   4.327   3.799   0.164
 4406TIP3    H113161   4.374   3.738   0.221
 4406TIP3    H213162   4.240   3.759   0.155
 4407TIP3   OH213163   7.233   4.966   4.113
 4407TIP3    H113164   7.234   4.979   4.208
 4407TIP3    H213165   7.324   4.978   4.086
 4408TIP3   OH213166   3.519   3.753   1.750
 4408TIP3    H113167   3.510   3.781   1.841
 4408TIP3    H213168   3.547   3.831   1.703
 4409TIP3   OH213169   4.560   2.114   2.185
 4409TIP3    H113170   4.503   2.175   2.232
 4409TIP3    H213171   4.629   2.092   2.248
 4410TIP3   OH213172   2.622   4.827   4.846
 4410TIP3    H113173   2.577   4.842   4.929
 4410TIP3    H213174   2.572   4.755   4.805
 4411TIP3   OH213175   5.262   0.919   5.154
 4411TIP3    H113176   5.231   0.893   5.067
 4411TIP3    H213177   5.237   1.011   5.161
 4412TIP3   OH213178   8.287   7.274   3.984
 4412TIP3    H113179   8.265   7.361   4.017
 4412TIP3    H213180   8.243   7.214   4.045
 4413TIP3   OH213181   3.940   7.573   2.389
 4413TIP3    H113182   3.977   7.497   2.345
 4413TIP3    H213183   4.015   7.624   2.417
 4414TIP3   OH213184   7.536   2.328   6.715
 4414TIP3    H113185   7.625   2.298   6.731
 4414TIP3    H213186   7.522   2.397   6.780
 4415TIP3   OH213187   3.072   4.635   4.945
 4415TIP3    H113188   3.074   4.694   5.019
 4415TIP3    H213189   3.143   4.665   4.887
 4416TIP3   OH213190   5.392   1.188   1.675
 4416TIP3    H113191   5.343   1.213   1.597
 4416TIP3    H213192   5.327   1.145   1.731
 4417TIP3   OH213193   2.450   5.966   0.891
 4417TIP3    H113194   2.436   5.969   0.797
 4417TIP3    H213195   2.376   6.014   0.928
 4418TIP3   OH213196   1.445   6.375   1.894
 4418TIP3    H113197   1.446   6.282   1.915
 4418TIP3    H213198   1.446   6.419   1.979
 4419TIP3   OH213199   1.845   0.316   4.520
 4419TIP3    H113200   1.855   0.240   4.462
 4419TIP3    H213201   1.763   0.301   4.566
 4420TIP3   OH213202   0.095   6.295   4.749
 4420TIP3    H113203   0.046   6.226   4.794
 4420TIP3    H213204   0.038   6.371   4.752
 4421TIP3   OH213205   5.929   7.435   4.920
 4421TIP3    H113206   5.975   7.439   4.836
 4421TIP3    H213207   5.847   7.390   4.900
 4422TIP3   OH213208   1.569   3.920   2.123
 4422TIP3    H113209   1.491   3.881   2.084
 4422TIP3    H213210   1.579   4.004   2.076
 4423TIP3   OH213211   1.286   3.020   2.164
 4423TIP3    H113212   1.353   2.970   2.118
 4423TIP3    H213213   1.328   3.047   2.246
 4424TIP3   OH213214   2.001   3.833   5.842
 4424TIP3    H113215   2.003   3.910   5.786
 4424TIP3    H213216   2.022   3.867   5.929
 4425TIP3   OH213217   3.631   3.123   3.023
 4425TIP3    H113218   3.683   3.156   2.950
 4425TIP3    H213219   3.684   3.143   3.100
 4426TIP3   OH213220   6.223   4.734   0.882
 4426TIP3    H113221   6.314   4.749   0.857
 4426TIP3    H213222   6.206   4.642   0.860
 4427TIP3   OH213223   3.450   6.626   5.137
 4427TIP3    H113224   3.519   6.690   5.120
 4427TIP3    H213225   3.493   6.554   5.182
 4428TIP3   OH213226   6.465   6.028   4.698
 4428TIP3    H113227   6.523   6.098   4.667
 4428TIP3    H213228   6.524   5.964   4.738
 4429TIP3   OH213229   2.868   6.324   1.149
 4429TIP3    H113230   2.946   6.270   1.164
 4429TIP3    H213231   2.902   6.401   1.102
 4430TIP3   OH213232   1.796   7.685   2.463
 4430TIP3    H113233   1.764   7.769   2.498
 4430TIP3    H213234   1.890   7.686   2.483
 4431TIP3   OH213235   2.390   1.749   5.112
 4431TIP3    H113236   2.305   1.782   5.141
 4431TIP3    H213237   2.374   1.717   5.023
 4432TIP3   OH213238   5.162   7.442   5.318
 4432TIP3    H113239   5.144   7.415   5.228
 4432TIP3    H213240   5.241   7.393   5.342
 4433TIP3   OH213241   7.973   0.518   1.591
 4433TIP3    H113242   7.939   0.569   1.665
 4433TIP3    H213243   7.968   0.427   1.620
 4434TIP3   OH213244   4.968   3.643   4.875
 4434TIP3    H113245   5.025   3.701   4.826
 4434TIP3    H213246   4.891   3.631   4.819
 4435TIP3   OH213247   1.558   1.879   1.144
 4435TIP3    H113248   1.573   1.834   1.061
 4435TIP3    H213249   1.596   1.820   1.210
 4436TIP3   OH213250   2.577   3.627   0.107
 4436TIP3    H113251   2.644   3.620   0.039
 4436TIP3    H213252   2.594   3.710   0.150
 4437TIP3   OH213253   4.228   5.159   0.337
 4437TIP3    H113254   4.291   5.166   0.408
 4437TIP3    H213255   4.234   5.243   0.291
 4438TIP3   OH213256   2.128   3.230   1.421
 4438TIP3    H113257   2.165   3.191   1.342
 4438TIP3    H213258   2.165   3.179   1.492
 4439TIP3   OH213259   5.695   2.481   5.406
 4439TIP3    H113260   5.773   2.494   5.460
 4439TIP3    H213261   5.621   2.493   5.466
 4440TIP3   OH213262   2.568   6.058   6.370
 4440TIP3    H113263   2.641   6.028   6.423
 4440TIP3    H213264   2.514   5.980   6.357
 4441TIP3   OH213265   4.742   6.381   0.996
 4441TIP3    H113266   4.818   6.334   0.963
 4441TIP3    H213267   4.775   6.467   1.020
 4442TIP3   OH213268   3.759   5.730   1.977
 4442TIP3    H113269   3.814   5.657   1.948
 4442TIP3    H213270   3.681   5.724   1.921
 4443TIP3   OH213271   1.707   5.765   5.166
 4443TIP3    H113272   1.708   5.816   5.085
 4443TIP3    H213273   1.752   5.683   5.143
 4444TIP3   OH213274   0.502   0.118   4.371
 4444TIP3    H113275   0.421   0.163   4.347
 4444TIP3    H213276   0.480   0.025   4.367
 4445TIP3   OH213277  -0.025   4.499   3.506
 4445TIP3    H113278  -0.011   4.591   3.530
 4445TIP3    H213279   0.063   4.461   3.504
 4446TIP3   OH213280   3.920   2.839   3.886
 4446TIP3    H113281   4.015   2.849   3.899
 4446TIP3    H213282   3.897   2.760   3.935
 4447TIP3   OH213283   1.542   0.051   6.668
 4447TIP3    H113284   1.567  -0.020   6.727
 4447TIP3    H213285   1.550   0.014   6.580
 4448TIP3   OH213286   4.480   3.698   6.413
 4448TIP3    H113287   4.447   3.750   6.340
 4448TIP3    H213288   4.434   3.614   6.405
 4449TIP3   OH213289   5.150   7.700   6.295
 4449TIP3    H113290   5.193   7.638   6.356
 4449TIP3    H213291   5.183   7.674   6.209
 4450TIP3   OH213292   7.767   1.317   6.070
 4450TIP3    H113293   7.729   1.398   6.037
 4450TIP3    H213294   7.857   1.341   6.095
 4451TIP3   OH213295   3.052   6.922   1.986
 4451TIP3    H113296   3.071   7.009   1.951
 4451TIP3    H213297   2.975   6.934   2.042
 4452TIP3   OH213298   4.278   5.857   5.785
 4452TIP3    H113299   4.315   5.926   5.730
 4452TIP3    H213300   4.263   5.784   5.725
 4453TIP3   OH213301   0.491   1.904   3.203
 4453TIP3    H113302   0.568   1.949   3.167
 4453TIP3    H213303   0.421   1.923   3.139
 4454TIP3   OH213304   1.754   6.518   1.023
 4454TIP3    H113305   1.738   6.609   1.049
 4454TIP3    H213306   1.691   6.468   1.075
 4455TIP3   OH213307   0.764   1.378   0.330
 4455TIP3    H113308   0.805   1.389   0.416
 4455TIP3    H213309   0.716   1.295   0.337
 4456TIP3   OH213310   7.569   1.282   5.370
 4456TIP3    H113311   7.576   1.377   5.373
 4456TIP3    H213312   7.643   1.251   5.422
 4457TIP3   OH213313   3.366   6.578   5.427
 4457TIP3    H113314   3.407   6.627   5.355
 4457TIP3    H213315   3.438   6.530   5.467
 4458TIP3   OH213316   7.079   5.336   4.126
 4458TIP3    H113317   7.087   5.357   4.033
 4458TIP3    H213318   7.026   5.407   4.163
 4459TIP3   OH213319   8.084   1.271   5.016
 4459TIP3    H113320   8.121   1.188   4.986
 4459TIP3    H213321   8.095   1.330   4.942
 4460TIP3   OH213322   0.116   7.578   1.308
 4460TIP3    H113323   0.093   7.485   1.301
 4460TIP3    H213324   0.126   7.593   1.402
 4461TIP3   OH213325   6.509   3.067   3.461
 4461TIP3    H113326   6.557   3.000   3.412
 4461TIP3    H213327   6.548   3.150   3.432
 4462TIP3   OH213328   7.411   1.892   0.336
 4462TIP3    H113329   7.459   1.810   0.352
 4462TIP3    H213330   7.454   1.956   0.392
 4463TIP3   OH213331   5.766   2.366   6.708
 4463TIP3    H113332   5.706   2.405   6.772
 4463TIP3    H213333   5.852   2.370   6.751
 4464TIP3   OH213334   2.228   2.792   0.115
 4464TIP3    H113335   2.215   2.819   0.206
 4464TIP3    H213336   2.236   2.874   0.066
 4465TIP3   OH213337   3.396   5.111   1.727
 4465TIP3    H113338   3.409   5.029   1.775
 4465TIP3    H213339   3.469   5.114   1.665
 4466TIP3   OH213340   7.414   0.014   3.213
 4466TIP3    H113341   7.388   0.007   3.121
 4466TIP3    H213342   7.484   0.079   3.214
 4467TIP3   OH213343   5.331   5.576   0.053
 4467TIP3    H113344   5.406   5.517   0.054
 4467TIP3    H213345   5.312   5.591  -0.040
 4468TIP3   OH213346   6.484   0.095   5.896
 4468TIP3    H113347   6.473   0.002   5.912
 4468TIP3    H213348   6.549   0.123   5.960
 4469TIP3   OH213349   3.243   2.867   3.381
 4469TIP3    H113350   3.337   2.874   3.364
 4469TIP3    H213351   3.232   2.903   3.469
 4470TIP3   OH213352   8.004   1.732   1.055
 4470TIP3    H113353   8.070   1.663   1.065
 4470TIP3    H213354   8.054   1.813   1.062
 4471TIP3   OH213355   1.992   5.082   0.483
 4471TIP3    H113356   1.993   5.130   0.400
 4471TIP3    H213357   1.899   5.078   0.507
 4472TIP3   OH213358   7.480   5.597   6.514
 4472TIP3    H113359   7.434   5.519   6.482
 4472TIP3    H213360   7.510   5.641   6.434
 4473TIP3   OH213361   1.697   6.835   1.052
 4473TIP3    H113362   1.683   6.836   0.957
 4473TIP3    H213363   1.672   6.923   1.081
 4474TIP3   OH213364   6.975   4.186   1.041
 4474TIP3    H113365   6.944   4.191   1.131
 4474TIP3    H213366   6.920   4.246   0.992
 4475TIP3   OH213367   2.594   2.733   4.885
 4475TIP3    H113368   2.582   2.756   4.977
 4475TIP3    H213369   2.545   2.652   4.873
 4476TIP3   OH213370   0.149   4.934   4.953
 4476TIP3    H113371   0.189   5.000   5.009
 4476TIP3    H213372   0.110   4.984   4.881
 4477TIP3   OH213373   2.163   5.654   3.888
 4477TIP3    H113374   2.119   5.737   3.905
 4477TIP3    H213375   2.091   5.591   3.874
 4478TIP3   OH213376   8.148   7.548   1.484
 4478TIP3    H113377   8.082   7.602   1.439
 4478TIP3    H213378   8.157   7.590   1.570
 4479TIP3   OH213379   4.775   6.512   0.122
 4479TIP3    H113380   4.813   6.576   0.062
 4479TIP3    H213381   4.748   6.440   0.065
 4480TIP3   OH213382   3.422   0.699   1.429
 4480TIP3    H113383   3.379   0.619   1.398
 4480TIP3    H213384   3.411   0.697   1.524
 4481TIP3   OH213385   0.151   2.223   1.943
 4481TIP3    H113386   0.116   2.278   2.013
 4481TIP3    H213387   0.234   2.190   1.977
 4482TIP3   OH213388   1.272   4.136   1.873
 4482TIP3    H113389   1.209   4.075   1.834
 4482TIP3    H213390   1.218   4.195   1.926
 4483TIP3   OH213391   6.822   2.935   2.359
 4483TIP3    H113392   6.839   2.887   2.278
 4483TIP3    H213393   6.863   3.021   2.345
 4484TIP3   OH213394   2.367   2.864   1.719
 4484TIP3    H113395   2.302   2.828   1.659
 4484TIP3    H213396   2.315   2.911   1.785
 4485TIP3   OH213397   1.918   2.970   1.167
 4485TIP3    H113398   1.957   2.969   1.254
 4485TIP3    H213399   1.923   3.062   1.139
 4486TIP3   OH213400   2.057   7.613   4.193
 4486TIP3    H113401   1.984   7.674   4.201
 4486TIP3    H213402   2.024   7.544   4.136
 4487TIP3   OH213403   4.063   3.832   3.879
 4487TIP3    H113404   4.040   3.885   3.803
 4487TIP3    H213405   4.089   3.895   3.946
 4488TIP3   OH213406   3.808   4.930   1.414
 4488TIP3    H113407   3.774   4.940   1.325
 4488TIP3    H213408   3.824   4.836   1.424
 4489TIP3   OH213409   3.178   6.758   4.017
 4489TIP3    H113410   3.193   6.764   4.112
 4489TIP3    H213411   3.162   6.665   4.001
 4490TIP3   OH213412   0.361   3.507   3.140
 4490TIP3    H113413   0.265   3.512   3.134
 4490TIP3    H213414   0.391   3.552   3.061
 4491TIP3   OH213415   4.280   2.572   6.213
 4491TIP3    H113416   4.267   2.522   6.133
 4491TIP3    H213417   4.311   2.658   6.183
 4492TIP3   OH213418   1.032   0.288   4.840
 4492TIP3    H113419   1.092   0.262   4.910
 4492TIP3    H213420   1.051   0.228   4.768
 4493TIP3   OH213421   2.694   3.737   6.753
 4493TIP3    H113422   2.626   3.736   6.820
 4493TIP3    H213423   2.649   3.763   6.673
 4494TIP3   OH213424   1.812   7.573   2.871
 4494TIP3    H113425   1.718   7.583   2.883
 4494TIP3    H213426   1.849   7.654   2.906
 4495TIP3   OH213427   4.887   1.417   2.398
 4495TIP3    H113428   4.960   1.397   2.339
 4495TIP3    H213429   4.809   1.408   2.343
 4496TIP3   OH213430   1.095   2.414   5.132
 4496TIP3    H113431   1.102   2.322   5.157
 4496TIP3    H213432   1.181   2.436   5.096
 4497TIP3   OH213433   4.194   7.712   1.604
 4497TIP3    H113434   4.289   7.711   1.615
 4497TIP3    H213435   4.167   7.799   1.632
 4498TIP3   OH213436   3.990   0.521   1.130
 4498TIP3    H113437   4.014   0.528   1.037
 4498TIP3    H213438   4.025   0.601   1.169
 4499TIP3   OH213439   1.187   0.343   2.103
 4499TIP3    H113440   1.227   0.296   2.030
 4499TIP3    H213441   1.158   0.274   2.163
 4500TIP3   OH213442   5.602   6.040   5.624
 4500TIP3    H113443   5.693   6.021   5.603
 4500TIP3    H213444   5.602   6.054   5.718
 4501TIP3   OH213445   5.719   2.620   1.333
 4501TIP3    H113446   5.633   2.618   1.375
 4501TIP3    H213447   5.763   2.695   1.373
 4502TIP3   OH213448   4.384   1.280   6.020
 4502TIP3    H113449   4.371   1.371   5.994
 4502TIP3    H213450   4.479   1.272   6.031
 4503TIP3   OH213451   0.595   7.261   2.971
 4503TIP3    H113452   0.602   7.168   2.950
 4503TIP3    H213453   0.519   7.291   2.921
 4504TIP3   OH213454   2.254   5.803   5.641
 4504TIP3    H113455   2.319   5.858   5.599
 4504TIP3    H213456   2.223   5.745   5.571
 4505TIP3   OH213457   1.518   1.859   3.945
 4505TIP3    H113458   1.428   1.877   3.974
 4505TIP3    H213459   1.573   1.909   4.006
 4506TIP3   OH213460   1.566   1.691   4.899
 4506TIP3    H113461   1.575   1.606   4.942
 4506TIP3    H213462   1.630   1.746   4.943
 4507TIP3   OH213463   2.909   6.838   3.222
 4507TIP3    H113464   2.855   6.834   3.143
 4507TIP3    H213465   2.853   6.805   3.292
 4508TIP3   OH213466   7.854   0.162   3.001
 4508TIP3    H113467   7.903   0.204   2.931
 4508TIP3    H213468   7.918   0.149   3.071
 4509TIP3   OH213469   4.589   5.279   2.544
 4509TIP3    H113470   4.504   5.242   2.569
 4509TIP3    H213471   4.599   5.253   2.452
 4510TIP3   OH213472   7.345   1.430   1.273
 4510TIP3    H113473   7.399   1.386   1.338
 4510TIP3    H213474   7.404   1.494   1.232
 4511TIP3   OH213475   7.596   5.572   0.737
 4511TIP3    H113476   7.530   5.514   0.773
 4511TIP3    H213477   7.667   5.571   0.800
 4512TIP3   OH213478   0.647   6.975   2.550
 4512TIP3    H113479   0.557   6.963   2.580
 4512TIP3    H213480   0.647   7.062   2.510
 4513TIP3   OH213481   4.740   7.486   0.773
 4513TIP3    H113482   4.703   7.439   0.847
 4513TIP3    H213483   4.833   7.493   0.794
 4514TIP3   OH213484   7.941   0.645   0.302
 4514TIP3    H113485   7.963   0.711   0.236
 4514TIP3    H213486   7.915   0.696   0.379
 4515TIP3   OH213487   2.648   1.722   2.242
 4515TIP3    H113488   2.596   1.739   2.164
 4515TIP3    H213489   2.588   1.680   2.303
 4516TIP3   OH213490   6.423   7.122   2.106
 4516TIP3    H113491   6.513   7.122   2.073
 4516TIP3    H213492   6.432   7.094   2.198
 4517TIP3   OH213493   2.328   1.904   4.047
 4517TIP3    H113494   2.418   1.925   4.072
 4517TIP3    H213495   2.318   1.945   3.961
 4518TIP3   OH213496   1.667   2.662   4.634
 4518TIP3    H113497   1.726   2.730   4.668
 4518TIP3    H213498   1.725   2.592   4.605
 4519TIP3   OH213499   6.613   6.191   6.109
 4519TIP3    H113500   6.545   6.125   6.124
 4519TIP3    H213501   6.618   6.198   6.013
 4520TIP3   OH213502   3.250   4.011   5.644
 4520TIP3    H113503   3.242   3.936   5.585
 4520TIP3    H213504   3.311   3.982   5.712
 4521TIP3   OH213505   1.225   3.102   6.645
 4521TIP3    H113506   1.269   3.121   6.562
 4521TIP3    H213507   1.190   3.187   6.672
 4522TIP3   OH213508   3.442   1.435   5.829
 4522TIP3    H113509   3.520   1.465   5.875
 4522TIP3    H213510   3.454   1.463   5.739
 4523TIP3   OH213511   6.642   0.687   0.235
 4523TIP3    H113512   6.596   0.687   0.150
 4523TIP3    H213513   6.691   0.605   0.235
 4524TIP3   OH213514   2.842   2.116   3.960
 4524TIP3    H113515   2.870   2.067   4.037
 4524TIP3    H213516   2.855   2.055   3.887
 4525TIP3   OH213517   7.064   5.710   5.240
 4525TIP3    H113518   7.126   5.777   5.269
 4525TIP3    H213519   7.083   5.697   5.147
 4526TIP3   OH213520   2.438   6.120   1.218
 4526TIP3    H113521   2.480   6.183   1.160
 4526TIP3    H213522   2.352   6.105   1.179
 4527TIP3   OH213523   6.278   5.857   1.072
 4527TIP3    H113524   6.271   5.920   1.143
 4527TIP3    H213525   6.371   5.855   1.051
 4528TIP3   OH213526   7.430   0.673   2.016
 4528TIP3    H113527   7.461   0.744   2.072
 4528TIP3    H213528   7.414   0.600   2.076
 4529TIP3   OH213529   3.012   3.528   4.780
 4529TIP3    H113530   2.926   3.561   4.752
 4529TIP3    H213531   2.991   3.464   4.849
 4530TIP3   OH213532   4.287   2.678   5.248
 4530TIP3    H113533   4.278   2.769   5.221
 4530TIP3    H213534   4.198   2.642   5.242
 4531TIP3   OH213535   1.722   3.310   3.191
 4531TIP3    H113536   1.790   3.244   3.174
 4531TIP3    H213537   1.771   3.389   3.212
 4532TIP3   OH213538   2.037   0.950   5.717
 4532TIP3    H113539   2.124   0.912   5.727
 4532TIP3    H213540   1.980   0.875   5.699
 4533TIP3   OH213541   3.769   3.592   1.081
 4533TIP3    H113542   3.739   3.501   1.072
 4533TIP3    H213543   3.862   3.589   1.060
 4534TIP3   OH213544   0.740   0.234   2.321
 4534TIP3    H113545   0.693   0.253   2.240
 4534TIP3    H213546   0.829   0.265   2.305
 4535TIP3   OH213547   1.943   1.196   5.253
 4535TIP3    H113548   1.992   1.127   5.208
 4535TIP3    H213549   1.995   1.215   5.331
 4536TIP3   OH213550   2.989   1.669   0.822
 4536TIP3    H113551   2.954   1.613   0.891
 4536TIP3    H213552   3.057   1.617   0.781
 4537TIP3   OH213553   7.124   0.752   0.478
 4537TIP3    H113554   7.069   0.828   0.494
 4537TIP3    H213555   7.067   0.677   0.493
 4538TIP3   OH213556   6.862   3.100   1.215
 4538TIP3    H113557   6.914   3.180   1.205
 4538TIP3    H213558   6.865   3.081   1.308
 4539TIP3   OH213559   1.240   2.662   5.584
 4539TIP3    H113560   1.183   2.631   5.514
 4539TIP3    H213561   1.307   2.594   5.592
 4540TIP3   OH213562   6.274   0.273   0.191
 4540TIP3    H113563   6.277   0.251   0.285
 4540TIP3    H213564   6.255   0.366   0.189
 4541TIP3   OH213565   4.766   3.655   0.511
 4541TIP3    H113566   4.841   3.596   0.517
 4541TIP3    H213567   4.784   3.723   0.577
 4542TIP3   OH213568   0.289   0.330   0.995
 4542TIP3    H113569   0.321   0.420   0.990
 4542TIP3    H213570   0.338   0.291   1.067
 4543TIP3   OH213571   3.892   5.536   4.036
 4543TIP3    H113572   3.867   5.471   3.970
 4543TIP3    H213573   3.871   5.620   3.996
 4544TIP3   OH213574   8.212   2.518   4.114
 4544TIP3    H113575   8.233   2.488   4.203
 4544TIP3    H213576   8.263   2.598   4.102
 4545TIP3   OH213577   7.680   2.671   6.253
 4545TIP3    H113578   7.641   2.606   6.313
 4545TIP3    H213579   7.703   2.621   6.175
 4546TIP3   OH213580   3.307   0.054   5.106
 4546TIP3    H113581   3.288   0.035   5.198
 4546TIP3    H213582   3.240   0.006   5.058
 4547TIP3   OH213583   1.134   7.346   3.399
 4547TIP3    H113584   1.199   7.414   3.384
 4547TIP3    H213585   1.066   7.388   3.450
 4548TIP3   OH213586   5.608   0.212   6.067
 4548TIP3    H113587   5.517   0.243   6.065
 4548TIP3    H213588   5.633   0.216   6.159
 4549TIP3   OH213589   1.430   1.837   0.354
 4549TIP3    H113590   1.347   1.828   0.401
 4549TIP3    H213591   1.496   1.844   0.422
 4550TIP3   OH213592   8.051   3.451   5.638
 4550TIP3    H113593   8.035   3.414   5.724
 4550TIP3    H213594   8.066   3.545   5.654
 4551TIP3   OH213595   3.681   6.062   0.513
 4551TIP3    H113596   3.633   6.114   0.578
 4551TIP3    H213597   3.757   6.029   0.561
 4552TIP3   OH213598   4.619   3.474   5.561
 4552TIP3    H113599   4.699   3.429   5.588
 4552TIP3    H213600   4.607   3.543   5.626
 4553TIP3   OH213601   4.892   1.503   4.818
 4553TIP3    H113602   4.902   1.528   4.726
 4553TIP3    H213603   4.803   1.469   4.825
 4554TIP3   OH213604   0.286   7.094   5.269
 4554TIP3    H113605   0.309   7.046   5.349
 4554TIP3    H213606   0.279   7.185   5.296
 4555TIP3   OH213607   6.146   3.258   1.033
 4555TIP3    H113608   6.192   3.213   0.962
 4555TIP3    H213609   6.062   3.213   1.039
 4556TIP3   OH213610   0.121   6.399   1.628
 4556TIP3    H113611   0.074   6.377   1.548
 4556TIP3    H213612   0.152   6.489   1.614
 4557TIP3   OH213613   0.555   6.881   3.216
 4557TIP3    H113614   0.473   6.845   3.183
 4557TIP3    H213615   0.623   6.827   3.174
 4558TIP3   OH213616   7.530   2.087   4.871
 4558TIP3    H113617   7.612   2.113   4.829
 4558TIP3    H213618   7.472   2.066   4.797
 4559TIP3   OH213619   2.704   7.612   1.275
 4559TIP3    H113620   2.734   7.670   1.205
 4559TIP3    H213621   2.730   7.525   1.247
 4560TIP3   OH213622   1.063   0.752   6.062
 4560TIP3    H113623   1.072   0.811   6.137
 4560TIP3    H213624   1.056   0.665   6.101
 4561TIP3   OH213625   1.264   1.708   5.931
 4561TIP3    H113626   1.177   1.748   5.925
 4561TIP3    H213627   1.299   1.741   6.014
 4562TIP3   OH213628   3.721   7.355   2.817
 4562TIP3    H113629   3.652   7.304   2.860
 4562TIP3    H213630   3.675   7.401   2.746
 4563TIP3   OH213631   6.234   7.317   0.834
 4563TIP3    H113632   6.249   7.344   0.744
 4563TIP3    H213633   6.156   7.263   0.830
 4564TIP3   OH213634   3.121   1.486   1.690
 4564TIP3    H113635   3.135   1.411   1.631
 4564TIP3    H213636   3.026   1.497   1.692
 4565TIP3   OH213637   6.281   4.974   3.466
 4565TIP3    H113638   6.364   4.966   3.513
 4565TIP3    H213639   6.305   4.976   3.374
 4566TIP3   OH213640   5.528   5.546   0.508
 4566TIP3    H113641   5.593   5.598   0.556
 4566TIP3    H213642   5.486   5.609   0.450
 4567TIP3   OH213643   3.236   6.467   3.530
 4567TIP3    H113644   3.248   6.377   3.500
 4567TIP3    H213645   3.144   6.486   3.513
 4568TIP3   OH213646   3.703   0.417   1.138
 4568TIP3    H113647   3.646   0.413   1.215
 4568TIP3    H213648   3.750   0.500   1.147
 4569TIP3   OH213649   5.397   2.089   0.749
 4569TIP3    H113650   5.402   2.162   0.811
 4569TIP3    H213651   5.486   2.082   0.713
 4570TIP3   OH213652   4.521   3.358   2.617
 4570TIP3    H113653   4.571   3.309   2.683
 4570TIP3    H213654   4.435   3.318   2.618
 4571TIP3   OH213655   6.265   2.193   3.292
 4571TIP3    H113656   6.238   2.107   3.327
 4571TIP3    H213657   6.193   2.251   3.315
 4572TIP3   OH213658   4.934   3.694   5.556
 4572TIP3    H113659   5.027   3.682   5.575
 4572TIP3    H213660   4.908   3.615   5.509
 4573TIP3   OH213661   0.501   6.622   3.677
 4573TIP3    H113662   0.476   6.691   3.615
 4573TIP3    H213663   0.455   6.544   3.645
 4574TIP3   OH213664   5.888   1.769   5.946
 4574TIP3    H113665   5.856   1.708   6.012
 4574TIP3    H213666   5.966   1.809   5.985
 4575TIP3   OH213667   3.850   7.283   2.563
 4575TIP3    H113668   3.933   7.243   2.538
 4575TIP3    H213669   3.843   7.361   2.508
 4576TIP3   OH213670   6.759   3.621   0.782
 4576TIP3    H113671   6.697   3.551   0.764
 4576TIP3    H213672   6.769   3.666   0.698
 4577TIP3   OH213673   5.346   3.365   3.391
 4577TIP3    H113674   5.390   3.449   3.409
 4577TIP3    H213675   5.353   3.317   3.474
 4578TIP3   OH213676   6.495   7.132   6.651
 4578TIP3    H113677   6.422   7.129   6.712
 4578TIP3    H213678   6.548   7.206   6.681
 4579TIP3   OH213679   7.103   1.930   4.284
 4579TIP3    H113680   7.167   2.000   4.270
 4579TIP3    H213681   7.149   1.865   4.336
 4580TIP3   OH213682   2.950   7.073   2.478
 4580TIP3    H113683   2.999   7.118   2.547
 4580TIP3    H213684   2.862   7.110   2.483
 4581TIP3   OH213685   7.362   4.422   5.995
 4581TIP3    H113686   7.321   4.423   6.081
 4581TIP3    H213687   7.320   4.492   5.947
 4582TIP3   OH213688   5.626   2.733   6.669
 4582TIP3    H113689   5.664   2.745   6.582
 4582TIP3    H213690   5.546   2.682   6.653
 4583TIP3   OH213691   3.229   1.875   5.415
 4583TIP3    H113692   3.203   1.786   5.391
 4583TIP3    H213693   3.243   1.918   5.331
 4584TIP3   OH213694   2.411   2.082   0.606
 4584TIP3    H113695   2.367   2.113   0.527
 4584TIP3    H213696   2.344   2.034   0.655
 4585TIP3   OH213697   1.016   4.867   6.358
 4585TIP3    H113698   1.037   4.887   6.449
 4585TIP3    H213699   0.934   4.818   6.362
 4586TIP3   OH213700   3.058   2.336   1.490
 4586TIP3    H113701   2.965   2.315   1.483
 4586TIP3    H213702   3.068   2.374   1.577
 4587TIP3   OH213703   3.511   5.252   2.645
 4587TIP3    H113704   3.424   5.291   2.631
 4587TIP3    H213705   3.545   5.298   2.722
 4588TIP3   OH213706   6.034   1.249   2.138
 4588TIP3    H113707   6.066   1.183   2.200
 4588TIP3    H213708   6.114   1.285   2.099
 4589TIP3   OH213709   2.419   3.577   5.432
 4589TIP3    H113710   2.467   3.583   5.514
 4589TIP3    H213711   2.468   3.514   5.380
 4590TIP3   OH213712   7.146   7.548   5.587
 4590TIP3    H113713   7.232   7.569   5.625
 4590TIP3    H213714   7.163   7.545   5.493
 4591TIP3   OH213715   3.471   3.787   1.414
 4591TIP3    H113716   3.402   3.802   1.349
 4591TIP3    H213717   3.486   3.873   1.454
 4592TIP3   OH213718   2.068   1.146   3.657
 4592TIP3    H113719   2.142   1.205   3.642
 4592TIP3    H213720   2.084   1.109   3.744
 4593TIP3   OH213721   3.638   2.551   2.638
 4593TIP3    H113722   3.710   2.526   2.695
 4593TIP3    H213723   3.561   2.553   2.695
 4594TIP3   OH213724   1.063   6.844   2.907
 4594TIP3    H113725   1.129   6.869   2.842
 4594TIP3    H213726   1.100   6.767   2.950
 4595TIP3   OH213727   7.652   3.824   5.728
 4595TIP3    H113728   7.618   3.815   5.817
 4595TIP3    H213729   7.705   3.904   5.730
 4596TIP3   OH213730   3.534   3.977   6.297
 4596TIP3    H113731   3.449   4.022   6.306
 4596TIP3    H213732   3.589   4.016   6.365
 4597TIP3   OH213733   1.027   4.925   1.161
 4597TIP3    H113734   1.104   4.957   1.210
 4597TIP3    H213735   1.032   4.830   1.169
 4598TIP3   OH213736   0.704   3.873   4.233
 4598TIP3    H113737   0.773   3.855   4.296
 4598TIP3    H213738   0.739   3.942   4.177
 4599TIP3   OH213739   2.181   2.664   2.326
 4599TIP3    H113740   2.128   2.743   2.316
 4599TIP3    H213741   2.224   2.675   2.411
 4600TIP3   OH213742   6.163   6.643   0.418
 4600TIP3    H113743   6.186   6.571   0.360
 4600TIP3    H213744   6.082   6.678   0.383
 4601TIP3   OH213745   7.296   2.718   3.019
 4601TIP3    H113746   7.310   2.641   2.964
 4601TIP3    H213747   7.338   2.789   2.971
 4602TIP3   OH213748   2.658   7.757   4.557
 4602TIP3    H113749   2.750   7.733   4.550
 4602TIP3    H213750   2.611   7.686   4.514
 4603TIP3   OH213751   5.897   0.598   4.161
 4603TIP3    H113752   5.878   0.590   4.067
 4603TIP3    H213753   5.979   0.648   4.164
 4604TIP3   OH213754   6.850   3.243   3.039
 4604TIP3    H113755   6.868   3.286   2.956
 4604TIP3    H213756   6.936   3.222   3.075
 4605TIP3   OH213757   3.040   7.368   4.156
 4605TIP3    H113758   3.032   7.297   4.092
 4605TIP3    H213759   2.972   7.350   4.221
 4606TIP3   OH213760   5.033   6.195   3.565
 4606TIP3    H113761   5.003   6.280   3.532
 4606TIP3    H213762   5.019   6.200   3.659
 4607TIP3   OH213763   6.157   5.557   4.819
 4607TIP3    H113764   6.151   5.647   4.852
 4607TIP3    H213765   6.069   5.536   4.788
 4608TIP3   OH213766   6.653   7.009   4.092
 4608TIP3    H113767   6.627   7.084   4.145
 4608TIP3    H213768   6.703   7.046   4.020
 4609TIP3   OH213769   8.177   7.452   0.143
 4609TIP3    H113770   8.135   7.411   0.067
 4609TIP3    H213771   8.267   7.467   0.116
 4610TIP3   OH213772   4.825   1.853   5.626
 4610TIP3    H113773   4.758   1.892   5.682
 4610TIP3    H213774   4.907   1.874   5.670
 4611TIP3   OH213775   0.812   4.328   2.500
 4611TIP3    H113776   0.855   4.243   2.508
 4611TIP3    H213777   0.753   4.332   2.576
 4612TIP3   OH213778   3.557   6.811   4.150
 4612TIP3    H113779   3.589   6.851   4.069
 4612TIP3    H213780   3.586   6.871   4.219
 4613TIP3   OH213781   2.135   0.139   4.957
 4613TIP3    H113782   2.219   0.116   4.917
 4613TIP3    H213783   2.073   0.077   4.922
 4614TIP3   OH213784   6.236   6.702   1.332
 4614TIP3    H113785   6.168   6.714   1.397
 4614TIP3    H213786   6.190   6.678   1.252
 4615TIP3   OH213787   2.099   3.798   3.532
 4615TIP3    H113788   2.189   3.790   3.565
 4615TIP3    H213789   2.082   3.892   3.533
 4616TIP3   OH213790   6.830   2.834   4.357
 4616TIP3    H113791   6.839   2.739   4.350
 4616TIP3    H213792   6.897   2.869   4.297
 4617TIP3   OH213793   2.569   2.193   2.760
 4617TIP3    H113794   2.572   2.258   2.830
 4617TIP3    H213795   2.489   2.144   2.776
 4618TIP3   OH213796   4.066   3.483   4.436
 4618TIP3    H113797   4.126   3.471   4.362
 4618TIP3    H213798   4.123   3.495   4.511
 4619TIP3   OH213799   6.632   4.452   4.593
 4619TIP3    H113800   6.667   4.536   4.565
 4619TIP3    H213801   6.709   4.395   4.600
 4620TIP3   OH213802   4.492   6.345   6.290
 4620TIP3    H113803   4.430   6.404   6.332
 4620TIP3    H213804   4.543   6.308   6.361
 4621TIP3   OH213805   8.247   3.755   6.084
 4621TIP3    H113806   8.176   3.691   6.079
 4621TIP3    H213807   8.309   3.718   6.146
 4622TIP3   OH213808   8.202   2.616   2.294
 4622TIP3    H113809   8.188   2.708   2.318
 4622TIP3    H213810   8.144   2.568   2.353
 4623TIP3   OH213811   1.234   3.342   2.264
 4623TIP3    H113812   1.154   3.385   2.232
 4623TIP3    H213813   1.256   3.389   2.345
 4624TIP3   OH213814   2.152   6.504   4.310
 4624TIP3    H113815   2.092   6.436   4.279
 4624TIP3    H213816   2.193   6.537   4.231
 4625TIP3   OH213817   6.717   3.043   0.514
 4625TIP3    H113818   6.708   3.102   0.589
 4625TIP3    H213819   6.663   2.967   0.537
 4626TIP3   OH213820   3.091   7.463   0.550
 4626TIP3    H113821   3.176   7.454   0.593
 4626TIP3    H213822   3.069   7.375   0.521
 4627TIP3   OH213823   4.106   0.280   2.436
 4627TIP3    H113824   4.163   0.219   2.391
 4627TIP3    H213825   4.042   0.307   2.370
 4628TIP3   OH213826   6.722   6.449   1.631
 4628TIP3    H113827   6.713   6.355   1.614
 4628TIP3    H213828   6.794   6.456   1.693
 4629TIP3   OH213829   1.329   4.881   5.334
 4629TIP3    H113830   1.271   4.807   5.313
 4629TIP3    H213831   1.327   4.887   5.429
 4630TIP3   OH213832   0.128   6.432   0.539
 4630TIP3    H113833   0.102   6.404   0.451
 4630TIP3    H213834   0.148   6.350   0.585
 4631TIP3   OH213835   2.908   6.879   0.106
 4631TIP3    H113836   2.896   6.835   0.190
 4631TIP3    H213837   2.923   6.807   0.044
 4632TIP3   OH213838   3.517   6.874   2.077
 4632TIP3    H113839   3.429   6.846   2.100
 4632TIP3    H213840   3.508   6.966   2.052
 4633TIP3   OH213841   4.496   2.016   4.622
 4633TIP3    H113842   4.549   2.016   4.701
 4633TIP3    H213843   4.458   2.104   4.618
 4634TIP3   OH213844   4.189   0.562   6.547
 4634TIP3    H113845   4.128   0.584   6.477
 4634TIP3    H213846   4.273   0.594   6.516
 4635TIP3   OH213847   4.286   5.733   3.121
 4635TIP3    H113848   4.375   5.764   3.137
 4635TIP3    H213849   4.240   5.745   3.204
 4636TIP3   OH213850   7.867   4.125   4.336
 4636TIP3    H113851   7.897   4.057   4.275
 4636TIP3    H213852   7.789   4.088   4.377
 4637TIP3   OH213853   7.311   0.960   1.269
 4637TIP3    H113854   7.405   0.961   1.250
 4637TIP3    H213855   7.278   1.042   1.232
 4638TIP3   OH213856   0.870   6.716   1.797
 4638TIP3    H113857   0.879   6.811   1.796
 4638TIP3    H213858   0.931   6.686   1.729
 4639TIP3   OH213859   3.544   6.399   5.242
 4639TIP3    H113860   3.471   6.347   5.274
 4639TIP3    H213861   3.571   6.357   5.160
 4640TIP3   OH213862   7.327   3.139   4.901
 4640TIP3    H113863   7.364   3.114   4.817
 4640TIP3    H213864   7.401   3.176   4.950
 4641TIP3   OH213865   0.681   2.548   4.732
 4641TIP3    H113866   0.612   2.597   4.775
 4641TIP3    H213867   0.640   2.466   4.705
 4642TIP3   OH213868   8.104   7.539   0.702
 4642TIP3    H113869   8.193   7.519   0.730
 4642TIP3    H213870   8.106   7.633   0.681
 4643TIP3   OH213871   7.909   1.998   5.689
 4643TIP3    H113872   7.924   2.078   5.740
 4643TIP3    H213873   7.913   1.927   5.754
 4644TIP3   OH213874   5.815   2.119   3.971
 4644TIP3    H113875   5.751   2.104   4.040
 4644TIP3    H213876   5.852   2.205   3.991
 4645TIP3   OH213877   7.127   0.767   1.382
 4645TIP3    H113878   7.179   0.838   1.344
 4645TIP3    H213879   7.176   0.688   1.360
 4646TIP3   OH213880   1.377   3.890   6.545
 4646TIP3    H113881   1.419   3.835   6.611
 4646TIP3    H213882   1.435   3.966   6.536
 4647TIP3   OH213883   4.911   1.652   0.183
 4647TIP3    H113884   4.954   1.661   0.098
 4647TIP3    H213885   4.838   1.592   0.168
 4648TIP3   OH213886   1.533   3.096   4.355
 4648TIP3    H113887   1.462   3.157   4.375
 4648TIP3    H213888   1.491   3.028   4.302
 4649TIP3   OH213889   6.193   4.492   2.020
 4649TIP3    H113890   6.142   4.559   2.066
 4649TIP3    H213891   6.144   4.476   1.939
 4650TIP3   OH213892   7.819   3.234   2.709
 4650TIP3    H113893   7.732   3.201   2.732
 4650TIP3    H213894   7.813   3.328   2.721
 4651TIP3   OH213895   6.643   4.403   6.534
 4651TIP3    H113896   6.728   4.423   6.573
 4651TIP3    H213897   6.664   4.360   6.451
 4652TIP3   OH213898   4.285   0.763   1.017
 4652TIP3    H113899   4.366   0.793   0.976
 4652TIP3    H213900   4.307   0.678   1.055
 4653TIP3   OH213901   8.242   7.427   1.982
 4653TIP3    H113902   8.255   7.332   1.978
 4653TIP3    H213903   8.248   7.455   1.890
 4654TIP3   OH213904   8.109   6.752   4.263
 4654TIP3    H113905   8.149   6.669   4.241
 4654TIP3    H213906   8.171   6.818   4.234
 4655TIP3   OH213907   5.585   4.363   6.586
 4655TIP3    H113908   5.608   4.284   6.537
 4655TIP3    H213909   5.564   4.428   6.519
 4656TIP3   OH213910   8.301   7.158   0.264
 4656TIP3    H113911   8.224   7.181   0.317
 4656TIP3    H213912   8.306   7.226   0.197
 4657TIP3   OH213913   7.622   3.859   3.907
 4657TIP3    H113914   7.678   3.789   3.940
 4657TIP3    H213915   7.675   3.901   3.838
 4658TIP3   OH213916   4.178   4.906   0.431
 4658TIP3    H113917   4.199   4.994   0.399
 4658TIP3    H213918   4.263   4.863   0.441
 4659TIP3   OH213919   0.881   2.767   5.393
 4659TIP3    H113920   0.933   2.687   5.394
 4659TIP3    H213921   0.815   2.753   5.325
 4660TIP3   OH213922   3.548   3.005   0.108
 4660TIP3    H113923   3.642   3.007   0.127
 4660TIP3    H213924   3.527   3.095   0.083
 4661TIP3   OH213925   0.331   2.912   4.394
 4661TIP3    H113926   0.248   2.960   4.396
 4661TIP3    H213927   0.348   2.898   4.301
 4662TIP3   OH213928   1.964   5.302   1.022
 4662TIP3    H113929   2.014   5.221   1.026
 4662TIP3    H213930   2.030   5.371   1.019
 4663TIP3   OH213931   6.145   5.584   2.480
 4663TIP3    H113932   6.076   5.573   2.415
 4663TIP3    H213933   6.162   5.495   2.511
 4664TIP3   OH213934   3.819   3.268   3.476
 4664TIP3    H113935   3.873   3.260   3.397
 4664TIP3    H213936   3.870   3.223   3.544
 4665TIP3   OH213937   2.930   5.583   1.227
 4665TIP3    H113938   2.856   5.545   1.179
 4665TIP3    H213939   3.006   5.565   1.172
 4666TIP3   OH213940   1.832   7.275   6.021
 4666TIP3    H113941   1.920   7.276   5.982
 4666TIP3    H213942   1.780   7.221   5.962
 4667TIP3   OH213943   1.302   1.058   3.060
 4667TIP3    H113944   1.348   1.130   3.103
 4667TIP3    H213945   1.226   1.042   3.116
 4668TIP3   OH213946   4.180   4.695   4.648
 4668TIP3    H113947   4.175   4.625   4.582
 4668TIP3    H213948   4.127   4.663   4.721
 4669TIP3   OH213949   1.539   5.475   2.603
 4669TIP3    H113950   1.582   5.414   2.664
 4669TIP3    H213951   1.446   5.472   2.628
 4670TIP3   OH213952   1.709   5.162   0.597
 4670TIP3    H113953   1.629   5.110   0.589
 4670TIP3    H213954   1.698   5.210   0.679
 4671TIP3   OH213955   3.435   3.273   5.849
 4671TIP3    H113956   3.404   3.350   5.803
 4671TIP3    H213957   3.514   3.302   5.895
 4672TIP3   OH213958   5.041   4.179   0.066
 4672TIP3    H113959   5.108   4.136   0.012
 4672TIP3    H213960   4.966   4.189   0.008
 4673TIP3   OH213961   7.985   1.835   5.320
 4673TIP3    H113962   8.001   1.929   5.317
 4673TIP3    H213963   7.906   1.825   5.373
 4674TIP3   OH213964   6.720   1.869   3.627
 4674TIP3    H113965   6.771   1.845   3.549
 4674TIP3    H213966   6.668   1.791   3.647
 4675TIP3   OH213967   6.103   1.482   3.564
 4675TIP3    H113968   6.096   1.398   3.519
 4675TIP3    H213969   6.059   1.468   3.648
 4676TIP3   OH213970   6.365   7.394   2.446
 4676TIP3    H113971   6.403   7.314   2.410
 4676TIP3    H213972   6.439   7.439   2.487
 4677TIP3   OH213973   2.280   2.415   6.008
 4677TIP3    H113974   2.320   2.332   6.035
 4677TIP3    H213975   2.311   2.478   6.073
 4678TIP3   OH213976   7.305   1.650   0.909
 4678TIP3    H113977   7.227   1.601   0.936
 4678TIP3    H213978   7.378   1.599   0.945
 4679TIP3   OH213979   7.010   2.640   0.301
 4679TIP3    H113980   7.090   2.687   0.323
 4679TIP3    H213981   6.958   2.641   0.382
 4680TIP3   OH213982   6.008   3.374   4.702
 4680TIP3    H113983   6.028   3.464   4.726
 4680TIP3    H213984   5.913   3.367   4.716
 4681TIP3   OH213985   5.324   2.283   5.626
 4681TIP3    H113986   5.244   2.230   5.637
 4681TIP3    H213987   5.370   2.273   5.710
 4682TIP3   OH213988   0.459   1.285   6.478
 4682TIP3    H113989   0.446   1.294   6.384
 4682TIP3    H213990   0.523   1.353   6.500
 4683TIP3   OH213991   4.373   5.708   1.111
 4683TIP3    H113992   4.388   5.739   1.200
 4683TIP3    H213993   4.282   5.677   1.112
 4684TIP3   OH213994   7.319   7.113   1.909
 4684TIP3    H113995   7.393   7.116   1.969
 4684TIP3    H213996   7.357   7.085   1.825
 4685TIP3   OH213997   3.875   0.370   4.195
 4685TIP3    H113998   3.856   0.406   4.282
 4685TIP3    H213999   3.896   0.278   4.211
 4686TIP3   OH214000   3.581   6.391   2.481
 4686TIP3    H114001   3.518   6.331   2.441
 4686TIP3    H214002   3.660   6.382   2.427
 4687TIP3   OH214003   5.739   3.686   4.725
 4687TIP3    H114004   5.741   3.608   4.669
 4687TIP3    H214005   5.700   3.657   4.807
 4688TIP3   OH214006   2.821   4.469   0.717
 4688TIP3    H114007   2.835   4.563   0.707
 4688TIP3    H214008   2.868   4.446   0.797
 4689TIP3   OH214009   2.278   1.797   1.421
 4689TIP3    H114010   2.324   1.754   1.350
 4689TIP3    H214011   2.187   1.768   1.412
 4690TIP3   OH214012   0.738   6.173   6.678
 4690TIP3    H114013   0.750   6.225   6.758
 4690TIP3    H214014   0.797   6.099   6.689
 4691TIP3   OH214015   3.646   1.678   2.221
 4691TIP3    H114016   3.714   1.651   2.283
 4691TIP3    H214017   3.632   1.771   2.239
 4692TIP3   OH214018   2.165   7.589   0.829
 4692TIP3    H114019   2.108   7.662   0.854
 4692TIP3    H214020   2.126   7.554   0.749
 4693TIP3   OH214021   3.113   0.769   6.209
 4693TIP3    H114022   3.125   0.813   6.293
 4693TIP3    H214023   3.199   0.773   6.167
 4694TIP3   OH214024   4.423   0.293   6.200
 4694TIP3    H114025   4.462   0.340   6.127
 4694TIP3    H214026   4.328   0.307   6.189
 4695TIP3   OH214027   4.009   6.288   5.894
 4695TIP3    H114028   3.974   6.209   5.854
 4695TIP3    H214029   3.936   6.350   5.892
 4696TIP3   OH214030   6.700   5.961   2.103
 4696TIP3    H114031   6.722   5.910   2.025
 4696TIP3    H214032   6.625   5.916   2.141
 4697TIP3   OH214033   8.087   3.559   0.801
 4697TIP3    H114034   8.160   3.601   0.755
 4697TIP3    H214035   8.130   3.496   0.859
 4698TIP3   OH214036   6.017   5.025   5.448
 4698TIP3    H114037   6.022   4.956   5.382
 4698TIP3    H214038   5.924   5.047   5.452
 4699TIP3   OH214039   3.244   7.131   0.681
 4699TIP3    H114040   3.231   7.049   0.729
 4699TIP3    H214041   3.293   7.106   0.603
 4700TIP3   OH214042   8.055   4.818   1.647
 4700TIP3    H114043   8.067   4.802   1.741
 4700TIP3    H214044   7.968   4.857   1.641
 4701TIP3   OH214045   2.621   7.305   5.689
 4701TIP3    H114046   2.608   7.328   5.597
 4701TIP3    H214047   2.645   7.387   5.731
 4702TIP3   OH214048   0.726   0.004   2.799
 4702TIP3    H114049   0.785   0.022   2.725
 4702TIP3    H214050   0.690   0.089   2.824
 4703TIP3   OH214051   5.651   5.746   2.895
 4703TIP3    H114052   5.581   5.795   2.938
 4703TIP3    H214053   5.607   5.671   2.855
 4704TIP3   OH214054   4.190   4.319   1.881
 4704TIP3    H114055   4.240   4.255   1.830
 4704TIP3    H214056   4.184   4.395   1.824
 4705TIP3   OH214057   5.769   4.199   2.968
 4705TIP3    H114058   5.707   4.203   2.895
 4705TIP3    H214059   5.838   4.141   2.938
 4706TIP3   OH214060   3.266   7.021   4.030
 4706TIP3    H114061   3.204   7.037   4.102
 4706TIP3    H214062   3.259   6.927   4.013
 4707TIP3   OH214063   4.921   2.517   5.296
 4707TIP3    H114064   4.841   2.566   5.316
 4707TIP3    H214065   4.907   2.431   5.336
 4708TIP3   OH214066   5.947   2.411   0.211
 4708TIP3    H114067   5.908   2.489   0.173
 4708TIP3    H214068   5.990   2.368   0.138
 4709TIP3   OH214069   5.559   3.965   5.719
 4709TIP3    H114070   5.631   4.028   5.719
 4709TIP3    H214071   5.574   3.911   5.796
 4710TIP3   OH214072   5.520   7.666   4.463
 4710TIP3    H114073   5.545   7.619   4.543
 4710TIP3    H214074   5.600   7.668   4.410
 4711TIP3   OH214075   5.187   1.170   1.389
 4711TIP3    H114076   5.149   1.250   1.427
 4711TIP3    H214077   5.140   1.099   1.432
 4712TIP3   OH214078   5.305   6.410   2.462
 4712TIP3    H114079   5.268   6.401   2.374
 4712TIP3    H214080   5.397   6.385   2.453
 4713TIP3   OH214081   5.324   0.389   1.560
 4713TIP3    H114082   5.402   0.441   1.575
 4713TIP3    H214083   5.322   0.373   1.466
 4714TIP3   OH214084   3.843   7.699   3.618
 4714TIP3    H114085   3.802   7.615   3.597
 4714TIP3    H214086   3.936   7.680   3.622
 4715TIP3   OH214087   5.428   0.560   5.248
 4715TIP3    H114088   5.372   0.500   5.297
 4715TIP3    H214089   5.414   0.645   5.291
 4716TIP3   OH214090   5.193   2.071   5.015
 4716TIP3    H114091   5.210   2.140   5.079
 4716TIP3    H214092   5.175   1.993   5.068
 4717TIP3   OH214093   6.171   6.595   1.067
 4717TIP3    H114094   6.166   6.683   1.028
 4717TIP3    H214095   6.122   6.539   1.007
 4718TIP3   OH214096   7.382   1.830   2.362
 4718TIP3    H114097   7.346   1.867   2.281
 4718TIP3    H214098   7.318   1.854   2.429
 4719TIP3   OH214099   3.807   6.641   1.461
 4719TIP3    H114100   3.789   6.680   1.547
 4719TIP3    H214101   3.838   6.715   1.408
 4720TIP3   OH214102   1.931   0.156   3.169
 4720TIP3    H114103   1.972   0.242   3.174
 4720TIP3    H214104   1.957   0.112   3.250
 4721TIP3   OH214105   7.443   2.932   6.352
 4721TIP3    H114106   7.408   2.848   6.382
 4721TIP3    H214107   7.413   2.939   6.261
 4722TIP3   OH214108   3.862   6.019   3.508
 4722TIP3    H114109   3.808   6.026   3.587
 4722TIP3    H214110   3.869   6.109   3.475
 4723TIP3   OH214111   5.021   5.391   5.827
 4723TIP3    H114112   5.038   5.456   5.896
 4723TIP3    H214113   5.099   5.394   5.772
 4724TIP3   OH214114   4.853   6.232   4.135
 4724TIP3    H114115   4.913   6.158   4.129
 4724TIP3    H214116   4.767   6.195   4.117
 4725TIP3   OH214117   1.150   4.700   3.315
 4725TIP3    H114118   1.189   4.612   3.313
 4725TIP3    H214119   1.057   4.685   3.330
 4726TIP3   OH214120   1.543   2.813   6.359
 4726TIP3    H114121   1.615   2.750   6.350
 4726TIP3    H214122   1.508   2.796   6.447
 4727TIP3   OH214123   1.268   1.610   2.921
 4727TIP3    H114124   1.342   1.604   2.982
 4727TIP3    H214125   1.309   1.605   2.834
 4728TIP3   OH214126   3.054   6.121   1.289
 4728TIP3    H114127   3.081   6.104   1.379
 4728TIP3    H214128   3.135   6.115   1.238
 4729TIP3   OH214129   1.360   1.675   6.746
 4729TIP3    H114130   1.432   1.713   6.796
 4729TIP3    H214131   1.387   1.686   6.655
 4730TIP3   OH214132   1.521   6.738   1.621
 4730TIP3    H114133   1.563   6.823   1.605
 4730TIP3    H214134   1.573   6.698   1.690
 4731TIP3   OH214135   6.655   0.117   2.182
 4731TIP3    H114136   6.647   0.145   2.273
 4731TIP3    H214137   6.709   0.038   2.186
 4732TIP3   OH214138   2.097   0.276   4.655
 4732TIP3    H114139   2.011   0.297   4.619
 4732TIP3    H214140   2.140   0.224   4.586
 4733TIP3   OH214141   6.506   0.997   0.146
 4733TIP3    H114142   6.556   1.064   0.101
 4733TIP3    H214143   6.545   0.991   0.233
 4734TIP3   OH214144   3.318   2.400   0.618
 4734TIP3    H114145   3.305   2.321   0.565
 4734TIP3    H214146   3.395   2.441   0.580
 4735TIP3   OH214147   1.227   4.512   0.419
 4735TIP3    H114148   1.148   4.550   0.379
 4735TIP3    H214149   1.201   4.424   0.444
 4736TIP3   OH214150   0.443   7.314   4.005
 4736TIP3    H114151   0.429   7.323   4.099
 4736TIP3    H214152   0.362   7.345   3.966
 4737TIP3   OH214153   7.789   1.316   0.324
 4737TIP3    H114154   7.735   1.315   0.403
 4737TIP3    H214155   7.784   1.227   0.289
 4738TIP3   OH214156   1.295   1.832   1.285
 4738TIP3    H114157   1.297   1.756   1.344
 4738TIP3    H214158   1.375   1.824   1.233
 4739TIP3   OH214159   2.812   2.980   4.168
 4739TIP3    H114160   2.789   2.891   4.140
 4739TIP3    H214161   2.762   2.993   4.249
 4740TIP3   OH214162   6.938   4.774   6.517
 4740TIP3    H114163   6.917   4.867   6.517
 4740TIP3    H214164   6.864   4.732   6.560
 4741TIP3   OH214165   6.967   7.242   3.426
 4741TIP3    H114166   6.984   7.285   3.509
 4741TIP3    H214167   7.014   7.159   3.432
 4742TIP3   OH214168   3.102   2.576   0.044
 4742TIP3    H114169   3.112   2.605  -0.047
 4742TIP3    H214170   3.152   2.495   0.049
 4743TIP3   OH214171   6.709   5.032   0.076
 4743TIP3    H114172   6.681   5.123   0.068
 4743TIP3    H214173   6.739   5.024   0.167
 4744TIP3   OH214174   3.427   5.377   0.445
 4744TIP3    H114175   3.382   5.434   0.507
 4744TIP3    H214176   3.418   5.423   0.361
 4745TIP3   OH214177   4.120   6.711   6.600
 4745TIP3    H114178   4.096   6.620   6.583
 4745TIP3    H214179   4.069   6.762   6.538
 4746TIP3   OH214180   7.402   7.511   0.482
 4746TIP3    H114181   7.451   7.506   0.564
 4746TIP3    H214182   7.350   7.431   0.480
 4747TIP3   OH214183   3.694   2.275   1.750
 4747TIP3    H114184   3.728   2.335   1.817
 4747TIP3    H214185   3.772   2.234   1.713
 4748TIP3   OH214186   4.535   4.088   1.754
 4748TIP3    H114187   4.609   4.149   1.753
 4748TIP3    H214188   4.572   4.005   1.785
 4749TIP3   OH214189   8.047   7.580   6.395
 4749TIP3    H114190   8.099   7.660   6.387
 4749TIP3    H214191   8.110   7.512   6.419
 4750TIP3   OH214192   7.343   5.769   3.756
 4750TIP3    H114193   7.330   5.779   3.850
 4750TIP3    H214194   7.377   5.853   3.728
 4751TIP3   OH214195   5.397   7.328   0.595
 4751TIP3    H114196   5.403   7.418   0.627
 4751TIP3    H214197   5.475   7.284   0.629
 4752TIP3   OH214198   1.202   5.836   2.606
 4752TIP3    H114199   1.265   5.806   2.672
 4752TIP3    H214200   1.127   5.867   2.655
 4753TIP3   OH214201   3.624   2.190   3.257
 4753TIP3    H114202   3.567   2.117   3.281
 4753TIP3    H214203   3.601   2.211   3.166
 4754TIP3   OH214204   5.640   3.332   2.825
 4754TIP3    H114205   5.652   3.291   2.739
 4754TIP3    H214206   5.699   3.408   2.823
 4755TIP3   OH214207   5.195   7.785   1.497
 4755TIP3    H114208   5.230   7.721   1.559
 4755TIP3    H214209   5.153   7.733   1.429
 4756TIP3   OH214210   8.195   5.781   3.375
 4756TIP3    H114211   8.184   5.727   3.297
 4756TIP3    H214212   8.205   5.718   3.447
 4757TIP3   OH214213   3.470   3.492   3.726
 4757TIP3    H114214   3.391   3.493   3.672
 4757TIP3    H214215   3.542   3.491   3.662
 4758TIP3   OH214216   2.629   2.276   6.480
 4758TIP3    H114217   2.722   2.285   6.503
 4758TIP3    H214218   2.582   2.315   6.553
 4759TIP3   OH214219   1.604   2.357   3.981
 4759TIP3    H114220   1.641   2.390   3.899
 4759TIP3    H214221   1.667   2.294   4.014
 4760TIP3   OH214222   0.336   6.086   3.367
 4760TIP3    H114223   0.299   6.046   3.445
 4760TIP3    H214224   0.352   6.177   3.391
 4761TIP3   OH214225   6.895   6.822   5.023
 4761TIP3    H114226   6.970   6.763   5.025
 4761TIP3    H214227   6.932   6.908   5.001
 4762TIP3   OH214228   7.803   5.191   5.232
 4762TIP3    H114229   7.861   5.114   5.229
 4762TIP3    H214230   7.733   5.170   5.171
 4763TIP3   OH214231   6.652   6.421   2.189
 4763TIP3    H114232   6.608   6.347   2.229
 4763TIP3    H214233   6.720   6.446   2.251
 4764TIP3   OH214234   2.689   7.299   1.315
 4764TIP3    H114235   2.689   7.246   1.395
 4764TIP3    H214236   2.597   7.324   1.304
 4765TIP3   OH214237   7.718   2.798   5.830
 4765TIP3    H114238   7.640   2.841   5.795
 4765TIP3    H214239   7.726   2.833   5.919
 4766TIP3   OH214240   3.281   2.276   4.027
 4766TIP3    H114241   3.260   2.195   3.981
 4766TIP3    H214242   3.236   2.269   4.111
 4767TIP3   OH214243   4.854   3.395   5.676
 4767TIP3    H114244   4.919   3.347   5.624
 4767TIP3    H214245   4.906   3.456   5.728
 4768TIP3   OH214246   4.920   5.430   2.887
 4768TIP3    H114247   4.893   5.384   2.966
 4768TIP3    H214248   4.922   5.522   2.911
 4769TIP3   OH214249   1.307   5.899   2.172
 4769TIP3    H114250   1.317   5.994   2.181
 4769TIP3    H214251   1.229   5.879   2.223
 4770TIP3   OH214252   2.015   1.867   5.597
 4770TIP3    H114253   2.028   1.820   5.679
 4770TIP3    H214254   2.095   1.919   5.586
 4771TIP3   OH214255   5.847   3.120   5.060
 4771TIP3    H114256   5.893   3.146   5.140
 4771TIP3    H214257   5.778   3.061   5.090
 4772TIP3   OH214258   0.506   0.361   5.735
 4772TIP3    H114259   0.552   0.284   5.703
 4772TIP3    H214260   0.458   0.330   5.812
 4773TIP3   OH214261   2.513   4.381   1.199
 4773TIP3    H114262   2.572   4.446   1.160
 4773TIP3    H214263   2.433   4.431   1.218
 4774TIP3   OH214264   3.732   4.062   3.722
 4774TIP3    H114265   3.748   4.081   3.815
 4774TIP3    H214266   3.812   4.018   3.693
 4775TIP3   OH214267   2.150   3.752   1.968
 4775TIP3    H114268   2.193   3.756   2.053
 4775TIP3    H214269   2.219   3.725   1.907
 4776TIP3   OH214270   2.682   1.774   4.402
 4776TIP3    H114271   2.739   1.847   4.376
 4776TIP3    H214272   2.595   1.813   4.410
 4777TIP3   OH214273   7.468   0.045   0.189
 4777TIP3    H114274   7.517   0.095   0.124
 4777TIP3    H214275   7.502  -0.044   0.182
 4778TIP3   OH214276   2.339   7.237   1.439
 4778TIP3    H114277   2.305   7.299   1.503
 4778TIP3    H214278   2.350   7.288   1.359
 4779TIP3   OH214279   6.133   1.767   4.223
 4779TIP3    H114280   6.167   1.697   4.279
 4779TIP3    H214281   6.086   1.720   4.153
 4780TIP3   OH214282   7.144   3.658   4.921
 4780TIP3    H114283   7.197   3.620   4.991
 4780TIP3    H214284   7.054   3.653   4.954
 4781TIP3   OH214285   4.145   6.890   4.295
 4781TIP3    H114286   4.095   6.839   4.231
 4781TIP3    H214287   4.096   6.880   4.376
 4782TIP3   OH214288   5.997   7.015   2.861
 4782TIP3    H114289   5.995   7.034   2.767
 4782TIP3    H214290   6.054   7.083   2.898
 4783TIP3   OH214291   7.591   1.237   2.759
 4783TIP3    H114292   7.599   1.305   2.692
 4783TIP3    H214293   7.539   1.168   2.716
 4784TIP3   OH214294   3.683   7.336   4.166
 4784TIP3    H114295   3.591   7.310   4.171
 4784TIP3    H214296   3.730   7.256   4.142
 4785TIP3   OH214297   0.424   2.814   1.756
 4785TIP3    H114298   0.486   2.862   1.811
 4785TIP3    H214299   0.352   2.791   1.814
 4786TIP3   OH214300   7.743   7.091   1.376
 4786TIP3    H114301   7.715   7.173   1.336
 4786TIP3    H214302   7.801   7.118   1.447
 4787TIP3   OH214303   0.840   2.042   5.949
 4787TIP3    H114304   0.875   2.112   6.003
 4787TIP3    H214305   0.812   2.085   5.868
 4788TIP3   OH214306   0.145   7.535   0.077
 4788TIP3    H114307   0.143   7.534  -0.019
 4788TIP3    H214308   0.238   7.547   0.098
 4789TIP3   OH214309   4.185   6.892   3.490
 4789TIP3    H114310   4.225   6.867   3.574
 4789TIP3    H214311   4.160   6.984   3.503
 4790TIP3   OH214312   5.947   2.062   0.323
 4790TIP3    H114313   5.952   2.053   0.418
 4790TIP3    H214314   6.018   2.123   0.302
 4791TIP3   OH214315   4.153   5.744   4.186
 4791TIP3    H114316   4.153   5.704   4.099
 4791TIP3    H214317   4.105   5.826   4.174
 4792TIP3   OH214318   7.216   0.920   6.325
 4792TIP3    H114319   7.265   0.886   6.250
 4792TIP3    H214320   7.189   0.842   6.374
 4793TIP3   OH214321   0.202   2.521   4.566
 4793TIP3    H114322   0.278   2.555   4.518
 4793TIP3    H214323   0.166   2.454   4.508
 4794TIP3   OH214324   5.736   3.262   3.545
 4794TIP3    H114325   5.714   3.320   3.472
 4794TIP3    H214326   5.722   3.315   3.624
 4795TIP3   OH214327   3.424   2.161   0.261
 4795TIP3    H114328   3.401   2.138   0.351
 4795TIP3    H214329   3.506   2.115   0.244
 4796TIP3   OH214330   7.886   4.693   5.418
 4796TIP3    H114331   7.791   4.702   5.408
 4796TIP3    H214332   7.917   4.675   5.329
 4797TIP3   OH214333   0.128   3.188   3.305
 4797TIP3    H114334   0.060   3.214   3.242
 4797TIP3    H214335   0.154   3.101   3.276
 4798TIP3   OH214336   4.649   6.955   1.609
 4798TIP3    H114337   4.576   7.011   1.584
 4798TIP3    H214338   4.608   6.872   1.636
 4799TIP3   OH214339   2.557   5.069   0.147
 4799TIP3    H114340   2.576   5.148   0.197
 4799TIP3    H214341   2.533   5.004   0.213
 4800TIP3   OH214342   0.886   4.396   6.015
 4800TIP3    H114343   0.811   4.381   5.957
 4800TIP3    H214344   0.867   4.478   6.059
 4801TIP3   OH214345   3.671   5.468   2.459
 4801TIP3    H114346   3.653   5.382   2.421
 4801TIP3    H214347   3.662   5.454   2.554
 4802TIP3   OH214348   7.479   6.769   0.731
 4802TIP3    H114349   7.483   6.710   0.806
 4802TIP3    H214350   7.413   6.731   0.674
 4803TIP3   OH214351   1.688   3.347   0.763
 4803TIP3    H114352   1.720   3.422   0.714
 4803TIP3    H214353   1.715   3.364   0.854
 4804TIP3   OH214354   7.663   6.755   3.874
 4804TIP3    H114355   7.735   6.781   3.816
 4804TIP3    H214356   7.639   6.667   3.845
 4805TIP3   OH214357   8.202   2.487   0.345
 4805TIP3    H114358   8.141   2.546   0.301
 4805TIP3    H214359   8.189   2.505   0.438
 4806TIP3   OH214360   1.928   3.947   5.269
 4806TIP3    H114361   1.869   3.933   5.196
 4806TIP3    H214362   1.873   3.940   5.347
 4807TIP3   OH214363   3.356   5.247   4.518
 4807TIP3    H114364   3.261   5.248   4.516
 4807TIP3    H214365   3.379   5.315   4.582
 4808TIP3   OH214366   6.570   1.641   3.391
 4808TIP3    H114367   6.547   1.733   3.379
 4808TIP3    H214368   6.665   1.640   3.395
 4809TIP3   OH214369   0.238   0.855   0.925
 4809TIP3    H114370   0.208   0.766   0.908
 4809TIP3    H214371   0.315   0.865   0.870
 4810TIP3   OH214372   1.215   4.152   5.045
 4810TIP3    H114373   1.126   4.182   5.026
 4810TIP3    H214374   1.244   4.208   5.117
 4811TIP3   OH214375   2.728   4.765   3.621
 4811TIP3    H114376   2.634   4.775   3.639
 4811TIP3    H214377   2.738   4.673   3.599
 4812TIP3   OH214378   1.697   0.257   2.989
 4812TIP3    H114379   1.752   0.222   3.059
 4812TIP3    H214380   1.661   0.179   2.946
 4813TIP3   OH214381   2.976   5.180   3.623
 4813TIP3    H114382   2.928   5.099   3.639
 4813TIP3    H214383   3.028   5.193   3.703
 4814TIP3   OH214384   3.471   0.391   2.941
 4814TIP3    H114385   3.509   0.455   2.881
 4814TIP3    H214386   3.537   0.381   3.010
 4815TIP3   OH214387   2.556   3.440   0.308
 4815TIP3    H114388   2.575   3.494   0.231
 4815TIP3    H214389   2.483   3.385   0.281
 4816TIP3   OH214390   1.618   7.194   3.967
 4816TIP3    H114391   1.532   7.198   3.926
 4816TIP3    H214392   1.644   7.102   3.960
 4817TIP3   OH214393   5.721   5.632   2.496
 4817TIP3    H114394   5.712   5.540   2.470
 4817TIP3    H214395   5.635   5.655   2.530
 4818TIP3   OH214396   5.218   5.560   3.920
 4818TIP3    H114397   5.201   5.619   3.847
 4818TIP3    H214398   5.154   5.489   3.909
 4819TIP3   OH214399   6.937   3.796   5.357
 4819TIP3    H114400   6.933   3.863   5.425
 4819TIP3    H214401   7.031   3.787   5.338
 4820TIP3   OH214402   1.898   5.576   5.274
 4820TIP3    H114403   1.980   5.616   5.246
 4820TIP3    H214404   1.921   5.486   5.294
 4821TIP3   OH214405   2.170   4.888   5.526
 4821TIP3    H114406   2.136   4.838   5.452
 4821TIP3    H214407   2.227   4.954   5.487
 4822TIP3   OH214408   0.566   1.489   0.666
 4822TIP3    H114409   0.601   1.422   0.607
 4822TIP3    H214410   0.624   1.486   0.743
 4823TIP3   OH214411   6.849   7.105   2.645
 4823TIP3    H114412   6.856   7.197   2.622
 4823TIP3    H214413   6.782   7.102   2.714
 4824TIP3   OH214414   0.849   7.123   5.625
 4824TIP3    H114415   0.871   7.159   5.540
 4824TIP3    H214416   0.827   7.199   5.679
 4825TIP3   OH214417   7.281   5.026   0.592
 4825TIP3    H114418   7.260   5.072   0.673
 4825TIP3    H214419   7.325   4.946   0.621
 4826TIP3   OH214420   7.510   1.001   6.554
 4826TIP3    H114421   7.474   0.913   6.571
 4826TIP3    H214422   7.463   1.031   6.477
 4827TIP3   OH214423   5.326   0.230   3.497
 4827TIP3    H114424   5.420   0.213   3.491
 4827TIP3    H214425   5.320   0.319   3.530
 4828TIP3   OH214426   2.461   1.499   5.361
 4828TIP3    H114427   2.409   1.440   5.306
 4828TIP3    H214428   2.411   1.581   5.363
 4829TIP3   OH214429   4.209   6.602   2.610
 4829TIP3    H114430   4.114   6.614   2.613
 4829TIP3    H214431   4.227   6.534   2.674
 4830TIP3   OH214432   0.597   1.648   3.311
 4830TIP3    H114433   0.560   1.732   3.284
 4830TIP3    H214434   0.677   1.639   3.258
 4831TIP3   OH214435   1.872   0.730   5.704
 4831TIP3    H114436   1.831   0.713   5.789
 4831TIP3    H214437   1.800   0.721   5.641
 4832TIP3   OH214438   6.887   5.035   3.716
 4832TIP3    H114439   6.980   5.055   3.706
 4832TIP3    H214440   6.849   5.059   3.632
 4833TIP3   OH214441   6.201   2.073   1.041
 4833TIP3    H114442   6.128   2.046   1.097
 4833TIP3    H214443   6.160   2.115   0.966
 4834TIP3   OH214444   3.482   1.487   5.055
 4834TIP3    H114445   3.508   1.577   5.077
 4834TIP3    H214446   3.423   1.461   5.126
 4835TIP3   OH214447   3.970   0.086   4.241
 4835TIP3    H114448   3.919   0.042   4.309
 4835TIP3    H214449   4.061   0.069   4.264
 4836TIP3   OH214450   5.654   4.854   5.649
 4836TIP3    H114451   5.677   4.900   5.568
 4836TIP3    H214452   5.634   4.924   5.711
 4837TIP3   OH214453   2.634   5.784   3.646
 4837TIP3    H114454   2.565   5.807   3.584
 4837TIP3    H214455   2.679   5.710   3.606
 4838TIP3   OH214456   1.549   6.208   1.585
 4838TIP3    H114457   1.604   6.218   1.663
 4838TIP3    H214458   1.464   6.179   1.618
 4839TIP3   OH214459   5.454   7.400   0.255
 4839TIP3    H114460   5.540   7.440   0.243
 4839TIP3    H214461   5.471   7.319   0.303
 4840TIP3   OH214462   4.974   6.703   2.115
 4840TIP3    H114463   4.986   6.628   2.173
 4840TIP3    H214464   5.055   6.753   2.123
 4841TIP3   OH214465   0.170   3.204   5.042
 4841TIP3    H114466   0.112   3.173   5.111
 4841TIP3    H214467   0.244   3.144   5.044
 4842TIP3   OH214468   5.614   6.477   6.120
 4842TIP3    H114469   5.669   6.553   6.101
 4842TIP3    H214470   5.593   6.485   6.213
 4843TIP3   OH214471   3.549   6.535   1.705
 4843TIP3    H114472   3.469   6.521   1.756
 4843TIP3    H214473   3.549   6.463   1.642
 4844TIP3   OH214474   5.341   2.134   3.858
 4844TIP3    H114475   5.354   2.215   3.809
 4844TIP3    H214476   5.281   2.083   3.804
 4845TIP3   OH214477   2.225   5.320   3.309
 4845TIP3    H114478   2.247   5.394   3.253
 4845TIP3    H214479   2.131   5.330   3.324
 4846TIP3   OH214480   1.979   3.232   3.321
 4846TIP3    H114481   1.915   3.277   3.377
 4846TIP3    H214482   2.044   3.299   3.300
 4847TIP3   OH214483   6.175   1.853   1.397
 4847TIP3    H114484   6.216   1.767   1.410
 4847TIP3    H214485   6.096   1.850   1.452
 4848TIP3   OH214486   1.808   6.095   2.436
 4848TIP3    H114487   1.743   6.099   2.366
 4848TIP3    H214488   1.844   6.007   2.430
 4849TIP3   OH214489   1.337   4.021   2.734
 4849TIP3    H114490   1.365   4.090   2.674
 4849TIP3    H214491   1.369   3.940   2.693
 4850TIP3   OH214492   7.169   7.614   4.926
 4850TIP3    H114493   7.164   7.645   4.835
 4850TIP3    H214494   7.255   7.643   4.956
 4851TIP3   OH214495   5.439   3.838   0.548
 4851TIP3    H114496   5.375   3.800   0.608
 4851TIP3    H214497   5.460   3.923   0.586
 4852TIP3   OH214498   4.259   2.314   3.362
 4852TIP3    H114499   4.346   2.327   3.399
 4852TIP3    H214500   4.272   2.250   3.292
 4853TIP3   OH214501   5.724   6.313   3.845
 4853TIP3    H114502   5.687   6.395   3.879
 4853TIP3    H214503   5.748   6.334   3.755
 4854TIP3   OH214504   7.645   4.255   5.268
 4854TIP3    H114505   7.723   4.308   5.287
 4854TIP3    H214506   7.642   4.192   5.340
 4855TIP3   OH214507   5.988   7.576   0.685
 4855TIP3    H114508   5.976   7.638   0.756
 4855TIP3    H214509   6.079   7.589   0.656
 4856TIP3   OH214510   0.848   3.068   5.112
 4856TIP3    H114511   0.883   3.066   5.201
 4856TIP3    H214512   0.753   3.068   5.124
 4857TIP3   OH214513   5.796   4.200   4.508
 4857TIP3    H114514   5.726   4.205   4.443
 4857TIP3    H214515   5.786   4.113   4.547
 4858TIP3   OH214516   7.493   1.379   1.741
 4858TIP3    H114517   7.582   1.374   1.705
 4858TIP3    H214518   7.456   1.292   1.725
 4859TIP3   OH214519   3.238   4.698   0.220
 4859TIP3    H114520   3.283   4.747   0.290
 4859TIP3    H214521   3.169   4.650   0.265
 4860TIP3   OH214522   1.796   4.297   4.888
 4860TIP3    H114523   1.879   4.255   4.911
 4860TIP3    H214524   1.821   4.366   4.825
 4861TIP3   OH214525   6.988   4.718   1.037
 4861TIP3    H114526   6.984   4.641   0.980
 4861TIP3    H214527   6.996   4.683   1.125
 4862TIP3   OH214528   1.973   5.217   4.515
 4862TIP3    H114529   1.924   5.298   4.500
 4862TIP3    H214530   2.058   5.245   4.547
 4863TIP3   OH214531   6.570   6.653   6.573
 4863TIP3    H114532   6.605   6.609   6.496
 4863TIP3    H214533   6.603   6.742   6.567
 4864TIP3   OH214534   6.838   1.316   4.670
 4864TIP3    H114535   6.812   1.248   4.732
 4864TIP3    H214536   6.843   1.272   4.586
 4865TIP3   OH214537   3.642   5.243   0.146
 4865TIP3    H114538   3.724   5.226   0.193
 4865TIP3    H214539   3.669   5.298   0.072
 4866TIP3   OH214540   1.585   0.539   5.134
 4866TIP3    H114541   1.675   0.510   5.119
 4866TIP3    H214542   1.555   0.487   5.209
 4867TIP3   OH214543   3.180   4.967   5.624
 4867TIP3    H114544   3.234   4.899   5.583
 4867TIP3    H214545   3.101   4.972   5.570
 4868TIP3   OH214546   5.198   1.334   2.009
 4868TIP3    H114547   5.262   1.367   1.946
 4868TIP3    H214548   5.160   1.257   1.967
 4869TIP3   OH214549   0.561   0.405   3.761
 4869TIP3    H114550   0.594   0.439   3.678
 4869TIP3    H214551   0.606   0.457   3.827
 4870TIP3   OH214552   1.485   2.183   3.679
 4870TIP3    H114553   1.477   2.091   3.657
 4870TIP3    H214554   1.433   2.194   3.758
 4871TIP3   OH214555   4.637   4.062   4.110
 4871TIP3    H114556   4.612   4.098   4.195
 4871TIP3    H214557   4.731   4.044   4.119
 4872TIP3   OH214558   5.147   4.380   6.506
 4872TIP3    H114559   5.094   4.453   6.474
 4872TIP3    H214560   5.094   4.302   6.486
 4873TIP3   OH214561   5.098   6.032   6.576
 4873TIP3    H114562   5.106   6.056   6.668
 4873TIP3    H214563   5.144   6.102   6.528
 4874TIP3   OH214564   8.146   1.641   5.263
 4874TIP3    H114565   8.092   1.599   5.196
 4874TIP3    H214566   8.114   1.731   5.266
 4875TIP3   OH214567   7.820   3.921   6.442
 4875TIP3    H114568   7.759   3.920   6.368
 4875TIP3    H214569   7.904   3.894   6.405
 4876TIP3   OH214570   1.080   0.502   6.171
 4876TIP3    H114571   0.988   0.484   6.150
 4876TIP3    H214572   1.112   0.419   6.207
 4877TIP3   OH214573   0.011   0.606   6.010
 4877TIP3    H114574  -0.035   0.523   6.018
 4877TIP3    H214575   0.104   0.582   6.006
 4878TIP3   OH214576   5.732   6.284   3.472
 4878TIP3    H114577   5.778   6.217   3.423
 4878TIP3    H214578   5.799   6.348   3.494
 4879TIP3   OH214579   6.628   5.403   3.075
 4879TIP3    H114580   6.637   5.441   3.162
 4879TIP3    H214581   6.716   5.375   3.050
 4880TIP3   OH214582   6.397   0.949   5.046
 4880TIP3    H114583   6.402   1.039   5.014
 4880TIP3    H214584   6.373   0.897   4.970
 4881TIP3   OH214585   3.877   2.265   4.881
 4881TIP3    H114586   3.859   2.327   4.811
 4881TIP3    H214587   3.968   2.238   4.865
 4882TIP3   OH214588   7.269   3.072   1.460
 4882TIP3    H114589   7.352   3.048   1.419
 4882TIP3    H214590   7.206   3.009   1.426
 4883TIP3   OH214591   5.000   1.924   6.165
 4883TIP3    H114592   5.053   2.003   6.182
 4883TIP3    H214593   5.059   1.852   6.185
 4884TIP3   OH214594   6.132   4.484   0.631
 4884TIP3    H114595   6.145   4.476   0.726
 4884TIP3    H214596   6.061   4.547   0.623
 4885TIP3   OH214597   3.128   3.051   4.841
 4885TIP3    H114598   3.119   3.018   4.752
 4885TIP3    H214599   3.210   3.100   4.840
 4886TIP3   OH214600   0.085   4.304   2.320
 4886TIP3    H114601   0.146   4.377   2.322
 4886TIP3    H214602   0.135   4.232   2.283
 4887TIP3   OH214603   3.111   6.677   3.131
 4887TIP3    H114604   3.099   6.691   3.037
 4887TIP3    H214605   3.051   6.739   3.172
 4888TIP3   OH214606   3.636   0.418   2.073
 4888TIP3    H114607   3.679   0.345   2.029
 4888TIP3    H214608   3.645   0.399   2.167
 4889TIP3   OH214609   1.442   5.219   4.667
 4889TIP3    H114610   1.454   5.204   4.761
 4889TIP3    H214611   1.481   5.143   4.625
 4890TIP3   OH214612   5.390   4.692   5.297
 4890TIP3    H114613   5.446   4.746   5.241
 4890TIP3    H214614   5.301   4.715   5.271
 4891TIP3   OH214615   6.790   4.560   1.698
 4891TIP3    H114616   6.809   4.468   1.715
 4891TIP3    H214617   6.720   4.582   1.760
 4892TIP3   OH214618   5.612   3.534   2.633
 4892TIP3    H114619   5.532   3.484   2.649
 4892TIP3    H214620   5.625   3.529   2.538
 4893TIP3   OH214621   5.497   6.879   4.939
 4893TIP3    H114622   5.503   6.826   5.019
 4893TIP3    H214623   5.403   6.885   4.921
 4894TIP3   OH214624   0.756   0.037   0.883
 4894TIP3    H114625   0.833   0.020   0.829
 4894TIP3    H214626   0.717  -0.050   0.897
 4895TIP3   OH214627   0.366   5.750   5.100
 4895TIP3    H114628   0.290   5.729   5.154
 4895TIP3    H214629   0.347   5.711   5.015
 4896TIP3   OH214630   3.141   7.562   1.973
 4896TIP3    H114631   3.235   7.572   1.983
 4896TIP3    H214632   3.113   7.513   2.051
 4897TIP3   OH214633   2.679   2.810   5.939
 4897TIP3    H114634   2.665   2.879   6.003
 4897TIP3    H214635   2.593   2.767   5.931
 4898TIP3   OH214636   6.756   1.414   3.807
 4898TIP3    H114637   6.788   1.470   3.878
 4898TIP3    H214638   6.714   1.341   3.851
 4899TIP3   OH214639   8.009   6.271   0.139
 4899TIP3    H114640   8.036   6.362   0.130
 4899TIP3    H214641   7.927   6.275   0.188
 4900TIP3   OH214642   0.519   6.572   1.209
 4900TIP3    H114643   0.585   6.614   1.153
 4900TIP3    H214644   0.570   6.520   1.271
 4901TIP3   OH214645   7.264   4.340   5.397
 4901TIP3    H114646   7.273   4.246   5.384
 4901TIP3    H214647   7.217   4.349   5.480
 4902TIP3   OH214648   4.975   4.516   2.767
 4902TIP3    H114649   5.048   4.465   2.803
 4902TIP3    H214650   4.898   4.482   2.811
 4903TIP3   OH214651   8.055   6.978   1.235
 4903TIP3    H114652   8.047   7.064   1.194
 4903TIP3    H214653   8.094   6.995   1.320
 4904TIP3   OH214654   7.437   6.848   5.956
 4904TIP3    H114655   7.431   6.806   6.041
 4904TIP3    H214656   7.531   6.847   5.936
 4905TIP3   OH214657   6.629   6.832   2.670
 4905TIP3    H114658   6.561   6.766   2.656
 4905TIP3    H214659   6.586   6.916   2.652
 4906TIP3   OH214660   5.786   0.127   4.647
 4906TIP3    H114661   5.863   0.079   4.615
 4906TIP3    H214662   5.754   0.075   4.721
 4907TIP3   OH214663   1.324   1.047   1.204
 4907TIP3    H114664   1.292   1.049   1.294
 4907TIP3    H214665   1.313   1.137   1.172
 4908TIP3   OH214666   8.028   6.087   5.330
 4908TIP3    H114667   7.944   6.108   5.288
 4908TIP3    H214668   8.013   6.003   5.373
 4909TIP3   OH214669   4.815   5.674   0.022
 4909TIP3    H114670   4.849   5.763   0.013
 4909TIP3    H214671   4.731   5.676  -0.024
 4910TIP3   OH214672   5.740   4.020   3.912
 4910TIP3    H114673   5.706   4.082   3.975
 4910TIP3    H214674   5.684   3.943   3.921
 4911TIP3   OH214675   2.336   6.502   2.998
 4911TIP3    H114676   2.328   6.492   3.092
 4911TIP3    H214677   2.344   6.412   2.965
 4912TIP3   OH214678   2.259   5.550   1.413
 4912TIP3    H114679   2.206   5.593   1.345
 4912TIP3    H214680   2.300   5.623   1.460
 4913TIP3   OH214681   5.191   3.608   0.251
 4913TIP3    H114682   5.117   3.667   0.261
 4913TIP3    H214683   5.268   3.665   0.254
 4914TIP3   OH214684   2.137   7.727   0.010
 4914TIP3    H114685   2.127   7.674   0.089
 4914TIP3    H214686   2.068   7.793   0.017
 4915TIP3   OH214687   6.722   0.332   2.969
 4915TIP3    H114688   6.631   0.305   2.982
 4915TIP3    H214689   6.719   0.428   2.975
 4916TIP3   OH214690   8.270   4.383   3.032
 4916TIP3    H114691   8.209   4.333   3.087
 4916TIP3    H214692   8.349   4.390   3.086
 4917TIP3   OH214693   4.300   4.234   0.491
 4917TIP3    H114694   4.339   4.147   0.484
 4917TIP3    H214695   4.367   4.293   0.456
 4918TIP3   OH214696   1.034   5.064   3.882
 4918TIP3    H114697   1.069   5.094   3.965
 4918TIP3    H214698   1.011   5.144   3.834
 4919TIP3   OH214699   4.841   2.362   4.313
 4919TIP3    H114700   4.749   2.381   4.329
 4919TIP3    H214701   4.861   2.410   4.232
 4920TIP3   OH214702   3.166   1.113   6.027
 4920TIP3    H114703   3.099   1.153   5.972
 4920TIP3    H214704   3.174   1.172   6.102
 4921TIP3   OH214705   3.432   4.175   4.805
 4921TIP3    H114706   3.343   4.184   4.838
 4921TIP3    H214707   3.488   4.182   4.882
 4922TIP3   OH214708   0.736   7.408   0.249
 4922TIP3    H114709   0.763   7.324   0.286
 4922TIP3    H214710   0.663   7.437   0.304
 4923TIP3   OH214711   1.720   5.943   1.601
 4923TIP3    H114712   1.670   5.988   1.534
 4923TIP3    H214713   1.787   6.006   1.628
 4924TIP3   OH214714   3.282   1.702   3.736
 4924TIP3    H114715   3.231   1.655   3.670
 4924TIP3    H214716   3.270   1.650   3.816
 4925TIP3   OH214717   7.152   1.644   5.009
 4925TIP3    H114718   7.218   1.694   4.962
 4925TIP3    H214719   7.150   1.683   5.097
 4926TIP3   OH214720   8.222   0.293   4.554
 4926TIP3    H114721   8.128   0.293   4.535
 4926TIP3    H214722   8.228   0.257   4.643
 4927TIP3   OH214723   2.786   0.536   6.576
 4927TIP3    H114724   2.862   0.592   6.557
 4927TIP3    H214725   2.806   0.497   6.661
 4928TIP3   OH214726   5.126   5.295   0.850
 4928TIP3    H114727   5.200   5.340   0.891
 4928TIP3    H214728   5.140   5.306   0.756
 4929TIP3   OH214729   3.886   2.034   3.250
 4929TIP3    H114730   3.812   2.092   3.268
 4929TIP3    H214731   3.889   1.975   3.326
 4930TIP3   OH214732   4.855   7.679   4.666
 4930TIP3    H114733   4.802   7.637   4.598
 4930TIP3    H214734   4.854   7.617   4.739
 4931TIP3   OH214735   4.660   6.084   3.202
 4931TIP3    H114736   4.569   6.054   3.192
 4931TIP3    H214737   4.697   6.076   3.114
 4932TIP3   OH214738   7.061   6.048   2.725
 4932TIP3    H114739   7.115   6.067   2.648
 4932TIP3    H214740   7.092   6.110   2.791
 4933TIP3   OH214741   0.421   2.700   4.523
 4933TIP3    H114742   0.445   2.745   4.605
 4933TIP3    H214743   0.386   2.769   4.467
 4934TIP3   OH214744   0.839   2.043   1.438
 4934TIP3    H114745   0.758   2.023   1.485
 4934TIP3    H214746   0.882   2.110   1.492
 4935TIP3   OH214747   3.528   5.766   0.569
 4935TIP3    H114748   3.531   5.696   0.633
 4935TIP3    H214749   3.620   5.777   0.541
 4936TIP3   OH214750   7.518   1.479   4.617
 4936TIP3    H114751   7.527   1.507   4.708
 4936TIP3    H214752   7.461   1.402   4.621
 4937TIP3   OH214753   4.794   3.832   5.777
 4937TIP3    H114754   4.700   3.838   5.758
 4937TIP3    H214755   4.827   3.768   5.714
 4938TIP3   OH214756   4.574   2.333   0.947
 4938TIP3    H114757   4.577   2.237   0.945
 4938TIP3    H214758   4.498   2.357   0.895
 4939TIP3   OH214759   1.027   4.679   5.074
 4939TIP3    H114760   0.941   4.708   5.045
 4939TIP3    H214761   1.064   4.634   4.998
 4940TIP3   OH214762   7.588   1.429   2.549
 4940TIP3    H114763   7.492   1.428   2.541
 4940TIP3    H214764   7.619   1.406   2.461
 4941TIP3   OH214765   7.425   5.312   0.821
 4941TIP3    H114766   7.396   5.278   0.905
 4941TIP3    H214767   7.344   5.328   0.772
 4942TIP3   OH214768   2.376   4.748   1.310
 4942TIP3    H114769   2.424   4.682   1.359
 4942TIP3    H214770   2.350   4.813   1.375
 4943TIP3   OH214771   4.233   5.306   1.088
 4943TIP3    H114772   4.273   5.288   1.173
 4943TIP3    H214773   4.143   5.276   1.097
 4944TIP3   OH214774   1.401   3.806   1.312
 4944TIP3    H114775   1.388   3.875   1.247
 4944TIP3    H214776   1.354   3.838   1.390
 4945TIP3   OH214777   5.501   1.110   4.995
 4945TIP3    H114778   5.585   1.126   5.038
 4945TIP3    H214779   5.493   1.015   4.992
 4946TIP3   OH214780   1.003   0.833   5.041
 4946TIP3    H114781   0.997   0.909   4.984
 4946TIP3    H214782   1.046   0.765   4.988
 4947TIP3   OH214783   0.905   5.899   4.227
 4947TIP3    H114784   0.851   5.839   4.176
 4947TIP3    H214785   0.846   5.969   4.253
 4948TIP3   OH214786   5.976   6.377   6.558
 4948TIP3    H114787   6.035   6.330   6.618
 4948TIP3    H214788   6.034   6.422   6.498
 4949TIP3   OH214789   1.715   4.900   1.489
 4949TIP3    H114790   1.798   4.938   1.516
 4949TIP3    H214791   1.724   4.806   1.506
 4950TIP3   OH214792   3.067   7.719   3.543
 4950TIP3    H114793   3.042   7.764   3.624
 4950TIP3    H214794   3.150   7.676   3.565
 4951TIP3   OH214795   3.314   0.891   6.052
 4951TIP3    H114796   3.293   0.854   5.966
 4951TIP3    H214797   3.280   0.980   6.049
 4952TIP3   OH214798   4.172   3.257   2.996
 4952TIP3    H114799   4.169   3.167   3.028
 4952TIP3    H214800   4.200   3.250   2.905
 4953TIP3   OH214801   8.058   2.593   3.151
 4953TIP3    H114802   8.033   2.665   3.093
 4953TIP3    H214803   7.987   2.590   3.216
 4954TIP3   OH214804   5.986   4.849   5.750
 4954TIP3    H114805   5.964   4.929   5.798
 4954TIP3    H214806   6.019   4.881   5.665
 4955TIP3   OH214807   1.364   0.935   4.520
 4955TIP3    H114808   1.427   1.008   4.524
 4955TIP3    H214809   1.278   0.978   4.526
 4956TIP3   OH214810   2.998   0.283   4.632
 4956TIP3    H114811   2.977   0.212   4.693
 4956TIP3    H214812   3.037   0.351   4.687
 4957TIP3   OH214813   5.351   5.706   0.932
 4957TIP3    H114814   5.301   5.742   1.005
 4957TIP3    H214815   5.422   5.769   0.918
 4958TIP3   OH214816   8.241   6.685   3.918
 4958TIP3    H114817   8.258   6.769   3.961
 4958TIP3    H214818   8.305   6.683   3.846
 4959TIP3   OH214819   3.358   2.383   2.737
 4959TIP3    H114820   3.295   2.310   2.740
 4959TIP3    H214821   3.370   2.407   2.829
 4960TIP3   OH214822   6.699   7.522   6.179
 4960TIP3    H114823   6.762   7.468   6.228
 4960TIP3    H214824   6.683   7.472   6.099
 4961TIP3   OH214825   2.942   6.587   1.997
 4961TIP3    H114826   2.985   6.672   2.003
 4961TIP3    H214827   2.951   6.549   2.084
 4962TIP3   OH214828   3.838   6.879   1.320
 4962TIP3    H114829   3.817   6.956   1.373
 4962TIP3    H214830   3.862   6.914   1.234
 4963TIP3   OH214831   3.893   5.027   3.145
 4963TIP3    H114832   3.902   4.963   3.215
 4963TIP3    H214833   3.829   4.987   3.085
 4964TIP3   OH214834   6.657   1.120   4.767
 4964TIP3    H114835   6.709   1.040   4.772
 4964TIP3    H214836   6.599   1.116   4.843
 4965TIP3   OH214837   6.291   1.979   4.126
 4965TIP3    H114838   6.349   1.905   4.108
 4965TIP3    H214839   6.216   1.941   4.172
 4966TIP3   OH214840   8.237   5.739   6.446
 4966TIP3    H114841   8.166   5.803   6.450
 4966TIP3    H214842   8.299   5.768   6.513
 4967TIP3   OH214843   2.762   0.525   1.152
 4967TIP3    H114844   2.745   0.501   1.061
 4967TIP3    H214845   2.856   0.510   1.164
 4968TIP3   OH214846   7.874   3.115   6.777
 4968TIP3    H114847   7.935   3.080   6.712
 4968TIP3    H214848   7.869   3.209   6.759
 4969TIP3   OH214849   1.272   4.004   1.084
 4969TIP3    H114850   1.247   4.069   1.150
 4969TIP3    H214851   1.323   4.053   1.020
 4970TIP3   OH214852   0.666   5.074   0.386
 4970TIP3    H114853   0.594   5.053   0.327
 4970TIP3    H214854   0.745   5.065   0.333
 4971TIP3   OH214855   6.112   5.528   4.198
 4971TIP3    H114856   6.067   5.590   4.139
 4971TIP3    H214857   6.204   5.551   4.191
 4972TIP3   OH214858   3.730   0.701   1.387
 4972TIP3    H114859   3.733   0.725   1.295
 4972TIP3    H214860   3.643   0.660   1.398
 4973TIP3   OH214861   2.923   3.773   6.059
 4973TIP3    H114862   2.865   3.714   6.012
 4973TIP3    H214863   3.006   3.725   6.065
 4974TIP3   OH214864   8.143   2.889   1.440
 4974TIP3    H114865   8.221   2.941   1.419
 4974TIP3    H214866   8.097   2.880   1.357
 4975TIP3   OH214867   3.885   2.910   6.549
 4975TIP3    H114868   3.844   2.887   6.633
 4975TIP3    H214869   3.815   2.901   6.485
 4976TIP3   OH214870   1.214   1.815   0.497
 4976TIP3    H114871   1.183   1.901   0.524
 4976TIP3    H214872   1.134   1.765   0.478
 4977TIP3   OH214873   4.529   4.800   3.338
 4977TIP3    H114874   4.520   4.832   3.249
 4977TIP3    H214875   4.523   4.878   3.393
 4978TIP3   OH214876   2.603   0.547   4.010
 4978TIP3    H114877   2.582   0.470   4.062
 4978TIP3    H214878   2.557   0.533   3.927
 4979TIP3   OH214879   2.577   6.531   0.807
 4979TIP3    H114880   2.517   6.507   0.879
 4979TIP3    H214881   2.601   6.447   0.768
 4980TIP3   OH214882   0.438   6.539   3.938
 4980TIP3    H114883   0.445   6.572   3.848
 4980TIP3    H214884   0.523   6.499   3.955
 4981TIP3   OH214885   1.022   7.249   4.534
 4981TIP3    H114886   1.115   7.270   4.527
 4981TIP3    H214887   1.013   7.212   4.622
 4982TIP3   OH214888   5.584   6.358   5.660
 4982TIP3    H114889   5.599   6.453   5.652
 4982TIP3    H214890   5.567   6.345   5.753
 4983TIP3   OH214891   2.318   3.234   4.133
 4983TIP3    H114892   2.370   3.222   4.212
 4983TIP3    H214893   2.383   3.246   4.063
 4984TIP3   OH214894   4.820   0.302   5.824
 4984TIP3    H114895   4.849   0.393   5.825
 4984TIP3    H214896   4.814   0.279   5.731
 4985TIP3   OH214897   6.009   2.576   5.132
 4985TIP3    H114898   6.013   2.491   5.175
 4985TIP3    H214899   5.924   2.612   5.159
 4986TIP3   OH214900   8.032   1.625   6.716
 4986TIP3    H114901   8.007   1.710   6.681
 4986TIP3    H214902   7.963   1.603   6.778
 4987TIP3   OH214903   6.972   7.552   6.194
 4987TIP3    H114904   7.025   7.630   6.182
 4987TIP3    H214905   6.926   7.541   6.110
 4988TIP3   OH214906   1.467   5.767   0.439
 4988TIP3    H114907   1.448   5.861   0.434
 4988TIP3    H214908   1.381   5.726   0.446
 4989TIP3   OH214909   4.955   5.199   3.679
 4989TIP3    H114910   4.933   5.158   3.595
 4989TIP3    H214911   5.051   5.205   3.678
 4990TIP3   OH214912   2.219   2.353   2.961
 4990TIP3    H114913   2.213   2.313   2.874
 4990TIP3    H214914   2.293   2.413   2.955
 4991TIP3   OH214915   3.362   5.690   2.007
 4991TIP3    H114916   3.420   5.747   2.057
 4991TIP3    H214917   3.373   5.718   1.916
 4992TIP3   OH214918   6.104   7.125   5.082
 4992TIP3    H114919   6.139   7.053   5.029
 4992TIP3    H214920   6.157   7.125   5.161
 4993TIP3   OH214921   3.023   1.926   0.229
 4993TIP3    H114922   3.005   1.982   0.154
 4993TIP3    H214923   3.005   1.837   0.197
 4994TIP3   OH214924   1.034   7.509   4.284
 4994TIP3    H114925   1.057   7.499   4.377
 4994TIP3    H214926   1.110   7.551   4.245
 4995TIP3   OH214927   3.343   3.984   6.593
 4995TIP3    H114928   3.381   4.049   6.651
 4995TIP3    H214929   3.330   3.907   6.648
 4996TIP3   OH214930   2.404   1.124   5.792
 4996TIP3    H114931   2.492   1.088   5.805
 4996TIP3    H214932   2.416   1.218   5.799
 4997TIP3   OH214933   0.487   1.783   6.495
 4997TIP3    H114934   0.495   1.797   6.590
 4997TIP3    H214935   0.502   1.870   6.457
 4998TIP3   OH214936   8.206   3.740   2.485
 4998TIP3    H114937   8.129   3.798   2.488
 4998TIP3    H214938   8.255   3.770   2.408
 4999TIP3   OH214939   5.837   5.217   2.072
 4999TIP3    H114940   5.878   5.142   2.115
 4999TIP3    H214941   5.905   5.284   2.070
 5000TIP3   OH214942   4.172   3.730   4.217
 5000TIP3    H114943   4.174   3.761   4.308
 5000TIP3    H214944   4.183   3.635   4.224
 5001TIP3   OH214945   3.647   3.704   0.709
 5001TIP3    H114946   3.633   3.612   0.732
 5001TIP3    H214947   3.627   3.752   0.790
 5002TIP3   OH214948   2.234   6.966   2.491
 5002TIP3    H114949   2.182   6.928   2.420
 5002TIP3    H214950   2.198   6.928   2.571
 5003TIP3   OH214951   5.648   6.661   5.537
 5003TIP3    H114952   5.640   6.726   5.467
 5003TIP3    H214953   5.626   6.578   5.494
 5004TIP3   OH214954   7.414   1.732   4.555
 5004TIP3    H114955   7.442   1.645   4.583
 5004TIP3    H214956   7.319   1.725   4.546
 5005TIP3   OH214957   0.966   6.858   0.621
 5005TIP3    H114958   0.907   6.847   0.547
 5005TIP3    H214959   1.017   6.778   0.624
 5006TIP3   OH214960   6.609   5.173   5.740
 5006TIP3    H114961   6.648   5.258   5.761
 5006TIP3    H214962   6.646   5.113   5.805
 5007TIP3   OH214963   0.151   4.824   2.286
 5007TIP3    H114964   0.100   4.898   2.319
 5007TIP3    H214965   0.188   4.855   2.203
 5008TIP3   OH214966   6.007   7.714   5.469
 5008TIP3    H114967   5.945   7.776   5.429
 5008TIP3    H214968   5.952   7.650   5.514
 5009TIP3   OH214969   6.450   5.757   3.191
 5009TIP3    H114970   6.531   5.729   3.148
 5009TIP3    H214971   6.478   5.825   3.253
 5010TIP3   OH214972   7.581   0.467   3.777
 5010TIP3    H114973   7.624   0.381   3.779
 5010TIP3    H214974   7.491   0.448   3.750
 5011TIP3   OH214975   3.916   5.632   1.507
 5011TIP3    H114976   3.905   5.559   1.568
 5011TIP3    H214977   3.881   5.598   1.424
 5012TIP3   OH214978   3.105   4.449   6.157
 5012TIP3    H114979   3.080   4.465   6.066
 5012TIP3    H214980   3.124   4.536   6.193
 5013TIP3   OH214981   1.598   6.733   4.869
 5013TIP3    H114982   1.580   6.645   4.903
 5013TIP3    H214983   1.637   6.780   4.943
 5014TIP3   OH214984  -0.007   0.185   5.985
 5014TIP3    H114985   0.064   0.237   6.022
 5014TIP3    H214986   0.037   0.114   5.937
 5015TIP3   OH214987   4.923   4.033   4.089
 5015TIP3    H114988   4.980   4.067   4.158
 5015TIP3    H214989   4.950   3.942   4.079
 5016TIP3   OH214990   6.256   4.875   6.581
 5016TIP3    H114991   6.343   4.910   6.602
 5016TIP3    H214992   6.195   4.939   6.618
 5017TIP3   OH214993   1.137   6.445   3.227
 5017TIP3    H114994   1.193   6.469   3.301
 5017TIP3    H214995   1.148   6.351   3.218
 5018TIP3   OH214996   4.331   3.378   0.685
 5018TIP3    H114997   4.392   3.447   0.658
 5018TIP3    H214998   4.246   3.407   0.651
 5019TIP3   OH214999   6.983   4.061   5.902
 5019TIP3    H115000   7.062   4.022   5.865
 5019TIP3    H215001   6.912   4.030   5.846
 5020TIP3   OH215002   2.531   6.689   4.199
 5020TIP3    H115003   2.447   6.657   4.167
 5020TIP3    H215004   2.521   6.691   4.294
 5021TIP3   OH215005   2.097   7.604   5.219
 5021TIP3    H115006   2.143   7.589   5.301
 5021TIP3    H215007   2.007   7.625   5.244
 5022TIP3   OH215008   1.389   5.451   3.133
 5022TIP3    H115009   1.416   5.543   3.127
 5022TIP3    H215010   1.460   5.408   3.181
 5023TIP3   OH215011   6.312   0.918   3.246
 5023TIP3    H115012   6.250   0.847   3.228
 5023TIP3    H215013   6.394   0.888   3.208
 5024TIP3   OH215014   1.446   4.425   6.587
 5024TIP3    H115015   1.476   4.513   6.567
 5024TIP3    H215016   1.516   4.368   6.556
 5025TIP3   OH215017   6.064   4.072   4.126
 5025TIP3    H115018   6.150   4.088   4.164
 5025TIP3    H215019   6.022   4.010   4.186
 5026TIP3   OH215020   1.484   6.670   2.617
 5026TIP3    H115021   1.580   6.671   2.615
 5026TIP3    H215022   1.459   6.651   2.527
 5027TIP3   OH215023   0.117   4.666   5.985
 5027TIP3    H115024   0.187   4.686   6.048
 5027TIP3    H215025   0.091   4.751   5.950
 5028TIP3   OH215026   6.946   7.264   4.028
 5028TIP3    H115027   6.946   7.287   4.121
 5028TIP3    H215028   6.855   7.243   4.008
 5029TIP3   OH215029   5.676   2.797   2.783
 5029TIP3    H115030   5.644   2.753   2.704
 5029TIP3    H215031   5.607   2.785   2.848
 5030TIP3   OH215032   7.602   4.321   4.617
 5030TIP3    H115033   7.563   4.289   4.536
 5030TIP3    H215034   7.529   4.359   4.666
 5031TIP3   OH215035   3.710   2.331   3.833
 5031TIP3    H115036   3.657   2.376   3.900
 5031TIP3    H215037   3.686   2.373   3.751
 5032TIP3   OH215038   4.387   1.235   2.776
 5032TIP3    H115039   4.436   1.211   2.697
 5032TIP3    H215040   4.413   1.325   2.794
 5033TIP3   OH215041   6.380   1.825   5.298
 5033TIP3    H115042   6.418   1.778   5.224
 5033TIP3    H215043   6.347   1.756   5.356
 5034TIP3   OH215044   1.334   6.467   3.980
 5034TIP3    H115045   1.391   6.536   4.015
 5034TIP3    H215046   1.265   6.457   4.046
 5035TIP3   OH215047   0.610   7.196   3.573
 5035TIP3    H115048   0.665   7.127   3.535
 5035TIP3    H215049   0.642   7.207   3.662
 5036TIP3   OH215050   0.560   5.144   3.178
 5036TIP3    H115051   0.499   5.172   3.246
 5036TIP3    H215052   0.620   5.218   3.167
 5037TIP3   OH215053   5.379   3.782   4.092
 5037TIP3    H115054   5.314   3.717   4.120
 5037TIP3    H215055   5.353   3.862   4.137
 5038TIP3   OH215056   2.591   3.409   4.814
 5038TIP3    H115057   2.665   3.451   4.769
 5038TIP3    H215058   2.516   3.464   4.793
 5039TIP3   OH215059   8.026   3.595   6.107
 5039TIP3    H115060   7.949   3.610   6.052
 5039TIP3    H215061   8.012   3.509   6.145
 5040TIP3   OH215062   3.675   6.733   2.528
 5040TIP3    H115063   3.656   6.765   2.616
 5040TIP3    H215064   3.593   6.693   2.499
 5041TIP3   OH215065   2.952   3.816   4.178
 5041TIP3    H115066   2.954   3.838   4.271
 5041TIP3    H215067   3.010   3.741   4.171
 5042TIP3   OH215068   3.051   7.112   4.506
 5042TIP3    H115069   2.969   7.162   4.494
 5042TIP3    H215070   3.068   7.117   4.600
 5043TIP3   OH215071   7.706   1.666   4.731
 5043TIP3    H115072   7.673   1.605   4.664
 5043TIP3    H215073   7.636   1.669   4.796
 5044TIP3   OH215074   3.063   3.921   4.889
 5044TIP3    H115075   3.056   3.952   4.799
 5044TIP3    H215076   2.988   3.863   4.901
 5045TIP3   OH215077   7.381   5.021   5.494
 5045TIP3    H115078   7.373   4.996   5.586
 5045TIP3    H215079   7.377   5.116   5.494
 5046TIP3   OH215080   1.912   4.304   5.581
 5046TIP3    H115081   1.946   4.362   5.513
 5046TIP3    H215082   1.825   4.280   5.549
 5047TIP3   OH215083   2.700   5.347   4.833
 5047TIP3    H115084   2.696   5.262   4.791
 5047TIP3    H215085   2.793   5.370   4.835
 5048TIP3   OH215086   3.571   5.727   2.320
 5048TIP3    H115087   3.638   5.665   2.348
 5048TIP3    H215088   3.525   5.751   2.400
 5049TIP3   OH215089   4.101   6.485   0.296
 5049TIP3    H115090   4.191   6.518   0.303
 5049TIP3    H215091   4.049   6.562   0.273
 5050TIP3   OH215092   4.376   5.885   1.385
 5050TIP3    H115093   4.302   5.862   1.442
 5050TIP3    H215094   4.447   5.827   1.412
 5051TIP3   OH215095   5.635   2.455   2.391
 5051TIP3    H115096   5.723   2.427   2.412
 5051TIP3    H215097   5.595   2.379   2.348
 5052TIP3   OH215098   1.396   4.707   1.599
 5052TIP3    H115099   1.363   4.740   1.683
 5052TIP3    H215100   1.452   4.634   1.623
 5053TIP3   OH215101   7.609   2.588   1.100
 5053TIP3    H115102   7.586   2.666   1.049
 5053TIP3    H215103   7.633   2.622   1.187
 5054TIP3   OH215104   7.252   5.591   1.108
 5054TIP3    H115105   7.342   5.564   1.125
 5054TIP3    H215106   7.261   5.663   1.046
 5055TIP3   OH215107   2.734   6.114   2.824
 5055TIP3    H115108   2.688   6.031   2.816
 5055TIP3    H215109   2.821   6.091   2.856
 5056TIP3   OH215110   2.944   1.140   5.379
 5056TIP3    H115111   3.027   1.114   5.418
 5056TIP3    H215112   2.881   1.134   5.450
 5057TIP3   OH215113   3.606   4.722   5.806
 5057TIP3    H115114   3.648   4.636   5.804
 5057TIP3    H215115   3.586   4.741   5.715
 5058TIP3   OH215116   3.428   0.132   1.640
 5058TIP3    H115117   3.333   0.147   1.637
 5058TIP3    H215118   3.437   0.049   1.687
 5059TIP3   OH215119   1.525   6.705   0.317
 5059TIP3    H115120   1.506   6.770   0.384
 5059TIP3    H215121   1.579   6.751   0.253
 5060TIP3   OH215122   2.950   3.075   1.563
 5060TIP3    H115123   2.981   3.164   1.581
 5060TIP3    H215124   2.998   3.020   1.625
 5061TIP3   OH215125   2.782   2.887   5.529
 5061TIP3    H115126   2.824   2.803   5.547
 5061TIP3    H215127   2.689   2.867   5.525
 5062TIP3   OH215128   6.512   7.118   3.705
 5062TIP3    H115129   6.551   7.053   3.646
 5062TIP3    H215130   6.587   7.153   3.754
 5063TIP3   OH215131   5.876   2.889   4.863
 5063TIP3    H115132   5.855   2.977   4.897
 5063TIP3    H215133   5.928   2.849   4.932
 5064TIP3   OH215134   2.537   7.470   3.634
 5064TIP3    H115135   2.490   7.529   3.576
 5064TIP3    H215136   2.549   7.390   3.583
 5065TIP3   OH215137   4.664   6.712   2.501
 5065TIP3    H115138   4.736   6.653   2.481
 5065TIP3    H215139   4.597   6.691   2.435
 5066TIP3   OH215140   5.962   7.212   2.164
 5066TIP3    H115141   6.027   7.279   2.183
 5066TIP3    H215142   6.005   7.130   2.187
 5067TIP3   OH215143   0.796   4.085   2.924
 5067TIP3    H115144   0.888   4.065   2.943
 5067TIP3    H215145   0.754   3.999   2.917
 5068TIP3   OH215146   2.529   2.211   5.095
 5068TIP3    H115147   2.470   2.285   5.111
 5068TIP3    H215148   2.477   2.150   5.043
 5069TIP3   OH215149   0.441   0.269   1.467
 5069TIP3    H115150   0.487   0.353   1.468
 5069TIP3    H215151   0.413   0.256   1.557
 5070TIP3   OH215152   5.807   6.298   2.887
 5070TIP3    H115153   5.781   6.221   2.836
 5070TIP3    H215154   5.854   6.354   2.824
 5071TIP3   OH215155   4.002   3.888   3.155
 5071TIP3    H115156   4.096   3.886   3.137
 5071TIP3    H215157   3.971   3.801   3.128
 5072TIP3   OH215158   3.454   7.724   1.236
 5072TIP3    H115159   3.475   7.673   1.315
 5072TIP3    H215160   3.509   7.685   1.168
 5073TIP3   OH215161   6.555   4.474   5.291
 5073TIP3    H115162   6.567   4.493   5.384
 5073TIP3    H215163   6.643   4.481   5.254
 5074TIP3   OH215164   5.930   4.262   1.197
 5074TIP3    H115165   5.989   4.276   1.271
 5074TIP3    H215166   5.846   4.295   1.228
 5075TIP3   OH215167   0.196   1.568   4.595
 5075TIP3    H115168   0.231   1.602   4.512
 5075TIP3    H215169   0.199   1.473   4.585
 5076TIP3   OH215170   3.595   3.257   5.281
 5076TIP3    H115171   3.599   3.247   5.376
 5076TIP3    H215172   3.502   3.249   5.259
 5077TIP3   OH215173   2.978   2.490   1.247
 5077TIP3    H115174   2.997   2.437   1.325
 5077TIP3    H215175   3.020   2.444   1.175
 5078TIP3   OH215176   7.215   0.538   1.246
 5078TIP3    H115177   7.172   0.452   1.246
 5078TIP3    H215178   7.153   0.595   1.200
 5079TIP3   OH215179   2.180   6.761   3.194
 5079TIP3    H115180   2.207   6.787   3.282
 5079TIP3    H215181   2.109   6.821   3.171
 5080TIP3   OH215182   0.649   0.747   3.104
 5080TIP3    H115183   0.697   0.666   3.085
 5080TIP3    H215184   0.718   0.814   3.112
 5081TIP3   OH215185   4.541   4.528   0.113
 5081TIP3    H115186   4.463   4.483   0.146
 5081TIP3    H215187   4.537   4.615   0.152
 5082TIP3   OH215188   4.176   2.029   0.662
 5082TIP3    H115189   4.110   2.098   0.663
 5082TIP3    H215190   4.142   1.965   0.598
 5083TIP3   OH215191   1.186   3.465   1.578
 5083TIP3    H115192   1.254   3.480   1.513
 5083TIP3    H215193   1.218   3.509   1.657
 5084TIP3   OH215194   1.009   5.429   6.390
 5084TIP3    H115195   1.059   5.347   6.383
 5084TIP3    H215196   0.929   5.405   6.436
 5085TIP3   OH215197   7.166   5.124   0.823
 5085TIP3    H115198   7.170   5.188   0.894
 5085TIP3    H215199   7.075   5.124   0.795
 5086TIP3   OH215200   7.979   7.570   5.664
 5086TIP3    H115201   7.967   7.509   5.591
 5086TIP3    H215202   7.978   7.514   5.742
 5087TIP3   OH215203   2.002   7.049   3.615
 5087TIP3    H115204   2.058   6.990   3.664
 5087TIP3    H215205   1.916   7.007   3.616
 5088TIP3   OH215206   5.562   1.220   1.415
 5088TIP3    H115207   5.526   1.135   1.441
 5088TIP3    H215208   5.657   1.208   1.417
 5089TIP3   OH215209   6.153   1.833   1.981
 5089TIP3    H115210   6.136   1.749   2.023
 5089TIP3    H215211   6.068   1.877   1.981
 5090TIP3   OH215212   2.560   4.799   4.439
 5090TIP3    H115213   2.572   4.744   4.361
 5090TIP3    H215214   2.473   4.838   4.427
 5091TIP3   OH215215   1.968   0.318   6.094
 5091TIP3    H115216   1.933   0.401   6.125
 5091TIP3    H215217   1.959   0.258   6.168
 5092TIP3   OH215218   5.336   5.881  -0.007
 5092TIP3    H115219   5.296   5.892   0.079
 5092TIP3    H215220   5.430   5.872   0.011
 5093TIP3   OH215221   5.089   5.415   6.477
 5093TIP3    H115222   5.062   5.323   6.471
 5093TIP3    H215223   5.099   5.443   6.386
 5094TIP3   OH215224   1.043   1.447   3.955
 5094TIP3    H115225   1.079   1.500   3.884
 5094TIP3    H215226   1.018   1.365   3.912
 5095TIP3   OH215227   7.579   1.542   5.686
 5095TIP3    H115228   7.632   1.601   5.634
 5095TIP3    H215229   7.494   1.587   5.695
 5096TIP3   OH215230   0.845   5.375   2.780
 5096TIP3    H115231   0.777   5.442   2.786
 5096TIP3    H215232   0.923   5.423   2.752
 5097TIP3   OH215233   7.664   0.933   6.165
 5097TIP3    H115234   7.702   0.899   6.247
 5097TIP3    H215235   7.622   1.015   6.191
 5098TIP3   OH215236   4.138   0.043   0.678
 5098TIP3    H115237   4.103   0.062   0.765
 5098TIP3    H215238   4.089  -0.033   0.648
 5099TIP3   OH215239   1.330   6.148   4.797
 5099TIP3    H115240   1.269   6.083   4.764
 5099TIP3    H215241   1.411   6.133   4.747
 5100TIP3   OH215242   6.227   0.886   0.518
 5100TIP3    H115243   6.223   0.790   0.518
 5100TIP3    H215244   6.136   0.914   0.518
 5101TIP3   OH215245   2.529   7.488   0.628
 5101TIP3    H115246   2.497   7.409   0.671
 5101TIP3    H215247   2.621   7.470   0.609
 5102TIP3   OH215248   2.809   0.570   6.258
 5102TIP3    H115249   2.775   0.581   6.170
 5102TIP3    H215250   2.746   0.615   6.314
 5103TIP3   OH215251   1.982   4.911   1.596
 5103TIP3    H115252   2.075   4.891   1.584
 5103TIP3    H215253   1.980   5.006   1.610
 5104TIP3   OH215254   7.973   5.879   5.499
 5104TIP3    H115255   7.902   5.828   5.459
 5104TIP3    H215256   8.043   5.815   5.514
 5105TIP3   OH215257   3.906   7.255   0.029
 5105TIP3    H115258   3.896   7.194   0.102
 5105TIP3    H215259   3.840   7.323   0.045
 5106TIP3   OH215260   0.973   5.355   1.124
 5106TIP3    H115261   0.887   5.338   1.085
 5106TIP3    H215262   0.992   5.277   1.176
 5107TIP3   OH215263   1.713   3.023   2.389
 5107TIP3    H115264   1.783   2.976   2.435
 5107TIP3    H215265   1.658   3.058   2.459
 5108TIP3   OH215266   6.039   7.554   5.140
 5108TIP3    H115267   5.991   7.501   5.076
 5108TIP3    H215268   6.008   7.524   5.225
 5109TIP3   OH215269   0.073   7.777   0.202
 5109TIP3    H115270   0.094   7.698   0.151
 5109TIP3    H215271   0.029   7.835   0.140
 5110TIP3   OH215272   4.894   4.283   2.532
 5110TIP3    H115273   4.940   4.210   2.491
 5110TIP3    H215274   4.939   4.361   2.500
 5111TIP3   OH215275   7.369   5.369   1.621
 5111TIP3    H115276   7.320   5.303   1.571
 5111TIP3    H215277   7.301   5.429   1.653
 5112TIP3   OH215278   4.158   2.416   2.316
 5112TIP3    H115279   4.155   2.510   2.335
 5112TIP3    H215280   4.142   2.411   2.222
 5113TIP3   OH215281   7.778   4.653   1.130
 5113TIP3    H115282   7.815   4.604   1.057
 5113TIP3    H215283   7.764   4.741   1.095
 5114TIP3   OH215284   5.342   4.422   2.097
 5114TIP3    H115285   5.360   4.371   2.018
 5114TIP3    H215286   5.262   4.384   2.132
 5115TIP3   OH215287   4.150   7.215   0.925
 5115TIP3    H115288   4.091   7.210   1.001
 5115TIP3    H215289   4.218   7.277   0.952
 5116TIP3   OH215290   7.251   0.463   1.664
 5116TIP3    H115291   7.163   0.493   1.684
 5116TIP3    H215292   7.294   0.453   1.749
 5117TIP3   OH215293   6.046   2.304   3.408
 5117TIP3    H115294   6.103   2.340   3.476
 5117TIP3    H215295   5.959   2.337   3.430
 5118TIP3   OH215296   4.811   6.095   5.462
 5118TIP3    H115297   4.793   6.076   5.554
 5118TIP3    H215298   4.735   6.145   5.433
 5119TIP3   OH215299   4.909   7.459   1.865
 5119TIP3    H115300   4.822   7.437   1.898
 5119TIP3    H215301   4.893   7.509   1.785
 5120TIP3   OH215302   5.981   6.945   1.970
 5120TIP3    H115303   5.967   6.873   2.032
 5120TIP3    H215304   5.998   7.021   2.026
 5121TIP3   OH215305   8.114   3.283   4.664
 5121TIP3    H115306   8.129   3.267   4.757
 5121TIP3    H215307   8.170   3.357   4.643
 5122TIP3   OH215308   2.681   2.139   6.233
 5122TIP3    H115309   2.722   2.054   6.221
 5122TIP3    H215310   2.703   2.165   6.322
 5123TIP3   OH215311   6.004   1.980   1.213
 5123TIP3    H115312   6.064   1.945   1.278
 5123TIP3    H215313   5.945   1.908   1.192
 5124TIP3   OH215314   4.328   4.833   3.628
 5124TIP3    H115315   4.257   4.770   3.632
 5124TIP3    H215316   4.343   4.847   3.535
 5125TIP3   OH215317   1.580   4.640   6.467
 5125TIP3    H115318   1.591   4.659   6.374
 5125TIP3    H215319   1.612   4.718   6.512
 5126TIP3   OH215320   6.637   5.742   0.658
 5126TIP3    H115321   6.548   5.743   0.693
 5126TIP3    H215322   6.693   5.737   0.736
 5127TIP3   OH215323   0.953   4.337   1.715
 5127TIP3    H115324   0.936   4.243   1.706
 5127TIP3    H215325   0.880   4.369   1.768
 5128TIP3   OH215326   0.066   0.594   1.315
 5128TIP3    H115327   0.054   0.534   1.241
 5128TIP3    H215328   0.076   0.680   1.275
 5129TIP3   OH215329   2.251   2.729   2.057
 5129TIP3    H115330   2.283   2.716   2.146
 5129TIP3    H215331   2.157   2.710   2.062
 5130TIP3   OH215332   0.428   0.581   4.069
 5130TIP3    H115333   0.369   0.523   4.019
 5130TIP3    H215334   0.380   0.599   4.150
 5131TIP3   OH215335   6.294   3.822   2.811
 5131TIP3    H115336   6.241   3.763   2.758
 5131TIP3    H215337   6.378   3.827   2.765
 5132TIP3   OH215338   5.355   5.407   4.882
 5132TIP3    H115339   5.305   5.356   4.946
 5132TIP3    H215340   5.293   5.424   4.811
 5133TIP3   OH215341   2.746   0.234   1.249
 5133TIP3    H115342   2.776   0.298   1.313
 5133TIP3    H215343   2.801   0.250   1.172
 5134TIP3   OH215344   3.342   0.975   1.321
 5134TIP3    H115345   3.343   0.902   1.383
 5134TIP3    H215346   3.250   1.002   1.317
 5135TIP3   OH215347   2.820   0.965   3.753
 5135TIP3    H115348   2.778   0.880   3.737
 5135TIP3    H215349   2.783   1.023   3.687
 5136TIP3   OH215350   1.568   1.667   0.955
 5136TIP3    H115351   1.529   1.591   0.999
 5136TIP3    H215352   1.642   1.633   0.907
 5137TIP3   OH215353   7.751   4.964   5.611
 5137TIP3    H115354   7.797   4.879   5.613
 5137TIP3    H215355   7.668   4.947   5.655
 5138TIP3   OH215356   6.924   0.239   5.302
 5138TIP3    H115357   7.005   0.201   5.269
 5138TIP3    H215358   6.874   0.262   5.224
 5139TIP3   OH215359   3.463   2.408   2.020
 5139TIP3    H115360   3.528   2.371   2.080
 5139TIP3    H215361   3.380   2.399   2.066
 5140TIP3   OH215362   1.543   6.251   3.510
 5140TIP3    H115363   1.494   6.267   3.590
 5140TIP3    H215364   1.560   6.338   3.474
 5141TIP3   OH215365   4.806   0.652   0.393
 5141TIP3    H115366   4.853   0.659   0.476
 5141TIP3    H215367   4.868   0.682   0.327
 5142TIP3   OH215368   1.896   1.848   6.577
 5142TIP3    H115369   1.956   1.886   6.513
 5142TIP3    H215370   1.855   1.774   6.531
 5143TIP3   OH215371   0.914   4.142   4.749
 5143TIP3    H115372   0.996   4.186   4.729
 5143TIP3    H215373   0.918   4.124   4.843
 5144TIP3   OH215374   3.099   2.982   4.019
 5144TIP3    H115375   3.037   3.042   3.978
 5144TIP3    H215376   3.053   2.951   4.098
 5145TIP3   OH215377   5.782   3.639   5.595
 5145TIP3    H115378   5.810   3.714   5.647
 5145TIP3    H215379   5.863   3.602   5.560
 5146TIP3   OH215380   6.343   2.806   4.558
 5146TIP3    H115381   6.322   2.869   4.627
 5146TIP3    H215382   6.405   2.853   4.502
 5147TIP3   OH215383   3.105   1.713   5.721
 5147TIP3    H115384   3.194   1.719   5.687
 5147TIP3    H215385   3.072   1.630   5.688
 5148TIP3   OH215386   1.529   0.269   5.310
 5148TIP3    H115387   1.561   0.244   5.223
 5148TIP3    H215388   1.567   0.205   5.369
 5149TIP3   OH215389   1.496   6.634   0.603
 5149TIP3    H115390   1.542   6.608   0.523
 5149TIP3    H215391   1.430   6.566   0.616
 5150TIP3   OH215392   2.611   5.735   5.615
 5150TIP3    H115393   2.653   5.774   5.538
 5150TIP3    H215394   2.661   5.770   5.689
 5151TIP3   OH215395   0.530   2.707   6.475
 5151TIP3    H115396   0.597   2.753   6.525
 5151TIP3    H215397   0.454   2.703   6.534
 5152TIP3   OH215398   0.149   3.107   0.477
 5152TIP3    H115399   0.231   3.058   0.477
 5152TIP3    H215400   0.173   3.193   0.511
 5153TIP3   OH215401   5.325   6.819   3.881
 5153TIP3    H115402   5.364   6.903   3.857
 5153TIP3    H215403   5.303   6.777   3.798
 5154TIP3   OH215404   0.180   6.749   4.825
 5154TIP3    H115405   0.177   6.690   4.900
 5154TIP3    H215406   0.092   6.747   4.788
 5155TIP3   OH215407   3.073   5.021   2.077
 5155TIP3    H115408   3.152   4.975   2.106
 5155TIP3    H215409   3.100   5.112   2.070
 5156TIP3   OH215410   3.289   2.691   1.714
 5156TIP3    H115411   3.295   2.597   1.729
 5156TIP3    H215412   3.330   2.730   1.792
 5157TIP3   OH215413   8.082   6.568   2.008
 5157TIP3    H115414   8.028   6.498   2.045
 5157TIP3    H215415   8.165   6.526   1.987
 5158TIP3   OH215416   6.869   7.053   5.530
 5158TIP3    H115417   6.944   7.113   5.537
 5158TIP3    H215418   6.855   7.044   5.436
 5159TIP3   OH215419   5.889   1.142   4.352
 5159TIP3    H115420   5.836   1.178   4.424
 5159TIP3    H215421   5.872   1.048   4.355
 5160TIP3   OH215422   8.126   1.035   6.466
 5160TIP3    H115423   8.092   0.947   6.482
 5160TIP3    H215424   8.048   1.089   6.455
 5161TIP3   OH215425   6.631   7.433   0.828
 5161TIP3    H115426   6.578   7.468   0.900
 5161TIP3    H215427   6.627   7.338   0.839
 5162TIP3   OH215428   0.544   7.616   5.844
 5162TIP3    H115429   0.611   7.631   5.777
 5162TIP3    H215430   0.463   7.603   5.793
 5163TIP3   OH215431   4.785   1.357   5.184
 5163TIP3    H115432   4.782   1.304   5.264
 5163TIP3    H215433   4.778   1.294   5.113
 5164TIP3   OH215434   0.400   3.658   3.615
 5164TIP3    H115435   0.364   3.664   3.527
 5164TIP3    H215436   0.409   3.564   3.632
 5165TIP3   OH215437   5.297   7.534   3.246
 5165TIP3    H115438   5.229   7.558   3.309
 5165TIP3    H215439   5.373   7.586   3.273
 5166TIP3   OH215440   1.382   4.567   4.960
 5166TIP3    H115441   1.370   4.490   4.906
 5166TIP3    H215442   1.452   4.544   5.020
 5167TIP3   OH215443   2.995   2.828   0.437
 5167TIP3    H115444   3.044   2.755   0.401
 5167TIP3    H215445   2.985   2.807   0.530
 5168TIP3   OH215446   1.704   2.127   2.013
 5168TIP3    H115447   1.770   2.188   2.046
 5168TIP3    H215448   1.752   2.045   1.998
 5169TIP3   OH215449   2.827   2.594   0.997
 5169TIP3    H115450   2.843   2.552   1.081
 5169TIP3    H215451   2.742   2.561   0.968
 5170TIP3   OH215452   6.025   3.839   2.020
 5170TIP3    H115453   6.100   3.847   1.960
 5170TIP3    H215454   6.037   3.753   2.061
 5171TIP3   OH215455   1.004   1.113   2.362
 5171TIP3    H115456   1.088   1.069   2.377
 5171TIP3    H215457   1.002   1.130   2.268
 5172TIP3   OH215458   5.219   4.692   0.265
 5172TIP3    H115459   5.227   4.785   0.240
 5172TIP3    H215460   5.128   4.670   0.245
 5173TIP3   OH215461   5.956   6.440   2.699
 5173TIP3    H115462   6.035   6.386   2.702
 5173TIP3    H215463   5.980   6.520   2.745
 5174TIP3   OH215464   1.489   3.951   4.570
 5174TIP3    H115465   1.549   3.994   4.630
 5174TIP3    H215466   1.491   4.004   4.490
 5175TIP3   OH215467   0.177   2.336   0.990
 5175TIP3    H115468   0.262   2.376   1.007
 5175TIP3    H215469   0.197   2.260   0.935
 5176TIP3   OH215470   7.557   6.567   6.374
 5176TIP3    H115471   7.494   6.499   6.351
 5176TIP3    H215472   7.593   6.540   6.458
 5177TIP3   OH215473   5.365   7.391   4.024
 5177TIP3    H115474   5.290   7.359   3.974
 5177TIP3    H215475   5.370   7.484   4.003
 5178TIP3   OH215476   0.834   4.639   1.233
 5178TIP3    H115477   0.781   4.681   1.300
 5178TIP3    H215478   0.847   4.550   1.265
 5179TIP3   OH215479   5.298   5.642   1.909
 5179TIP3    H115480   5.235   5.715   1.906
 5179TIP3    H215481   5.323   5.636   2.001
 5180TIP3   OH215482   3.511   0.719   5.195
 5180TIP3    H115483   3.454   0.785   5.155
 5180TIP3    H215484   3.493   0.725   5.289
 5181TIP3   OH215485   5.545   4.354   5.344
 5181TIP3    H115486   5.545   4.448   5.364
 5181TIP3    H215487   5.489   4.315   5.410
 5182TIP3   OH215488   1.897   6.317   4.245
 5182TIP3    H115489   1.824   6.368   4.210
 5182TIP3    H215490   1.925   6.262   4.172
 5183TIP3   OH215491   4.556   3.402   6.098
 5183TIP3    H115492   4.644   3.386   6.064
 5183TIP3    H215493   4.509   3.320   6.085
 5184TIP3   OH215494   0.446   6.406   5.651
 5184TIP3    H115495   0.480   6.378   5.566
 5184TIP3    H215496   0.403   6.328   5.686
 5185TIP3   OH215497   5.567   3.315   6.452
 5185TIP3    H115498   5.473   3.303   6.465
 5185TIP3    H215499   5.602   3.328   6.540
 5186TIP3   OH215500   2.565   3.225   2.937
 5186TIP3    H115501   2.483   3.189   2.904
 5186TIP3    H215502   2.540   3.306   2.981
 5187TIP3   OH215503   3.469   3.460   0.874
 5187TIP3    H115504   3.437   3.534   0.822
 5187TIP3    H215505   3.550   3.434   0.831
 5188TIP3   OH215506   0.795   1.845   2.462
 5188TIP3    H115507   0.807   1.772   2.523
 5188TIP3    H215508   0.718   1.821   2.410
 5189TIP3   OH215509   5.286   0.946   6.317
 5189TIP3    H115510   5.365   0.989   6.283
 5189TIP3    H215511   5.310   0.916   6.405
 5190TIP3   OH215512   7.425   5.884   3.184
 5190TIP3    H115513   7.453   5.887   3.275
 5190TIP3    H215514   7.340   5.929   3.184
 5191TIP3   OH215515   0.244   7.837   6.650
 5191TIP3    H115516   0.169   7.781   6.671
 5191TIP3    H215517   0.287   7.792   6.578
 5192TIP3   OH215518   3.934   4.772   3.224
 5192TIP3    H115519   3.926   4.719   3.303
 5192TIP3    H215520   3.964   4.712   3.156
 5193TIP3   OH215521   4.359   3.687   1.723
 5193TIP3    H115522   4.329   3.612   1.672
 5193TIP3    H215523   4.421   3.732   1.665
 5194TIP3   OH215524   7.926   0.929   1.549
 5194TIP3    H115525   7.924   1.024   1.543
 5194TIP3    H215526   7.838   0.904   1.577
 5195TIP3   OH215527   7.234   2.007   3.294
 5195TIP3    H115528   7.170   2.059   3.245
 5195TIP3    H215529   7.215   1.916   3.271
 5196TIP3   OH215530   7.453   3.367   1.098
 5196TIP3    H115531   7.535   3.411   1.122
 5196TIP3    H215532   7.475   3.274   1.098
 5197TIP3   OH215533   0.544   7.565   0.470
 5197TIP3    H115534   0.598   7.641   0.490
 5197TIP3    H215535   0.511   7.535   0.554
 5198TIP3   OH215536   3.426   6.281   0.640
 5198TIP3    H115537   3.360   6.219   0.610
 5198TIP3    H215538   3.426   6.349   0.573
 5199TIP3   OH215539   3.775   1.431   0.188
 5199TIP3    H115540   3.750   1.341   0.209
 5199TIP3    H215541   3.710   1.459   0.123
 5200TIP3   OH215542   2.544   6.017   4.383
 5200TIP3    H115543   2.500   6.067   4.452
 5200TIP3    H215544   2.618   6.072   4.358
 5201TIP3   OH215545   7.183   3.290   1.174
 5201TIP3    H115546   7.254   3.339   1.132
 5201TIP3    H215547   7.199   3.301   1.268
 5202TIP3   OH215548   5.483   6.425   2.778
 5202TIP3    H115549   5.484   6.516   2.748
 5202TIP3    H215550   5.537   6.378   2.714
 5203TIP3   OH215551   3.736   1.630   4.312
 5203TIP3    H115552   3.705   1.719   4.296
 5203TIP3    H215553   3.656   1.580   4.328
 5204TIP3   OH215554   1.264   0.063   1.395
 5204TIP3    H115555   1.303   0.090   1.312
 5204TIP3    H215556   1.249  -0.031   1.385
 5205TIP3   OH215557   2.457   6.649   4.945
 5205TIP3    H115558   2.477   6.739   4.916
 5205TIP3    H215559   2.458   6.654   5.040
 5206TIP3   OH215560   4.108   2.556   5.704
 5206TIP3    H115561   4.167   2.482   5.695
 5206TIP3    H215562   4.020   2.520   5.691
 5207TIP3   OH215563   0.214   6.522   0.153
 5207TIP3    H115564   0.302   6.488   0.137
 5207TIP3    H215565   0.201   6.588   0.084
 5208TIP3   OH215566   2.685   5.064   5.151
 5208TIP3    H115567   2.769   5.065   5.106
 5208TIP3    H215568   2.633   5.000   5.104
 5209TIP3   OH215569   7.746   2.834   3.249
 5209TIP3    H115570   7.769   2.756   3.299
 5209TIP3    H215571   7.657   2.855   3.277
 5210TIP3   OH215572   2.559   5.147   0.519
 5210TIP3    H115573   2.653   5.155   0.501
 5210TIP3    H215574   2.536   5.229   0.562
 5211TIP3   OH215575   1.312   3.474   5.562
 5211TIP3    H115576   1.341   3.546   5.505
 5211TIP3    H215577   1.355   3.491   5.645
 5212TIP3   OH215578   7.118   5.602   4.987
 5212TIP3    H115579   7.046   5.545   5.013
 5212TIP3    H215580   7.196   5.547   4.992
 5213TIP3   OH215581   2.464   1.528   2.951
 5213TIP3    H115582   2.556   1.502   2.955
 5213TIP3    H215583   2.446   1.569   3.036
 5214TIP3   OH215584   1.188   3.034   2.930
 5214TIP3    H115585   1.153   3.122   2.911
 5214TIP3    H215586   1.169   3.021   3.023
 5215TIP3   OH215587   6.456   2.784   4.167
 5215TIP3    H115588   6.388   2.825   4.114
 5215TIP3    H215589   6.421   2.698   4.188
 5216TIP3   OH215590   5.418   1.457   5.569
 5216TIP3    H115591   5.445   1.405   5.493
 5216TIP3    H215592   5.404   1.545   5.534
 5217TIP3   OH215593   1.568   1.872   5.447
 5217TIP3    H115594   1.623   1.877   5.525
 5217TIP3    H215595   1.481   1.900   5.476
 5218TIP3   OH215596   3.216   5.572   1.040
 5218TIP3    H115597   3.296   5.602   0.998
 5218TIP3    H215598   3.244   5.497   1.093
 5219TIP3   OH215599   8.057   5.572   4.185
 5219TIP3    H115600   8.130   5.541   4.132
 5219TIP3    H215601   8.069   5.667   4.189
 5220TIP3   OH215602   6.331   1.160   3.374
 5220TIP3    H115603   6.263   1.165   3.441
 5220TIP3    H215604   6.321   1.073   3.335
 5221TIP3   OH215605   0.928   5.809   0.130
 5221TIP3    H115606   0.861   5.782   0.193
 5221TIP3    H215607   1.003   5.835   0.184
 5222TIP3   OH215608   8.232   5.339   3.542
 5222TIP3    H115609   8.242   5.249   3.511
 5222TIP3    H215610   8.313   5.357   3.590
 5223TIP3   OH215611   6.828   5.959   0.566
 5223TIP3    H115612   6.767   5.891   0.595
 5223TIP3    H215613   6.907   5.912   0.540
 5224TIP3   OH215614   3.739   2.498   0.958
 5224TIP3    H115615   3.733   2.501   0.862
 5224TIP3    H215616   3.781   2.414   0.976
 5225TIP3   OH215617   3.854   7.653   5.133
 5225TIP3    H115618   3.838   7.640   5.040
 5225TIP3    H215619   3.847   7.748   5.146
 5226TIP3   OH215620   7.347   1.287   3.155
 5226TIP3    H115621   7.278   1.287   3.089
 5226TIP3    H215622   7.426   1.265   3.106
 5227TIP3   OH215623   1.130   7.102   3.262
 5227TIP3    H115624   1.142   7.165   3.334
 5227TIP3    H215625   1.116   7.157   3.185
 5228TIP3   OH215626   4.146   1.049   0.030
 5228TIP3    H115627   4.235   1.079   0.048
 5228TIP3    H215628   4.154   0.996  -0.049
 5229TIP3   OH215629   8.083   3.914   4.983
 5229TIP3    H115630   8.078   3.866   4.900
 5229TIP3    H215631   8.085   4.006   4.957
 5230TIP3   OH215632   4.720   4.760   5.212
 5230TIP3    H115633   4.778   4.828   5.179
 5230TIP3    H215634   4.738   4.756   5.306
 5231TIP3   OH215635   7.094   3.818   5.762
 5231TIP3    H115636   7.003   3.802   5.738
 5231TIP3    H215637   7.111   3.757   5.834
 5232TIP3   OH215638   3.517   4.452   4.124
 5232TIP3    H115639   3.574   4.528   4.112
 5232TIP3    H215640   3.465   4.449   4.044
 5233TIP3   OH215641   0.792   1.391   4.105
 5233TIP3    H115642   0.878   1.434   4.105
 5233TIP3    H215643   0.793   1.335   4.183
 5234TIP3   OH215644   6.519   3.796   1.601
 5234TIP3    H115645   6.598   3.789   1.547
 5234TIP3    H215646   6.497   3.705   1.623
 5235TIP3   OH215647   0.872   0.306   5.572
 5235TIP3    H115648   0.863   0.390   5.529
 5235TIP3    H215649   0.938   0.320   5.640
 5236TIP3   OH215650   3.233   6.328   4.432
 5236TIP3    H115651   3.294   6.368   4.494
 5236TIP3    H215652   3.146   6.341   4.471
 5237TIP3   OH215653   1.871   5.388   3.896
 5237TIP3    H115654   1.903   5.399   3.806
 5237TIP3    H215655   1.850   5.295   3.902
 5238TIP3   OH215656   2.613   0.044   4.841
 5238TIP3    H115657   2.637   0.055   4.934
 5238TIP3    H215658   2.686   0.084   4.793
 5239TIP3   OH215659   4.390   5.028   2.638
 5239TIP3    H115660   4.310   5.074   2.613
 5239TIP3    H215661   4.401   4.961   2.570
 5240TIP3   OH215662   8.276   4.884   5.532
 5240TIP3    H115663   8.312   4.888   5.621
 5240TIP3    H215664   8.198   4.939   5.536
 5241TIP3   OH215665   4.838   1.766   6.315
 5241TIP3    H115666   4.908   1.702   6.325
 5241TIP3    H215667   4.873   1.831   6.253
 5242TIP3   OH215668   0.234   0.287   6.073
 5242TIP3    H115669   0.322   0.273   6.039
 5242TIP3    H215670   0.240   0.265   6.166
 5243TIP3   OH215671   8.228   6.808   1.591
 5243TIP3    H115672   8.282   6.732   1.568
 5243TIP3    H215673   8.191   6.786   1.676
 5244TIP3   OH215674   1.156   2.007   5.017
 5244TIP3    H115675   1.238   1.967   4.987
 5244TIP3    H215676   1.143   2.082   4.960
 5245TIP3   OH215677   3.641   4.322   0.421
 5245TIP3    H115678   3.617   4.275   0.500
 5245TIP3    H215679   3.560   4.328   0.370
 5246TIP3   OH215680   2.852   5.382   6.304
 5246TIP3    H115681   2.823   5.330   6.229
 5246TIP3    H215682   2.779   5.443   6.319
 5247TIP3   OH215683   2.469   4.259   4.827
 5247TIP3    H115684   2.555   4.303   4.827
 5247TIP3    H215685   2.478   4.190   4.762
 5248TIP3   OH215686   4.840   3.906   2.831
 5248TIP3    H115687   4.900   3.928   2.760
 5248TIP3    H215688   4.897   3.888   2.906
 5249TIP3   OH215689   0.306   1.431   2.635
 5249TIP3    H115690   0.363   1.354   2.639
 5249TIP3    H215691   0.261   1.432   2.720
 5250TIP3   OH215692   5.886   3.082   1.529
 5250TIP3    H115693   5.871   3.156   1.588
 5250TIP3    H215694   5.968   3.103   1.485
 5251TIP3   OH215695   7.078   6.729   4.782
 5251TIP3    H115696   7.017   6.659   4.758
 5251TIP3    H215697   7.127   6.694   4.856
 5252TIP3   OH215698   2.560   2.789   5.642
 5252TIP3    H115699   2.586   2.699   5.661
 5252TIP3    H215700   2.553   2.830   5.728
 5253TIP3   OH215701   3.341   5.282   2.874
 5253TIP3    H115702   3.258   5.236   2.885
 5253TIP3    H215703   3.332   5.331   2.793
 5254TIP3   OH215704   4.997   3.752   1.601
 5254TIP3    H115705   4.961   3.785   1.519
 5254TIP3    H215706   5.082   3.715   1.576
 5255TIP3   OH215707   7.406   5.842   2.360
 5255TIP3    H115708   7.358   5.870   2.438
 5255TIP3    H215709   7.446   5.923   2.326
 5256TIP3   OH215710   7.638   7.600   4.920
 5256TIP3    H115711   7.586   7.671   4.882
 5256TIP3    H215712   7.644   7.536   4.849
 5257TIP3   OH215713   5.897   4.596   6.412
 5257TIP3    H115714   5.806   4.618   6.392
 5257TIP3    H215715   5.918   4.650   6.489
 5258TIP3   OH215716   4.112   1.230   2.473
 5258TIP3    H115717   4.074   1.211   2.387
 5258TIP3    H215718   4.180   1.295   2.454
 5259TIP3   OH215719   1.207   2.189   5.261
 5259TIP3    H115720   1.201   2.124   5.192
 5259TIP3    H215721   1.162   2.149   5.336
 5260TIP3   OH215722   2.493   7.159   6.607
 5260TIP3    H115723   2.588   7.171   6.596
 5260TIP3    H215724   2.454   7.218   6.543
 5261TIP3   OH215725   7.733   4.680   6.625
 5261TIP3    H115726   7.652   4.684   6.574
 5261TIP3    H215727   7.798   4.723   6.570
 5262TIP3   OH215728   6.783   2.088   2.470
 5262TIP3    H115729   6.779   2.040   2.387
 5262TIP3    H215730   6.843   2.037   2.524
 5263TIP3   OH215731   6.078   2.450   3.749
 5263TIP3    H115732   6.118   2.480   3.668
 5263TIP3    H215733   6.003   2.397   3.720
 5264TIP3   OH215734   0.957   2.807   2.747
 5264TIP3    H115735   0.982   2.880   2.692
 5264TIP3    H215736   0.937   2.846   2.832
 5265TIP3   OH215737   6.638   5.908   5.890
 5265TIP3    H115738   6.650   5.876   5.979
 5265TIP3    H215739   6.674   5.839   5.834
 5266TIP3   OH215740   3.373   0.921   4.844
 5266TIP3    H115741   3.305   0.862   4.876
 5266TIP3    H215742   3.326   0.993   4.804
 5267TIP3   OH215743   2.488   1.116   1.793
 5267TIP3    H115744   2.411   1.059   1.804
 5267TIP3    H215745   2.469   1.192   1.849
 5268TIP3   OH215746   2.515   0.463   6.621
 5268TIP3    H115747   2.480   0.494   6.705
 5268TIP3    H215748   2.606   0.492   6.621
 5269TIP3   OH215749   0.681   1.038   5.097
 5269TIP3    H115750   0.699   0.944   5.101
 5269TIP3    H215751   0.595   1.048   5.139
 5270TIP3   OH215752   7.676   1.008   0.713
 5270TIP3    H115753   7.659   1.086   0.660
 5270TIP3    H215754   7.616   0.941   0.679
 5271TIP3   OH215755   3.018   1.972   3.493
 5271TIP3    H115756   3.109   1.970   3.522
 5271TIP3    H215757   2.975   1.904   3.545
 5272TIP3   OH215758   1.367   7.461   3.261
 5272TIP3    H115759   1.401   7.550   3.273
 5272TIP3    H215760   1.426   7.421   3.198
 5273TIP3   OH215761   3.821   1.391   5.926
 5273TIP3    H115762   3.891   1.335   5.961
 5273TIP3    H215763   3.754   1.329   5.897
 5274TIP3   OH215764   1.320   3.887   1.681
 5274TIP3    H115765   1.378   3.952   1.643
 5274TIP3    H215766   1.353   3.803   1.648
 5275TIP3   OH215767   6.165   7.358   2.629
 5275TIP3    H115768   6.144   7.434   2.684
 5275TIP3    H215769   6.229   7.391   2.566
 5276TIP3   OH215770   4.234   1.393   6.682
 5276TIP3    H115771   4.151   1.434   6.705
 5276TIP3    H215772   4.220   1.357   6.594
 5277TIP3   OH215773   2.708   2.404   4.488
 5277TIP3    H115774   2.613   2.399   4.494
 5277TIP3    H215775   2.740   2.364   4.569
 5278TIP3   OH215776   5.089   4.261   2.139
 5278TIP3    H115777   5.036   4.235   2.215
 5278TIP3    H215778   5.031   4.246   2.064
 5279TIP3   OH215779   6.275   4.286   0.540
 5279TIP3    H115780   6.265   4.317   0.450
 5279TIP3    H215781   6.224   4.348   0.592
 5280TIP3   OH215782   5.370   5.571   3.366
 5280TIP3    H115783   5.400   5.550   3.277
 5280TIP3    H215784   5.449   5.567   3.419
 5281TIP3   OH215785   3.409   7.127   4.958
 5281TIP3    H115786   3.473   7.180   4.910
 5281TIP3    H215787   3.346   7.191   4.990
 5282TIP3   OH215788   4.488   5.893   0.255
 5282TIP3    H115789   4.486   5.960   0.186
 5282TIP3    H215790   4.504   5.941   0.335
 5283TIP3   OH215791   3.988   1.215   1.399
 5283TIP3    H115792   3.936   1.170   1.333
 5283TIP3    H215793   3.937   1.293   1.421
 5284TIP3   OH215794   6.625   5.341   0.424
 5284TIP3    H115795   6.562   5.270   0.422
 5284TIP3    H215796   6.707   5.301   0.396
 5285TIP3   OH215797   1.646   3.802   3.219
 5285TIP3    H115798   1.573   3.785   3.278
 5285TIP3    H215799   1.624   3.884   3.175
 5286TIP3   OH215800   1.485   6.623   5.516
 5286TIP3    H115801   1.569   6.610   5.560
 5286TIP3    H215802   1.423   6.640   5.587
 5287TIP3   OH215803   3.635   1.958   1.971
 5287TIP3    H115804   3.611   1.907   1.893
 5287TIP3    H215805   3.602   1.907   2.044
 5288TIP3   OH215806   7.147   7.544   4.209
 5288TIP3    H115807   7.220   7.521   4.267
 5288TIP3    H215808   7.179   7.525   4.121
 5289TIP3   OH215809   1.646   3.763   6.313
 5289TIP3    H115810   1.692   3.741   6.394
 5289TIP3    H215811   1.609   3.849   6.329
 5290TIP3   OH215812   0.064   3.539   3.592
 5290TIP3    H115813   0.112   3.554   3.673
 5290TIP3    H215814   0.013   3.460   3.609
 5291TIP3   OH215815   2.016   2.812   3.409
 5291TIP3    H115816   1.939   2.844   3.457
 5291TIP3    H215817   1.992   2.723   3.382
 5292TIP3   OH215818   4.996   0.860   5.870
 5292TIP3    H115819   5.031   0.947   5.852
 5292TIP3    H215820   5.070   0.812   5.909
 5293TIP3   OH215821   2.249   6.439   5.538
 5293TIP3    H115822   2.344   6.423   5.545
 5293TIP3    H215823   2.219   6.440   5.629
 5294TIP3   OH215824   5.088   2.702   5.144
 5294TIP3    H115825   5.158   2.736   5.199
 5294TIP3    H215826   5.039   2.642   5.202
 5295TIP3   OH215827   7.005   7.552   6.657
 5295TIP3    H115828   7.065   7.564   6.583
 5295TIP3    H215829   6.920   7.534   6.616
 5296TIP3   OH215830   8.232   1.742   6.169
 5296TIP3    H115831   8.155   1.748   6.226
 5296TIP3    H215832   8.226   1.656   6.128
 5297TIP3   OH215833   1.118   1.884   0.866
 5297TIP3    H115834   1.195   1.828   0.863
 5297TIP3    H215835   1.122   1.928   0.951
 5298TIP3   OH215836   6.735   7.088   5.023
 5298TIP3    H115837   6.721   7.006   4.975
 5298TIP3    H215838   6.680   7.152   4.978
 5299TIP3   OH215839   1.330   5.542   4.870
 5299TIP3    H115840   1.383   5.560   4.793
 5299TIP3    H215841   1.387   5.564   4.944
 5300TIP3   OH215842   2.080   6.511   6.353
 5300TIP3    H115843   2.055   6.433   6.403
 5300TIP3    H215844   2.034   6.501   6.270
 5301TIP3   OH215845   1.088   0.836   0.163
 5301TIP3    H115846   0.998   0.816   0.138
 5301TIP3    H215847   1.121   0.754   0.202
 5302TIP3   OH215848   6.347   3.180   1.516
 5302TIP3    H115849   6.288   3.166   1.443
 5302TIP3    H215850   6.295   3.227   1.582
 5303TIP3   OH215851   6.485   0.444   3.199
 5303TIP3    H115852   6.476   0.455   3.294
 5303TIP3    H215853   6.421   0.377   3.176
 5304TIP3   OH215854   3.166   4.464   4.352
 5304TIP3    H115855   3.205   4.550   4.363
 5304TIP3    H215856   3.101   4.475   4.282
 5305TIP3   OH215857   5.435   0.188   4.343
 5305TIP3    H115858   5.443   0.217   4.434
 5305TIP3    H215859   5.525   0.167   4.317
 5306TIP3   OH215860   5.441   6.148   6.408
 5306TIP3    H115861   5.440   6.218   6.343
 5306TIP3    H215862   5.421   6.069   6.357
 5307TIP3   OH215863   3.741   5.438   5.685
 5307TIP3    H115864   3.717   5.347   5.668
 5307TIP3    H215865   3.835   5.434   5.704
 5308TIP3   OH215866   5.082   7.611   1.261
 5308TIP3    H115867   5.072   7.696   1.218
 5308TIP3    H215868   5.024   7.553   1.213
 5309TIP3   OH215869   4.213   0.477   6.162
 5309TIP3    H115870   4.125   0.512   6.148
 5309TIP3    H215871   4.271   0.543   6.123
 5310TIP3   OH215872   5.249   1.884   3.637
 5310TIP3    H115873   5.188   1.820   3.600
 5310TIP3    H215874   5.196   1.963   3.649
 5311TIP3   OH215875   4.638   5.442   2.261
 5311TIP3    H115876   4.718   5.394   2.244
 5311TIP3    H215877   4.585   5.430   2.183
 5312TIP3   OH215878   3.229   4.471   3.343
 5312TIP3    H115879   3.313   4.479   3.298
 5312TIP3    H215880   3.188   4.557   3.334
 5313TIP3   OH215881   7.037   0.039   3.467
 5313TIP3    H115882   7.044   0.004   3.556
 5313TIP3    H215883   6.986   0.120   3.478
 5314TIP3   OH215884   0.660   2.241   6.220
 5314TIP3    H115885   0.678   2.306   6.288
 5314TIP3    H215886   0.744   2.231   6.174
 5315TIP3   OH215887   3.996   4.186   2.893
 5315TIP3    H115888   4.057   4.258   2.910
 5315TIP3    H215889   3.958   4.206   2.808
 5316TIP3   OH215890   5.487   5.985   2.456
 5316TIP3    H115891   5.520   5.934   2.381
 5316TIP3    H215892   5.504   6.076   2.432
 5317TIP3   OH215893   3.433   5.486   3.117
 5317TIP3    H115894   3.450   5.511   3.207
 5317TIP3    H215895   3.466   5.396   3.109
 5318TIP3   OH215896   0.223   7.210   1.022
 5318TIP3    H115897   0.178   7.295   1.025
 5318TIP3    H215898   0.236   7.194   0.928
 5319TIP3   OH215899   2.546   3.569   5.683
 5319TIP3    H115900   2.618   3.612   5.636
 5319TIP3    H215901   2.586   3.491   5.721
 5320TIP3   OH215902   7.102   3.115   1.693
 5320TIP3    H115903   7.016   3.138   1.657
 5320TIP3    H215904   7.161   3.119   1.618
 5321TIP3   OH215905   2.230   5.011   0.274
 5321TIP3    H115906   2.324   5.003   0.290
 5321TIP3    H215907   2.203   4.924   0.245
 5322TIP3   OH215908   2.361   1.040   3.749
 5322TIP3    H115909   2.419   0.971   3.779
 5322TIP3    H215910   2.371   1.040   3.654
 5323TIP3   OH215911   1.265   0.312   1.596
 5323TIP3    H115912   1.181   0.356   1.611
 5323TIP3    H215913   1.269   0.244   1.663
 5324TIP3   OH215914   7.074   1.487   0.268
 5324TIP3    H115915   7.068   1.460   0.177
 5324TIP3    H215916   7.084   1.582   0.265
 5325TIP3   OH215917   4.294   1.042   5.011
 5325TIP3    H115918   4.213   1.091   5.014
 5325TIP3    H215919   4.287   0.987   4.933
 5326TIP3   OH215920   4.119   7.363   4.354
 5326TIP3    H115921   4.155   7.449   4.334
 5326TIP3    H215922   4.138   7.310   4.276
 5327TIP3   OH215923   4.497   1.004   2.933
 5327TIP3    H115924   4.525   0.920   2.899
 5327TIP3    H215925   4.453   1.047   2.859
 5328TIP3   OH215926   8.169   2.974   0.676
 5328TIP3    H115927   8.233   2.938   0.737
 5328TIP3    H215928   8.204   3.060   0.652
 5329TIP3   OH215929   1.687   5.560   4.021
 5329TIP3    H115930   1.746   5.494   3.983
 5329TIP3    H215931   1.669   5.620   3.949
 5330TIP3   OH215932   5.874   4.213   1.725
 5330TIP3    H115933   5.807   4.187   1.662
 5330TIP3    H215934   5.831   4.209   1.810
 5331TIP3   OH215935   4.921   2.995   5.655
 5331TIP3    H115936   4.861   3.022   5.586
 5331TIP3    H215937   4.900   2.903   5.670
 5332TIP3   OH215938   1.509   5.784   5.860
 5332TIP3    H115939   1.562   5.715   5.900
 5332TIP3    H215940   1.559   5.812   5.783
 5333TIP3   OH215941   3.234   4.379   4.902
 5333TIP3    H115942   3.263   4.432   4.828
 5333TIP3    H215943   3.187   4.440   4.959
 5334TIP3   OH215944   3.282   3.685   4.714
 5334TIP3    H115945   3.262   3.747   4.644
 5334TIP3    H215946   3.198   3.671   4.757
 5335TIP3   OH215947   7.940   5.447   6.235
 5335TIP3    H115948   7.915   5.383   6.302
 5335TIP3    H215949   7.974   5.395   6.163
 5336TIP3   OH215950   6.588   4.498   4.241
 5336TIP3    H115951   6.642   4.425   4.270
 5336TIP3    H215952   6.553   4.536   4.322
 5337TIP3   OH215953   1.263   5.883   1.804
 5337TIP3    H115954   1.220   5.816   1.750
 5337TIP3    H215955   1.278   5.839   1.888
 5338TIP3   OH215956   5.438   0.053   3.720
 5338TIP3    H115957   5.360   0.104   3.699
 5338TIP3    H215958   5.414   0.003   3.797
 5339TIP3   OH215959   7.619   1.917   1.136
 5339TIP3    H115960   7.607   1.980   1.065
 5339TIP3    H215961   7.684   1.855   1.102
 5340TIP3   OH215962   7.359   4.455   1.456
 5340TIP3    H115963   7.348   4.508   1.535
 5340TIP3    H215964   7.311   4.502   1.388
 5341TIP3   OH215965   1.512   1.623   4.647
 5341TIP3    H115966   1.570   1.681   4.598
 5341TIP3    H215967   1.520   1.651   4.738
 5342TIP3   OH215968   5.681   4.598   5.410
 5342TIP3    H115969   5.776   4.591   5.403
 5342TIP3    H215970   5.656   4.662   5.342
 5343TIP3   OH215971   1.290   5.884   4.520
 5343TIP3    H115972   1.366   5.935   4.549
 5343TIP3    H215973   1.215   5.924   4.563
 5344TIP3   OH215974   2.447   1.753   0.613
 5344TIP3    H115975   2.397   1.799   0.545
 5344TIP3    H215976   2.382   1.733   0.680
 5345TIP3   OH215977   3.455   7.672   4.924
 5345TIP3    H115978   3.411   7.754   4.902
 5345TIP3    H215979   3.445   7.664   5.019
 5346TIP3   OH215980   4.414   6.272   5.152
 5346TIP3    H115981   4.412   6.336   5.081
 5346TIP3    H215982   4.329   6.229   5.148
 5347TIP3   OH215983   6.559   2.181   2.108
 5347TIP3    H115984   6.500   2.163   2.034
 5347TIP3    H215985   6.642   2.143   2.081
 5348TIP3   OH215986   7.662   6.732   0.327
 5348TIP3    H115987   7.700   6.759   0.410
 5348TIP3    H215988   7.569   6.723   0.345
 5349TIP3   OH215989   5.133   1.112   1.810
 5349TIP3    H115990   5.123   1.025   1.771
 5349TIP3    H215991   5.135   1.172   1.736
 5350TIP3   OH215992   7.601   4.346   1.487
 5350TIP3    H115993   7.505   4.341   1.479
 5350TIP3    H215994   7.616   4.413   1.553
 5351TIP3   OH215995   4.690   7.205   6.543
 5351TIP3    H115996   4.659   7.290   6.512
 5351TIP3    H215997   4.650   7.141   6.484
 5352TIP3   OH215998   5.612   5.119   2.591
 5352TIP3    H115999   5.708   5.116   2.596
 5352TIP3    H216000   5.585   5.028   2.604
 5353TIP3   OH216001   3.414   3.211   3.764
 5353TIP3    H116002   3.441   3.302   3.781
 5353TIP3    H216003   3.487   3.158   3.794
 5354TIP3   OH216004   8.073   0.066   3.808
 5354TIP3    H116005   8.070   0.102   3.897
 5354TIP3    H216006   8.104   0.139   3.754
 5355TIP3   OH216007   6.820   7.395   0.067
 5355TIP3    H116008   6.731   7.412   0.099
 5355TIP3    H216009   6.827   7.300   0.068
 5356TIP3   OH216010   4.092   2.688   6.378
 5356TIP3    H116011   4.160   2.653   6.320
 5356TIP3    H216012   4.141   2.734   6.446
 5357TIP3   OH216013   7.616   0.683   5.117
 5357TIP3    H116014   7.621   0.596   5.155
 5357TIP3    H216015   7.699   0.724   5.140
 5358TIP3   OH216016   2.485   3.966   0.976
 5358TIP3    H116017   2.495   4.011   1.060
 5358TIP3    H216018   2.539   3.888   0.984
 5359TIP3   OH216019   6.094   1.926   5.144
 5359TIP3    H116020   6.144   1.933   5.225
 5359TIP3    H216021   6.090   2.016   5.111
 5360TIP3   OH216022   6.907   7.350   3.162
 5360TIP3    H116023   6.944   7.305   3.237
 5360TIP3    H216024   6.835   7.402   3.197
 5361TIP3   OH216025   6.085   3.473   1.332
 5361TIP3    H116026   6.043   3.455   1.248
 5361TIP3    H216027   6.169   3.513   1.309
 5362TIP3   OH216028   0.670   6.595   1.569
 5362TIP3    H116029   0.714   6.513   1.547
 5362TIP3    H216030   0.662   6.593   1.664
 5363TIP3   OH216031   7.093   1.031   3.812
 5363TIP3    H116032   7.092   0.943   3.774
 5363TIP3    H216033   7.139   1.085   3.748
 5364TIP3   OH216034   6.416   0.680   6.675
 5364TIP3    H116035   6.357   0.638   6.737
 5364TIP3    H216036   6.398   0.773   6.683
 5365TIP3   OH216037   4.611   6.628   6.303
 5365TIP3    H116038   4.557   6.558   6.338
 5365TIP3    H216039   4.694   6.585   6.280
 5366TIP3   OH216040   5.690   5.571   0.166
 5366TIP3    H116041   5.637   5.646   0.139
 5366TIP3    H216042   5.626   5.504   0.190
 5367TIP3   OH216043   3.055   6.668   1.480
 5367TIP3    H116044   2.970   6.627   1.464
 5367TIP3    H216045   3.039   6.761   1.467
 5368TIP3   OH216046   1.354   0.302   3.835
 5368TIP3    H116047   1.274   0.301   3.782
 5368TIP3    H216048   1.425   0.296   3.770
 5369TIP3   OH216049   0.603   6.707   6.782
 5369TIP3    H116050   0.688   6.721   6.740
 5369TIP3    H216051   0.539   6.727   6.714
 5370TIP3   OH216052   2.468   2.157   1.163
 5370TIP3    H116053   2.550   2.110   1.180
 5370TIP3    H216054   2.400   2.102   1.201
 5371TIP3   OH216055   4.558   4.856   2.794
 5371TIP3    H116056   4.501   4.907   2.737
 5371TIP3    H216057   4.527   4.875   2.882
 5372TIP3   OH216058   3.125   1.196   6.738
 5372TIP3    H116059   3.208   1.191   6.690
 5372TIP3    H216060   3.109   1.290   6.747
 5373TIP3   OH216061   3.350   5.326   4.895
 5373TIP3    H116062   3.413   5.364   4.834
 5373TIP3    H216063   3.308   5.401   4.936
 5374TIP3   OH216064   1.853   3.465   0.981
 5374TIP3    H116065   1.897   3.536   0.933
 5374TIP3    H216066   1.820   3.506   1.061
 5375TIP3   OH216067   1.537   5.727   3.129
 5375TIP3    H116068   1.598   5.773   3.072
 5375TIP3    H216069   1.462   5.786   3.138
 5376TIP3   OH216070   3.082   4.402   3.879
 5376TIP3    H116071   3.157   4.342   3.882
 5376TIP3    H216072   3.109   4.475   3.935
 5377TIP3   OH216073   8.234   5.108   4.808
 5377TIP3    H116074   8.143   5.092   4.830
 5377TIP3    H216075   8.234   5.130   4.715
 5378TIP3   OH216076   4.738   3.662   1.676
 5378TIP3    H116077   4.822   3.684   1.637
 5378TIP3    H216078   4.759   3.596   1.742
 5379TIP3   OH216079   4.141   4.662   0.844
 5379TIP3    H116080   4.185   4.736   0.886
 5379TIP3    H216081   4.101   4.614   0.917
 5380TIP3   OH216082   5.801   4.087   5.671
 5380TIP3    H116083   5.874   4.148   5.686
 5380TIP3    H216084   5.750   4.128   5.601
 5381TIP3   OH216085   2.848   5.099   0.437
 5381TIP3    H116086   2.892   5.112   0.353
 5381TIP3    H216087   2.848   5.004   0.450
 5382TIP3   OH216088   7.544   6.349   1.207
 5382TIP3    H116089   7.586   6.360   1.121
 5382TIP3    H216090   7.616   6.337   1.268
 5383TIP3   OH216091   4.388   6.072   1.639
 5383TIP3    H116092   4.298   6.077   1.606
 5383TIP3    H216093   4.410   6.163   1.661
 5384TIP3   OH216094   3.901   0.906   1.419
 5384TIP3    H116095   3.844   0.953   1.359
 5384TIP3    H216096   3.881   0.814   1.404
 5385TIP3   OH216097   5.771   1.913   4.826
 5385TIP3    H116098   5.861   1.887   4.843
 5385TIP3    H216099   5.743   1.959   4.905
 5386TIP3   OH216100   2.403   2.479   3.508
 5386TIP3    H116101   2.445   2.433   3.580
 5386TIP3    H216102   2.445   2.565   3.508
 5387TIP3   OH216103   1.510   7.471   3.023
 5387TIP3    H116104   1.540   7.560   3.042
 5387TIP3    H216105   1.440   7.483   2.959
 5388TIP3   OH216106   0.548   2.303   4.748
 5388TIP3    H116107   0.471   2.325   4.800
 5388TIP3    H216108   0.600   2.245   4.804
 5389TIP3   OH216109   0.076   2.735   2.941
 5389TIP3    H116110   0.105   2.805   2.882
 5389TIP3    H216111   0.016   2.682   2.888
 5390TIP3   OH216112   6.504   0.935   5.595
 5390TIP3    H116113   6.431   0.877   5.617
 5390TIP3    H216114   6.490   0.958   5.504
 5391TIP3   OH216115   7.219   6.289   3.710
 5391TIP3    H116116   7.222   6.314   3.802
 5391TIP3    H216117   7.282   6.347   3.667
 5392TIP3   OH216118   3.267   5.919   2.298
 5392TIP3    H116119   3.279   5.860   2.373
 5392TIP3    H216120   3.173   5.936   2.296
 5393TIP3   OH216121   1.464   7.316   1.112
 5393TIP3    H116122   1.519   7.378   1.064
 5393TIP3    H216123   1.433   7.364   1.188
 5394TIP3   OH216124   5.018   5.668   5.013
 5394TIP3    H116125   5.107   5.679   5.047
 5394TIP3    H216126   5.016   5.723   4.935
 5395TIP3   OH216127   7.465   0.222   6.557
 5395TIP3    H116128   7.527   0.151   6.574
 5395TIP3    H216129   7.388   0.178   6.520
 5396TIP3   OH216130   2.216   5.867   3.620
 5396TIP3    H116131   2.201   5.791   3.565
 5396TIP3    H216132   2.155   5.933   3.588
 5397TIP3   OH216133   7.966   0.283   4.544
 5397TIP3    H116134   7.936   0.372   4.525
 5397TIP3    H216135   7.886   0.232   4.557
 5398TIP3   OH216136   2.655   2.180   5.650
 5398TIP3    H116137   2.561   2.172   5.664
 5398TIP3    H216138   2.688   2.224   5.729
 5399TIP3   OH216139   7.183   4.634   5.915
 5399TIP3    H116140   7.196   4.672   6.002
 5399TIP3    H216141   7.133   4.700   5.867
 5400TIP3   OH216142   5.024   6.351   2.911
 5400TIP3    H116143   5.069   6.317   2.834
 5400TIP3    H216144   5.054   6.442   2.918
 5401TIP3   OH216145   4.808   6.938   1.274
 5401TIP3    H116146   4.892   6.899   1.249
 5401TIP3    H216147   4.769   6.873   1.333
 5402TIP3   OH216148   2.200   6.363   4.547
 5402TIP3    H116149   2.156   6.432   4.497
 5402TIP3    H216150   2.277   6.406   4.585
 5403TIP3   OH216151   7.413   4.261   4.415
 5403TIP3    H116152   7.385   4.342   4.371
 5403TIP3    H216153   7.376   4.191   4.361
 5404TIP3   OH216154   5.956   4.413   4.587
 5404TIP3    H116155   5.905   4.484   4.549
 5404TIP3    H216156   5.909   4.333   4.562
 5405TIP3   OH216157   2.211   1.552   2.054
 5405TIP3    H116158   2.257   1.504   1.986
 5405TIP3    H216159   2.208   1.492   2.129
 5406TIP3   OH216160   3.104   5.082   1.591
 5406TIP3    H116161   3.174   5.021   1.570
 5406TIP3    H216162   3.066   5.049   1.673
 5407TIP3   OH216163   4.786   1.184   1.495
 5407TIP3    H116164   4.866   1.137   1.517
 5407TIP3    H216165   4.773   1.247   1.566
 5408TIP3   OH216166   1.664   7.005   0.574
 5408TIP3    H116167   1.681   7.089   0.531
 5408TIP3    H216168   1.605   6.959   0.514
 5409TIP3   OH216169   0.503   4.653   6.393
 5409TIP3    H116170   0.430   4.613   6.346
 5409TIP3    H216171   0.560   4.688   6.325
 5410TIP3   OH216172   3.721   5.040   2.608
 5410TIP3    H116173   3.797   5.064   2.555
 5410TIP3    H216174   3.653   5.103   2.583
 5411TIP3   OH216175   7.966   3.453   3.467
 5411TIP3    H116176   7.957   3.361   3.444
 5411TIP3    H216177   7.947   3.457   3.561
 5412TIP3   OH216178   2.040   3.799   6.691
 5412TIP3    H116179   2.135   3.784   6.684
 5412TIP3    H216180   2.018   3.768   6.779
 5413TIP3   OH216181   3.533   3.836   5.607
 5413TIP3    H116182   3.528   3.744   5.633
 5413TIP3    H216183   3.563   3.881   5.686
 5414TIP3   OH216184   5.745   5.344   5.191
 5414TIP3    H116185   5.686   5.419   5.205
 5414TIP3    H216186   5.817   5.380   5.140
 5415TIP3   OH216187   4.985   6.400   1.235
 5415TIP3    H116188   4.926   6.401   1.311
 5415TIP3    H216189   4.983   6.490   1.202
 5416TIP3   OH216190   4.453   7.270   0.780
 5416TIP3    H116191   4.431   7.261   0.687
 5416TIP3    H216192   4.460   7.365   0.793
 5417TIP3   OH216193   7.410   2.764   3.433
 5417TIP3    H116194   7.429   2.828   3.363
 5417TIP3    H216195   7.378   2.817   3.506
 5418TIP3   OH216196   4.561   0.922   0.246
 5418TIP3    H116197   4.607   0.990   0.196
 5418TIP3    H216198   4.626   0.891   0.309
 5419TIP3   OH216199   4.287   2.185  -0.018
 5419TIP3    H116200   4.278   2.171   0.076
 5419TIP3    H216201   4.378   2.163  -0.036
 5420TIP3   OH216202   0.008   3.243   0.703
 5420TIP3    H116203   0.097   3.277   0.691
 5420TIP3    H216204  -0.049   3.313   0.669
 5421TIP3   OH216205   6.040   1.198   1.580
 5421TIP3    H116206   6.060   1.104   1.575
 5421TIP3    H216207   6.116   1.236   1.624
 5422TIP3   OH216208   6.070   0.933   2.027
 5422TIP3    H116209   6.030   0.902   2.107
 5422TIP3    H216210   6.159   0.957   2.053
 5423TIP3   OH216211   0.434   5.800   3.773
 5423TIP3    H116212   0.408   5.863   3.840
 5423TIP3    H216213   0.370   5.811   3.703
 5424TIP3   OH216214   7.670   4.854   0.717
 5424TIP3    H116215   7.601   4.822   0.658
 5424TIP3    H216216   7.648   4.945   0.733
 5425TIP3   OH216217   1.466   4.238   5.736
 5425TIP3    H116218   1.545   4.197   5.771
 5425TIP3    H216219   1.408   4.248   5.812
 5426TIP3   OH216220   6.065   1.048   0.159
 5426TIP3    H116221   6.076   0.972   0.217
 5426TIP3    H216222   6.132   1.036   0.091
 5427TIP3   OH216223   4.428   4.796   0.535
 5427TIP3    H116224   4.489   4.845   0.480
 5427TIP3    H216225   4.457   4.814   0.624
 5428TIP3   OH216226   5.612   4.427   1.736
 5428TIP3    H116227   5.523   4.459   1.751
 5428TIP3    H216228   5.623   4.356   1.799
 5429TIP3   OH216229   8.219   3.375   6.475
 5429TIP3    H116230   8.126   3.398   6.475
 5429TIP3    H216231   8.248   3.394   6.565
 5430TIP3   OH216232   7.376   3.817   0.236
 5430TIP3    H116233   7.359   3.893   0.180
 5430TIP3    H216234   7.468   3.826   0.262
 5431TIP3   OH216235   2.058   6.067   5.384
 5431TIP3    H116236   2.074   6.160   5.368
 5431TIP3    H216237   2.138   6.023   5.355
 5432TIP3   OH216238   7.226   6.210   0.192
 5432TIP3    H116239   7.136   6.240   0.175
 5432TIP3    H216240   7.223   6.173   0.280
 5433TIP3   OH216241   3.986   1.390   2.068
 5433TIP3    H116242   3.896   1.360   2.081
 5433TIP3    H216243   3.998   1.391   1.973
 5434TIP3   OH216244   3.686   6.575   4.090
 5434TIP3    H116245   3.650   6.662   4.103
 5434TIP3    H216246   3.614   6.524   4.054
 5435TIP3   OH216247   0.195   5.604   6.301
 5435TIP3    H116248   0.126   5.616   6.367
 5435TIP3    H216249   0.165   5.655   6.226
 5436TIP3   OH216250   2.576   1.980   3.602
 5436TIP3    H116251   2.573   2.058   3.657
 5436TIP3    H216252   2.554   1.908   3.661
 5437TIP3   OH216253   5.722   1.255   3.990
 5437TIP3    H116254   5.667   1.235   4.066
 5437TIP3    H216255   5.805   1.286   4.028
 5438TIP3   OH216256   2.934   1.627   1.447
 5438TIP3    H116257   2.969   1.715   1.432
 5438TIP3    H216258   2.975   1.599   1.529
 5439TIP3   OH216259   2.387   3.283   0.159
 5439TIP3    H116260   2.445   3.232   0.103
 5439TIP3    H216261   2.316   3.222   0.182
 5440TIP3   OH216262   1.067   5.741   5.140
 5440TIP3    H116263   1.153   5.751   5.181
 5440TIP3    H216264   1.084   5.687   5.063
 5441TIP3   OH216265   3.574   1.947   0.443
 5441TIP3    H116266   3.551   1.884   0.375
 5441TIP3    H216267   3.537   1.910   0.524
 5442TIP3   OH216268   4.368   1.557   5.475
 5442TIP3    H116269   4.376   1.638   5.525
 5442TIP3    H216270   4.281   1.524   5.497
 5443TIP3   OH216271   3.032   3.928   3.092
 5443TIP3    H116272   3.100   3.959   3.153
 5443TIP3    H216273   3.080   3.901   3.014
 5444TIP3   OH216274   6.590   0.018   6.705
 5444TIP3    H116275   6.606   0.035   6.612
 5444TIP3    H216276   6.568   0.104   6.741
 5445TIP3   OH216277   7.536   6.226   4.399
 5445TIP3    H116278   7.525   6.313   4.362
 5445TIP3    H216279   7.460   6.177   4.370
 5446TIP3   OH216280   1.570   7.441   5.539
 5446TIP3    H116281   1.558   7.513   5.601
 5446TIP3    H216282   1.612   7.372   5.591
 5447TIP3   OH216283   3.359   3.347   1.961
 5447TIP3    H116284   3.369   3.384   2.048
 5447TIP3    H216285   3.342   3.254   1.976
 5448TIP3   OH216286   0.794   1.239   0.901
 5448TIP3    H116287   0.730   1.205   0.838
 5448TIP3    H216288   0.758   1.217   0.986
 5449TIP3   OH216289   3.371   1.787   2.361
 5449TIP3    H116290   3.358   1.866   2.414
 5449TIP3    H216291   3.389   1.819   2.273
 5450TIP3   OH216292   1.102   3.470   0.293
 5450TIP3    H116293   1.167   3.456   0.362
 5450TIP3    H216294   1.104   3.389   0.241
 5451TIP3   OH216295   2.347   1.101   3.254
 5451TIP3    H116296   2.336   1.015   3.212
 5451TIP3    H216297   2.420   1.141   3.208
 5452TIP3   OH216298   8.025   0.742   1.396
 5452TIP3    H116299   8.005   0.819   1.449
 5452TIP3    H216300   7.940   0.708   1.371
 5453TIP3   OH216301   5.292   1.996   2.910
 5453TIP3    H116302   5.353   2.003   2.983
 5453TIP3    H216303   5.211   1.964   2.949
 5454TIP3   OH216304   2.563   6.713   3.435
 5454TIP3    H116305   2.536   6.793   3.480
 5454TIP3    H216306   2.527   6.642   3.488
 5455TIP3   OH216307   0.132   4.342   5.713
 5455TIP3    H116308   0.170   4.313   5.630
 5455TIP3    H216309   0.121   4.436   5.703
 5456TIP3   OH216310   1.628   6.552   3.780
 5456TIP3    H116311   1.716   6.570   3.748
 5456TIP3    H216312   1.638   6.551   3.875
 5457TIP3   OH216313   0.056   2.621   3.664
 5457TIP3    H116314  -0.008   2.688   3.642
 5457TIP3    H216315   0.053   2.559   3.591
 5458TIP3   OH216316   3.831   5.190   6.667
 5458TIP3    H116317   3.806   5.267   6.717
 5458TIP3    H216318   3.918   5.167   6.701
 5459TIP3   OH216319   1.697   7.077   5.422
 5459TIP3    H116320   1.682   7.053   5.330
 5459TIP3    H216321   1.773   7.024   5.447
 5460TIP3   OH216322   5.173   1.321   5.347
 5460TIP3    H116323   5.110   1.259   5.310
 5460TIP3    H216324   5.209   1.367   5.272
 5461TIP3   OH216325   2.677   4.730   5.169
 5461TIP3    H116326   2.741   4.685   5.114
 5461TIP3    H216327   2.604   4.668   5.177
 5462TIP3   OH216328   0.170   4.793   6.354
 5462TIP3    H116329   0.204   4.808   6.265
 5462TIP3    H216330   0.189   4.875   6.400
 5463TIP3   OH216331   4.038   3.948   4.126
 5463TIP3    H116332   4.036   3.994   4.209
 5463TIP3    H216333   4.069   3.860   4.147
 5464TIP3   OH216334   4.658   6.219   6.471
 5464TIP3    H116335   4.615   6.213   6.556
 5464TIP3    H216336   4.727   6.152   6.474
 5465TIP3   OH216337   0.677   4.397   0.045
 5465TIP3    H116338   0.678   4.386   0.141
 5465TIP3    H216339   0.599   4.349   0.017
 5466TIP3   OH216340   0.950   7.595   5.193
 5466TIP3    H116341   0.887   7.565   5.128
 5466TIP3    H216342   1.015   7.525   5.197
 5467TIP3   OH216343   1.570   4.215   2.720
 5467TIP3    H116344   1.644   4.275   2.730
 5467TIP3    H216345   1.574   4.159   2.797
 5468TIP3   OH216346   4.869   6.578   6.421
 5468TIP3    H116347   4.810   6.578   6.496
 5468TIP3    H216348   4.938   6.640   6.445
 5469TIP3   OH216349   7.195   6.967   0.553
 5469TIP3    H116350   7.277   7.002   0.587
 5469TIP3    H216351   7.131   6.985   0.621
 5470TIP3   OH216352   0.514   6.943   1.156
 5470TIP3    H116353   0.571   6.867   1.152
 5470TIP3    H216354   0.507   6.972   1.065
 5471TIP3   OH216355   2.785   5.587   0.703
 5471TIP3    H116356   2.704   5.625   0.671
 5471TIP3    H216357   2.782   5.496   0.673
 5472TIP3   OH216358   0.246   3.848   2.002
 5472TIP3    H116359   0.284   3.859   2.089
 5472TIP3    H216360   0.179   3.917   1.996
 5473TIP3   OH216361   6.996   7.781   3.632
 5473TIP3    H116362   7.070   7.734   3.594
 5473TIP3    H216363   6.919   7.730   3.607
 5474TIP3   OH216364   4.001   0.308   1.567
 5474TIP3    H116365   3.908   0.328   1.579
 5474TIP3    H216366   4.041   0.392   1.547
 5475TIP3   OH216367   5.173   2.243   0.617
 5475TIP3    H116368   5.230   2.168   0.595
 5475TIP3    H216369   5.223   2.292   0.682
 5476TIP3   OH216370   0.253   1.281   3.237
 5476TIP3    H116371   0.219   1.301   3.324
 5476TIP3    H216372   0.345   1.306   3.241
 5477TIP3   OH216373   5.811   7.141   3.860
 5477TIP3    H116374   5.830   7.137   3.954
 5477TIP3    H216375   5.896   7.124   3.818
 5478TIP3   OH216376   1.821   2.974   3.923
 5478TIP3    H116377   1.758   2.957   3.853
 5478TIP3    H216378   1.768   2.996   3.999
 5479TIP3   OH216379   6.919   6.486   6.062
 5479TIP3    H116380   6.964   6.446   6.137
 5479TIP3    H216381   6.977   6.557   6.034
 5480TIP3   OH216382   5.862   7.726   3.270
 5480TIP3    H116383   5.922   7.718   3.196
 5480TIP3    H216384   5.899   7.670   3.338
 5481TIP3   OH216385   7.317   5.334   2.773
 5481TIP3    H116386   7.254   5.296   2.711
 5481TIP3    H216387   7.400   5.333   2.726
 5482TIP3   OH216388   4.554   6.194   6.735
 5482TIP3    H116389   4.576   6.102   6.723
 5482TIP3    H216390   4.593   6.217   6.819
 5483TIP3   OH216391   0.784   4.946   6.052
 5483TIP3    H116392   0.856   4.959   6.113
 5483TIP3    H216393   0.819   4.973   5.967
 5484TIP3   OH216394   4.137   6.508   2.903
 5484TIP3    H116395   4.153   6.602   2.914
 5484TIP3    H216396   4.052   6.503   2.860
 5485TIP3   OH216397   1.423   2.550   6.333
 5485TIP3    H116398   1.485   2.572   6.264
 5485TIP3    H216399   1.339   2.583   6.302
 5486TIP3   OH216400   4.645   5.134   2.058
 5486TIP3    H116401   4.601   5.188   1.992
 5486TIP3    H216402   4.717   5.189   2.089
 5487TIP3   OH216403   0.525   0.460   6.161
 5487TIP3    H116404   0.468   0.513   6.105
 5487TIP3    H216405   0.465   0.419   6.224
 5488TIP3   OH216406   4.653   1.037   5.904
 5488TIP3    H116407   4.673   0.946   5.927
 5488TIP3    H216408   4.642   1.081   5.988
 5489TIP3   OH216409   0.052   3.506   4.638
 5489TIP3    H116410   0.019   3.506   4.727
 5489TIP3    H216411   0.119   3.575   4.637
 5490TIP3   OH216412   5.025   4.054   3.294
 5490TIP3    H116413   5.019   3.998   3.372
 5490TIP3    H216414   4.952   4.026   3.239
 5491TIP3   OH216415   7.651   6.719   5.181
 5491TIP3    H116416   7.734   6.678   5.204
 5491TIP3    H216417   7.660   6.809   5.210
 5492TIP3   OH216418   2.290   1.368   3.277
 5492TIP3    H116419   2.335   1.291   3.314
 5492TIP3    H216420   2.355   1.437   3.280
 5493TIP3   OH216421   3.722   5.495   1.023
 5493TIP3    H116422   3.727   5.582   0.982
 5493TIP3    H216423   3.668   5.444   0.963
 5494TIP3   OH216424   1.598   1.791   1.477
 5494TIP3    H116425   1.527   1.812   1.538
 5494TIP3    H216426   1.568   1.713   1.431
 5495TIP3   OH216427   5.112   6.207   5.109
 5495TIP3    H116428   5.046   6.157   5.061
 5495TIP3    H216429   5.196   6.181   5.069
 5496TIP3   OH216430   2.631   7.253  -0.017
 5496TIP3    H116431   2.667   7.340  -0.002
 5496TIP3    H216432   2.670   7.199   0.052
 5497TIP3   OH216433   4.344   2.971   2.056
 5497TIP3    H116434   4.424   3.010   2.092
 5497TIP3    H216435   4.372   2.928   1.976
 5498TIP3   OH216436   5.560   2.349   0.440
 5498TIP3    H116437   5.488   2.297   0.476
 5498TIP3    H216438   5.605   2.289   0.380
 5499TIP3   OH216439   8.093   4.533   5.952
 5499TIP3    H116440   8.077   4.481   5.873
 5499TIP3    H216441   8.183   4.514   5.976
 5500TIP3   OH216442   5.228   6.841   4.841
 5500TIP3    H116443   5.149   6.854   4.789
 5500TIP3    H216444   5.222   6.906   4.911
 5501TIP3   OH216445   7.604   3.781  -0.004
 5501TIP3    H116446   7.632   3.742   0.079
 5501TIP3    H216447   7.553   3.712  -0.046
 5502TIP3   OH216448   0.101   0.264   3.575
 5502TIP3    H116449   0.171   0.248   3.512
 5502TIP3    H216450   0.024   0.282   3.521
 5503TIP3   OH216451   3.621   3.171   4.560
 5503TIP3    H116452   3.663   3.168   4.475
 5503TIP3    H216453   3.547   3.230   4.549
 5504TIP3   OH216454   1.139   1.355   1.492
 5504TIP3    H116455   1.175   1.399   1.570
 5504TIP3    H216456   1.055   1.320   1.521
 5505TIP3   OH216457   6.214   0.116   0.664
 5505TIP3    H116458   6.181   0.031   0.692
 5505TIP3    H216459   6.203   0.173   0.741
 5506TIP3   OH216460   4.722   2.682   1.529
 5506TIP3    H116461   4.787   2.613   1.539
 5506TIP3    H216462   4.736   2.740   1.604
 5507TIP3   OH216463   4.150   6.281   3.101
 5507TIP3    H116464   4.139   6.348   3.034
 5507TIP3    H216465   4.185   6.328   3.177
 5508TIP3   OH216466   2.552   5.532   2.245
 5508TIP3    H116467   2.473   5.481   2.230
 5508TIP3    H216468   2.607   5.516   2.168
 5509TIP3   OH216469   6.953   2.154   6.224
 5509TIP3    H116470   6.931   2.238   6.265
 5509TIP3    H216471   6.886   2.093   6.257
 5510TIP3   OH216472   7.808   0.892   1.131
 5510TIP3    H116473   7.787   0.804   1.161
 5510TIP3    H216474   7.725   0.926   1.097
 5511TIP3   OH216475   0.163   5.014   6.501
 5511TIP3    H116476   0.245   4.999   6.550
 5511TIP3    H216477   0.171   5.104   6.469
 5512TIP3   OH216478   7.543   7.775   3.362
 5512TIP3    H116479   7.551   7.705   3.297
 5512TIP3    H216480   7.490   7.737   3.432
 5513TIP3   OH216481   8.057   0.833   0.095
 5513TIP3    H116482   8.100   0.894   0.154
 5513TIP3    H216483   8.009   0.889   0.033
 5514TIP3   OH216484   6.707   7.514   5.085
 5514TIP3    H116485   6.621   7.481   5.063
 5514TIP3    H216486   6.761   7.436   5.100
 5515TIP3   OH216487   5.664   6.981   4.767
 5515TIP3    H116488   5.616   7.012   4.690
 5515TIP3    H216489   5.596   6.948   4.826
 5516TIP3   OH216490   7.470   2.023   0.014
 5516TIP3    H116491   7.387   2.070   0.006
 5516TIP3    H216492   7.529   2.086   0.056
 5517TIP3   OH216493   2.797   5.414   4.360
 5517TIP3    H116494   2.870   5.401   4.300
 5517TIP3    H216495   2.738   5.341   4.343
 5518TIP3   OH216496   1.320   5.434   5.258
 5518TIP3    H116497   1.388   5.502   5.258
 5518TIP3    H216498   1.363   5.356   5.292
 5519TIP3   OH216499   0.468   6.163   0.290
 5519TIP3    H116500   0.456   6.130   0.200
 5519TIP3    H216501   0.512   6.091   0.335
 5520TIP3   OH216502   2.650   2.786   3.821
 5520TIP3    H116503   2.737   2.821   3.841
 5520TIP3    H216504   2.650   2.698   3.859
 5521TIP3   OH216505   6.333   6.836   4.155
 5521TIP3    H116506   6.271   6.894   4.110
 5521TIP3    H216507   6.279   6.790   4.220
 5522TIP3   OH216508   2.478   2.046   6.507
 5522TIP3    H116509   2.504   2.022   6.596
 5522TIP3    H216510   2.539   2.116   6.482
 5523TIP3   OH216511   5.075   3.407   1.363
 5523TIP3    H116512   5.162   3.371   1.349
 5523TIP3    H216513   5.065   3.473   1.294
 5524TIP3   OH216514   3.087   1.629   5.006
 5524TIP3    H116515   3.089   1.668   5.093
 5524TIP3    H216516   3.015   1.673   4.961
 5525TIP3   OH216517   7.923   4.768   2.560
 5525TIP3    H116518   7.883   4.804   2.482
 5525TIP3    H216519   7.908   4.833   2.628
 5526TIP3   OH216520   3.555   2.415   4.089
 5526TIP3    H116521   3.541   2.428   4.183
 5526TIP3    H216522   3.472   2.379   4.057
 5527TIP3   OH216523   3.451   4.622   5.092
 5527TIP3    H116524   3.413   4.550   5.143
 5527TIP3    H216525   3.541   4.596   5.077
 5528TIP3   OH216526   4.063   2.676   5.961
 5528TIP3    H116527   4.046   2.647   5.872
 5528TIP3    H216528   4.089   2.597   6.008
 5529TIP3   OH216529   0.219   6.938   6.207
 5529TIP3    H116530   0.136   6.981   6.185
 5529TIP3    H216531   0.218   6.856   6.158
 5530TIP3   OH216532   2.133   0.644   0.994
 5530TIP3    H116533   2.193   0.716   1.014
 5530TIP3    H216534   2.066   0.648   1.063
 5531TIP3   OH216535   0.760   5.409   6.069
 5531TIP3    H116536   0.694   5.342   6.053
 5531TIP3    H216537   0.843   5.363   6.057
 5532TIP3   OH216538   7.986   3.051   3.852
 5532TIP3    H116539   7.958   3.080   3.939
 5532TIP3    H216540   7.927   3.096   3.791
 5533TIP3   OH216541   5.587   1.732   0.437
 5533TIP3    H116542   5.671   1.759   0.399
 5533TIP3    H216543   5.587   1.771   0.525
 5534TIP3   OH216544   7.751   1.222   0.960
 5534TIP3    H116545   7.755   1.209   0.865
 5534TIP3    H216546   7.832   1.268   0.981
 5535TIP3   OH216547   6.755   6.810   1.087
 5535TIP3    H116548   6.722   6.895   1.113
 5535TIP3    H216549   6.711   6.790   1.005
 5536TIP3   OH216550   5.923   3.992   0.706
 5536TIP3    H116551   5.970   3.964   0.785
 5536TIP3    H216552   5.992   4.022   0.647
 5537TIP3   OH216553   7.151   3.320   1.899
 5537TIP3    H116554   7.083   3.292   1.960
 5537TIP3    H216555   7.159   3.248   1.837
 5538TIP3   OH216556   1.839   2.973   6.491
 5538TIP3    H116557   1.885   2.945   6.412
 5538TIP3    H216558   1.755   2.927   6.487
 5539TIP3   OH216559   7.496   3.908   3.055
 5539TIP3    H116560   7.518   3.903   3.148
 5539TIP3    H216561   7.564   3.858   3.011
 5540TIP3   OH216562   7.633   5.415   0.489
 5540TIP3    H116563   7.565   5.348   0.478
 5540TIP3    H216564   7.594   5.480   0.547
 5541TIP3   OH216565   4.453   5.155   5.964
 5541TIP3    H116566   4.437   5.075   6.014
 5541TIP3    H216567   4.446   5.128   5.873
 5542TIP3   OH216568   3.268   2.360   2.197
 5542TIP3    H116569   3.360   2.355   2.223
 5542TIP3    H216570   3.222   2.307   2.263
 5543TIP3   OH216571   2.463   7.626   5.490
 5543TIP3    H116572   2.546   7.580   5.508
 5543TIP3    H216573   2.484   7.719   5.502
 5544TIP3   OH216574   6.731   3.461   0.478
 5544TIP3    H116575   6.673   3.523   0.433
 5544TIP3    H216576   6.819   3.497   0.466
 5545TIP3   OH216577   0.087   3.419   1.988
 5545TIP3    H116578   0.129   3.344   1.947
 5545TIP3    H216579   0.129   3.496   1.949
 5546TIP3   OH216580   5.863   2.984   2.414
 5546TIP3    H116581   5.912   2.932   2.478
 5546TIP3    H216582   5.896   3.073   2.427
 5547TIP3   OH216583   7.086   4.527   3.906
 5547TIP3    H116584   7.042   4.445   3.883
 5547TIP3    H216585   7.101   4.521   4.000
 5548TIP3   OH216586   5.423   1.513   2.301
 5548TIP3    H116587   5.470   1.495   2.383
 5548TIP3    H216588   5.455   1.446   2.240
 5549TIP3   OH216589   8.059   0.896   1.864
 5549TIP3    H116590   8.103   0.960   1.808
 5549TIP3    H216591   8.063   0.934   1.952
 5550TIP3   OH216592   3.869   6.729   0.369
 5550TIP3    H116593   3.824   6.690   0.294
 5550TIP3    H216594   3.807   6.721   0.441
 5551TIP3   OH216595   6.826   2.514   0.006
 5551TIP3    H116596   6.834   2.604   0.038
 5551TIP3    H216597   6.916   2.481   0.007
 5552TIP3   OH216598   2.161   1.342   6.036
 5552TIP3    H116599   2.123   1.300   5.959
 5552TIP3    H216600   2.253   1.355   6.013
 5553TIP3   OH216601   6.516   6.323   3.479
 5553TIP3    H116602   6.554   6.259   3.539
 5553TIP3    H216603   6.557   6.406   3.503
 5554TIP3   OH216604   1.698   7.666   5.003
 5554TIP3    H116605   1.650   7.651   4.922
 5554TIP3    H216606   1.729   7.579   5.029
 5555TIP3   OH216607   5.136   4.503   5.537
 5555TIP3    H116608   5.067   4.439   5.518
 5555TIP3    H216609   5.098   4.587   5.512
 5556TIP3   OH216610   6.226   1.616   0.368
 5556TIP3    H116611   6.211   1.569   0.450
 5556TIP3    H216612   6.319   1.601   0.348
 5557TIP3   OH216613   7.170   0.376   3.207
 5557TIP3    H116614   7.217   0.302   3.244
 5557TIP3    H216615   7.094   0.337   3.163
 5558TIP3   OH216616   0.557   5.612   4.160
 5558TIP3    H116617   0.536   5.579   4.247
 5558TIP3    H216618   0.587   5.702   4.175
 5559TIP3   OH216619   7.098   1.275   3.914
 5559TIP3    H116620   7.124   1.285   3.822
 5559TIP3    H216621   7.081   1.181   3.923
 5560TIP3   OH216622   6.911   7.245   4.323
 5560TIP3    H116623   6.963   7.267   4.400
 5560TIP3    H216624   6.889   7.153   4.335
 5561TIP3   OH216625   6.214   2.313   2.927
 5561TIP3    H116626   6.285   2.254   2.903
 5561TIP3    H216627   6.209   2.376   2.855
 5562TIP3   OH216628   2.394   7.158   3.232
 5562TIP3    H116629   2.489   7.164   3.237
 5562TIP3    H216630   2.367   7.240   3.190
 5563TIP3   OH216631   2.273   3.036   6.324
 5563TIP3    H116632   2.323   3.076   6.395
 5563TIP3    H216633   2.218   3.107   6.290
 5564TIP3   OH216634   3.994   6.095   1.252
 5564TIP3    H116635   4.050   6.122   1.179
 5564TIP3    H216636   4.047   6.109   1.330
 5565TIP3   OH216637   3.167   5.422   6.598
 5565TIP3    H116638   3.187   5.485   6.667
 5565TIP3    H216639   3.243   5.426   6.539
 5566TIP3   OH216640   2.882   3.600   3.504
 5566TIP3    H116641   2.837   3.685   3.503
 5566TIP3    H216642   2.948   3.608   3.435
 5567TIP3   OH216643   5.720   0.263   2.580
 5567TIP3    H116644   5.811   0.281   2.555
 5567TIP3    H216645   5.723   0.245   2.674
 5568TIP3   OH216646   4.519   2.400   2.279
 5568TIP3    H116647   4.530   2.406   2.374
 5568TIP3    H216648   4.525   2.491   2.248
 5569TIP3   OH216649   3.713   3.505   3.887
 5569TIP3    H116650   3.631   3.529   3.843
 5569TIP3    H216651   3.685   3.471   3.972
 5570TIP3   OH216652   0.407   5.630   5.558
 5570TIP3    H116653   0.469   5.696   5.526
 5570TIP3    H216654   0.462   5.559   5.590
 5571TIP3   OH216655   1.885   6.120   4.791
 5571TIP3    H116656   1.821   6.183   4.759
 5571TIP3    H216657   1.874   6.120   4.886
 5572TIP3   OH216658   7.652   1.392   4.373
 5572TIP3    H116659   7.600   1.433   4.442
 5572TIP3    H216660   7.739   1.430   4.383
 5573TIP3   OH216661   5.703   6.026   6.548
 5573TIP3    H116662   5.681   5.952   6.492
 5573TIP3    H216663   5.666   6.102   6.504
 5574TIP3   OH216664   2.423   6.502   3.594
 5574TIP3    H116665   2.507   6.461   3.614
 5574TIP3    H216666   2.395   6.460   3.513
 5575TIP3   OH216667   4.194   6.715   5.061
 5575TIP3    H116668   4.154   6.746   5.142
 5575TIP3    H216669   4.231   6.629   5.084
 5576TIP3   OH216670   2.194   2.511   6.626
 5576TIP3    H116671   2.251   2.588   6.627
 5576TIP3    H216672   2.237   2.451   6.564
 5577TIP3   OH216673   3.263   4.357   2.261
 5577TIP3    H116674   3.306   4.441   2.275
 5577TIP3    H216675   3.247   4.323   2.349
 5578TIP3   OH216676   3.719   3.173   1.680
 5578TIP3    H116677   3.760   3.217   1.754
 5578TIP3    H216678   3.669   3.101   1.719
 5579TIP3   OH216679   2.880   5.659   1.660
 5579TIP3    H116680   2.790   5.668   1.627
 5579TIP3    H216681   2.897   5.741   1.705
 5580TIP3   OH216682   1.549   1.781   1.886
 5580TIP3    H116683   1.554   1.734   1.969
 5580TIP3    H216684   1.583   1.868   1.906
 5581TIP3   OH216685   7.536   3.304   4.617
 5581TIP3    H116686   7.479   3.229   4.605
 5581TIP3    H216687   7.528   3.354   4.536
 5582TIP3   OH216688   7.398   1.814   3.102
 5582TIP3    H116689   7.485   1.789   3.134
 5582TIP3    H216690   7.339   1.750   3.142
 5583TIP3   OH216691   7.948   5.223   4.372
 5583TIP3    H116692   7.915   5.151   4.318
 5583TIP3    H216693   7.930   5.197   4.462
 5584TIP3   OH216694   2.236   0.175   4.069
 5584TIP3    H116695   2.161   0.146   4.017
 5584TIP3    H216696   2.216   0.267   4.090
 5585TIP3   OH216697   0.173   5.101   4.588
 5585TIP3    H116698   0.132   5.183   4.615
 5585TIP3    H216699   0.128   5.077   4.507
 5586TIP3   OH216700   7.339   5.323   4.196
 5586TIP3    H116701   7.370   5.358   4.112
 5586TIP3    H216702   7.247   5.300   4.180
 5587TIP3   OH216703   5.282   4.639   3.099
 5587TIP3    H116704   5.203   4.593   3.069
 5587TIP3    H216705   5.259   4.732   3.092
 5588TIP3   OH216706   3.924   3.349   3.795
 5588TIP3    H116707   3.969   3.410   3.854
 5588TIP3    H216708   3.833   3.378   3.796
 5589TIP3   OH216709   3.598   2.231   2.958
 5589TIP3    H116710   3.649   2.313   2.959
 5589TIP3    H216711   3.651   2.172   2.904
 5590TIP3   OH216712   6.089   2.789   0.845
 5590TIP3    H116713   6.108   2.718   0.784
 5590TIP3    H216714   6.049   2.857   0.792
 5591TIP3   OH216715   8.066   2.638   1.574
 5591TIP3    H116716   8.088   2.727   1.545
 5591TIP3    H216717   8.105   2.582   1.507
 5592TIP3   OH216718   3.827   0.168   2.039
 5592TIP3    H116719   3.829   0.127   1.953
 5592TIP3    H216720   3.757   0.123   2.086
 5593TIP3   OH216721   8.053   0.995   4.556
 5593TIP3    H116722   8.118   1.052   4.515
 5593TIP3    H216723   8.011   0.950   4.483
 5594TIP3   OH216724   3.908   4.998   6.312
 5594TIP3    H116725   3.866   5.013   6.397
 5594TIP3    H216726   3.859   5.053   6.252
 5595TIP3   OH216727   0.668   3.041   3.731
 5595TIP3    H116728   0.660   2.954   3.772
 5595TIP3    H216729   0.658   3.025   3.637
 5596TIP3   OH216730   6.463   7.436   5.367
 5596TIP3    H116731   6.542   7.386   5.349
 5596TIP3    H216732   6.470   7.512   5.309
 5597TIP3   OH216733   3.400   7.630   1.726
 5597TIP3    H116734   3.350   7.704   1.691
 5597TIP3    H216735   3.432   7.660   1.811
 5598TIP3   OH216736   1.573   5.052   3.628
 5598TIP3    H116737   1.650   5.043   3.571
 5598TIP3    H216738   1.521   4.974   3.611
 5599TIP3   OH216739   7.488   0.198   0.828
 5599TIP3    H116740   7.421   0.266   0.824
 5599TIP3    H216741   7.567   0.243   0.857
 5600TIP3   OH216742   4.164   1.352   5.448
 5600TIP3    H116743   4.190   1.261   5.465
 5600TIP3    H216744   4.084   1.345   5.397
 5601TIP3   OH216745   1.405   4.384   1.005
 5601TIP3    H116746   1.341   4.452   0.983
 5601TIP3    H216747   1.438   4.408   1.091
 5602TIP3   OH216748   7.287   3.331   3.871
 5602TIP3    H116749   7.297   3.236   3.878
 5602TIP3    H216750   7.220   3.343   3.803
 5603TIP3   OH216751   5.162   0.089   5.976
 5603TIP3    H116752   5.200   0.124   5.896
 5603TIP3    H216753   5.084   0.042   5.947
 5604TIP3   OH216754   5.097   6.238   1.906
 5604TIP3    H116755   5.072   6.147   1.893
 5604TIP3    H216756   5.171   6.235   1.965
 5605TIP3   OH216757   3.251   5.858   4.044
 5605TIP3    H116758   3.185   5.896   4.103
 5605TIP3    H216759   3.220   5.769   4.027
 5606TIP3   OH216760   8.024   1.459   6.162
 5606TIP3    H116761   8.009   1.473   6.255
 5606TIP3    H216762   8.063   1.371   6.157
 5607TIP3   OH216763   3.020   4.704   3.082
 5607TIP3    H116764   3.000   4.743   2.997
 5607TIP3    H216765   3.083   4.634   3.062
 5608TIP3   OH216766   1.055   5.015   6.111
 5608TIP3    H116767   1.091   4.971   6.035
 5608TIP3    H216768   1.073   4.956   6.184
 5609TIP3   OH216769   8.126   5.008   4.162
 5609TIP3    H116770   8.209   4.961   4.173
 5609TIP3    H216771   8.060   4.949   4.197
 5610TIP3   OH216772   4.101   4.945   4.619
 5610TIP3    H116773   4.100   4.958   4.524
 5610TIP3    H216774   4.147   4.862   4.630
 5611TIP3   OH216775   7.042   7.712   1.106
 5611TIP3    H116776   6.993   7.648   1.055
 5611TIP3    H216777   7.061   7.667   1.189
 5612TIP3   OH216778   6.923   5.710   1.668
 5612TIP3    H116779   6.985   5.645   1.701
 5612TIP3    H216780   6.974   5.764   1.607
 5613TIP3   OH216781   0.344   3.658  -0.022
 5613TIP3    H116782   0.250   3.640  -0.027
 5613TIP3    H216783   0.358   3.693   0.065
 5614TIP3   OH216784   5.792   1.047   5.280
 5614TIP3    H116785   5.757   1.095   5.355
 5614TIP3    H216786   5.879   1.018   5.308
 5615TIP3   OH216787   4.614   3.055   3.297
 5615TIP3    H116788   4.603   3.012   3.212
 5615TIP3    H216789   4.709   3.058   3.309
 5616TIP3   OH216790   7.961   4.564   4.440
 5616TIP3    H116791   7.875   4.586   4.477
 5616TIP3    H216792   8.024   4.604   4.500
 5617TIP3   OH216793   6.764   2.505   6.721
 5617TIP3    H116794   6.835   2.522   6.783
 5617TIP3    H216795   6.730   2.419   6.747
 5618TIP3   OH216796   4.988   5.944   5.164
 5618TIP3    H116797   5.072   5.986   5.187
 5618TIP3    H216798   4.974   5.968   5.073
 5619TIP3   OH216799   0.774   6.554   3.756
 5619TIP3    H116800   0.796   6.632   3.807
 5619TIP3    H216801   0.695   6.578   3.708
 5620TIP3   OH216802   4.852   0.573   0.795
 5620TIP3    H116803   4.782   0.631   0.768
 5620TIP3    H216804   4.837   0.492   0.746
 5621TIP3   OH216805   2.427   1.364   1.892
 5621TIP3    H116806   2.362   1.366   1.821
 5621TIP3    H216807   2.491   1.431   1.868
 5622TIP3   OH216808   0.535   6.017   4.902
 5622TIP3    H116809   0.554   5.923   4.897
 5622TIP3    H216810   0.614   6.059   4.868
 5623TIP3   OH216811   6.278   3.193   2.637
 5623TIP3    H116812   6.198   3.232   2.674
 5623TIP3    H216813   6.248   3.113   2.594
 5624TIP3   OH216814   5.922   5.775   4.300
 5624TIP3    H116815   5.936   5.734   4.215
 5624TIP3    H216816   5.860   5.846   4.283
 5625TIP3   OH216817   3.140   6.909   2.374
 5625TIP3    H116818   3.117   6.830   2.423
 5625TIP3    H216819   3.060   6.962   2.375
 5626TIP3   OH216820   5.537   7.481   3.066
 5626TIP3    H116821   5.560   7.556   3.121
 5626TIP3    H216822   5.500   7.417   3.126
 5627TIP3   OH216823   6.203   5.158   2.329
 5627TIP3    H116824   6.121   5.196   2.360
 5627TIP3    H216825   6.270   5.220   2.358
 5628TIP3   OH216826   1.979   1.880   2.092
 5628TIP3    H116827   2.059   1.829   2.080
 5628TIP3    H216828   1.970   1.928   2.009
 5629TIP3   OH216829   4.629   3.049   0.457
 5629TIP3    H116830   4.701   2.994   0.490
 5629TIP3    H216831   4.556   3.032   0.517
 5630TIP3   OH216832   7.944   2.099   3.908
 5630TIP3    H116833   7.852   2.073   3.903
 5630TIP3    H216834   7.992   2.028   3.866
 5631TIP3   OH216835   0.020   4.004   0.939
 5631TIP3    H116836   0.051   3.913   0.937
 5631TIP3    H216837   0.093   4.054   0.975
 5632TIP3   OH216838   3.581   0.138   2.821
 5632TIP3    H116839   3.504   0.192   2.806
 5632TIP3    H216840   3.566   0.098   2.907
 5633TIP3   OH216841   2.150   7.196   1.077
 5633TIP3    H116842   2.233   7.160   1.043
 5633TIP3    H216843   2.161   7.291   1.070
 5634TIP3   OH216844   3.587   1.785   2.970
 5634TIP3    H116845   3.640   1.862   2.992
 5634TIP3    H216846   3.637   1.711   3.004
 5635TIP3   OH216847   6.961   6.683   5.556
 5635TIP3    H116848   6.920   6.712   5.475
 5635TIP3    H216849   6.940   6.590   5.563
 5636TIP3   OH216850   3.749   7.829   4.233
 5636TIP3    H116851   3.803   7.751   4.219
 5636TIP3    H216852   3.704   7.813   4.316
 5637TIP3   OH216853   7.754   3.008   0.511
 5637TIP3    H116854   7.849   3.003   0.526
 5637TIP3    H216855   7.746   3.061   0.431
 5638TIP3   OH216856   1.331   7.428   0.787
 5638TIP3    H116857   1.347   7.454   0.697
 5638TIP3    H216858   1.384   7.350   0.800
 5639TIP3   OH216859   0.786   1.618   1.442
 5639TIP3    H116860   0.707   1.671   1.433
 5639TIP3    H216861   0.823   1.644   1.527
 5640TIP3   OH216862   7.179   5.640   3.070
 5640TIP3    H116863   7.089   5.606   3.064
 5640TIP3    H216864   7.177   5.721   3.019
 5641TIP3   OH216865   1.841   7.574   1.303
 5641TIP3    H116866   1.822   7.506   1.368
 5641TIP3    H216867   1.760   7.625   1.298
 5642TIP3   OH216868   2.702   0.738   3.680
 5642TIP3    H116869   2.612   0.711   3.661
 5642TIP3    H216870   2.742   0.753   3.595
 5643TIP3   OH216871   0.929   7.714   2.644
 5643TIP3    H116872   0.881   7.775   2.588
 5643TIP3    H216873   0.963   7.769   2.715
 5644TIP3   OH216874   2.848   6.383   1.452
 5644TIP3    H116875   2.939   6.375   1.479
 5644TIP3    H216876   2.798   6.351   1.527
 5645TIP3   OH216877   5.188   5.982   1.010
 5645TIP3    H116878   5.117   6.031   1.049
 5645TIP3    H216879   5.252   5.971   1.080
 5646TIP3   OH216880   6.631   1.391   5.419
 5646TIP3    H116881   6.677   1.322   5.371
 5646TIP3    H216882   6.665   1.472   5.382
 5647TIP3   OH216883   0.331   0.107   2.899
 5647TIP3    H116884   0.256   0.062   2.939
 5647TIP3    H216885   0.358   0.049   2.828
 5648TIP3   OH216886   5.902   4.568   2.191
 5648TIP3    H116887   5.862   4.490   2.152
 5648TIP3    H216888   5.829   4.615   2.231
 5649TIP3   OH216889   4.722   3.971   2.334
 5649TIP3    H116890   4.736   3.884   2.296
 5649TIP3    H216891   4.683   3.954   2.420
 5650TIP3   OH216892   3.429   5.411   6.524
 5650TIP3    H116893   3.482   5.427   6.602
 5650TIP3    H216894   3.426   5.315   6.517
 5651TIP3   OH216895   2.097   0.257   0.537
 5651TIP3    H116896   2.154   0.327   0.569
 5651TIP3    H216897   2.045   0.298   0.468
 5652TIP3   OH216898   1.514   2.701   4.028
 5652TIP3    H116899   1.570   2.681   4.103
 5652TIP3    H216900   1.475   2.786   4.050
 5653TIP3   OH216901   7.335   7.003   5.131
 5653TIP3    H116902   7.344   7.064   5.059
 5653TIP3    H216903   7.269   7.042   5.188
 5654TIP3   OH216904   5.204   6.419   0.821
 5654TIP3    H116905   5.246   6.498   0.787
 5654TIP3    H216906   5.277   6.364   0.850
 5655TIP3   OH216907   7.523   7.626   6.310
 5655TIP3    H116908   7.606   7.589   6.341
 5655TIP3    H216909   7.465   7.619   6.385
 5656TIP3   OH216910   7.667   1.573   2.772
 5656TIP3    H116911   7.644   1.531   2.689
 5656TIP3    H216912   7.745   1.525   2.802
 5657TIP3   OH216913   8.193   3.938   4.088
 5657TIP3    H116914   8.159   3.872   4.147
 5657TIP3    H216915   8.201   4.017   4.142
 5658TIP3   OH216916   2.733   3.846   5.794
 5658TIP3    H116917   2.724   3.785   5.721
 5658TIP3    H216918   2.827   3.864   5.798
 5659TIP3   OH216919   7.736   6.573   6.146
 5659TIP3    H116920   7.693   6.526   6.074
 5659TIP3    H216921   7.669   6.578   6.215
 5660TIP3   OH216922   6.463   0.514   2.111
 5660TIP3    H116923   6.546   0.526   2.157
 5660TIP3    H216924   6.397   0.545   2.173
 5661TIP3   OH216925   4.057   2.140   2.759
 5661TIP3    H116926   4.072   2.175   2.847
 5661TIP3    H216927   4.085   2.049   2.764
 5662TIP3   OH216928   7.574   0.442   3.288
 5662TIP3    H116929   7.563   0.395   3.371
 5662TIP3    H216930   7.570   0.373   3.222
 5663TIP3   OH216931   5.034   1.016   0.590
 5663TIP3    H116932   5.090   1.090   0.614
 5663TIP3    H216933   4.946   1.053   0.586
 5664TIP3   OH216934   8.001   2.252   1.530
 5664TIP3    H116935   8.029   2.338   1.497
 5664TIP3    H216936   7.937   2.222   1.466
 5665TIP3   OH216937   6.249   0.245   4.481
 5665TIP3    H116938   6.170   0.263   4.430
 5665TIP3    H216939   6.288   0.331   4.494
 5666TIP3   OH216940   3.861   7.163   5.437
 5666TIP3    H116941   3.812   7.191   5.515
 5666TIP3    H216942   3.953   7.176   5.460
 5667TIP3   OH216943   6.220   0.304   5.509
 5667TIP3    H116944   6.255   0.245   5.577
 5667TIP3    H216945   6.298   0.344   5.471
 5668TIP3   OH216946   2.787   7.735   3.493
 5668TIP3    H116947   2.877   7.721   3.521
 5668TIP3    H216948   2.749   7.791   3.560
 5669TIP3   OH216949   6.429   6.570   1.669
 5669TIP3    H116950   6.428   6.665   1.656
 5669TIP3    H216951   6.484   6.537   1.598
 5670TIP3   OH216952   3.761   7.540   6.758
 5670TIP3    H116953   3.744   7.589   6.677
 5670TIP3    H216954   3.740   7.601   6.828
 5671TIP3   OH216955   0.894   4.239   5.628
 5671TIP3    H116956   0.803   4.265   5.613
 5671TIP3    H216957   0.908   4.165   5.568
 5672TIP3   OH216958   0.901   0.673   6.383
 5672TIP3    H116959   0.996   0.676   6.396
 5672TIP3    H216960   0.880   0.757   6.342
 5673TIP3   OH216961   7.357   1.700   0.626
 5673TIP3    H116962   7.347   1.681   0.720
 5673TIP3    H216963   7.410   1.780   0.623
 5674TIP3   OH216964   7.385   2.277   0.781
 5674TIP3    H116965   7.361   2.358   0.826
 5674TIP3    H216966   7.303   2.229   0.772
 5675TIP3   OH216967   7.167   3.973   0.554
 5675TIP3    H116968   7.132   4.045   0.502
 5675TIP3    H216969   7.090   3.930   0.590
 5676TIP3   OH216970   0.539   4.199   0.938
 5676TIP3    H116971   0.612   4.138   0.946
 5676TIP3    H216972   0.516   4.197   0.845
 5677TIP3   OH216973   2.784   3.844   1.477
 5677TIP3    H116974   2.788   3.935   1.449
 5677TIP3    H216975   2.706   3.809   1.434
 5678TIP3   OH216976   7.775   5.888   1.825
 5678TIP3    H116977   7.733   5.804   1.803
 5678TIP3    H216978   7.702   5.946   1.848
 5679TIP3   OH216979   6.599   2.346   3.360
 5679TIP3    H116980   6.627   2.348   3.268
 5679TIP3    H216981   6.611   2.255   3.386
 5680TIP3   OH216982   7.861   5.623   3.290
 5680TIP3    H116983   7.848   5.709   3.251
 5680TIP3    H216984   7.957   5.614   3.296
 5681TIP3   OH216985   2.302   2.031   5.938
 5681TIP3    H116986   2.227   2.045   5.996
 5681TIP3    H216987   2.368   1.988   5.994
 5682TIP3   OH216988   5.072   0.887   1.140
 5682TIP3    H116989   5.117   0.816   1.093
 5682TIP3    H216990   5.115   0.967   1.109
 5683TIP3   OH216991   7.613   7.614   1.067
 5683TIP3    H116992   7.543   7.656   1.117
 5683TIP3    H216993   7.655   7.555   1.130
 5684TIP3   OH216994   7.068   4.504   4.219
 5684TIP3    H116995   7.028   4.591   4.217
 5684TIP3    H216996   6.997   4.444   4.196
 5685TIP3   OH216997   6.447   6.492   4.435
 5685TIP3    H116998   6.398   6.431   4.379
 5685TIP3    H216999   6.396   6.498   4.515
 5686TIP3   OH217000   1.675   0.062   5.405
 5686TIP3    H117001   1.770   0.058   5.396
 5686TIP3    H217002   1.644  -0.026   5.384
 5687TIP3   OH217003   2.882   5.266   2.197
 5687TIP3    H117004   2.964   5.285   2.149
 5687TIP3    H217005   2.872   5.340   2.257
 5688TIP3   OH217006   7.963   7.005   3.410
 5688TIP3    H117007   7.939   6.979   3.499
 5688TIP3    H217008   7.988   7.097   3.418
 5689TIP3   OH217009   6.299   0.137   5.683
 5689TIP3    H117010   6.276   0.048   5.654
 5689TIP3    H217011   6.346   0.123   5.765
 5690TIP3   OH217012   0.644   1.470   4.664
 5690TIP3    H117013   0.604   1.557   4.656
 5690TIP3    H217014   0.675   1.466   4.755
 5691TIP3   OH217015   6.816   2.052   2.075
 5691TIP3    H117016   6.883   2.009   2.021
 5691TIP3    H217017   6.862   2.124   2.118
 5692TIP3   OH217018   6.408   0.934   2.897
 5692TIP3    H117019   6.449   0.910   2.814
 5692TIP3    H217020   6.379   0.851   2.934
 5693TIP3   OH217021   1.034   2.384   1.175
 5693TIP3    H117022   0.950   2.401   1.219
 5693TIP3    H217023   1.053   2.465   1.127
 5694TIP3   OH217024   7.990   5.376   4.967
 5694TIP3    H117025   7.965   5.375   5.060
 5694TIP3    H217026   8.028   5.463   4.953
 5695TIP3   OH217027   6.387   6.286   5.076
 5695TIP3    H117028   6.468   6.241   5.054
 5695TIP3    H217029   6.415   6.371   5.108
 5696TIP3   OH217030   4.210   5.481   4.638
 5696TIP3    H117031   4.180   5.499   4.549
 5696TIP3    H217032   4.243   5.391   4.633
 5697TIP3   OH217033   6.806   0.721   1.265
 5697TIP3    H117034   6.854   0.693   1.343
 5697TIP3    H217035   6.714   0.710   1.288
 5698TIP3   OH217036   0.282   0.709   1.903
 5698TIP3    H117037   0.294   0.630   1.956
 5698TIP3    H217038   0.345   0.700   1.832
 5699TIP3   OH217039   6.577   0.140   3.959
 5699TIP3    H117040   6.507   0.129   3.895
 5699TIP3    H217041   6.539   0.109   4.042
 5700TIP3   OH217042   5.600   2.289   2.795
 5700TIP3    H117043   5.648   2.207   2.809
 5700TIP3    H217044   5.508   2.263   2.795
 5701TIP3   OH217045   6.268   0.856   0.261
 5701TIP3    H117046   6.268   0.871   0.355
 5701TIP3    H217047   6.342   0.907   0.228
 5702TIP3   OH217048   8.139   5.662   6.178
 5702TIP3    H117049   8.168   5.695   6.263
 5702TIP3    H217050   8.073   5.596   6.199
 5703TIP3   OH217051   2.883   1.639   1.813
 5703TIP3    H117052   2.824   1.708   1.844
 5703TIP3    H217053   2.966   1.684   1.797
 5704TIP3   OH217054   7.425   3.411   2.767
 5704TIP3    H117055   7.368   3.486   2.751
 5704TIP3    H217056   7.434   3.408   2.863
 5705TIP3   OH217057   3.571   2.513   6.615
 5705TIP3    H117058   3.532   2.583   6.667
 5705TIP3    H217059   3.573   2.548   6.526
 5706TIP3   OH217060   1.132   5.884   4.067
 5706TIP3    H117061   1.062   5.875   4.131
 5706TIP3    H217062   1.134   5.977   4.045
 5707TIP3   OH217063   7.998   4.317   1.749
 5707TIP3    H117064   7.953   4.322   1.833
 5707TIP3    H217065   7.943   4.260   1.696
 5708TIP3   OH217066   1.861   7.438   0.423
 5708TIP3    H117067   1.886   7.401   0.508
 5708TIP3    H217068   1.821   7.364   0.376
 5709TIP3   OH217069   1.551   4.450   3.322
 5709TIP3    H117070   1.621   4.428   3.260
 5709TIP3    H217071   1.569   4.541   3.347
 5710TIP3   OH217072   5.589   2.268   3.317
 5710TIP3    H117073   5.655   2.267   3.248
 5710TIP3    H217074   5.623   2.209   3.384
 5711TIP3   OH217075   5.512   6.300   6.640
 5711TIP3    H117076   5.590   6.326   6.591
 5711TIP3    H217077   5.466   6.239   6.582
 5712TIP3   OH217078   4.251   5.655   3.934
 5712TIP3    H117079   4.283   5.565   3.939
 5712TIP3    H217080   4.291   5.690   3.855
 5713TIP3   OH217081   7.759   1.453   3.679
 5713TIP3    H117082   7.673   1.436   3.718
 5713TIP3    H217083   7.744   1.450   3.585
 5714TIP3   OH217084   3.389   0.713   1.145
 5714TIP3    H117085   3.463   0.754   1.100
 5714TIP3    H217086   3.406   0.728   1.238
 5715TIP3   OH217087   1.640   2.482   6.523
 5715TIP3    H117088   1.562   2.464   6.471
 5715TIP3    H217089   1.687   2.399   6.526
 5716TIP3   OH217090   7.841   3.451   3.753
 5716TIP3    H117091   7.816   3.542   3.769
 5716TIP3    H217092   7.837   3.409   3.839
 5717TIP3   OH217093   3.251   7.337   3.670
 5717TIP3    H117094   3.242   7.379   3.756
 5717TIP3    H217095   3.169   7.356   3.625
 5718TIP3   OH217096   4.842   4.571   1.994
 5718TIP3    H117097   4.872   4.622   2.069
 5718TIP3    H217098   4.754   4.605   1.976
 5719TIP3   OH217099   6.949   6.721   3.580
 5719TIP3    H117100   6.985   6.636   3.606
 5719TIP3    H217101   6.857   6.717   3.606
 5720TIP3   OH217102   1.544   3.292   3.557
 5720TIP3    H117103   1.579   3.248   3.634
 5720TIP3    H217104   1.452   3.308   3.578
 5721TIP3   OH217105   6.196   0.467   3.869
 5721TIP3    H117106   6.242   0.524   3.932
 5721TIP3    H217107   6.215   0.505   3.784
 5722TIP3   OH217108   2.185   7.017   5.983
 5722TIP3    H117109   2.141   6.966   6.051
 5722TIP3    H217110   2.273   6.979   5.978
 5723TIP3   OH217111   3.118   0.590   1.818
 5723TIP3    H117112   3.030   0.554   1.814
 5723TIP3    H217113   3.161   0.557   1.739
 5724TIP3   OH217114   2.562   1.463   6.389
 5724TIP3    H117115   2.478   1.472   6.433
 5724TIP3    H217116   2.616   1.533   6.426
 5725TIP3   OH217117   3.374   7.081   5.801
 5725TIP3    H117118   3.361   7.038   5.717
 5725TIP3    H217119   3.317   7.034   5.861
 5726TIP3   OH217120   1.793   4.463   0.645
 5726TIP3    H117121   1.762   4.430   0.730
 5726TIP3    H217122   1.888   4.473   0.656
 5727TIP3   OH217123   6.449   1.766   4.126
 5727TIP3    H117124   6.519   1.811   4.079
 5727TIP3    H217125   6.456   1.675   4.099
 5728TIP3   OH217126   6.408   5.133   3.882
 5728TIP3    H117127   6.392   5.040   3.902
 5728TIP3    H217128   6.502   5.144   3.896
 5729TIP3   OH217129   4.559   0.157   4.045
 5729TIP3    H117130   4.480   0.145   3.992
 5729TIP3    H217131   4.626   0.184   3.981
 5730TIP3   OH217132   5.209   2.308   1.046
 5730TIP3    H117133   5.189   2.382   0.989
 5730TIP3    H217134   5.142   2.310   1.114
 5731TIP3   OH217135   1.851   0.106   6.609
 5731TIP3    H117136   1.862   0.036   6.673
 5731TIP3    H217137   1.926   0.164   6.624
 5732TIP3   OH217138   3.902   4.694   6.383
 5732TIP3    H117139   3.917   4.785   6.358
 5732TIP3    H217140   3.913   4.693   6.478
 5733TIP3   OH217141   0.964   3.032   5.342
 5733TIP3    H117142   0.961   3.103   5.407
 5733TIP3    H217143   0.913   2.961   5.382
 5734TIP3   OH217144   6.304   2.550   4.164
 5734TIP3    H117145   6.318   2.543   4.070
 5734TIP3    H217146   6.212   2.527   4.176
 5735TIP3   OH217147   1.005   1.515   1.146
 5735TIP3    H117148   0.985   1.586   1.085
 5735TIP3    H217149   0.920   1.473   1.162
 5736TIP3   OH217150   5.149   7.449   2.789
 5736TIP3    H117151   5.157   7.467   2.882
 5736TIP3    H217152   5.105   7.527   2.753
 5737TIP3   OH217153   0.704   7.322   3.805
 5737TIP3    H117154   0.646   7.333   3.880
 5737TIP3    H217155   0.719   7.410   3.772
 5738TIP3   OH217156   8.164   4.648   6.634
 5738TIP3    H117157   8.198   4.650   6.723
 5738TIP3    H217158   8.153   4.740   6.610
 5739TIP3   OH217159   7.739   1.993   3.332
 5739TIP3    H117160   7.825   2.001   3.292
 5739TIP3    H217161   7.735   2.066   3.394
 5740TIP3   OH217162   3.593   0.683   3.155
 5740TIP3    H117163   3.558   0.702   3.068
 5740TIP3    H217164   3.568   0.592   3.172
 5741TIP3   OH217165   7.752   5.203   1.121
 5741TIP3    H117166   7.846   5.220   1.116
 5741TIP3    H217167   7.731   5.209   1.214
 5742TIP3   OH217168   0.566   7.307   0.980
 5742TIP3    H117169   0.659   7.317   0.998
 5742TIP3    H217170   0.523   7.334   1.061
 5743TIP3   OH217171   7.593   0.588   1.607
 5743TIP3    H117172   7.545   0.556   1.683
 5743TIP3    H217173   7.637   0.667   1.639
 5744TIP3   OH217174   1.413   2.607   0.266
 5744TIP3    H117175   1.341   2.633   0.208
 5744TIP3    H217176   1.378   2.534   0.316
 5745TIP3   OH217177   1.918   5.858   2.316
 5745TIP3    H117178   1.859   5.821   2.250
 5745TIP3    H217179   2.002   5.865   2.272
 5746TIP3   OH217180   3.372   4.781   5.516
 5746TIP3    H117181   3.374   4.689   5.543
 5746TIP3    H217182   3.363   4.777   5.421
 5747TIP3   OH217183   4.827   5.613   5.518
 5747TIP3    H117184   4.734   5.607   5.497
 5747TIP3    H217185   4.857   5.691   5.472
 5748TIP3   OH217186   4.830   0.225   5.572
 5748TIP3    H117187   4.765   0.251   5.507
 5748TIP3    H217188   4.899   0.182   5.521
 5749TIP3   OH217189   5.328   1.628   1.994
 5749TIP3    H117190   5.398   1.654   2.054
 5749TIP3    H217191   5.365   1.556   1.944
 5750TIP3   OH217192   5.112   1.526   5.971
 5750TIP3    H117193   5.032   1.515   6.023
 5750TIP3    H217194   5.085   1.511   5.881
 5751TIP3   OH217195   7.303   3.965   5.666
 5751TIP3    H117196   7.335   4.000   5.749
 5751TIP3    H217197   7.244   3.894   5.691
 5752TIP3   OH217198   4.000   4.393   0.212
 5752TIP3    H117199   3.918   4.436   0.236
 5752TIP3    H217200   4.004   4.315   0.268
 5753TIP3   OH217201   4.466   6.655   0.616
 5753TIP3    H117202   4.535   6.720   0.625
 5753TIP3    H217203   4.419   6.658   0.699
 5754TIP3   OH217204   1.535   2.116   1.777
 5754TIP3    H117205   1.452   2.120   1.824
 5754TIP3    H217206   1.601   2.115   1.846
 5755TIP3   OH217207   6.427   1.357   2.354
 5755TIP3    H117208   6.418   1.375   2.261
 5755TIP3    H217209   6.438   1.442   2.395
 5756TIP3   OH217210   7.138   7.543   1.616
 5756TIP3    H117211   7.074   7.583   1.676
 5756TIP3    H217212   7.122   7.449   1.623
 5757TIP3   OH217213   8.155   5.599   2.700
 5757TIP3    H117214   8.060   5.598   2.685
 5757TIP3    H217215   8.183   5.510   2.682
 5758TIP3   OH217216   5.159   5.464   4.691
 5758TIP3    H117217   5.189   5.531   4.630
 5758TIP3    H217218   5.069   5.489   4.712
 5759TIP3   OH217219   7.912   3.396   4.256
 5759TIP3    H117220   7.959   3.335   4.313
 5759TIP3    H217221   7.963   3.478   4.260
 5760TIP3   OH217222   1.561   6.631   1.367
 5760TIP3    H117223   1.533   6.660   1.454
 5760TIP3    H217224   1.655   6.618   1.376
 5761TIP3   OH217225   5.495   4.348   2.371
 5761TIP3    H117226   5.469   4.373   2.282
 5761TIP3    H217227   5.577   4.396   2.387
 5762TIP3   OH217228   4.630   4.391   3.160
 5762TIP3    H117229   4.699   4.371   3.096
 5762TIP3    H217230   4.675   4.435   3.231
 5763TIP3   OH217231   3.706   4.080   5.346
 5763TIP3    H117232   3.654   4.140   5.399
 5763TIP3    H217233   3.643   4.039   5.286
 5764TIP3   OH217234   4.234   3.430   4.228
 5764TIP3    H117235   4.251   3.347   4.182
 5764TIP3    H217236   4.314   3.445   4.278
 5765TIP3   OH217237   3.884   4.861   2.082
 5765TIP3    H117238   3.895   4.777   2.127
 5765TIP3    H217239   3.971   4.880   2.047
 5766TIP3   OH217240   6.996   2.934   4.138
 5766TIP3    H117241   6.953   3.006   4.091
 5766TIP3    H217242   6.996   2.862   4.076
 5767TIP3   OH217243   8.140   6.285   5.151
 5767TIP3    H117244   8.117   6.247   5.236
 5767TIP3    H217245   8.099   6.226   5.087
 5768TIP3   OH217246   1.185   4.716   6.148
 5768TIP3    H117247   1.091   4.708   6.134
 5768TIP3    H217248   1.207   4.644   6.208
 5769TIP3   OH217249   0.742   4.023   1.006
 5769TIP3    H117250   0.705   4.025   1.095
 5769TIP3    H217251   0.822   3.971   1.015
 5770TIP3   OH217252   6.244   3.051   3.583
 5770TIP3    H117253   6.256   3.134   3.628
 5770TIP3    H217254   6.327   3.037   3.536
 5771TIP3   OH217255   0.561   3.079   2.452
 5771TIP3    H117256   0.613   3.059   2.375
 5771TIP3    H217257   0.510   2.999   2.468
 5772TIP3   OH217258   0.181   4.087   5.816
 5772TIP3    H117259   0.186   4.175   5.779
 5772TIP3    H217260   0.087   4.069   5.822
 5773TIP3   OH217261   5.619   2.106   0.615
 5773TIP3    H117262   5.675   2.034   0.585
 5773TIP3    H217263   5.680   2.172   0.647
 5774TIP3   OH217264   5.358   1.756   2.460
 5774TIP3    H117265   5.371   1.688   2.394
 5774TIP3    H217266   5.303   1.714   2.526
 5775TIP3   OH217267   1.750   3.115   0.168
 5775TIP3    H117268   1.735   3.031   0.212
 5775TIP3    H217269   1.826   3.152   0.211
 5776TIP3   OH217270   8.040   4.319   4.076
 5776TIP3    H117271   7.968   4.354   4.127
 5776TIP3    H217272   7.998   4.267   4.008
 5777TIP3   OH217273   3.833   7.362   1.860
 5777TIP3    H117274   3.743   7.346   1.887
 5777TIP3    H217275   3.875   7.276   1.865
 5778TIP3   OH217276   7.335   2.348   5.734
 5778TIP3    H117277   7.409   2.324   5.789
 5778TIP3    H217278   7.359   2.316   5.647
 5779TIP3   OH217279   6.914   1.671   1.294
 5779TIP3    H117280   6.878   1.752   1.256
 5779TIP3    H217281   6.837   1.615   1.307
 5780TIP3   OH217282   3.583   3.284   5.561
 5780TIP3    H117283   3.590   3.379   5.553
 5780TIP3    H217284   3.534   3.270   5.642
 5781TIP3   OH217285   7.328   4.469   4.257
 5781TIP3    H117286   7.234   4.488   4.256
 5781TIP3    H217287   7.360   4.506   4.174
 5782TIP3   OH217288   1.314   2.255   3.947
 5782TIP3    H117289   1.366   2.224   4.021
 5782TIP3    H217290   1.225   2.224   3.965
 5783TIP3   OH217291   2.422   1.370   5.973
 5783TIP3    H117292   2.485   1.426   5.927
 5783TIP3    H217293   2.457   1.362   6.061
 5784TIP3   OH217294   3.298   0.342   0.510
 5784TIP3    H117295   3.325   0.429   0.483
 5784TIP3    H217296   3.227   0.356   0.573
 5785TIP3   OH217297   8.030   1.710   0.227
 5785TIP3    H117298   7.937   1.693   0.210
 5785TIP3    H217299   8.070   1.623   0.228
 5786TIP3   OH217300   7.899   4.812   4.893
 5786TIP3    H117301   7.974   4.863   4.924
 5786TIP3    H217302   7.852   4.788   4.973
 5787TIP3   OH217303   0.487   3.670   2.130
 5787TIP3    H117304   0.399   3.659   2.166
 5787TIP3    H217305   0.532   3.726   2.193
 5788TIP3   OH217306   0.424   1.653   5.314
 5788TIP3    H117307   0.400   1.686   5.227
 5788TIP3    H217308   0.344   1.664   5.366
 5789TIP3   OH217309   7.823   0.221   5.332
 5789TIP3    H117310   7.914   0.249   5.341
 5789TIP3    H217311   7.828   0.141   5.280
 5790TIP3   OH217312   6.393   5.851   2.692
 5790TIP3    H117313   6.325   5.825   2.630
 5790TIP3    H217314   6.362   5.819   2.777
 5791TIP3   OH217315   0.947   5.824   5.610
 5791TIP3    H117316   1.001   5.894   5.572
 5791TIP3    H217317   0.965   5.829   5.704
 5792TIP3   OH217318   8.174   3.359   3.698
 5792TIP3    H117319   8.095   3.405   3.728
 5792TIP3    H217320   8.141   3.288   3.643
 5793TIP3   OH217321   4.726   1.641   2.216
 5793TIP3    H117322   4.731   1.596   2.132
 5793TIP3    H217323   4.818   1.656   2.240
 5794TIP3   OH217324   1.830   1.692   2.553
 5794TIP3    H117325   1.864   1.681   2.464
 5794TIP3    H217326   1.868   1.774   2.583
 5795TIP3   OH217327   3.687   2.213   0.511
 5795TIP3    H117328   3.619   2.152   0.482
 5795TIP3    H217329   3.751   2.157   0.557
 5796TIP3   OH217330   1.515   0.424   2.651
 5796TIP3    H117331   1.554   0.448   2.734
 5796TIP3    H217332   1.455   0.352   2.673
 5797TIP3   OH217333   0.883   5.300   4.070
 5797TIP3    H117334   0.926   5.214   4.077
 5797TIP3    H217335   0.887   5.320   3.977
 5798TIP3   OH217336   1.255   6.999   6.513
 5798TIP3    H117337   1.194   6.943   6.561
 5798TIP3    H217338   1.219   7.001   6.424
 5799TIP3   OH217339   6.259   5.872   6.634
 5799TIP3    H117340   6.343   5.834   6.610
 5799TIP3    H217341   6.235   5.928   6.560
 5800TIP3   OH217342   3.452   7.721   2.220
 5800TIP3    H117343   3.536   7.714   2.265
 5800TIP3    H217344   3.435   7.634   2.184
 5801TIP3   OH217345   2.645   0.825   2.557
 5801TIP3    H117346   2.679   0.839   2.469
 5801TIP3    H217347   2.572   0.886   2.565
 5802TIP3   OH217348   3.478   6.214   1.829
 5802TIP3    H117349   3.448   6.196   1.740
 5802TIP3    H217350   3.413   6.275   1.864
 5803TIP3   OH217351   7.474   6.223   5.988
 5803TIP3    H117352   7.526   6.297   5.956
 5803TIP3    H217353   7.468   6.164   5.913
 5804TIP3   OH217354   5.127   4.851   4.140
 5804TIP3    H117355   5.190   4.891   4.200
 5804TIP3    H217356   5.155   4.760   4.133
 5805TIP3   OH217357   0.653   0.391   2.078
 5805TIP3    H117358   0.622   0.350   1.997
 5805TIP3    H217359   0.703   0.467   2.048
 5806TIP3   OH217360   2.612   7.280   2.847
 5806TIP3    H117361   2.642   7.202   2.895
 5806TIP3    H217362   2.517   7.275   2.850
 5807TIP3   OH217363   7.725   2.160   6.330
 5807TIP3    H117364   7.793   2.180   6.266
 5807TIP3    H217365   7.763   2.186   6.414
 5808TIP3   OH217366   7.681   6.272   1.714
 5808TIP3    H117367   7.620   6.283   1.642
 5808TIP3    H217368   7.707   6.361   1.737
 5809TIP3   OH217369   6.306   4.485   6.282
 5809TIP3    H117370   6.348   4.515   6.201
 5809TIP3    H217371   6.339   4.544   6.350
 5810TIP3   OH217372   2.173   7.600   2.865
 5810TIP3    H117373   2.132   7.525   2.909
 5810TIP3    H217374   2.234   7.560   2.803
 5811TIP3   OH217375   6.447   3.778   6.163
 5811TIP3    H117376   6.462   3.856   6.110
 5811TIP3    H217377   6.534   3.744   6.183
 5812TIP3   OH217378   1.009   0.510   4.550
 5812TIP3    H117379   0.972   0.473   4.470
 5812TIP3    H217380   1.094   0.545   4.524
 5813TIP3   OH217381   4.494   2.908   1.608
 5813TIP3    H117382   4.400   2.898   1.594
 5813TIP3    H217383   4.528   2.934   1.523
 5814TIP3   OH217384   6.465   6.580   3.208
 5814TIP3    H117385   6.403   6.641   3.167
 5814TIP3    H217386   6.409   6.511   3.245
 5815TIP3   OH217387   5.126   2.451   0.260
 5815TIP3    H117388   5.119   2.357   0.275
 5815TIP3    H217389   5.103   2.491   0.344
 5816TIP3   OH217390   0.416   6.979   6.650
 5816TIP3    H117391   0.464   7.027   6.582
 5816TIP3    H217392   0.480   6.964   6.719
 5817TIP3   OH217393   4.661   2.426   5.603
 5817TIP3    H117394   4.753   2.400   5.593
 5817TIP3    H217395   4.638   2.468   5.520
 5818TIP3   OH217396   3.396   1.732   6.484
 5818TIP3    H117397   3.395   1.676   6.562
 5818TIP3    H217398   3.351   1.680   6.417
 5819TIP3   OH217399   4.538   4.956   3.082
 5819TIP3    H117400   4.462   5.014   3.077
 5819TIP3    H217401   4.613   5.016   3.090
 5820TIP3   OH217402   6.354   6.039   6.103
 5820TIP3    H117403   6.392   6.053   6.016
 5820TIP3    H217404   6.262   6.019   6.086
 5821TIP3   OH217405   7.858   1.236   5.686
 5821TIP3    H117406   7.911   1.176   5.738
 5821TIP3    H217407   7.769   1.201   5.692
 5822TIP3   OH217408   1.828   3.429   4.915
 5822TIP3    H117409   1.756   3.444   4.977
 5822TIP3    H217410   1.886   3.368   4.960
 5823TIP3   OH217411   3.776   6.192  -0.012
 5823TIP3    H117412   3.769   6.130   0.060
 5823TIP3    H217413   3.792   6.276   0.029
 5824TIP3   OH217414   0.056   2.946   5.837
 5824TIP3    H117415   0.069   2.854   5.814
 5824TIP3    H217416   0.065   2.949   5.932
 5825TIP3   OH217417   4.845   3.597   3.847
 5825TIP3    H117418   4.855   3.616   3.754
 5825TIP3    H217419   4.755   3.568   3.857
 5826TIP3   OH217420   0.548   1.016   1.706
 5826TIP3    H117421   0.464   1.056   1.686
 5826TIP3    H217422   0.594   1.081   1.759
 5827TIP3   OH217423   5.906   1.679   2.001
 5827TIP3    H117424   5.879   1.601   2.049
 5827TIP3    H217425   5.834   1.741   2.014
 5828TIP3   OH217426   5.123   1.305   0.265
 5828TIP3    H117427   5.062   1.234   0.288
 5828TIP3    H217428   5.129   1.301   0.170
 5829TIP3   OH217429   1.305   4.300   2.669
 5829TIP3    H117430   1.300   4.391   2.697
 5829TIP3    H217431   1.397   4.277   2.679
 5830TIP3   OH217432   5.001   5.390   2.597
 5830TIP3    H117433   4.963   5.355   2.678
 5830TIP3    H217434   5.010   5.313   2.540
 5831TIP3   OH217435   7.704   7.643   5.358
 5831TIP3    H117436   7.700   7.556   5.397
 5831TIP3    H217437   7.709   7.628   5.264
 5832TIP3   OH217438   6.859   3.809   6.740
 5832TIP3    H117439   6.949   3.812   6.707
 5832TIP3    H217440   6.823   3.895   6.716
 5833TIP3   OH217441   5.503   5.634   4.893
 5833TIP3    H117442   5.559   5.618   4.969
 5833TIP3    H217443   5.470   5.548   4.868
 5834TIP3   OH217444   4.223   4.111   6.010
 5834TIP3    H117445   4.231   4.203   5.985
 5834TIP3    H217446   4.136   4.085   5.978
 5835TIP3   OH217447   5.037   4.022   5.082
 5835TIP3    H117448   5.017   4.108   5.045
 5835TIP3    H217449   5.121   3.998   5.042
 5836TIP3   OH217450   6.241   5.864   3.615
 5836TIP3    H117451   6.178   5.922   3.656
 5836TIP3    H217452   6.241   5.890   3.522
 5837TIP3   OH217453   2.324   1.672   4.283
 5837TIP3    H117454   2.229   1.682   4.269
 5837TIP3    H217455   2.350   1.604   4.221
 5838TIP3   OH217456   3.239   1.147   3.139
 5838TIP3    H117457   3.317   1.101   3.108
 5838TIP3    H217458   3.273   1.216   3.197
 5839TIP3   OH217459   3.774   5.531   1.294
 5839TIP3    H117460   3.698   5.565   1.341
 5839TIP3    H217461   3.745   5.519   1.204
 5840TIP3   OH217462   6.312   5.830   4.031
 5840TIP3    H117463   6.227   5.851   4.070
 5840TIP3    H217464   6.355   5.775   4.097
 5841TIP3   OH217465   0.783   0.204   3.966
 5841TIP3    H117466   0.735   0.121   3.960
 5841TIP3    H217467   0.736   0.254   4.032
 5842TIP3   OH217468   6.069   3.967   6.509
 5842TIP3    H117469   6.103   3.921   6.432
 5842TIP3    H217470   6.145   4.012   6.546
 5843TIP3   OH217471   7.455   1.736   6.594
 5843TIP3    H117472   7.399   1.680   6.540
 5843TIP3    H217473   7.454   1.820   6.548
 5844TIP3   OH217474   6.872   6.083   0.155
 5844TIP3    H117475   6.913   6.167   0.175
 5844TIP3    H217476   6.798   6.105   0.098
 5845TIP3   OH217477   4.701   5.439   0.337
 5845TIP3    H117478   4.712   5.520   0.286
 5845TIP3    H217479   4.607   5.421   0.333
 5846TIP3   OH217480   7.722   4.819   5.107
 5846TIP3    H117481   7.746   4.773   5.187
 5846TIP3    H217482   7.627   4.822   5.108
 5847TIP3   OH217483   4.351   1.358   4.554
 5847TIP3    H117484   4.281   1.414   4.587
 5847TIP3    H217485   4.350   1.370   4.459
 5848TIP3   OH217486   1.769   7.149   4.887
 5848TIP3    H117487   1.683   7.153   4.845
 5848TIP3    H217488   1.831   7.142   4.815
 5849TIP3   OH217489   3.116   3.702   1.914
 5849TIP3    H117490   3.102   3.649   1.992
 5849TIP3    H217491   3.160   3.644   1.852
 5850TIP3   OH217492   4.052   7.459   0.147
 5850TIP3    H117493   4.031   7.366   0.141
 5850TIP3    H217494   3.984   7.503   0.096
 5851TIP3   OH217495   4.303   0.081   6.032
 5851TIP3    H117496   4.236   0.079   6.101
 5851TIP3    H217497   4.287   0.002   5.981
 5852TIP3   OH217498   3.271   6.457   3.206
 5852TIP3    H117499   3.291   6.452   3.299
 5852TIP3    H217500   3.194   6.513   3.201
 5853TIP3   OH217501   2.741   0.028   3.326
 5853TIP3    H117502   2.681  -0.044   3.342
 5853TIP3    H217503   2.698   0.104   3.365
 5854TIP3   OH217504   5.891   0.118   0.471
 5854TIP3    H117505   5.900   0.096   0.564
 5854TIP3    H217506   5.932   0.044   0.425
 5855TIP3   OH217507   4.542   1.070   1.571
 5855TIP3    H117508   4.516   1.005   1.505
 5855TIP3    H217509   4.636   1.081   1.559
 5856TIP3   OH217510   1.549   7.838   0.249
 5856TIP3    H117511   1.568   7.823   0.342
 5856TIP3    H217512   1.570   7.755   0.207
 5857TIP3   OH217513   6.554   1.232   5.627
 5857TIP3    H117514   6.586   1.280   5.551
 5857TIP3    H217515   6.459   1.226   5.613
 5858TIP3   OH217516   4.429   5.696   4.191
 5858TIP3    H117517   4.449   5.616   4.241
 5858TIP3    H217518   4.334   5.696   4.183
 5859TIP3   OH217519   4.679   2.924   1.055
 5859TIP3    H117520   4.649   3.014   1.072
 5859TIP3    H217521   4.747   2.934   0.989
 5860TIP3   OH217522   0.790   0.921   1.578
 5860TIP3    H117523   0.715   0.955   1.627
 5860TIP3    H217524   0.773   0.947   1.487
 5861TIP3   OH217525   5.570   6.162   4.126
 5861TIP3    H117526   5.583   6.123   4.039
 5861TIP3    H217527   5.476   6.158   4.140
 5862TIP3   OH217528   3.943   1.015   6.600
 5862TIP3    H117529   3.988   0.939   6.638
 5862TIP3    H217530   3.942   1.080   6.670
 5863TIP3   OH217531   5.179   5.740   3.718
 5863TIP3    H117532   5.209   5.820   3.675
 5863TIP3    H217533   5.087   5.733   3.694
 5864TIP3   OH217534   3.366   6.917   0.921
 5864TIP3    H117535   3.378   6.884   1.010
 5864TIP3    H217536   3.369   7.012   0.930
 5865TIP3   OH217537   2.369   5.212   1.151
 5865TIP3    H117538   2.308   5.214   1.225
 5865TIP3    H217539   2.422   5.291   1.162
 5866TIP3   OH217540   1.085   4.304   4.367
 5866TIP3    H117541   1.151   4.239   4.341
 5866TIP3    H217542   1.016   4.296   4.301
 5867TIP3   OH217543   1.242   0.822   0.510
 5867TIP3    H117544   1.233   0.728   0.494
 5867TIP3    H217545   1.336   0.839   0.498
 5868TIP3   OH217546   5.849   6.220   1.537
 5868TIP3    H117547   5.901   6.212   1.617
 5868TIP3    H217548   5.822   6.131   1.517
 5869TIP3   OH217549   2.253   4.078   0.878
 5869TIP3    H117550   2.316   4.046   0.942
 5869TIP3    H217551   2.250   4.010   0.811
 5870TIP3   OH217552   1.997   0.362   0.297
 5870TIP3    H117553   2.083   0.386   0.262
 5870TIP3    H217554   1.983   0.273   0.265
 5871TIP3   OH217555   5.297   5.203   3.359
 5871TIP3    H117556   5.285   5.271   3.425
 5871TIP3    H217557   5.384   5.221   3.322
 5872TIP3   OH217558   1.014   2.072   0.483
 5872TIP3    H117559   0.995   2.075   0.577
 5872TIP3    H217560   0.937   2.029   0.445
 5873TIP3   OH217561   5.945   5.848   2.047
 5873TIP3    H117562   6.034   5.882   2.057
 5873TIP3    H217563   5.914   5.837   2.137
 5874TIP3   OH217564   4.081   7.360   2.307
 5874TIP3    H117565   4.091   7.265   2.311
 5874TIP3    H217566   4.163   7.395   2.341
 5875TIP3   OH217567   2.611   2.846   0.651
 5875TIP3    H117568   2.640   2.909   0.717
 5875TIP3    H217569   2.537   2.801   0.691
 5876TIP3   OH217570   1.589   5.253   5.050
 5876TIP3    H117571   1.499   5.283   5.037
 5876TIP3    H217572   1.596   5.175   4.994
 5877TIP3   OH217573   8.109   6.311   0.758
 5877TIP3    H117574   8.074   6.361   0.684
 5877TIP3    H217575   8.111   6.221   0.726
 5878TIP3   OH217576   2.321   0.931   5.631
 5878TIP3    H117577   2.339   0.843   5.665
 5878TIP3    H217578   2.361   0.990   5.695
 5879TIP3   OH217579   1.971   4.518   4.834
 5879TIP3    H117580   1.991   4.590   4.894
 5879TIP3    H217581   2.052   4.466   4.831
 5880TIP3   OH217582   2.613   0.090   6.329
 5880TIP3    H117583   2.541   0.136   6.375
 5880TIP3    H217584   2.686   0.153   6.331
 5881TIP3   OH217585   6.080   0.746   5.103
 5881TIP3    H117586   6.101   0.789   5.020
 5881TIP3    H217587   6.111   0.807   5.171
 5882TIP3   OH217588   7.572   5.634   1.824
 5882TIP3    H117589   7.581   5.628   1.729
 5882TIP3    H217590   7.603   5.550   1.857
 5883TIP3   OH217591   2.768   2.875   3.261
 5883TIP3    H117592   2.686   2.920   3.240
 5883TIP3    H217593   2.801   2.845   3.177
 5884TIP3   OH217594   0.438   3.060   3.849
 5884TIP3    H117595   0.520   3.056   3.800
 5884TIP3    H217596   0.370   3.063   3.782
 5885TIP3   OH217597   4.909   2.491   1.555
 5885TIP3    H117598   4.854   2.416   1.576
 5885TIP3    H217599   4.948   2.469   1.470
 5886TIP3   OH217600   5.140   6.667   3.381
 5886TIP3    H117601   5.125   6.717   3.300
 5886TIP3    H217602   5.198   6.595   3.354
 5887TIP3   OH217603   4.428   6.080   1.174
 5887TIP3    H117604   4.516   6.113   1.192
 5887TIP3    H217605   4.409   6.021   1.247
 5888TIP3   OH217606   0.774   4.854   1.845
 5888TIP3    H117607   0.754   4.819   1.758
 5888TIP3    H217608   0.765   4.948   1.836
 5889TIP3   OH217609   4.786   7.582   4.194
 5889TIP3    H117610   4.740   7.499   4.178
 5889TIP3    H217611   4.878   7.562   4.179
 5890TIP3   OH217612   2.242   0.736   1.695
 5890TIP3    H117613   2.153   0.711   1.718
 5890TIP3    H217614   2.261   0.687   1.615
 5891TIP3   OH217615   7.448   6.027   1.243
 5891TIP3    H117616   7.477   6.002   1.156
 5891TIP3    H217617   7.403   6.110   1.232
 5892TIP3   OH217618   4.601   2.631   1.290
 5892TIP3    H117619   4.641   2.601   1.208
 5892TIP3    H217620   4.675   2.656   1.345
 5893TIP3   OH217621   6.706   2.913   6.462
 5893TIP3    H117622   6.720   2.905   6.368
 5893TIP3    H217623   6.632   2.856   6.480
 5894TIP3   OH217624   5.287   5.416   5.729
 5894TIP3    H117625   5.310   5.465   5.808
 5894TIP3    H217626   5.253   5.483   5.669
 5895TIP3   OH217627   8.274   5.929   5.119
 5895TIP3    H117628   8.345   5.945   5.056
 5895TIP3    H217629   8.209   5.996   5.099
 5896TIP3   OH217630   3.998   0.704   0.534
 5896TIP3    H117631   4.055   0.677   0.607
 5896TIP3    H217632   4.055   0.755   0.477
 5897TIP3   OH217633   0.777   3.468   0.588
 5897TIP3    H117634   0.788   3.463   0.493
 5897TIP3    H217635   0.792   3.379   0.618
 5898TIP3   OH217636   7.326   2.300   4.881
 5898TIP3    H117637   7.339   2.308   4.787
 5898TIP3    H217638   7.378   2.223   4.906
 5899TIP3   OH217639   1.106   4.023   0.533
 5899TIP3    H117640   1.096   4.016   0.627
 5899TIP3    H217641   1.188   3.976   0.514
 5900TIP3   OH217642   1.744   6.049   1.024
 5900TIP3    H117643   1.694   5.969   1.038
 5900TIP3    H217644   1.727   6.073   0.933
 5901TIP3   OH217645   0.610   5.878   4.111
 5901TIP3    H117646   0.544   5.948   4.117
 5901TIP3    H217647   0.598   5.841   4.023
 5902TIP3   OH217648   2.714   5.473   1.088
 5902TIP3    H117649   2.666   5.532   1.030
 5902TIP3    H217650   2.715   5.389   1.042
 5903TIP3   OH217651   1.284   5.857   5.296
 5903TIP3    H117652   1.341   5.932   5.278
 5903TIP3    H217653   1.206   5.895   5.335
 5904TIP3   OH217654   6.100   7.445   6.567
 5904TIP3    H117655   6.159   7.409   6.500
 5904TIP3    H217656   6.159   7.470   6.639
 5905TIP3   OH217657   4.000   7.498   1.160
 5905TIP3    H117658   4.040   7.523   1.243
 5905TIP3    H217659   3.970   7.581   1.122
 5906TIP3   OH217660   6.472   3.040   2.756
 5906TIP3    H117661   6.395   3.093   2.737
 5906TIP3    H217662   6.531   3.055   2.682
 5907TIP3   OH217663  -0.016   5.602   4.866
 5907TIP3    H117664   0.051   5.537   4.847
 5907TIP3    H217665   0.010   5.679   4.815
 5908TIP3   OH217666   3.561   4.190   4.018
 5908TIP3    H117667   3.654   4.170   4.005
 5908TIP3    H217668   3.560   4.278   4.056
 5909TIP3   OH217669   5.943   7.547   3.885
 5909TIP3    H117670   6.024   7.578   3.926
 5909TIP3    H217671   5.933   7.457   3.916
 5910TIP3   OH217672   4.908   3.265   2.836
 5910TIP3    H117673   4.874   3.299   2.753
 5910TIP3    H217674   4.909   3.170   2.824
 5911TIP3   OH217675   3.101   1.849   3.216
 5911TIP3    H117676   3.006   1.848   3.206
 5911TIP3    H217677   3.116   1.893   3.300
 5912TIP3   OH217678   4.529   7.458   3.854
 5912TIP3    H117679   4.527   7.380   3.799
 5912TIP3    H217680   4.595   7.438   3.920
 5913TIP3   OH217681   5.470   5.725   0.319
 5913TIP3    H117682   5.429   5.809   0.298
 5913TIP3    H217683   5.559   5.748   0.345
 5914TIP3   OH217684   7.254   0.302   2.721
 5914TIP3    H117685   7.204   0.233   2.677
 5914TIP3    H217686   7.193   0.376   2.728
 5915TIP3   OH217687   7.776   4.363   6.606
 5915TIP3    H117688   7.768   4.371   6.511
 5915TIP3    H217689   7.786   4.454   6.636
 5916TIP3   OH217690   5.639   4.530   2.826
 5916TIP3    H117691   5.556   4.489   2.852
 5916TIP3    H217692   5.614   4.598   2.763
 5917TIP3   OH217693   2.708   1.131   4.813
 5917TIP3    H117694   2.662   1.166   4.736
 5917TIP3    H217695   2.640   1.122   4.879
 5918TIP3   OH217696   4.271   4.778   5.352
 5918TIP3    H117697   4.266   4.874   5.347
 5918TIP3    H217698   4.184   4.748   5.329
 5919TIP3   OH217699   5.147   6.179   6.313
 5919TIP3    H117700   5.064   6.227   6.305
 5919TIP3    H217701   5.144   6.114   6.243
 5920TIP3   OH217702   0.968   5.222   4.759
 5920TIP3    H117703   0.983   5.127   4.755
 5920TIP3    H217704   1.047   5.259   4.720
 5921TIP3   OH217705   7.628   1.458   3.033
 5921TIP3    H117706   7.642   1.363   3.038
 5921TIP3    H217707   7.638   1.479   2.941
 5922TIP3   OH217708   7.983   0.642   6.106
 5922TIP3    H117709   7.908   0.667   6.052
 5922TIP3    H217710   8.028   0.574   6.056
 5923TIP3   OH217711   6.024   1.268   0.359
 5923TIP3    H117712   6.022   1.181   0.319
 5923TIP3    H217713   6.113   1.299   0.344
 5924TIP3   OH217714   2.838  -0.015   6.053
 5924TIP3    H117715   2.784   0.059   6.023
 5924TIP3    H217716   2.912   0.027   6.097
 5925TIP3   OH217717   7.542   5.800   4.573
 5925TIP3    H117718   7.576   5.742   4.505
 5925TIP3    H217719   7.617   5.855   4.598
 5926TIP3   OH217720   6.248   4.028   3.492
 5926TIP3    H117721   6.190   4.095   3.529
 5926TIP3    H217722   6.192   3.950   3.484
 5927TIP3   OH217723   3.220   6.455   2.322
 5927TIP3    H117724   3.245   6.363   2.313
 5927TIP3    H217725   3.127   6.457   2.300
 5928TIP3   OH217726   5.807   2.640   0.132
 5928TIP3    H117727   5.787   2.731   0.110
 5928TIP3    H217728   5.772   2.628   0.221
 5929TIP3   OH217729   7.604   0.980   5.442
 5929TIP3    H117730   7.619   1.042   5.513
 5929TIP3    H217731   7.663   0.907   5.461
 5930TIP3   OH217732   6.085   1.798   2.774
 5930TIP3    H117733   6.112   1.721   2.825
 5930TIP3    H217734   6.163   1.821   2.724
 5931TIP3   OH217735   0.163   0.787   4.371
 5931TIP3    H117736   0.080   0.833   4.375
 5931TIP3    H217737   0.220   0.836   4.430
 5932TIP3   OH217738   4.908   1.401   6.224
 5932TIP3    H117739   4.936   1.413   6.315
 5932TIP3    H217740   4.953   1.321   6.196
 5933TIP3   OH217741   0.042   7.557   5.849
 5933TIP3    H117742   0.004   7.626   5.795
 5933TIP3    H217743   0.065   7.601   5.931
 5934TIP3   OH217744   7.640   3.250   6.376
 5934TIP3    H117745   7.574   3.317   6.357
 5934TIP3    H217746   7.603   3.200   6.449
 5935TIP3   OH217747   0.324   7.726   1.242
 5935TIP3    H117748   0.254   7.662   1.254
 5935TIP3    H217749   0.350   7.716   1.151
 5936TIP3   OH217750   8.015   2.264   0.221
 5936TIP3    H117751   7.987   2.325   0.153
 5936TIP3    H217752   8.070   2.317   0.279
 5937TIP3   OH217753   2.089   5.101   6.150
 5937TIP3    H117754   1.996   5.079   6.159
 5937TIP3    H217755   2.124   5.036   6.090
 5938TIP3   OH217756   8.093   1.207   6.136
 5938TIP3    H117757   8.083   1.140   6.204
 5938TIP3    H217758   8.171   1.179   6.087
 5939TIP3   OH217759   7.832   3.689   2.522
 5939TIP3    H117760   7.740   3.683   2.495
 5939TIP3    H217761   7.835   3.764   2.582
 5940TIP3   OH217762   5.185   7.024   3.028
 5940TIP3    H117763   5.162   7.074   2.949
 5940TIP3    H217764   5.281   7.020   3.026
 5941TIP3   OH217765   1.932   7.317   3.589
 5941TIP3    H117766   1.957   7.225   3.583
 5941TIP3    H217767   2.014   7.364   3.605
 5942TIP3   OH217768   1.888   1.929   0.804
 5942TIP3    H117769   1.954   1.998   0.805
 5942TIP3    H217770   1.805   1.974   0.824
 5943TIP3   OH217771   7.835   0.143   4.859
 5943TIP3    H117772   7.800   0.139   4.770
 5943TIP3    H217773   7.872   0.056   4.874
 5944TIP3   OH217774   0.621   1.546   3.979
 5944TIP3    H117775   0.651   1.582   3.895
 5944TIP3    H217776   0.696   1.497   4.013
 5945TIP3   OH217777   4.145   7.732   5.944
 5945TIP3    H117778   4.129   7.666   5.877
 5945TIP3    H217779   4.080   7.800   5.928
 5946TIP3   OH217780   1.260   0.826   2.108
 5946TIP3    H117781   1.289   0.826   2.017
 5946TIP3    H217782   1.265   0.734   2.135
 5947TIP3   OH217783   4.488   4.047   5.511
 5947TIP3    H117784   4.545   4.124   5.518
 5947TIP3    H217785   4.494   4.005   5.597
 5948TIP3   OH217786   0.780   3.887   4.731
 5948TIP3    H117787   0.802   3.851   4.645
 5948TIP3    H217788   0.820   3.974   4.731
 5949TIP3   OH217789   0.989   1.854   5.156
 5949TIP3    H117790   1.037   1.915   5.099
 5949TIP3    H217791   1.049   1.836   5.228
 5950TIP3   OH217792   8.277   6.065   3.258
 5950TIP3    H117793   8.238   5.995   3.311
 5950TIP3    H217794   8.204   6.125   3.241
 5951TIP3   OH217795   5.354   3.917   2.506
 5951TIP3    H117796   5.358   3.860   2.583
 5951TIP3    H217797   5.261   3.920   2.483
 5952TIP3   OH217798   4.596   2.656   0.395
 5952TIP3    H117799   4.677   2.706   0.397
 5952TIP3    H217800   4.579   2.634   0.487
 5953TIP3   OH217801   5.801   6.942   4.227
 5953TIP3    H117802   5.825   6.867   4.281
 5953TIP3    H217803   5.712   6.964   4.255
 5954TIP3   OH217804   0.160   5.706   5.663
 5954TIP3    H117805   0.247   5.673   5.643
 5954TIP3    H217806   0.112   5.700   5.580
 5955TIP3   OH217807   0.567   4.089   2.738
 5955TIP3    H117808   0.633   4.032   2.779
 5955TIP3    H217809   0.563   4.059   2.647
 5956TIP3   OH217810   0.998   5.851   0.605
 5956TIP3    H117811   0.912   5.844   0.564
 5956TIP3    H217812   0.983   5.900   0.686
 5957TIP3   OH217813   7.261  -0.006   4.924
 5957TIP3    H117814   7.323   0.007   4.852
 5957TIP3    H217815   7.313   0.012   5.003
 5958TIP3   OH217816   0.563   2.711   0.987
 5958TIP3    H117817   0.519   2.786   0.947
 5958TIP3    H217818   0.578   2.738   1.078
 5959TIP3   OH217819   1.644   4.861   0.538
 5959TIP3    H117820   1.683   4.822   0.460
 5959TIP3    H217821   1.566   4.906   0.505
 5960TIP3   OH217822   3.694   5.079   1.603
 5960TIP3    H117823   3.727   5.001   1.559
 5960TIP3    H217824   3.701   5.148   1.537
 5961TIP3   OH217825   2.878   7.594   0.407
 5961TIP3    H117826   2.864   7.688   0.406
 5961TIP3    H217827   2.895   7.572   0.498
 5962TIP3   OH217828   6.325   7.752   5.588
 5962TIP3    H117829   6.312   7.764   5.494
 5962TIP3    H217830   6.416   7.777   5.603
 5963TIP3   OH217831   7.106   1.755   3.581
 5963TIP3    H117832   7.161   1.723   3.510
 5963TIP3    H217833   7.168   1.776   3.652
 5964TIP3   OH217834   0.934   6.632   4.774
 5964TIP3    H117835   0.996   6.622   4.846
 5964TIP3    H217836   0.857   6.672   4.815
 5965TIP3   OH217837   6.254   1.327   2.879
 5965TIP3    H117838   6.243   1.244   2.832
 5965TIP3    H217839   6.228   1.308   2.969
 5966TIP3   OH217840   0.670   6.659   4.175
 5966TIP3    H117841   0.729   6.681   4.103
 5966TIP3    H217842   0.724   6.610   4.237
 5967TIP3   OH217843   6.298   2.651   1.637
 5967TIP3    H117844   6.355   2.635   1.563
 5967TIP3    H217845   6.350   2.626   1.714
 5968TIP3   OH217846   8.228   2.013   3.094
 5968TIP3    H117847   8.187   1.980   3.014
 5968TIP3    H217848   8.314   1.971   3.096
 5969TIP3   OH217849   6.561   3.590   0.295
 5969TIP3    H117850   6.583   3.564   0.205
 5969TIP3    H217851   6.485   3.536   0.317
 5970TIP3   OH217852   8.156   3.714   1.943
 5970TIP3    H117853   8.174   3.783   1.879
 5970TIP3    H217854   8.215   3.643   1.920
 5971TIP3   OH217855   3.371   4.373   3.629
 5971TIP3    H117856   3.410   4.305   3.684
 5971TIP3    H217857   3.431   4.382   3.555
 5972TIP3   OH217858   3.284   2.510   2.475
 5972TIP3    H117859   3.208   2.454   2.457
 5972TIP3    H217860   3.327   2.470   2.550
 5973TIP3   OH217861   7.457   0.421   1.848
 5973TIP3    H117862   7.548   0.435   1.876
 5973TIP3    H217863   7.423   0.356   1.910
 5974TIP3   OH217864   4.059   6.438   6.550
 5974TIP3    H117865   4.124   6.368   6.539
 5974TIP3    H217866   4.012   6.415   6.631
 5975TIP3   OH217867   1.927   5.085   4.269
 5975TIP3    H117868   1.968   4.999   4.263
 5975TIP3    H217869   1.949   5.116   4.357
 5976TIP3   OH217870   1.467   6.772   0.888
 5976TIP3    H117871   1.538   6.763   0.825
 5976TIP3    H217872   1.498   6.724   0.965
 5977TIP3   OH217873   0.629   4.312   4.986
 5977TIP3    H117874   0.609   4.236   4.930
 5977TIP3    H217875   0.686   4.277   5.054
 5978TIP3   OH217876   6.145   4.761   4.735
 5978TIP3    H117877   6.150   4.801   4.822
 5978TIP3    H217878   6.237   4.754   4.707
 5979TIP3   OH217879   7.473   5.035   1.947
 5979TIP3    H117880   7.561   5.022   1.983
 5979TIP3    H217881   7.482   5.111   1.889
 5980TIP3   OH217882   6.503   2.172   6.589
 5980TIP3    H117883   6.521   2.260   6.556
 5980TIP3    H217884   6.576   2.152   6.647
 5981TIP3   OH217885   8.238   5.762   2.944
 5981TIP3    H117886   8.201   5.850   2.950
 5981TIP3    H217887   8.186   5.719   2.876
 5982TIP3   OH217888   0.282   0.101   2.564
 5982TIP3    H117889   0.264   0.194   2.577
 5982TIP3    H217890   0.302   0.092   2.471
 5983TIP3   OH217891   0.374   4.527   1.563
 5983TIP3    H117892   0.332   4.444   1.586
 5983TIP3    H217893   0.454   4.501   1.517
 5984TIP3   OH217894   7.728   7.686   3.900
 5984TIP3    H117895   7.673   7.665   3.975
 5984TIP3    H217896   7.809   7.719   3.938
 5985TIP3   OH217897   4.123   3.664   6.048
 5985TIP3    H117898   4.080   3.704   6.124
 5985TIP3    H217899   4.097   3.572   6.052
 5986TIP3   OH217900   0.314   5.344   4.369
 5986TIP3    H117901   0.342   5.276   4.429
 5986TIP3    H217902   0.251   5.301   4.311
 5987TIP3   OH217903   7.048   7.071   5.256
 5987TIP3    H117904   7.073   6.982   5.283
 5987TIP3    H217905   7.029   7.063   5.163
 5988TIP3   OH217906   4.126   2.105   1.507
 5988TIP3    H117907   4.176   2.035   1.548
 5988TIP3    H217908   4.092   2.067   1.426
 5989TIP3   OH217909   2.535   7.653   3.418
 5989TIP3    H117910   2.624   7.682   3.440
 5989TIP3    H217911   2.484   7.734   3.412
 5990TIP3   OH217912   6.507   3.843   2.611
 5990TIP3    H117913   6.527   3.752   2.587
 5990TIP3    H217914   6.500   3.888   2.527
 5991TIP3   OH217915   3.638   5.592   1.722
 5991TIP3    H117916   3.622   5.589   1.628
 5991TIP3    H217917   3.705   5.524   1.737
 5992TIP3   OH217918   1.861   1.385   0.567
 5992TIP3    H117919   1.777   1.426   0.548
 5992TIP3    H217920   1.854   1.360   0.659
 5993TIP3   OH217921   3.098   7.447   5.701
 5993TIP3    H117922   3.150   7.425   5.778
 5993TIP3    H217923   3.009   7.421   5.723
 5994TIP3   OH217924   6.925   3.362   1.163
 5994TIP3    H117925   7.018   3.340   1.171
 5994TIP3    H217926   6.923   3.434   1.100
 5995TIP3   OH217927   2.768   4.785   0.988
 5995TIP3    H117928   2.863   4.784   0.972
 5995TIP3    H217929   2.732   4.836   0.915
 5996TIP3   OH217930   1.593   1.536   5.933
 5996TIP3    H117931   1.588   1.557   5.840
 5996TIP3    H217932   1.625   1.617   5.974
 5997TIP3   OH217933   8.093   3.999   2.979
 5997TIP3    H117934   8.159   3.973   2.916
 5997TIP3    H217935   8.018   3.942   2.962
 5998TIP3   OH217936   1.606   2.917   6.100
 5998TIP3    H117937   1.700   2.934   6.104
 5998TIP3    H217938   1.583   2.892   6.189
 5999TIP3   OH217939   1.742   0.133   2.593
 5999TIP3    H117940   1.688   0.143   2.671
 5999TIP3    H217941   1.772   0.222   2.573
 6000TIP3   OH217942   0.696   1.012   4.395
 6000TIP3    H117943   0.643   1.023   4.316
 6000TIP3    H217944   0.761   0.946   4.371
 6001TIP3   OH217945   3.893   5.930   4.183
 6001TIP3    H117946   3.854   5.984   4.115
 6001TIP3    H217947   3.951   5.989   4.231
 6002TIP3   OH217948   3.273   5.548   0.601
 6002TIP3    H117949   3.224   5.509   0.673
 6002TIP3    H217950   3.239   5.637   0.594
 6003TIP3   OH217951   6.017   3.846   3.513
 6003TIP3    H117952   5.977   3.931   3.493
 6003TIP3    H217953   5.946   3.783   3.505
 6004TIP3   OH217954   4.237   1.353   6.410
 6004TIP3    H117955   4.290   1.415   6.359
 6004TIP3    H217956   4.186   1.306   6.345
 6005TIP3   OH217957   5.773   6.528   0.887
 6005TIP3    H117958   5.725   6.530   0.970
 6005TIP3    H217959   5.858   6.491   0.910
 6006TIP3   OH217960   3.037   0.492   0.587
 6006TIP3    H117961   3.091   0.571   0.583
 6006TIP3    H217962   2.964   0.511   0.527
 6007TIP3   OH217963   2.569   6.011   0.367
 6007TIP3    H117964   2.613   6.076   0.313
 6007TIP3    H217965   2.633   5.990   0.436
 6008TIP3   OH217966   1.562   7.254   0.413
 6008TIP3    H117967   1.566   7.195   0.337
 6008TIP3    H217968   1.473   7.243   0.446
 6009TIP3   OH217969   2.094   0.573   5.780
 6009TIP3    H117970   2.020   0.631   5.763
 6009TIP3    H217971   2.056   0.486   5.783
 6010TIP3   OH217972   0.864   5.712   4.000
 6010TIP3    H117973   0.783   5.716   3.948
 6010TIP3    H217974   0.932   5.741   3.940
 6011TIP3   OH217975   8.292   4.892   5.897
 6011TIP3    H117976   8.312   4.967   5.842
 6011TIP3    H217977   8.231   4.925   5.963
 6012TIP3   OH217978   1.590   6.789   6.037
 6012TIP3    H117979   1.545   6.805   6.120
 6012TIP3    H217980   1.662   6.731   6.059
 6013TIP3   OH217981   6.980   5.343   2.127
 6013TIP3    H117982   6.987   5.429   2.170
 6013TIP3    H217983   6.887   5.321   2.132
 6014TIP3   OH217984   6.012   4.259   2.436
 6014TIP3    H117985   6.045   4.343   2.468
 6014TIP3    H217986   6.061   4.244   2.355
 6015TIP3   OH217987   7.249   6.974   4.871
 6015TIP3    H117988   7.187   6.927   4.815
 6015TIP3    H217989   7.316   6.909   4.892
 6016TIP3   OH217990   3.480   3.798   4.859
 6016TIP3    H117991   3.563   3.808   4.811
 6016TIP3    H217992   3.418   3.769   4.792
 6017TIP3   OH217993   6.546   1.924   6.216
 6017TIP3    H117994   6.552   1.893   6.125
 6017TIP3    H217995   6.634   1.957   6.236
 6018TIP3   OH217996   5.269   0.854   0.229
 6018TIP3    H117997   5.236   0.922   0.171
 6018TIP3    H217998   5.361   0.875   0.242
 6019TIP3   OH217999   2.361   0.825   1.101
 6019TIP3    H118000   2.453   0.815   1.125
 6019TIP3    H218001   2.319   0.858   1.180
 6020TIP3   OH218002   5.487   1.725   5.838
 6020TIP3    H118003   5.444   1.792   5.892
 6020TIP3    H218004   5.534   1.670   5.900
 6021TIP3   OH218005   5.536   2.444   3.613
 6021TIP3    H118006   5.468   2.388   3.652
 6021TIP3    H218007   5.489   2.498   3.549
 6022TIP3   OH218008   6.493   7.516   1.055
 6022TIP3    H118009   6.402   7.528   1.027
 6022TIP3    H218010   6.488   7.515   1.151
 6023TIP3   OH218011   1.924   0.806   5.102
 6023TIP3    H118012   1.888   0.724   5.136
 6023TIP3    H218013   1.847   0.859   5.083
 6024TIP3   OH218014   0.933   5.020   0.277
 6024TIP3    H118015   0.982   4.973   0.209
 6024TIP3    H218016   0.991   5.020   0.353
 6025TIP3   OH218017   3.547   5.023   4.845
 6025TIP3    H118018   3.472   5.078   4.823
 6025TIP3    H218019   3.509   4.936   4.861
 6026TIP3   OH218020   8.079   3.311   1.388
 6026TIP3    H118021   8.075   3.291   1.482
 6026TIP3    H218022   8.053   3.229   1.345
 6027TIP3   OH218023   3.838   0.392   0.624
 6027TIP3    H118024   3.759   0.378   0.572
 6027TIP3    H218025   3.811   0.373   0.714
 6028TIP3   OH218026   7.851   5.562   2.998
 6028TIP3    H118027   7.861   5.612   3.079
 6028TIP3    H218028   7.820   5.626   2.934
 6029TIP3   OH218029   1.814   6.046   5.296
 6029TIP3    H118030   1.744   6.083   5.350
 6029TIP3    H218031   1.893   6.054   5.350
 6030TIP3   OH218032   5.330   1.256   4.291
 6030TIP3    H118033   5.321   1.351   4.302
 6030TIP3    H218034   5.248   1.219   4.325
 6031TIP3   OH218035   1.071   4.048   3.678
 6031TIP3    H118036   1.041   3.990   3.748
 6031TIP3    H218037   0.992   4.071   3.629
 6032TIP3   OH218038   7.917   7.268   3.976
 6032TIP3    H118039   7.937   7.322   3.900
 6032TIP3    H218040   7.959   7.314   4.049
 6033TIP3   OH218041   5.800   7.200   0.185
 6033TIP3    H118042   5.829   7.122   0.232
 6033TIP3    H218043   5.854   7.202   0.106
 6034TIP3   OH218044   0.980   3.094   3.693
 6034TIP3    H118045   0.916   3.116   3.626
 6034TIP3    H218046   0.989   2.999   3.687
 6035TIP3   OH218047   8.272   7.403   2.497
 6035TIP3    H118048   8.303   7.405   2.407
 6035TIP3    H218049   8.234   7.316   2.508
 6036TIP3   OH218050   4.268   4.299   0.966
 6036TIP3    H118051   4.249   4.368   1.030
 6036TIP3    H218052   4.267   4.345   0.882
 6037TIP3   OH218053   1.772   2.633   5.762
 6037TIP3    H118054   1.755   2.722   5.731
 6037TIP3    H218055   1.836   2.644   5.833
 6038TIP3   OH218056   6.336   3.594   0.079
 6038TIP3    H118057   6.389   3.652   0.024
 6038TIP3    H218058   6.354   3.506   0.047
 6039TIP3   OH218059   3.781   1.937   3.476
 6039TIP3    H118060   3.735   1.877   3.417
 6039TIP3    H218061   3.762   1.903   3.564
 6040TIP3   OH218062   0.385   5.015   0.062
 6040TIP3    H118063   0.419   4.954   0.128
 6040TIP3    H218064   0.422   5.100   0.087
 6041TIP3   OH218065   2.171   5.905   4.457
 6041TIP3    H118066   2.230   5.979   4.474
 6041TIP3    H218067   2.121   5.933   4.380
 6042TIP3   OH218068   7.542   5.225   5.102
 6042TIP3    H118069   7.595   5.164   5.050
 6042TIP3    H218070   7.474   5.171   5.142
 6043TIP3   OH218071   1.881   1.719   1.163
 6043TIP3    H118072   1.826   1.650   1.202
 6043TIP3    H218073   1.932   1.673   1.096
 6044TIP3   OH218074   0.660   2.767   5.228
 6044TIP3    H118075   0.603   2.695   5.254
 6044TIP3    H218076   0.685   2.747   5.138
 6045TIP3   OH218077   7.125   5.192   3.735
 6045TIP3    H118078   7.166   5.215   3.651
 6045TIP3    H218079   7.101   5.275   3.774
 6046TIP3   OH218080   1.048   4.133   6.049
 6046TIP3    H118081   1.038   4.054   5.997
 6046TIP3    H218082   0.967   4.182   6.033
 6047TIP3   OH218083   8.242   1.176   2.394
 6047TIP3    H118084   8.338   1.168   2.392
 6047TIP3    H218085   8.219   1.202   2.305
 6048TIP3   OH218086   0.336   7.340   2.360
 6048TIP3    H118087   0.368   7.428   2.381
 6048TIP3    H218088   0.298   7.349   2.272
 6049TIP3   OH218089   3.185   0.883   2.032
 6049TIP3    H118090   3.139   0.958   1.996
 6049TIP3    H218091   3.277   0.900   2.012
 6050TIP3   OH218092   7.151   7.722   2.470
 6050TIP3    H118093   7.201   7.796   2.505
 6050TIP3    H218094   7.092   7.697   2.542
 6051TIP3   OH218095   0.773   3.711   3.912
 6051TIP3    H118096   0.754   3.785   3.854
 6051TIP3    H218097   0.832   3.747   3.978
 6052TIP3   OH218098   6.059   7.303   2.939
 6052TIP3    H118099   5.977   7.330   2.980
 6052TIP3    H218100   6.074   7.370   2.871
 6053TIP3   OH218101   5.649   1.717   1.521
 6053TIP3    H118102   5.626   1.692   1.431
 6053TIP3    H218103   5.739   1.749   1.515
 6054TIP3   OH218104   5.910   7.685   6.469
 6054TIP3    H118105   5.965   7.746   6.420
 6054TIP3    H218106   5.948   7.599   6.451
 6055TIP3   OH218107   6.091   5.458  -0.023
 6055TIP3    H118108   6.119   5.531   0.032
 6055TIP3    H218109   6.000   5.442   0.001
 6056TIP3   OH218110   0.322   3.239   4.050
 6056TIP3    H118111   0.342   3.165   3.993
 6056TIP3    H218112   0.406   3.280   4.068
 6057TIP3   OH218113   0.359   0.009   1.789
 6057TIP3    H118114   0.301   0.018   1.714
 6057TIP3    H218115   0.414   0.087   1.788
 6058TIP3   OH218116   4.916   0.705   4.226
 6058TIP3    H118117   4.838   0.737   4.181
 6058TIP3    H218118   4.898   0.612   4.242
 6059TIP3   OH218119   7.364   1.065   0.745
 6059TIP3    H118120   7.272   1.039   0.748
 6059TIP3    H218121   7.363   1.156   0.717
 6060TIP3   OH218122   4.502   3.857   2.839
 6060TIP3    H118123   4.531   3.767   2.850
 6060TIP3    H218124   4.545   3.905   2.911
 6061TIP3   OH218125   0.157   3.602   5.847
 6061TIP3    H118126   0.089   3.545   5.881
 6061TIP3    H218127   0.122   3.690   5.858
 6062TIP3   OH218128   5.285   0.710   5.579
 6062TIP3    H118129   5.318   0.741   5.663
 6062TIP3    H218130   5.284   0.787   5.523
 6063TIP3   OH218131   2.449   6.699   6.148
 6063TIP3    H118132   2.422   6.765   6.083
 6063TIP3    H218133   2.544   6.703   6.148
 6064TIP3   OH218134   0.589   5.067   3.865
 6064TIP3    H118135   0.543   4.985   3.886
 6064TIP3    H218136   0.570   5.124   3.939
 6065TIP3   OH218137   0.811   1.663   5.261
 6065TIP3    H118138   0.873   1.718   5.213
 6065TIP3    H218139   0.730   1.670   5.211
 6066TIP3   OH218140   8.250   6.080   3.626
 6066TIP3    H118141   8.243   6.106   3.534
 6066TIP3    H218142   8.343   6.089   3.647
 6067TIP3   OH218143   1.552   2.157   2.235
 6067TIP3    H118144   1.472   2.209   2.244
 6067TIP3    H218145   1.580   2.171   2.145
 6068TIP3   OH218146   7.831   6.196   1.202
 6068TIP3    H118147   7.838   6.233   1.290
 6068TIP3    H218148   7.820   6.102   1.217
 6069TIP3   OH218149   7.199   2.434   1.006
 6069TIP3    H118150   7.211   2.342   1.030
 6069TIP3    H218151   7.162   2.430   0.918
 6070TIP3   OH218152   6.789   5.911   5.044
 6070TIP3    H118153   6.823   5.956   5.121
 6070TIP3    H218154   6.781   5.819   5.071
 6071TIP3   OH218155   4.677   5.385   5.281
 6071TIP3    H118156   4.760   5.428   5.302
 6071TIP3    H218157   4.639   5.438   5.211
 6072TIP3   OH218158   0.493   4.057   1.714
 6072TIP3    H118159   0.515   4.066   1.807
 6072TIP3    H218160   0.399   4.078   1.709
 6073TIP3   OH218161   0.222   4.292   1.536
 6073TIP3    H118162   0.218   4.213   1.590
 6073TIP3    H218163   0.132   4.303   1.503
 6074TIP3   OH218164   7.675   4.444   5.587
 6074TIP3    H118165   7.648   4.535   5.586
 6074TIP3    H218166   7.593   4.394   5.586
 6075TIP3   OH218167   2.249   1.812   4.706
 6075TIP3    H118168   2.198   1.766   4.639
 6075TIP3    H218169   2.288   1.742   4.758
 6076TIP3   OH218170   1.475   3.306   0.258
 6076TIP3    H118171   1.524   3.337   0.334
 6076TIP3    H218172   1.400   3.260   0.295
 6077TIP3   OH218173   0.153   2.214   2.951
 6077TIP3    H118174   0.078   2.182   2.900
 6077TIP3    H218175   0.200   2.135   2.976
 6078TIP3   OH218176   4.422   7.587   4.072
 6078TIP3    H118177   4.432   7.538   3.990
 6078TIP3    H218178   4.388   7.523   4.134
 6079TIP3   OH218179   5.496   7.301  -0.004
 6079TIP3    H118180   5.542   7.221   0.022
 6079TIP3    H218181   5.471   7.342   0.079
 6080TIP3   OH218182   4.156   6.477   3.321
 6080TIP3    H118183   4.061   6.486   3.310
 6080TIP3    H218184   4.193   6.546   3.267
 6081TIP3   OH218185   7.093   5.694   4.639
 6081TIP3    H118186   7.185   5.685   4.664
 6081TIP3    H218187   7.053   5.743   4.711
 6082TIP3   OH218188   7.282   0.587   5.996
 6082TIP3    H118189   7.203   0.574   5.943
 6082TIP3    H218190   7.255   0.647   6.065
 6083TIP3   OH218191   0.368   0.674   3.194
 6083TIP3    H118192   0.284   0.665   3.239
 6083TIP3    H218193   0.345   0.683   3.102
 6084TIP3   OH218194   4.921   4.275   5.868
 6084TIP3    H118195   4.925   4.364   5.833
 6084TIP3    H218196   4.850   4.233   5.820
 6085TIP3   OH218197   5.194   0.803   3.318
 6085TIP3    H118198   5.237   0.826   3.401
 6085TIP3    H218199   5.171   0.887   3.279
 6086TIP3   OH218200   0.234   5.895   6.635
 6086TIP3    H118201   0.239   5.954   6.560
 6086TIP3    H218202   0.288   5.820   6.611
 6087TIP3   OH218203   0.816   4.055   4.066
 6087TIP3    H118204   0.808   4.147   4.093
 6087TIP3    H218205   0.910   4.040   4.061
 6088TIP3   OH218206   2.414   7.074   2.052
 6088TIP3    H118207   2.403   7.065   1.957
 6088TIP3    H218208   2.463   6.996   2.078
 6089TIP3   OH218209   1.365   3.291   3.781
 6089TIP3    H118210   1.324   3.287   3.867
 6089TIP3    H218211   1.292   3.287   3.719
 6090TIP3   OH218212   1.507   1.709   6.487
 6090TIP3    H118213   1.457   1.726   6.407
 6090TIP3    H218214   1.591   1.676   6.456
 6091TIP3   OH218215   2.880   2.002   5.042
 6091TIP3    H118216   2.899   1.916   5.005
 6091TIP3    H218217   2.897   1.993   5.136
 6092TIP3   OH218218   4.908   2.049   5.302
 6092TIP3    H118219   4.855   2.081   5.374
 6092TIP3    H218220   4.852   1.987   5.255
 6093TIP3   OH218221   6.059   4.325   5.038
 6093TIP3    H118222   6.153   4.307   5.039
 6093TIP3    H218223   6.047   4.395   4.975
 6094TIP3   OH218224   4.420   4.524   4.702
 6094TIP3    H118225   4.503   4.568   4.688
 6094TIP3    H218226   4.367   4.587   4.750
 6095TIP3   OH218227   2.176   2.705   1.582
 6095TIP3    H118228   2.184   2.681   1.490
 6095TIP3    H218229   2.092   2.668   1.610
 6096TIP3   OH218230   4.839   7.496   6.294
 6096TIP3    H118231   4.771   7.498   6.227
 6096TIP3    H218232   4.792   7.483   6.376
 6097TIP3   OH218233   2.525   5.375   0.830
 6097TIP3    H118234   2.593   5.414   0.775
 6097TIP3    H218235   2.572   5.314   0.886
 6098TIP3   OH218236   4.001   2.524   1.808
 6098TIP3    H118237   4.090   2.489   1.808
 6098TIP3    H218238   4.009   2.610   1.767
 6099TIP3   OH218239   0.616   7.761   5.409
 6099TIP3    H118240   0.696   7.805   5.382
 6099TIP3    H218241   0.637   7.723   5.494
 6100TIP3   OH218242   5.796   5.420   0.874
 6100TIP3    H118243   5.858   5.474   0.922
 6100TIP3    H218244   5.790   5.461   0.787
 6101TIP3   OH218245   6.144   2.471   4.898
 6101TIP3    H118246   6.189   2.554   4.885
 6101TIP3    H218247   6.085   2.487   4.971
 6102TIP3   OH218248   5.131   0.680   6.697
 6102TIP3    H118249   5.042   0.661   6.669
 6102TIP3    H218250   5.126   0.769   6.733
 6103TIP3   OH218251   1.467   5.687   1.656
 6103TIP3    H118252   1.414   5.766   1.643
 6103TIP3    H218253   1.403   5.618   1.674
 6104TIP3   OH218254   8.209   3.643   0.275
 6104TIP3    H118255   8.218   3.563   0.326
 6104TIP3    H218256   8.266   3.707   0.319
 6105TIP3   OH218257   1.387   3.526   4.236
 6105TIP3    H118258   1.434   3.496   4.314
 6105TIP3    H218259   1.425   3.612   4.216
 6106TIP3   OH218260   6.618   3.270   0.646
 6106TIP3    H118261   6.663   3.321   0.579
 6106TIP3    H218262   6.553   3.330   0.681
 6107TIP3   OH218263   4.488   7.110   1.479
 6107TIP3    H118264   4.474   7.116   1.385
 6107TIP3    H218265   4.541   7.187   1.500
 6108TIP3   OH218266   5.611   2.089   3.763
 6108TIP3    H118267   5.691   2.116   3.808
 6108TIP3    H218268   5.542   2.102   3.827
 6109TIP3   OH218269   0.378   3.232   1.545
 6109TIP3    H118270   0.455   3.181   1.570
 6109TIP3    H218271   0.329   3.174   1.486
 6110TIP3   OH218272   4.405   2.021   6.357
 6110TIP3    H118273   4.379   2.067   6.437
 6110TIP3    H218274   4.496   2.045   6.343
 6111TIP3   OH218275   8.169   0.074   4.248
 6111TIP3    H118276   8.248   0.124   4.228
 6111TIP3    H218277   8.186  -0.013   4.211
 6112TIP3   OH218278   3.828   0.114   5.510
 6112TIP3    H118279   3.906   0.106   5.454
 6112TIP3    H218280   3.838   0.043   5.574
 6113TIP3   OH218281   3.290   6.240   3.039
 6113TIP3    H118282   3.381   6.269   3.036
 6113TIP3    H218283   3.240   6.319   3.058
 6114TIP3   OH218284   0.644   6.409   6.542
 6114TIP3    H118285   0.551   6.433   6.545
 6114TIP3    H218286   0.649   6.328   6.593
 6115TIP3   OH218287   3.510   0.663   4.604
 6115TIP3    H118288   3.440   0.634   4.662
 6115TIP3    H218289   3.495   0.616   4.522
 6116TIP3   OH218290   0.434   1.197   3.646
 6116TIP3    H118291   0.512   1.240   3.610
 6116TIP3    H218292   0.361   1.249   3.612
 6117TIP3   OH218293   7.971   0.257   1.642
 6117TIP3    H118294   7.991   0.230   1.731
 6117TIP3    H218295   7.998   0.183   1.588
 6118TIP3   OH218296   7.109   2.794   0.834
 6118TIP3    H118297   7.037   2.733   0.819
 6118TIP3    H218298   7.071   2.881   0.820
 6119TIP3   OH218299   3.589   0.528   5.744
 6119TIP3    H118300   3.606   0.609   5.696
 6119TIP3    H218301   3.535   0.475   5.685
 6120TIP3   OH218302   5.629   0.948   5.758
 6120TIP3    H118303   5.685   1.008   5.807
 6120TIP3    H218304   5.606   0.880   5.820
 6121TIP3   OH218305   5.874   1.463   2.139
 6121TIP3    H118306   5.931   1.386   2.138
 6121TIP3    H218307   5.888   1.502   2.225
 6122TIP3   OH218308   1.905   5.022   5.043
 6122TIP3    H118309   1.908   5.115   5.021
 6122TIP3    H218310   1.820   5.009   5.084
 6123TIP3   OH218311   3.155   7.762   0.696
 6123TIP3    H118312   3.159   7.675   0.658
 6123TIP3    H218313   3.229   7.766   0.756
 6124TIP3   OH218314   2.938   2.401   5.174
 6124TIP3    H118315   2.896   2.315   5.185
 6124TIP3    H218316   3.024   2.391   5.214
 6125TIP3   OH218317   5.724   5.931   3.634
 6125TIP3    H118318   5.707   5.842   3.665
 6125TIP3    H218319   5.709   5.928   3.540
 6126TIP3   OH218320   7.199   0.173   5.270
 6126TIP3    H118321   7.228   0.209   5.354
 6126TIP3    H218322   7.256   0.096   5.257
 6127TIP3   OH218323   1.839   2.099   5.501
 6127TIP3    H118324   1.841   2.142   5.587
 6127TIP3    H218325   1.929   2.105   5.468
 6128TIP3   OH218326   6.890   5.048   6.507
 6128TIP3    H118327   6.965   5.108   6.506
 6128TIP3    H218328   6.813   5.105   6.510
 6129TIP3   OH218329   5.175   7.159   4.029
 6129TIP3    H118330   5.153   7.134   3.939
 6129TIP3    H218331   5.100   7.130   4.081
 6130TIP3   OH218332   2.590   7.233   2.217
 6130TIP3    H118333   2.501   7.213   2.188
 6130TIP3    H218334   2.632   7.270   2.139
 6131TIP3   OH218335   5.378   6.630   5.445
 6131TIP3    H118336   5.397   6.714   5.489
 6131TIP3    H218337   5.334   6.655   5.364
 6132TIP3   OH218338   5.513   7.151   5.361
 6132TIP3    H118339   5.501   7.162   5.455
 6132TIP3    H218340   5.502   7.239   5.325
 6133TIP3   OH218341   3.468   0.746   2.921
 6133TIP3    H118342   3.513   0.781   2.845
 6133TIP3    H218343   3.375   0.748   2.897
 6134TIP3   OH218344   0.349   5.443   2.939
 6134TIP3    H118345   0.346   5.428   2.845
 6134TIP3    H218346   0.313   5.363   2.977
 6135TIP3   OH218347   1.058   0.156   0.045
 6135TIP3    H118348   0.977   0.123   0.084
 6135TIP3    H218349   1.124   0.144   0.114
 6136TIP3   OH218350   0.441   4.867   4.001
 6136TIP3    H118351   0.396   4.797   4.048
 6136TIP3    H218352   0.447   4.939   4.063
 6137TIP3   OH218353   0.274   6.958   3.649
 6137TIP3    H118354   0.263   7.050   3.623
 6137TIP3    H218355   0.356   6.931   3.609
 6138TIP3   OH218356   4.242   3.048   0.368
 6138TIP3    H118357   4.322   2.998   0.352
 6138TIP3    H218358   4.171   2.988   0.344
 6139TIP3   OH218359   4.488   3.617   0.299
 6139TIP3    H118360   4.500   3.599   0.392
 6139TIP3    H218361   4.443   3.538   0.266
 6140TIP3   OH218362   5.736   7.321   2.702
 6140TIP3    H118363   5.773   7.369   2.628
 6140TIP3    H218364   5.698   7.242   2.663
 6141TIP3   OH218365   0.496  -0.002   6.689
 6141TIP3    H118366   0.531   0.077   6.647
 6141TIP3    H218367   0.453  -0.049   6.618
 6142TIP3   OH218368   2.091   5.841   6.136
 6142TIP3    H118369   2.142   5.760   6.127
 6142TIP3    H218370   2.113   5.892   6.058
 6143TIP3   OH218371   3.801   1.112   6.378
 6143TIP3    H118372   3.865   1.078   6.441
 6143TIP3    H218373   3.729   1.144   6.433
 6144TIP3   OH218374   4.351   5.907   6.669
 6144TIP3    H118375   4.277   5.938   6.722
 6144TIP3    H218376   4.426   5.911   6.727
 6145TIP3   OH218377   6.695   4.957   5.899
 6145TIP3    H118378   6.681   4.958   5.994
 6145TIP3    H218379   6.725   4.868   5.881
 6146TIP3   OH218380   5.313   0.848   6.574
 6146TIP3    H118381   5.278   0.935   6.595
 6146TIP3    H218382   5.240   0.789   6.594
 6147TIP3   OH218383   4.153   3.360   2.153
 6147TIP3    H118384   4.131   3.326   2.066
 6147TIP3    H218385   4.070   3.394   2.187
 6148TIP3   OH218386   4.003   7.262   6.365
 6148TIP3    H118387   3.978   7.313   6.442
 6148TIP3    H218388   4.027   7.327   6.299
 6149TIP3   OH218389   8.017   1.814   0.641
 6149TIP3    H118390   7.976   1.868   0.708
 6149TIP3    H218391   7.945   1.765   0.602
 6150TIP3   OH218392   3.383   6.933   1.788
 6150TIP3    H118393   3.442   6.888   1.727
 6150TIP3    H218394   3.296   6.899   1.765
 6151TIP3   OH218395   0.534   4.081   4.809
 6151TIP3    H118396   0.578   4.025   4.872
 6151TIP3    H218397   0.553   4.042   4.724
 6152TIP3   OH218398   4.724   7.482   6.550
 6152TIP3    H118399   4.691   7.560   6.504
 6152TIP3    H218400   4.781   7.517   6.618
 6153TIP3   OH218401   7.120   4.424   1.707
 6153TIP3    H118402   7.155   4.452   1.792
 6153TIP3    H218403   7.077   4.502   1.672
 6154TIP3   OH218404   5.476   2.716   2.955
 6154TIP3    H118405   5.388   2.684   2.937
 6154TIP3    H218406   5.528   2.637   2.969
 6155TIP3   OH218407   5.520   7.637   3.719
 6155TIP3    H118408   5.581   7.566   3.742
 6155TIP3    H218409   5.576   7.707   3.685
 6156TIP3   OH218410   5.036   0.398   0.591
 6156TIP3    H118411   4.954   0.365   0.627
 6156TIP3    H218412   5.020   0.405   0.497
 6157TIP3   OH218413   3.468   2.276   5.278
 6157TIP3    H118414   3.505   2.211   5.337
 6157TIP3    H218415   3.495   2.360   5.315
 6158TIP3   OH218416   2.804   1.759   3.105
 6158TIP3    H118417   2.764   1.846   3.115
 6158TIP3    H218418   2.753   1.718   3.035
 6159TIP3   OH218419   0.974   2.368   1.878
 6159TIP3    H118420   0.947   2.357   1.786
 6159TIP3    H218421   1.070   2.376   1.874
 6160TIP3   OH218422   5.149   6.501   0.407
 6160TIP3    H118423   5.109   6.469   0.488
 6160TIP3    H218424   5.075   6.531   0.354
 6161TIP3   OH218425   0.573   3.237   5.099
 6161TIP3    H118426   0.520   3.158   5.091
 6161TIP3    H218427   0.513   3.303   5.134
 6162TIP3   OH218428   6.380   5.296   4.297
 6162TIP3    H118429   6.322   5.257   4.232
 6162TIP3    H218430   6.464   5.302   4.252
 6163TIP3   OH218431   2.005   3.942   0.725
 6163TIP3    H118432   2.063   4.001   0.774
 6163TIP3    H218433   1.993   3.985   0.641
 6164TIP3   OH218434   5.908   0.514   3.899
 6164TIP3    H118435   5.834   0.460   3.872
 6164TIP3    H218436   5.985   0.460   3.880
 6165TIP3   OH218437   0.234   7.702   3.874
 6165TIP3    H118438   0.329   7.701   3.859
 6165TIP3    H218439   0.225   7.720   3.968
 6166TIP3   OH218440   7.179   1.738   1.207
 6166TIP3    H118441   7.086   1.718   1.199
 6166TIP3    H218442   7.204   1.772   1.120
 6167TIP3   OH218443   5.306   4.579   1.205
 6167TIP3    H118444   5.244   4.633   1.156
 6167TIP3    H218445   5.393   4.609   1.176
 6168TIP3   OH218446   0.207   2.531   2.411
 6168TIP3    H118447   0.114   2.532   2.387
 6168TIP3    H218448   0.225   2.621   2.437
 6169TIP3   OH218449   4.082   2.476   2.693
 6169TIP3    H118450   4.044   2.461   2.606
 6169TIP3    H218451   4.010   2.462   2.754
 6170TIP3   OH218452   1.532   2.470   2.550
 6170TIP3    H118453   1.543   2.523   2.629
 6170TIP3    H218454   1.438   2.451   2.547
 6171TIP3   OH218455   4.918   3.987   6.132
 6171TIP3    H118456   4.982   3.994   6.203
 6171TIP3    H218457   4.875   4.072   6.130
 6172TIP3   OH218458   3.869   4.171   1.151
 6172TIP3    H118459   3.887   4.081   1.177
 6172TIP3    H218460   3.929   4.224   1.204
 6173TIP3   OH218461   7.318   1.370   4.922
 6173TIP3    H118462   7.380   1.431   4.963
 6173TIP3    H218463   7.262   1.426   4.868
 6174TIP3   OH218464   5.516   0.356   3.160
 6174TIP3    H118465   5.440   0.298   3.167
 6174TIP3    H218466   5.500   0.406   3.080
 6175TIP3   OH218467   0.989   3.266   4.987
 6175TIP3    H118468   0.938   3.194   5.024
 6175TIP3    H218469   0.994   3.331   5.058
 6176TIP3   OH218470   8.192   1.468   4.507
 6176TIP3    H118471   8.217   1.406   4.439
 6176TIP3    H218472   8.275   1.496   4.546
 6177TIP3   OH218473   4.675   6.658   2.127
 6177TIP3    H118474   4.764   6.693   2.133
 6177TIP3    H218475   4.619   6.733   2.145
 6178TIP3   OH218476   2.766   6.633   4.801
 6178TIP3    H118477   2.801   6.702   4.858
 6178TIP3    H218478   2.764   6.555   4.857
 6179TIP3   OH218479   7.864   2.698   2.357
 6179TIP3    H118480   7.876   2.707   2.451
 6179TIP3    H218481   7.771   2.678   2.346
 6180TIP3   OH218482   5.369   2.858   3.145
 6180TIP3    H118483   5.298   2.912   3.111
 6180TIP3    H218484   5.410   2.821   3.067
 6181TIP3   OH218485   5.531   3.327   5.074
 6181TIP3    H118486   5.564   3.264   5.138
 6181TIP3    H218487   5.519   3.407   5.124
 6182TIP3   OH218488   0.335   2.911   0.931
 6182TIP3    H118489   0.392   2.988   0.938
 6182TIP3    H218490   0.285   2.911   1.013
 6183TIP3   OH218491   2.816   3.514   2.644
 6183TIP3    H118492   2.722   3.530   2.634
 6183TIP3    H218493   2.826   3.491   2.737
 6184TIP3   OH218494   7.876   7.418   5.881
 6184TIP3    H118495   7.830   7.501   5.871
 6184TIP3    H218496   7.930   7.429   5.959
 6185TIP3   OH218497   1.122   2.229   4.474
 6185TIP3    H118498   1.067   2.295   4.431
 6185TIP3    H218499   1.085   2.145   4.447
 6186TIP3   OH218500   3.893   4.598   2.158
 6186TIP3    H118501   3.948   4.520   2.141
 6186TIP3    H218502   3.810   4.562   2.189
 6187TIP3   OH218503   7.353   4.691   0.146
 6187TIP3    H118504   7.311   4.625   0.091
 6187TIP3    H218505   7.369   4.765   0.087
 6188TIP3   OH218506   4.664   4.064   4.796
 6188TIP3    H118507   4.701   4.017   4.871
 6188TIP3    H218508   4.647   4.152   4.828
 6189TIP3   OH218509   5.607   4.062   3.606
 6189TIP3    H118510   5.663   4.135   3.632
 6189TIP3    H218511   5.519   4.099   3.603
 6190TIP3   OH218512   4.738   2.907   2.431
 6190TIP3    H118513   4.746   2.869   2.519
 6190TIP3    H218514   4.654   2.952   2.433
 6191TIP3   OH218515   1.127   6.150   0.629
 6191TIP3    H118516   1.111   6.057   0.617
 6191TIP3    H218517   1.054   6.193   0.583
 6192TIP3   OH218518   3.826   0.564   3.595
 6192TIP3    H118519   3.901   0.570   3.536
 6192TIP3    H218520   3.856   0.508   3.667
 6193TIP3   OH218521   8.073   3.321   5.344
 6193TIP3    H118522   8.047   3.353   5.430
 6193TIP3    H218523   8.020   3.372   5.282
 6194TIP3   OH218524   5.938   5.206   6.489
 6194TIP3    H118525   5.845   5.196   6.467
 6194TIP3    H218526   5.980   5.228   6.406
 6195TIP3   OH218527   7.936   3.215   5.041
 6195TIP3    H118528   7.898   3.157   5.107
 6195TIP3    H218529   7.909   3.303   5.067
 6196TIP3   OH218530   8.156   2.604   6.679
 6196TIP3    H118531   8.234   2.563   6.716
 6196TIP3    H218532   8.187   2.690   6.648
 6197TIP3   OH218533   1.778   5.153   3.801
 6197TIP3    H118534   1.694   5.128   3.762
 6197TIP3    H218535   1.843   5.124   3.737
 6198TIP3   OH218536   5.441   2.034   3.165
 6198TIP3    H118537   5.487   2.117   3.175
 6198TIP3    H218538   5.367   2.040   3.226
 6199TIP3   OH218539   7.721   7.505   3.670
 6199TIP3    H118540   7.770   7.567   3.724
 6199TIP3    H218541   7.759   7.419   3.691
 6200TIP3   OH218542   7.684   2.694   1.354
 6200TIP3    H118543   7.589   2.694   1.344
 6200TIP3    H218544   7.698   2.697   1.448
 6201TIP3   OH218545   5.649   0.809   4.157
 6201TIP3    H118546   5.599   0.851   4.227
 6201TIP3    H218547   5.668   0.722   4.190
 6202TIP3   OH218548   6.020   0.319   0.824
 6202TIP3    H118549   5.949   0.263   0.853
 6202TIP3    H218550   5.998   0.406   0.856
 6203TIP3   OH218551   4.671   1.695   0.380
 6203TIP3    H118552   4.579   1.686   0.357
 6203TIP3    H218553   4.717   1.642   0.314
 6204TIP3   OH218554   0.849   6.118   3.285
 6204TIP3    H118555   0.779   6.134   3.348
 6204TIP3    H218556   0.923   6.087   3.338
 6205TIP3   OH218557   2.093   6.949   4.678
 6205TIP3    H118558   2.108   6.871   4.624
 6205TIP3    H218559   2.173   7.000   4.668
 6206TIP3   OH218560   8.031   0.504   0.073
 6206TIP3    H118561   8.000   0.527   0.161
 6206TIP3    H218562   7.952   0.499   0.020
 6207TIP3   OH218563   2.272   0.148   5.246
 6207TIP3    H118564   2.302   0.076   5.303
 6207TIP3    H218565   2.280   0.113   5.158
 6208TIP3   OH218566   4.657   5.261   6.113
 6208TIP3    H118567   4.709   5.241   6.191
 6208TIP3    H218568   4.566   5.250   6.142
 6209TIP3   OH218569   5.770   2.983   4.539
 6209TIP3    H118570   5.779   2.902   4.488
 6209TIP3    H218571   5.689   3.022   4.507
 6210TIP3   OH218572   0.821   3.154   1.325
 6210TIP3    H118573   0.858   3.090   1.386
 6210TIP3    H218574   0.863   3.237   1.348
 6211TIP3   OH218575   4.208   5.563   5.924
 6211TIP3    H118576   4.143   5.522   5.980
 6211TIP3    H218577   4.255   5.623   5.982
 6212TIP3   OH218578   5.262   1.136   6.525
 6212TIP3    H118579   5.205   1.130   6.449
 6212TIP3    H218580   5.251   1.226   6.556
 6213TIP3   OH218581   7.131   5.757   1.949
 6213TIP3    H118582   7.103   5.733   2.037
 6213TIP3    H218583   7.144   5.852   1.953
 6214TIP3   OH218584   3.534   0.813   2.399
 6214TIP3    H118585   3.446   0.776   2.402
 6214TIP3    H218586   3.580   0.758   2.335
 6215TIP3   OH218587   2.759   2.285   1.022
 6215TIP3    H118588   2.693   2.260   1.087
 6215TIP3    H218589   2.710   2.337   0.958
 6216TIP3   OH218590   5.802   1.201   5.045
 6216TIP3    H118591   5.889   1.163   5.031
 6216TIP3    H218592   5.770   1.159   5.125
 6217TIP3   OH218593   1.051   3.754   5.135
 6217TIP3    H118594   1.124   3.813   5.118
 6217TIP3    H218595   1.013   3.737   5.049
 6218TIP3   OH218596   2.964   2.631   5.528
 6218TIP3    H118597   3.040   2.672   5.569
 6218TIP3    H218598   2.978   2.643   5.434
 6219TIP3   OH218599   0.410   0.736   1.653
 6219TIP3    H118600   0.370   0.711   1.570
 6219TIP3    H218601   0.405   0.832   1.653
 6220TIP3   OH218602   4.566   3.821   1.550
 6220TIP3    H118603   4.624   3.759   1.595
 6220TIP3    H218604   4.593   3.907   1.583
 6221TIP3   OH218605   7.251   3.056   3.912
 6221TIP3    H118606   7.171   3.047   3.860
 6221TIP3    H218607   7.306   2.983   3.884
 6222TIP3   OH218608   6.923   1.449   4.942
 6222TIP3    H118609   7.003   1.497   4.964
 6222TIP3    H218610   6.952   1.376   4.888
 6223TIP3   OH218611   4.548   2.421   1.554
 6223TIP3    H118612   4.558   2.516   1.562
 6223TIP3    H218613   4.453   2.407   1.556
 6224TIP3   OH218614   7.105   1.106   0.911
 6224TIP3    H118615   7.118   1.114   1.005
 6224TIP3    H218616   7.010   1.106   0.899
 6225TIP3   OH218617   7.972   4.962   5.259
 6225TIP3    H118618   8.006   4.880   5.295
 6225TIP3    H218619   8.005   4.965   5.169
 6226TIP3   OH218620   2.520   3.156   0.587
 6226TIP3    H118621   2.425   3.142   0.584
 6226TIP3    H218622   2.556   3.079   0.543
 6227TIP3   OH218623   4.942   3.127   1.037
 6227TIP3    H118624   5.033   3.127   1.065
 6227TIP3    H218625   4.911   3.216   1.057
 6228TIP3   OH218626   8.232   3.922   5.854
 6228TIP3    H118627   8.220   3.889   5.944
 6228TIP3    H218628   8.144   3.945   5.825
 6229TIP3   OH218629   3.107   7.427   2.803
 6229TIP3    H118630   3.170   7.498   2.794
 6229TIP3    H218631   3.132   7.363   2.735
 6230TIP3   OH218632   3.147   6.850   0.713
 6230TIP3    H118633   3.211   6.806   0.768
 6230TIP3    H218634   3.094   6.902   0.774
 6231TIP3   OH218635   1.030   4.153   1.419
 6231TIP3    H118636   1.103   4.133   1.360
 6231TIP3    H218637   1.049   4.241   1.451
 6232TIP3   OH218638   3.563   3.535   0.337
 6232TIP3    H118639   3.658   3.533   0.327
 6232TIP3    H218640   3.538   3.443   0.344
 6233TIP3   OH218641   3.200   2.255   5.818
 6233TIP3    H118642   3.212   2.310   5.741
 6233TIP3    H218643   3.134   2.190   5.792
 6234TIP3   OH218644   0.276   1.532   0.819
 6234TIP3    H118645   0.351   1.483   0.786
 6234TIP3    H218646   0.294   1.623   0.797
 6235TIP3   OH218647   5.476   6.655   1.577
 6235TIP3    H118648   5.442   6.738   1.544
 6235TIP3    H218649   5.537   6.680   1.647
 6236TIP3   OH218650   2.145   4.453   0.263
 6236TIP3    H118651   2.191   4.424   0.342
 6236TIP3    H218652   2.186   4.404   0.192
 6237TIP3   OH218653   6.218   5.115   0.999
 6237TIP3    H118654   6.130   5.152   0.987
 6237TIP3    H218655   6.202   5.028   1.034
 6238TIP3   OH218656   6.740   4.467   0.161
 6238TIP3    H118657   6.821   4.416   0.156
 6238TIP3    H218658   6.674   4.405   0.190
 6239TIP3   OH218659   5.244   0.703   1.051
 6239TIP3    H118660   5.316   0.767   1.050
 6239TIP3    H218661   5.285   0.621   1.076
 6240TIP3   OH218662   2.346   0.689   5.754
 6240TIP3    H118663   2.398   0.656   5.827
 6240TIP3    H218664   2.258   0.654   5.769
 6241TIP3   OH218665   0.412   0.722   6.014
 6241TIP3    H118666   0.405   0.738   6.108
 6241TIP3    H218667   0.492   0.767   5.987
 6242TIP3   OH218668   0.501   7.486   4.516
 6242TIP3    H118669   0.591   7.464   4.538
 6242TIP3    H218670   0.450   7.457   4.592
 6243TIP3   OH218671   2.611   1.295   6.161
 6243TIP3    H118672   2.607   1.355   6.236
 6243TIP3    H218673   2.559   1.219   6.188
 6244TIP3   OH218674   1.986   2.947   1.913
 6244TIP3    H118675   1.921   2.973   1.978
 6244TIP3    H218676   1.949   2.867   1.874
 6245TIP3   OH218677   5.879   3.885   1.080
 6245TIP3    H118678   5.827   3.819   1.126
 6245TIP3    H218679   5.947   3.834   1.035
 6246TIP3   OH218680   4.764   4.742   3.099
 6246TIP3    H118681   4.702   4.814   3.108
 6246TIP3    H218682   4.740   4.681   3.170
 6247TIP3   OH218683   1.458   6.557   3.163
 6247TIP3    H118684   1.411   6.640   3.173
 6247TIP3    H218685   1.450   6.536   3.070
 6248TIP3   OH218686   0.921   6.903   2.635
 6248TIP3    H118687   0.954   6.969   2.696
 6248TIP3    H218688   0.831   6.931   2.615
 6249TIP3   OH218689   4.826   0.071   0.376
 6249TIP3    H118690   4.907   0.050   0.421
 6249TIP3    H218691   4.760   0.015   0.417
 6250TIP3   OH218692   1.754   6.244   2.655
 6250TIP3    H118693   1.733   6.171   2.597
 6250TIP3    H218694   1.704   6.318   2.620
 6251TIP3   OH218695   1.078   6.142   1.602
 6251TIP3    H118696   1.052   6.054   1.573
 6251TIP3    H218697   1.009   6.169   1.662
 6252TIP3   OH218698   1.757   4.292   0.157
 6252TIP3    H118699   1.674   4.294   0.111
 6252TIP3    H218700   1.823   4.301   0.088
 6253TIP3   OH218701   7.579   0.069   6.180
 6253TIP3    H118702   7.663   0.092   6.140
 6253TIP3    H218703   7.514   0.115   6.127
 6254TIP3   OH218704   0.445   3.060   3.114
 6254TIP3    H118705   0.469   3.049   3.022
 6254TIP3    H218706   0.354   3.029   3.119
 6255TIP3   OH218707   7.069   3.444   5.640
 6255TIP3    H118708   7.155   3.446   5.598
 6255TIP3    H218709   7.009   3.474   5.572
 6256TIP3   OH218710   5.254   6.889   0.548
 6256TIP3    H118711   5.213   6.893   0.635
 6256TIP3    H218712   5.229   6.803   0.514
 6257TIP3   OH218713   1.927   2.069   3.267
 6257TIP3    H118714   1.912   1.976   3.285
 6257TIP3    H218715   1.944   2.108   3.353
 6258TIP3   OH218716   1.900   3.334   4.057
 6258TIP3    H118717   1.870   3.385   3.982
 6258TIP3    H218718   1.946   3.259   4.019
 6259TIP3   OH218719   6.837   0.551   2.594
 6259TIP3    H118720   6.898   0.604   2.544
 6259TIP3    H218721   6.854   0.461   2.565
 6260TIP3   OH218722   5.825   0.466   6.412
 6260TIP3    H118723   5.784   0.510   6.338
 6260TIP3    H218724   5.755   0.455   6.476
 6261TIP3   OH218725   6.162   6.073   6.468
 6261TIP3    H118726   6.194   6.124   6.393
 6261TIP3    H218727   6.169   6.134   6.542
 6262TIP3   OH218728   6.344   6.795   0.564
 6262TIP3    H118729   6.379   6.706   0.553
 6262TIP3    H218730   6.259   6.793   0.521
 6263TIP3   OH218731   0.732   7.799   3.031
 6263TIP3    H118732   0.666   7.857   3.071
 6263TIP3    H218733   0.692   7.712   3.035
 6264TIP3   OH218734   1.987   4.411   2.169
 6264TIP3    H118735   1.971   4.494   2.215
 6264TIP3    H218736   2.011   4.437   2.080
 6265TIP3   OH218737   3.419   6.135   2.644
 6265TIP3    H118738   3.505   6.099   2.668
 6265TIP3    H218739   3.436   6.186   2.565
 6266TIP3   OH218740   3.740   0.954   0.524
 6266TIP3    H118741   3.819   1.005   0.543
 6266TIP3    H218742   3.718   0.911   0.607
 6267TIP3   OH218743   3.634   4.284   3.579
 6267TIP3    H118744   3.701   4.285   3.510
 6267TIP3    H218745   3.655   4.207   3.632
 6268TIP3   OH218746   7.392   5.475   3.984
 6268TIP3    H118747   7.395   5.480   3.889
 6268TIP3    H218748   7.423   5.560   4.014
 6269TIP3   OH218749   1.803   5.318   5.510
 6269TIP3    H118750   1.743   5.277   5.573
 6269TIP3    H218751   1.849   5.385   5.561
 6270TIP3   OH218752   5.813   0.509   4.854
 6270TIP3    H118753   5.812   0.604   4.866
 6270TIP3    H218754   5.724   0.487   4.828
 6271TIP3   OH218755   2.540   0.453   1.993
 6271TIP3    H118756   2.566   0.491   2.077
 6271TIP3    H218757   2.599   0.379   1.981
 6272TIP3   OH218758   7.797   2.690   5.591
 6272TIP3    H118759   7.727   2.712   5.530
 6272TIP3    H218760   7.773   2.736   5.672
 6273TIP3   OH218761   0.219   5.130   3.976
 6273TIP3    H118762   0.302   5.114   4.020
 6273TIP3    H218763   0.191   5.044   3.945
 6274TIP3   OH218764   0.951   1.369   4.665
 6274TIP3    H118765   0.893   1.384   4.739
 6274TIP3    H218766   0.980   1.279   4.675
 6275TIP3   OH218767   2.449   6.020   5.888
 6275TIP3    H118768   2.394   6.069   5.826
 6275TIP3    H218769   2.477   6.086   5.952
 6276TIP3   OH218770   1.709   6.028   6.752
 6276TIP3    H118771   1.635   6.026   6.692
 6276TIP3    H218772   1.745   6.116   6.744
 6277TIP3   OH218773   0.395   7.534   3.565
 6277TIP3    H118774   0.352   7.619   3.566
 6277TIP3    H218775   0.341   7.480   3.508
 6278TIP3   OH218776   1.332   7.473   1.322
 6278TIP3    H118777   1.336   7.548   1.382
 6278TIP3    H218778   1.239   7.461   1.304
 6279TIP3   OH218779   1.755   3.862   4.060
 6279TIP3    H118780   1.753   3.953   4.032
 6279TIP3    H218781   1.817   3.820   4.000
 6280TIP3   OH218782   4.162   2.578   4.879
 6280TIP3    H118783   4.184   2.486   4.893
 6280TIP3    H218784   4.162   2.616   4.967
 6281TIP3   OH218785   0.616   6.282   4.434
 6281TIP3    H118786   0.526   6.314   4.421
 6281TIP3    H218787   0.660   6.353   4.481
 6282TIP3   OH218788   4.849   6.161   3.830
 6282TIP3    H118789   4.797   6.238   3.854
 6282TIP3    H218790   4.802   6.087   3.867
 6283TIP3   OH218791   4.467   0.106   5.332
 6283TIP3    H118792   4.452   0.022   5.375
 6283TIP3    H218793   4.528   0.086   5.261
 6284TIP3   OH218794   4.487   1.977   1.950
 6284TIP3    H118795   4.446   2.038   1.889
 6284TIP3    H218796   4.513   2.033   2.024
 6285TIP3   OH218797   5.528   3.604   0.214
 6285TIP3    H118798   5.500   3.527   0.164
 6285TIP3    H218799   5.572   3.568   0.291
 6286TIP3   OH218800   4.610   3.063   2.083
 6286TIP3    H118801   4.632   3.048   1.991
 6286TIP3    H218802   4.694   3.067   2.128
 6287TIP3   OH218803   7.329   2.102   4.222
 6287TIP3    H118804   7.381   2.024   4.204
 6287TIP3    H218805   7.334   2.153   4.141
 6288TIP3   OH218806   0.660   3.831   1.807
 6288TIP3    H118807   0.574   3.806   1.772
 6288TIP3    H218808   0.657   3.927   1.812
 6289TIP3   OH218809   3.849   4.293   3.404
 6289TIP3    H118810   3.830   4.308   3.311
 6289TIP3    H218811   3.859   4.198   3.411
 6290TIP3   OH218812   1.171   1.213   6.768
 6290TIP3    H118813   1.139   1.297   6.735
 6290TIP3    H218814   1.095   1.155   6.763
 6291TIP3   OH218815   0.353   7.738   3.035
 6291TIP3    H118816   0.395   7.665   3.081
 6291TIP3    H218817   0.416   7.810   3.042
 6292TIP3   OH218818   3.275   2.654   2.756
 6292TIP3    H118819   3.311   2.618   2.674
 6292TIP3    H218820   3.347   2.644   2.819
 6293TIP3   OH218821   4.134   2.561   3.687
 6293TIP3    H118822   4.121   2.566   3.593
 6293TIP3    H218823   4.212   2.613   3.704
 6294TIP3   OH218824   6.611   4.806   0.942
 6294TIP3    H118825   6.552   4.881   0.935
 6294TIP3    H218826   6.693   4.836   0.902
 6295TIP3   OH218827   1.932   2.689   4.144
 6295TIP3    H118828   1.986   2.740   4.084
 6295TIP3    H218829   1.991   2.671   4.218
 6296TIP3   OH218830   7.847   6.293   3.687
 6296TIP3    H118831   7.887   6.223   3.740
 6296TIP3    H218832   7.921   6.336   3.645
 6297TIP3   OH218833   1.371   6.207   3.869
 6297TIP3    H118834   1.466   6.194   3.860
 6297TIP3    H218835   1.361   6.301   3.880
 6298TIP3   OH218836   2.120   1.241   3.049
 6298TIP3    H118837   2.089   1.151   3.056
 6298TIP3    H218838   2.183   1.251   3.120
 6299TIP3   OH218839   1.626   5.812   4.829
 6299TIP3    H118840   1.535   5.833   4.852
 6299TIP3    H218841   1.618   5.760   4.749
 6300TIP3   OH218842   7.046   1.679   5.808
 6300TIP3    H118843   6.958   1.669   5.770
 6300TIP3    H218844   7.051   1.772   5.830
 6301TIP3   OH218845   1.737   3.136   5.839
 6301TIP3    H118846   1.695   3.222   5.850
 6301TIP3    H218847   1.770   3.114   5.925
 6302TIP3   OH218848   4.632   5.055   2.322
 6302TIP3    H118849   4.706   5.002   2.355
 6302TIP3    H218850   4.649   5.063   2.229
 6303TIP3   OH218851   3.771   6.660   0.611
 6303TIP3    H118852   3.768   6.681   0.704
 6303TIP3    H218853   3.681   6.637   0.588
 6304TIP3   OH218854   6.404   3.232   6.264
 6304TIP3    H118855   6.379   3.141   6.276
 6304TIP3    H218856   6.413   3.243   6.169
 6305TIP3   OH218857   0.822   7.321   5.799
 6305TIP3    H118858   0.727   7.314   5.791
 6305TIP3    H218859   0.837   7.404   5.844
 6306TIP3   OH218860   1.232   4.364   1.524
 6306TIP3    H118861   1.198   4.450   1.546
 6306TIP3    H218862   1.314   4.358   1.573
 6307TIP3   OH218863   4.024   1.531   3.166
 6307TIP3    H118864   3.931   1.553   3.163
 6307TIP3    H218865   4.051   1.530   3.074
 6308TIP3   OH218866   0.112   4.090   2.039
 6308TIP3    H118867   0.019   4.091   2.061
 6308TIP3    H218868   0.145   4.175   2.069
 6309TIP3   OH218869   5.974   0.541   0.968
 6309TIP3    H118870   6.030   0.605   1.012
 6309TIP3    H218871   5.891   0.586   0.956
 6310TIP3   OH218872   7.542   0.085   5.738
 6310TIP3    H118873   7.567  -0.002   5.706
 6310TIP3    H218874   7.456   0.101   5.699
 6311TIP3   OH218875   4.984   4.334   0.337
 6311TIP3    H118876   4.927   4.257   0.327
 6311TIP3    H218877   5.038   4.314   0.413
 6312TIP3   OH218878   2.617   2.950   0.910
 6312TIP3    H118879   2.567   2.951   0.991
 6312TIP3    H218880   2.690   3.010   0.925
 6313TIP3   OH218881   5.050   5.104   5.935
 6313TIP3    H118882   5.036   5.194   5.904
 6313TIP3    H218883   4.975   5.086   5.992
 6314TIP3   OH218884   8.279   1.601   6.592
 6314TIP3    H118885   8.197   1.619   6.639
 6314TIP3    H218886   8.320   1.687   6.581
 6315TIP3   OH218887   3.737   5.459   0.508
 6315TIP3    H118888   3.698   5.373   0.522
 6315TIP3    H218889   3.723   5.477   0.415
 6316TIP3   OH218890   3.735   0.420   4.909
 6316TIP3    H118891   3.797   0.491   4.891
 6316TIP3    H218892   3.790   0.342   4.915
 6317TIP3   OH218893   2.837   6.874   6.237
 6317TIP3    H118894   2.786   6.819   6.176
 6317TIP3    H218895   2.781   6.950   6.252
 6318TIP3   OH218896   1.699   6.803   6.324
 6318TIP3    H118897   1.778   6.761   6.357
 6318TIP3    H218898   1.727   6.890   6.295
 6319TIP3   OH218899   4.844   0.929   2.715
 6319TIP3    H118900   4.924   0.951   2.667
 6319TIP3    H218901   4.773   0.964   2.661
 6320TIP3   OH218902   5.130   5.074   4.777
 6320TIP3    H118903   5.223   5.095   4.781
 6320TIP3    H218904   5.112   5.029   4.860
 6321TIP3   OH218905   5.920   5.418   4.740
 6321TIP3    H118906   5.991   5.376   4.691
 6321TIP3    H218907   5.845   5.414   4.680
 6322TIP3   OH218908   2.335   2.094   2.156
 6322TIP3    H118909   2.273   2.025   2.134
 6322TIP3    H218910   2.304   2.171   2.109
 6323TIP3   OH218911   4.183   7.719   2.377
 6323TIP3    H118912   4.243   7.644   2.384
 6323TIP3    H218913   4.214   7.767   2.300
 6324TIP3   OH218914   7.983   3.055   0.373
 6324TIP3    H118915   7.958   3.147   0.365
 6324TIP3    H218916   8.077   3.055   0.358
 6325TIP3   OH218917   0.471   4.365   2.387
 6325TIP3    H118918   0.414   4.333   2.456
 6325TIP3    H218919   0.413   4.414   2.328
 6326TIP3   OH218920   0.103   7.532   3.136
 6326TIP3    H118921   0.163   7.607   3.128
 6326TIP3    H218922   0.073   7.516   3.047
 6327TIP3   OH218923   5.941   4.531   5.417
 6327TIP3    H118924   5.936   4.492   5.504
 6327TIP3    H218925   5.902   4.465   5.359
 6328TIP3   OH218926   5.261   2.462   2.757
 6328TIP3    H118927   5.305   2.465   2.672
 6328TIP3    H218928   5.263   2.370   2.782
 6329TIP3   OH218929   4.235   1.118   3.054
 6329TIP3    H118930   4.300   1.072   3.001
 6329TIP3    H218931   4.281   1.196   3.085
 6330TIP3   OH218932   4.831   7.736   0.822
 6330TIP3    H118933   4.745   7.720   0.859
 6330TIP3    H218934   4.847   7.829   0.836
 6331TIP3   OH218935   4.796   4.165   4.548
 6331TIP3    H118936   4.815   4.249   4.589
 6331TIP3    H218937   4.810   4.101   4.618
 6332TIP3   OH218938   3.185   3.954   0.850
 6332TIP3    H118939   3.091   3.965   0.834
 6332TIP3    H218940   3.199   3.992   0.936
 6333TIP3   OH218941   1.349   2.401   1.555
 6333TIP3    H118942   1.360   2.337   1.625
 6333TIP3    H218943   1.360   2.350   1.474
 6334TIP3   OH218944   3.747   0.984   4.546
 6334TIP3    H118945   3.755   1.064   4.598
 6334TIP3    H218946   3.742   0.914   4.610
 6335TIP3   OH218947   7.280   7.324   0.175
 6335TIP3    H118948   7.347   7.358   0.235
 6335TIP3    H218949   7.247   7.245   0.218
 6336TIP3   OH218950   2.141   3.133   0.798
 6336TIP3    H118951   2.164   3.217   0.837
 6336TIP3    H218952   2.224   3.086   0.792
 6337TIP3   OH218953   3.742   7.292   3.867
 6337TIP3    H118954   3.677   7.353   3.904
 6337TIP3    H218955   3.729   7.211   3.915
 6338TIP3   OH218956   6.121   6.239   2.353
 6338TIP3    H118957   6.192   6.180   2.379
 6338TIP3    H218958   6.045   6.207   2.401
 6339TIP3   OH218959   8.212   2.509   2.793
 6339TIP3    H118960   8.301   2.486   2.822
 6339TIP3    H218961   8.154   2.462   2.852
 6340TIP3   OH218962   0.472   3.590   6.049
 6340TIP3    H118963   0.451   3.661   5.989
 6340TIP3    H218964   0.512   3.634   6.125
 6341TIP3   OH218965   6.003   1.476   5.517
 6341TIP3    H118966   5.984   1.483   5.611
 6341TIP3    H218967   5.921   1.502   5.474
 6342TIP3   OH218968   5.726   6.983   2.184
 6342TIP3    H118969   5.813   7.010   2.214
 6342TIP3    H218970   5.701   7.050   2.120
 6343TIP3   OH218971   2.340   7.636   1.984
 6343TIP3    H118972   2.413   7.659   1.926
 6343TIP3    H218973   2.291   7.717   1.993
 6344TIP3   OH218974   6.503   3.962   0.121
 6344TIP3    H118975   6.427   4.014   0.097
 6344TIP3    H218976   6.522   3.909   0.044
 6345TIP3   OH218977   0.417   2.588   5.497
 6345TIP3    H118978   0.447   2.538   5.572
 6345TIP3    H218979   0.356   2.652   5.533
 6346TIP3   OH218980   1.436   0.148   2.696
 6346TIP3    H118981   1.455   0.204   2.772
 6346TIP3    H218982   1.435   0.059   2.732
 6347TIP3   OH218983   4.300   6.262   0.442
 6347TIP3    H118984   4.329   6.244   0.352
 6347TIP3    H218985   4.379   6.288   0.488
 6348TIP3   OH218986   0.055   7.351   2.234
 6348TIP3    H118987   0.008   7.269   2.242
 6348TIP3    H218988   0.030   7.385   2.148
 6349TIP3   OH218989   3.441   4.135   3.011
 6349TIP3    H118990   3.362   4.183   3.036
 6349TIP3    H218991   3.418   4.093   2.927
 6350TIP3   OH218992   6.581   3.891   4.638
 6350TIP3    H118993   6.493   3.891   4.675
 6350TIP3    H218994   6.638   3.874   4.713
 6351TIP3   OH218995   0.205   7.118   4.157
 6351TIP3    H118996   0.205   7.213   4.145
 6351TIP3    H218997   0.213   7.082   4.069
 6352TIP3   OH218998   6.370   0.889   2.437
 6352TIP3    H118999   6.400   0.939   2.513
 6352TIP3    H219000   6.431   0.912   2.367
 6353TIP3   OH219001   2.083   2.160   5.383
 6353TIP3    H119002   2.039   2.142   5.300
 6353TIP3    H219003   2.103   2.254   5.379
 6354TIP3   OH219004   2.279   5.628   0.777
 6354TIP3    H119005   2.371   5.642   0.799
 6354TIP3    H219006   2.263   5.683   0.700
 6355TIP3   OH219007   5.897   6.685   6.242
 6355TIP3    H119008   5.950   6.695   6.163
 6355TIP3    H219009   5.818   6.737   6.226
 6356TIP3   OH219010   1.415   1.953   5.836
 6356TIP3    H119011   1.393   1.877   5.889
 6356TIP3    H219012   1.497   1.986   5.873
 6357TIP3   OH219013   4.115   0.941   1.970
 6357TIP3    H119014   4.138   0.870   1.910
 6357TIP3    H219015   4.123   0.903   2.057
 6358TIP3   OH219016   5.995   4.537   3.409
 6358TIP3    H119017   5.919   4.536   3.350
 6358TIP3    H219018   5.957   4.537   3.496
 6359TIP3   OH219019   7.487   4.850   0.971
 6359TIP3    H119020   7.558   4.811   0.920
 6359TIP3    H219021   7.416   4.861   0.908
 6360TIP3   OH219022   8.302   0.945   1.489
 6360TIP3    H119023   8.312   0.896   1.570
 6360TIP3    H219024   8.209   0.964   1.483
 6361TIP3   OH219025   5.696   2.758   4.718
 6361TIP3    H119026   5.772   2.800   4.758
 6361TIP3    H219027   5.636   2.830   4.699
 6362TIP3   OH219028   3.535   5.465   3.848
 6362TIP3    H119029   3.602   5.397   3.848
 6362TIP3    H219030   3.521   5.486   3.940
 6363TIP3   OH219031   4.513   4.269   2.841
 6363TIP3    H119032   4.572   4.307   2.776
 6363TIP3    H219033   4.426   4.301   2.816
 6364TIP3   OH219034   2.645   4.075   4.179
 6364TIP3    H119035   2.690   4.152   4.143
 6364TIP3    H219036   2.666   4.005   4.118
 6365TIP3   OH219037   0.547   2.447   1.428
 6365TIP3    H119038   0.480   2.511   1.404
 6365TIP3    H219039   0.551   2.452   1.523
 6366TIP3   OH219040   8.008   5.681   0.596
 6366TIP3    H119041   7.967   5.714   0.676
 6366TIP3    H219042   7.989   5.588   0.596
 6367TIP3   OH219043   2.633   7.420   2.004
 6367TIP3    H119044   2.628   7.388   1.914
 6367TIP3    H219045   2.629   7.515   1.995
 6368TIP3   OH219046   7.832   7.489   3.322
 6368TIP3    H119047   7.772   7.431   3.368
 6368TIP3    H219048   7.786   7.514   3.242
 6369TIP3   OH219049   2.048   4.507   6.125
 6369TIP3    H119050   2.061   4.413   6.130
 6369TIP3    H219051   2.121   4.544   6.175
 6370TIP3   OH219052   5.223   3.719   0.726
 6370TIP3    H119053   5.270   3.703   0.808
 6370TIP3    H219054   5.243   3.642   0.672
 6371TIP3   OH219055   5.940   2.036   1.935
 6371TIP3    H119056   5.870   1.983   1.974
 6371TIP3    H219057   5.922   2.125   1.964
 6372TIP3   OH219058   3.062   0.752   0.090
 6372TIP3    H119059   3.072   0.763   0.184
 6372TIP3    H219060   3.148   0.773   0.054
 6373TIP3   OH219061   7.627   3.196   3.293
 6373TIP3    H119062   7.661   3.271   3.245
 6373TIP3    H219063   7.634   3.220   3.385
 6374TIP3   OH219064   7.609   4.116   6.608
 6374TIP3    H119065   7.623   4.209   6.627
 6374TIP3    H219066   7.694   4.075   6.624
 6375TIP3   OH219067   1.149   6.836   1.310
 6375TIP3    H119068   1.116   6.747   1.323
 6375TIP3    H219069   1.140   6.878   1.395
 6376TIP3   OH219070   3.843   7.023   4.328
 6376TIP3    H119071   3.909   7.048   4.393
 6376TIP3    H219072   3.815   6.935   4.354
 6377TIP3   OH219073   4.239   0.349   3.993
 6377TIP3    H119074   4.195   0.283   4.047
 6377TIP3    H219075   4.208   0.332   3.904
 6378TIP3   OH219076   8.201   1.483   0.148
 6378TIP3    H119077   8.145   1.414   0.184
 6378TIP3    H219078   8.239   1.443   0.069
 6379TIP3   OH219079   0.187   1.602   2.157
 6379TIP3    H119080   0.195   1.581   2.250
 6379TIP3    H219081   0.111   1.660   2.152
 6380TIP3   OH219082   6.834   1.529   3.563
 6380TIP3    H119083   6.837   1.501   3.655
 6380TIP3    H219084   6.915   1.579   3.551
 6381TIP3   OH219085   4.460   0.943   6.400
 6381TIP3    H119086   4.546   0.916   6.368
 6381TIP3    H219087   4.420   0.989   6.326
 6382TIP3   OH219088   0.816   6.159   4.994
 6382TIP3    H119089   0.746   6.225   4.988
 6382TIP3    H219090   0.896   6.208   4.978
 6383TIP3   OH219091   5.783   2.276   1.835
 6383TIP3    H119092   5.751   2.286   1.925
 6383TIP3    H219093   5.704   2.271   1.781
 6384TIP3   OH219094   4.412   0.413   3.413
 6384TIP3    H119095   4.405   0.500   3.454
 6384TIP3    H219096   4.332   0.405   3.362
 6385TIP3   OH219097   2.292   3.309   5.650
 6385TIP3    H119098   2.224   3.376   5.646
 6385TIP3    H219099   2.362   3.342   5.594
 6386TIP3   OH219100   4.349   6.485   1.957
 6386TIP3    H119101   4.379   6.576   1.952
 6386TIP3    H219102   4.290   6.483   2.033
 6387TIP3   OH219103   7.264   0.977   6.731
 6387TIP3    H119104   7.330   1.039   6.764
 6387TIP3    H219105   7.225   1.022   6.656
 6388TIP3   OH219106   5.700   7.561   5.194
 6388TIP3    H119107   5.723   7.518   5.112
 6388TIP3    H219108   5.714   7.654   5.177
 6389TIP3   OH219109   7.287   3.360   0.440
 6389TIP3    H119110   7.319   3.420   0.507
 6389TIP3    H219111   7.337   3.279   0.454
 6390TIP3   OH219112   0.410   2.144   2.017
 6390TIP3    H119113   0.352   2.091   2.072
 6390TIP3    H219114   0.488   2.091   2.005
 6391TIP3   OH219115   4.634   4.689   4.593
 6391TIP3    H119116   4.723   4.717   4.571
 6391TIP3    H219117   4.584   4.771   4.602
 6392TIP3   OH219118   7.649   0.688   4.353
 6392TIP3    H119119   7.563   0.720   4.327
 6392TIP3    H219120   7.696   0.674   4.271
 6393TIP3   OH219121   2.188   5.682  -0.010
 6393TIP3    H119122   2.163   5.773   0.005
 6393TIP3    H219123   2.110   5.632   0.016
 6394TIP3   OH219124   0.431   3.935   0.911
 6394TIP3    H119125   0.390   3.996   0.972
 6394TIP3    H219126   0.475   3.871   0.967
 6395TIP3   OH219127   1.226   3.320   0.491
 6395TIP3    H119128   1.275   3.243   0.460
 6395TIP3    H219129   1.273   3.348   0.569
 6396TIP3   OH219130   0.597   6.844   5.125
 6396TIP3    H119131   0.610   6.856   5.218
 6396TIP3    H219132   0.508   6.876   5.109
 6397TIP3   OH219133   3.610   1.232   0.306
 6397TIP3    H119134   3.579   1.147   0.336
 6397TIP3    H219135   3.532   1.275   0.270
 6398TIP3   OH219136   2.467   3.888   2.772
 6398TIP3    H119137   2.506   3.869   2.857
 6398TIP3    H219138   2.496   3.977   2.751
 6399TIP3   OH219139   7.676   0.160   2.614
 6399TIP3    H119140   7.586   0.151   2.644
 6399TIP3    H219141   7.729   0.125   2.686
 6400TIP3   OH219142   6.732   5.909   2.675
 6400TIP3    H119143   6.767   5.906   2.764
 6400TIP3    H219144   6.809   5.905   2.618
 6401TIP3   OH219145   6.636   4.940   4.090
 6401TIP3    H119146   6.597   4.937   4.177
 6401TIP3    H219147   6.653   5.033   4.075
 6402TIP3   OH219148   5.236   1.088   3.298
 6402TIP3    H119149   5.241   1.054   3.387
 6402TIP3    H219150   5.281   1.173   3.302
 6403TIP3   OH219151   1.701   5.346   4.578
 6403TIP3    H119152   1.702   5.253   4.600
 6403TIP3    H219153   1.660   5.351   4.492
 6404TIP3   OH219154   3.492   3.278   0.589
 6404TIP3    H119155   3.456   3.366   0.587
 6404TIP3    H219156   3.477   3.244   0.501
 6405TIP3   OH219157   1.230   3.518   3.882
 6405TIP3    H119158   1.218   3.612   3.866
 6405TIP3    H219159   1.231   3.479   3.794
 6406TIP3   OH219160   2.685   6.296   5.483
 6406TIP3    H119161   2.780   6.298   5.469
 6406TIP3    H219162   2.648   6.282   5.396
 6407TIP3   OH219163   4.308   0.128   4.972
 6407TIP3    H119164   4.324   0.040   5.005
 6407TIP3    H219165   4.263   0.173   5.043
 6408TIP3   OH219166   1.199   7.073   3.675
 6408TIP3    H119167   1.177   7.006   3.611
 6408TIP3    H219168   1.115   7.105   3.707
 6409TIP3   OH219169   5.508   4.683   5.848
 6409TIP3    H119170   5.529   4.693   5.941
 6409TIP3    H219171   5.420   4.646   5.847
 6410TIP3   OH219172   1.599   7.687   1.329
 6410TIP3    H119173   1.528   7.659   1.388
 6410TIP3    H219174   1.554   7.729   1.256
 6411TIP3   OH219175   4.021   0.602   3.385
 6411TIP3    H119176   4.007   0.696   3.384
 6411TIP3    H219177   4.095   0.588   3.325
 6412TIP3   OH219178   1.421   4.662   0.316
 6412TIP3    H119179   1.505   4.618   0.328
 6412TIP3    H219180   1.362   4.619   0.378
 6413TIP3   OH219181   1.483   5.391   0.034
 6413TIP3    H119182   1.536   5.381   0.113
 6413TIP3    H219183   1.412   5.328   0.045
 6414TIP3   OH219184   2.423   6.742   3.826
 6414TIP3    H119185   2.409   6.718   3.734
 6414TIP3    H219186   2.414   6.838   3.827
 6415TIP3   OH219187   1.826   0.835   2.669
 6415TIP3    H119188   1.795   0.923   2.648
 6415TIP3    H219189   1.845   0.838   2.763
 6416TIP3   OH219190   0.994   7.670   3.331
 6416TIP3    H119191   0.990   7.592   3.276
 6416TIP3    H219192   0.993   7.743   3.269
 6417TIP3   OH219193   1.489   4.303   4.555
 6417TIP3    H119194   1.469   4.243   4.483
 6417TIP3    H219195   1.541   4.372   4.515
 6418TIP3   OH219196   3.813   6.516   1.809
 6418TIP3    H119197   3.723   6.544   1.823
 6418TIP3    H219198   3.805   6.427   1.774
 6419TIP3   OH219199   5.880   6.876   5.836
 6419TIP3    H119200   5.784   6.868   5.841
 6419TIP3    H219201   5.907   6.890   5.927
 6420TIP3   OH219202   1.748   2.729   2.817
 6420TIP3    H119203   1.802   2.650   2.804
 6420TIP3    H219204   1.662   2.695   2.840
 6421TIP3   OH219205   3.097   5.829   5.864
 6421TIP3    H119206   3.040   5.801   5.792
 6421TIP3    H219207   3.037   5.848   5.936
 6422TIP3   OH219208   1.678   2.380   5.914
 6422TIP3    H119209   1.717   2.455   5.870
 6422TIP3    H219210   1.584   2.396   5.913
 6423TIP3   OH219211   1.739   1.310   2.510
 6423TIP3    H119212   1.790   1.353   2.579
 6423TIP3    H219213   1.802   1.255   2.464
 6424TIP3   OH219214   5.251   3.078   4.171
 6424TIP3    H119215   5.247   3.012   4.101
 6424TIP3    H219216   5.164   3.116   4.173
 6425TIP3   OH219217   1.805   6.258   0.304
 6425TIP3    H119218   1.757   6.312   0.241
 6425TIP3    H219219   1.775   6.169   0.287
 6426TIP3   OH219220   5.882   0.168   5.267
 6426TIP3    H119221   5.856   0.209   5.185
 6426TIP3    H219222   5.866   0.236   5.333
 6427TIP3   OH219223   3.116   0.734   4.908
 6427TIP3    H119224   3.122   0.727   5.003
 6427TIP3    H219225   3.118   0.643   4.877
 6428TIP3   OH219226   6.899   0.599   3.078
 6428TIP3    H119227   6.904   0.608   3.173
 6428TIP3    H219228   6.807   0.616   3.057
 6429TIP3   OH219229   6.674   6.633   6.068
 6429TIP3    H119230   6.753   6.579   6.066
 6429TIP3    H219231   6.687   6.690   6.143
 6430TIP3   OH219232   1.345   2.029   1.963
 6430TIP3    H119233   1.296   1.971   1.905
 6430TIP3    H219234   1.309   2.012   2.050
 6431TIP3   OH219235   1.228   6.660   0.861
 6431TIP3    H119236   1.295   6.727   0.868
 6431TIP3    H219237   1.274   6.582   0.832
 6432TIP3   OH219238   7.653   6.960   2.531
 6432TIP3    H119239   7.652   6.864   2.524
 6432TIP3    H219240   7.685   6.977   2.619
 6433TIP3   OH219241   5.473   6.358   5.917
 6433TIP3    H119242   5.400   6.413   5.887
 6433TIP3    H219243   5.508   6.404   5.993
 6434TIP3   OH219244   2.616   1.842   5.269
 6434TIP3    H119245   2.559   1.770   5.242
 6434TIP3    H219246   2.557   1.916   5.282
 6435TIP3   OH219247   0.539   6.545   1.841
 6435TIP3    H119248   0.563   6.631   1.874
 6435TIP3    H219249   0.445   6.551   1.823
 6436TIP3   OH219250   5.036   0.202   4.703
 6436TIP3    H119251   5.039   0.112   4.670
 6436TIP3    H219252   5.004   0.254   4.629
 6437TIP3   OH219253   2.500   3.345   5.983
 6437TIP3    H119254   2.422   3.400   5.989
 6437TIP3    H219255   2.473   3.261   6.022
 6438TIP3   OH219256   4.324   2.608   2.114
 6438TIP3    H119257   4.261   2.557   2.165
 6438TIP3    H219258   4.357   2.673   2.175
 6439TIP3   OH219259   7.485   2.259   6.274
 6439TIP3    H119260   7.454   2.315   6.345
 6439TIP3    H219261   7.576   2.238   6.298
 6440TIP3   OH219262   0.360   2.712   2.768
 6440TIP3    H119263   0.320   2.631   2.800
 6440TIP3    H219264   0.287   2.774   2.763
 6441TIP3   OH219265   1.252   0.244   3.127
 6441TIP3    H119266   1.175   0.265   3.180
 6441TIP3    H219267   1.251   0.149   3.120
 6442TIP3   OH219268   1.205   2.142   5.887
 6442TIP3    H119269   1.194   2.099   5.972
 6442TIP3    H219270   1.290   2.110   5.855
 6443TIP3   OH219271   7.098   6.674   2.492
 6443TIP3    H119272   7.065   6.763   2.486
 6443TIP3    H219273   7.179   6.674   2.441
 6444TIP3   OH219274   0.466   7.618   3.814
 6444TIP3    H119275   0.559   7.619   3.795
 6444TIP3    H219276   0.424   7.594   3.730
 6445TIP3   OH219277   1.868   6.718   2.335
 6445TIP3    H119278   1.914   6.643   2.299
 6445TIP3    H219279   1.792   6.730   2.278
 6446TIP3   OH219280   6.206   0.928   6.597
 6446TIP3    H119281   6.185   0.908   6.689
 6446TIP3    H219282   6.292   0.969   6.601
 6447TIP3   OH219283   5.207   3.140   2.732
 6447TIP3    H119284   5.174   3.113   2.647
 6447TIP3    H219285   5.302   3.142   2.722
 6448TIP3   OH219286   5.114   6.059   5.666
 6448TIP3    H119287   5.160   6.036   5.586
 6448TIP3    H219288   5.080   6.147   5.650
 6449TIP3   OH219289   5.159   2.758   5.991
 6449TIP3    H119290   5.179   2.842   5.949
 6449TIP3    H219291   5.080   2.775   6.042
 6450TIP3   OH219292   4.863   0.636   6.685
 6450TIP3    H119293   4.807   0.562   6.664
 6450TIP3    H219294   4.835   0.664   6.771
 6451TIP3   OH219295   2.919   4.577   3.434
 6451TIP3    H119296   2.928   4.497   3.487
 6451TIP3    H219297   2.988   4.635   3.466
 6452TIP3   OH219298   5.545   6.480   6.378
 6452TIP3    H119299   5.454   6.452   6.377
 6452TIP3    H219300   5.545   6.562   6.427
 6453TIP3   OH219301   8.093   6.284   3.199
 6453TIP3    H119302   8.008   6.285   3.154
 6453TIP3    H219303   8.144   6.352   3.156
 6454TIP3   OH219304   5.996   6.500   4.451
 6454TIP3    H119305   6.032   6.530   4.535
 6454TIP3    H219306   5.912   6.544   4.444
 6455TIP3   OH219307   7.611   1.226   6.706
 6455TIP3    H119308   7.625   1.136   6.674
 6455TIP3    H219309   7.691   1.272   6.681
 6456TIP3   OH219310   4.277   7.005   4.573
 6456TIP3    H119311   4.273   6.995   4.478
 6456TIP3    H219312   4.245   6.922   4.608
 6457TIP3   OH219313   1.668   2.465   1.359
 6457TIP3    H119314   1.596   2.421   1.313
 6457TIP3    H219315   1.721   2.502   1.289
 6458TIP3   OH219316   1.360   1.023   6.220
 6458TIP3    H119317   1.341   1.077   6.144
 6458TIP3    H219318   1.365   0.934   6.186
 6459TIP3   OH219319   7.752   6.374   1.422
 6459TIP3    H119320   7.839   6.414   1.428
 6459TIP3    H219321   7.699   6.424   1.484
 6460TIP3   OH219322   2.330   6.103   4.877
 6460TIP3    H119323   2.323   6.009   4.895
 6460TIP3    H219324   2.277   6.144   4.945
 6461TIP3   OH219325   4.227   2.653   0.796
 6461TIP3    H119326   4.248   2.744   0.776
 6461TIP3    H219327   4.143   2.637   0.753
 6462TIP3   OH219328   3.737   3.465   4.723
 6462TIP3    H119329   3.729   3.381   4.678
 6462TIP3    H219330   3.816   3.456   4.777
 6463TIP3   OH219331   0.384   1.984   2.724
 6463TIP3    H119332   0.340   2.002   2.641
 6463TIP3    H219333   0.413   1.893   2.717
 6464TIP3   OH219334   3.570   0.720   1.703
 6464TIP3    H119335   3.656   0.732   1.663
 6464TIP3    H219336   3.573   0.631   1.739
 6465TIP3   OH219337   4.504   5.931   3.499
 6465TIP3    H119338   4.581   5.965   3.545
 6465TIP3    H219339   4.451   6.009   3.481
 6466TIP3   OH219340   6.836   3.211   5.564
 6466TIP3    H119341   6.787   3.228   5.645
 6466TIP3    H219342   6.862   3.298   5.533
 6467TIP3   OH219343   2.629   3.002   6.150
 6467TIP3    H119344   2.672   3.045   6.223
 6467TIP3    H219345   2.567   3.066   6.116
 6468TIP3   OH219346   8.282   6.953   4.998
 6468TIP3    H119347   8.202   6.923   4.955
 6468TIP3    H219348   8.329   6.872   5.018
 6469TIP3   OH219349   6.166   0.690   1.086
 6469TIP3    H119350   6.173   0.713   0.993
 6469TIP3    H219351   6.179   0.773   1.132
 6470TIP3   OH219352   1.319   0.774   1.820
 6470TIP3    H119353   1.377   0.761   1.744
 6470TIP3    H219354   1.231   0.765   1.784
 6471TIP3   OH219355   6.774   5.762   3.200
 6471TIP3    H119356   6.825   5.688   3.167
 6471TIP3    H219357   6.811   5.781   3.286
 6472TIP3   OH219358   1.218   1.537   1.697
 6472TIP3    H119359   1.268   1.479   1.755
 6472TIP3    H219360   1.285   1.591   1.655
 6473TIP3   OH219361   7.864   0.617   4.796
 6473TIP3    H119362   7.938   0.600   4.736
 6473TIP3    H219363   7.793   0.645   4.738
 6474TIP3   OH219364   5.740   3.273   0.792
 6474TIP3    H119365   5.747   3.352   0.737
 6474TIP3    H219366   5.697   3.209   0.736
 6475TIP3   OH219367   5.104   3.770   1.880
 6475TIP3    H119368   5.039   3.715   1.924
 6475TIP3    H219369   5.071   3.779   1.791
 6476TIP3   OH219370   4.850   5.070   4.390
 6476TIP3    H119371   4.815   5.003   4.448
 6476TIP3    H219372   4.897   5.130   4.447
 6477TIP3   OH219373   0.087   2.670   5.233
 6477TIP3    H119374   0.083   2.659   5.328
 6477TIP3    H219375   0.056   2.759   5.218
 6478TIP3   OH219376   2.882   6.785   0.358
 6478TIP3    H119377   2.852   6.695   0.347
 6478TIP3    H219378   2.874   6.801   0.452
 6479TIP3   OH219379   7.064   0.496   2.883
 6479TIP3    H119380   7.014   0.519   2.962
 6479TIP3    H219381   7.122   0.425   2.912
 6480TIP3   OH219382   2.369   6.239   6.455
 6480TIP3    H119383   2.429   6.174   6.420
 6480TIP3    H219384   2.290   6.231   6.401
 6481TIP3   OH219385   7.800   7.167   3.232
 6481TIP3    H119386   7.835   7.078   3.228
 6481TIP3    H219387   7.732   7.163   3.299
 6482TIP3   OH219388   2.432   2.333   3.763
 6482TIP3    H119389   2.473   2.254   3.799
 6482TIP3    H219390   2.338   2.318   3.772
 6483TIP3   OH219391   6.096   6.974   6.405
 6483TIP3    H119392   6.127   6.893   6.366
 6483TIP3    H219393   6.175   7.026   6.418
 6484TIP3   OH219394   1.981   3.237   0.031
 6484TIP3    H119395   1.965   3.321   0.074
 6484TIP3    H219396   1.975   3.256  -0.063
 6485TIP3   OH219397   3.371   2.708   6.231
 6485TIP3    H119398   3.429   2.669   6.297
 6485TIP3    H219399   3.375   2.647   6.157
 6486TIP3   OH219400   7.276   3.677   3.913
 6486TIP3    H119401   7.226   3.597   3.895
 6486TIP3    H219402   7.225   3.722   3.980
 6487TIP3   OH219403   3.624   1.890   6.628
 6487TIP3    H119404   3.624   1.797   6.648
 6487TIP3    H219405   3.602   1.896   6.536
 6488TIP3   OH219406   6.173   0.334   6.287
 6488TIP3    H119407   6.190   0.247   6.251
 6488TIP3    H219408   6.108   0.372   6.229
 6489TIP3   OH219409   0.753   1.800   6.098
 6489TIP3    H119410   0.781   1.859   6.028
 6489TIP3    H219411   0.769   1.713   6.062
 6490TIP3   OH219412   5.370   4.217   5.483
 6490TIP3    H119413   5.380   4.206   5.578
 6490TIP3    H219414   5.281   4.186   5.465
 6491TIP3   OH219415   0.680   4.864   3.443
 6491TIP3    H119416   0.598   4.899   3.477
 6491TIP3    H219417   0.745   4.884   3.510
 6492TIP3   OH219418   7.619   5.067   6.578
 6492TIP3    H119419   7.693   5.006   6.576
 6492TIP3    H219420   7.659   5.153   6.564
 6493TIP3   OH219421   7.151   4.816   2.751
 6493TIP3    H119422   7.196   4.849   2.673
 6493TIP3    H219423   7.192   4.863   2.823
 6494TIP3   OH219424   1.394   6.228   6.490
 6494TIP3    H119425   1.457   6.285   6.534
 6494TIP3    H219426   1.407   6.244   6.397
 6495TIP3   OH219427   2.488   5.415   3.608
 6495TIP3    H119428   2.518   5.429   3.518
 6495TIP3    H219429   2.544   5.345   3.641
 6496TIP3   OH219430   6.979   5.581   5.753
 6496TIP3    H119431   7.015   5.507   5.801
 6496TIP3    H219432   7.048   5.647   5.756
 6497TIP3   OH219433   8.133   2.498   5.927
 6497TIP3    H119434   8.064   2.563   5.915
 6497TIP3    H219435   8.114   2.458   6.012
 6498TIP3   OH219436   2.366   3.789   5.784
 6498TIP3    H119437   2.408   3.713   5.745
 6498TIP3    H219438   2.387   3.784   5.877
 6499TIP3   OH219439   7.438   0.668   1.056
 6499TIP3    H119440   7.424   0.594   0.996
 6499TIP3    H219441   7.481   0.629   1.132
 6500TIP3   OH219442   4.467   7.301   5.456
 6500TIP3    H119443   4.535   7.349   5.407
 6500TIP3    H219444   4.387   7.318   5.406
 6501TIP3   OH219445   1.056   0.822   3.020
 6501TIP3    H119446   1.014   0.739   3.043
 6501TIP3    H219447   1.150   0.803   3.025
 6502TIP3   OH219448   0.641   2.856   0.662
 6502TIP3    H119449   0.715   2.796   0.650
 6502TIP3    H219450   0.563   2.801   0.651
 6503TIP3   OH219451   7.642   1.392   3.420
 6503TIP3    H119452   7.652   1.422   3.329
 6503TIP3    H219453   7.548   1.388   3.434
 6504TIP3   OH219454   3.325   2.949   6.089
 6504TIP3    H119455   3.304   2.872   6.140
 6504TIP3    H219456   3.392   2.995   6.140
 6505TIP3   OH219457   5.953   3.448   6.388
 6505TIP3    H119458   6.023   3.437   6.324
 6505TIP3    H219459   5.876   3.410   6.346
 6506TIP3   OH219460   0.660   4.946   1.185
 6506TIP3    H119461   0.728   4.985   1.130
 6506TIP3    H219462   0.635   4.865   1.139
 6507TIP3   OH219463   8.238   1.282   3.012
 6507TIP3    H119464   8.224   1.375   3.029
 6507TIP3    H219465   8.332   1.274   2.995
 6508TIP3   OH219466   5.553   4.213   4.381
 6508TIP3    H119467   5.534   4.121   4.394
 6508TIP3    H219468   5.504   4.259   4.449
 6509TIP3   OH219469   5.851   2.260   4.910
 6509TIP3    H119470   5.825   2.229   4.823
 6509TIP3    H219471   5.776   2.309   4.942
 6510TIP3   OH219472   3.289   7.567   4.577
 6510TIP3    H119473   3.259   7.490   4.626
 6510TIP3    H219474   3.327   7.530   4.497
 6511TIP3   OH219475   7.786   6.377   4.516
 6511TIP3    H119476   7.709   6.429   4.537
 6511TIP3    H219477   7.761   6.327   4.438
 6512TIP3   OH219478   2.291   4.874   3.270
 6512TIP3    H119479   2.265   4.790   3.232
 6512TIP3    H219480   2.364   4.851   3.329
 6513TIP3   OH219481   6.216   6.272   2.728
 6513TIP3    H119482   6.180   6.189   2.756
 6513TIP3    H219483   6.211   6.328   2.806
 6514TIP3   OH219484   6.582   1.950   4.684
 6514TIP3    H119485   6.490   1.951   4.659
 6514TIP3    H219486   6.582   1.933   4.778
 6515TIP3   OH219487   6.524   2.816   4.800
 6515TIP3    H119488   6.498   2.814   4.708
 6515TIP3    H219489   6.447   2.787   4.848
 6516TIP3   OH219490   6.451   6.382   1.889
 6516TIP3    H119491   6.538   6.372   1.929
 6516TIP3    H219492   6.465   6.442   1.816
 6517TIP3   OH219493   4.221   4.130   1.169
 6517TIP3    H119494   4.301   4.165   1.210
 6517TIP3    H219495   4.205   4.188   1.094
 6518TIP3   OH219496   4.186   4.368   2.968
 6518TIP3    H119497   4.233   4.449   2.952
 6518TIP3    H219498   4.245   4.317   3.024
 6519TIP3   OH219499   3.931   1.417   5.314
 6519TIP3    H119500   3.913   1.395   5.223
 6519TIP3    H219501   3.849   1.453   5.347
 6520TIP3   OH219502   5.961   4.557   2.592
 6520TIP3    H119503   5.961   4.652   2.601
 6520TIP3    H219504   6.052   4.534   2.576
 6521TIP3   OH219505   7.976   5.544   3.618
 6521TIP3    H119506   7.881   5.536   3.616
 6521TIP3    H219507   8.003   5.494   3.694
 6522TIP3   OH219508   7.021   0.698   1.098
 6522TIP3    H119509   7.009   0.780   1.049
 6522TIP3    H219510   6.935   0.683   1.139
 6523TIP3   OH219511   1.449   5.975   6.594
 6523TIP3    H119512   1.485   5.927   6.519
 6523TIP3    H219513   1.409   6.053   6.556
 6524TIP3   OH219514   4.859   4.453   6.431
 6524TIP3    H119515   4.844   4.425   6.522
 6524TIP3    H219516   4.864   4.372   6.381
 6525TIP3   OH219517   3.753   6.265   4.115
 6525TIP3    H119518   3.769   6.359   4.116
 6525TIP3    H219519   3.705   6.247   4.196
 6526TIP3   OH219520   1.181   1.789   5.408
 6526TIP3    H119521   1.116   1.743   5.461
 6526TIP3    H219522   1.237   1.719   5.374
 6527TIP3   OH219523   5.088   3.815   2.349
 6527TIP3    H119524   5.087   3.777   2.261
 6527TIP3    H219525   5.123   3.744   2.404
 6528TIP3   OH219526   5.047   6.360   5.769
 6528TIP3    H119527   4.967   6.377   5.719
 6528TIP3    H219528   5.023   6.287   5.827
 6529TIP3   OH219529   1.218   5.585   5.643
 6529TIP3    H119530   1.274   5.637   5.585
 6529TIP3    H219531   1.209   5.639   5.722
 6530TIP3   OH219532   6.143   0.936   1.618
 6530TIP3    H119533   6.234   0.942   1.646
 6530TIP3    H219534   6.103   0.875   1.680
 6531TIP3   OH219535   8.196   6.493   3.068
 6531TIP3    H119536   8.252   6.532   3.001
 6531TIP3    H219537   8.185   6.561   3.134
 6532TIP3   OH219538   2.820   6.590   6.675
 6532TIP3    H119539   2.758   6.562   6.607
 6532TIP3    H219540   2.854   6.508   6.711
 6533TIP3   OH219541   2.238   2.270   1.995
 6533TIP3    H119542   2.192   2.336   2.048
 6533TIP3    H219543   2.274   2.319   1.921
 6534TIP3   OH219544   0.857   3.985   6.732
 6534TIP3    H119545   0.951   3.993   6.745
 6534TIP3    H219546   0.818   4.034   6.804
 6535TIP3   OH219547   0.091   7.224   4.656
 6535TIP3    H119548   0.077   7.282   4.731
 6535TIP3    H219549   0.142   7.151   4.692
 6536TIP3   OH219550   1.395   1.767   1.665
 6536TIP3    H119551   1.315   1.788   1.714
 6536TIP3    H219552   1.461   1.752   1.732
 6537TIP3   OH219553   1.877   5.804   6.321
 6537TIP3    H119554   1.942   5.855   6.273
 6537TIP3    H219555   1.810   5.783   6.255
 6538TIP3   OH219556   0.973   1.105   5.689
 6538TIP3    H119557   0.977   1.013   5.715
 6538TIP3    H219558   0.903   1.142   5.742
 6539TIP3   OH219559   5.328   5.038   1.253
 6539TIP3    H119560   5.397   5.043   1.187
 6539TIP3    H219561   5.368   5.077   1.331
 6540TIP3   OH219562   0.343   0.754   6.732
 6540TIP3    H119563   0.415   0.772   6.671
 6540TIP3    H219564   0.384   0.757   6.818
 6541TIP3   OH219565   3.640   4.718   3.337
 6541TIP3    H119566   3.684   4.675   3.410
 6541TIP3    H219567   3.709   4.770   3.295
 6542TIP3   OH219568   5.639   5.996   4.934
 6542TIP3    H119569   5.690   5.931   4.886
 6542TIP3    H219570   5.644   6.075   4.881
 6543TIP3   OH219571   5.952   4.378   6.722
 6543TIP3    H119572   6.000   4.309   6.769
 6543TIP3    H219573   5.956   4.454   6.780
 6544TIP3   OH219574   6.348   5.909   5.827
 6544TIP3    H119575   6.302   5.833   5.863
 6544TIP3    H219576   6.441   5.885   5.831
 6545TIP3   OH219577   6.718   3.094   2.159
 6545TIP3    H119578   6.809   3.069   2.141
 6545TIP3    H219579   6.667   3.044   2.095
 6546TIP3   OH219580   6.537   4.336   5.911
 6546TIP3    H119581   6.621   4.319   5.954
 6546TIP3    H219582   6.513   4.424   5.939
 6547TIP3   OH219583   1.315   1.744   2.100
 6547TIP3    H119584   1.334   1.788   2.017
 6547TIP3    H219585   1.396   1.698   2.122
 6548TIP3   OH219586   2.133   7.036   0.758
 6548TIP3    H119587   2.039   7.043   0.772
 6548TIP3    H219588   2.141   6.977   0.683
 6549TIP3   OH219589   3.800   2.471   1.345
 6549TIP3    H119590   3.758   2.387   1.326
 6549TIP3    H219591   3.786   2.484   1.439
 6550TIP3   OH219592   7.202   4.713   6.237
 6550TIP3    H119593   7.293   4.685   6.241
 6550TIP3    H219594   7.206   4.809   6.241
 6551TIP3   OH219595   1.768   1.614   6.444
 6551TIP3    H119596   1.777   1.524   6.412
 6551TIP3    H219597   1.803   1.669   6.374
 6552TIP3   OH219598   2.524   0.482   6.330
 6552TIP3    H119599   2.541   0.524   6.414
 6552TIP3    H219600   2.450   0.424   6.348
 6553TIP3   OH219601   5.899   4.073   5.204
 6553TIP3    H119602   5.926   4.143   5.262
 6553TIP3    H219603   5.803   4.075   5.206
 6554TIP3   OH219604   3.324   5.351   1.142
 6554TIP3    H119605   3.369   5.289   1.198
 6554TIP3    H219606   3.297   5.300   1.066
 6555TIP3   OH219607   8.067   4.207   4.502
 6555TIP3    H119608   8.011   4.238   4.572
 6555TIP3    H219609   8.008   4.170   4.437
 6556TIP3   OH219610   3.792   4.422   4.861
 6556TIP3    H119611   3.737   4.347   4.840
 6556TIP3    H219612   3.744   4.470   4.928
 6557TIP3   OH219613   0.793   5.026   3.684
 6557TIP3    H119614   0.838   5.024   3.768
 6557TIP3    H219615   0.708   5.066   3.704
 6558TIP3   OH219616   6.715   1.752   1.007
 6558TIP3    H119617   6.705   1.762   1.102
 6558TIP3    H219618   6.760   1.668   0.996
 6559TIP3   OH219619   1.752   1.505   1.748
 6559TIP3    H119620   1.690   1.476   1.814
 6559TIP3    H219621   1.836   1.510   1.794
 6560TIP3   OH219622   0.235   0.727   5.817
 6560TIP3    H119623   0.284   0.715   5.898
 6560TIP3    H219624   0.285   0.680   5.750
 6561TIP3   OH219625   2.795   4.871   5.900
 6561TIP3    H119626   2.870   4.927   5.920
 6561TIP3    H219627   2.756   4.852   5.985
 6562TIP3   OH219628   4.620   7.407   2.796
 6562TIP3    H119629   4.580   7.363   2.721
 6562TIP3    H219630   4.553   7.469   2.826
 6563TIP3   OH219631   4.906   5.854   2.417
 6563TIP3    H119632   4.846   5.911   2.466
 6563TIP3    H219633   4.872   5.854   2.328
 6564TIP3   OH219634   7.458   3.116   0.445
 6564TIP3    H119635   7.541   3.074   0.469
 6564TIP3    H219636   7.410   3.124   0.528
 6565TIP3   OH219637   6.324   0.660   4.045
 6565TIP3    H119638   6.254   0.715   4.080
 6565TIP3    H219639   6.379   0.639   4.120
 6566TIP3   OH219640   6.540   2.511   6.168
 6566TIP3    H119641   6.564   2.587   6.115
 6566TIP3    H219642   6.624   2.468   6.188
 6567TIP3   OH219643   6.929   7.373   2.077
 6567TIP3    H119644   6.860   7.386   2.012
 6567TIP3    H219645   7.000   7.330   2.029
 6568TIP3   OH219646   6.765   7.327   1.265
 6568TIP3    H119647   6.680   7.283   1.272
 6568TIP3    H219648   6.819   7.286   1.332
 6569TIP3   OH219649   5.605   6.105   5.896
 6569TIP3    H119650   5.559   6.180   5.934
 6569TIP3    H219651   5.688   6.101   5.945
 6570TIP3   OH219652   2.807   4.283   1.241
 6570TIP3    H119653   2.727   4.333   1.226
 6570TIP3    H219654   2.859   4.338   1.300
 6571TIP3   OH219655   0.238   7.761   2.710
 6571TIP3    H119656   0.157   7.793   2.750
 6571TIP3    H219657   0.209   7.709   2.635
 6572TIP3   OH219658   8.152   1.546   2.062
 6572TIP3    H119659   8.104   1.549   2.145
 6572TIP3    H219660   8.188   1.634   2.053
 6573TIP3   OH219661   7.836   0.485   3.156
 6573TIP3    H119662   7.787   0.458   3.233
 6573TIP3    H219663   7.914   0.429   3.156
 6574TIP3   OH219664   0.293   2.513   4.121
 6574TIP3    H119665   0.228   2.582   4.132
 6574TIP3    H219666   0.299   2.501   4.026
 6575TIP3   OH219667   3.539   1.705   0.030
 6575TIP3    H119668   3.547   1.778   0.091
 6575TIP3    H219669   3.484   1.739  -0.041
 6576TIP3   OH219670   1.979   2.555   5.934
 6576TIP3    H119671   1.970   2.512   6.019
 6576TIP3    H219672   2.034   2.495   5.883
 6577TIP3   OH219673   5.649   6.903   5.351
 6577TIP3    H119674   5.714   6.920   5.283
 6577TIP3    H219675   5.617   6.990   5.375
 6578TIP3   OH219676   4.653   1.377   4.901
 6578TIP3    H119677   4.589   1.363   4.831
 6578TIP3    H219678   4.600   1.380   4.981
 6579TIP3   OH219679   0.747   3.667   4.901
 6579TIP3    H119680   0.841   3.655   4.908
 6579TIP3    H219681   0.737   3.756   4.866
 6580TIP3   OH219682   4.260   6.192   5.980
 6580TIP3    H119683   4.186   6.244   5.951
 6580TIP3    H219684   4.223   6.127   6.039
 6581TIP3   OH219685   7.850   6.515   5.139
 6581TIP3    H119686   7.854   6.576   5.065
 6581TIP3    H219687   7.811   6.436   5.103
 6582TIP3   OH219688   7.973   3.950   2.216
 6582TIP3    H119689   7.904   3.890   2.242
 6582TIP3    H219690   8.005   3.988   2.298
 6583TIP3   OH219691   5.078   5.197   1.537
 6583TIP3    H119692   4.989   5.228   1.550
 6583TIP3    H219693   5.107   5.240   1.456
 6584TIP3   OH219694   3.306   7.453   1.400
 6584TIP3    H119695   3.295   7.362   1.426
 6584TIP3    H219696   3.245   7.466   1.328
 6585TIP3   OH219697   5.902   3.444   4.111
 6585TIP3    H119698   5.872   3.353   4.117
 6585TIP3    H219699   5.955   3.457   4.189
 6586TIP3   OH219700   7.454   7.723   1.254
 6586TIP3    H119701   7.498   7.749   1.335
 6586TIP3    H219702   7.426   7.806   1.215
 6587TIP3   OH219703   4.371   3.443   2.923
 6587TIP3    H119704   4.302   3.401   2.872
 6587TIP3    H219705   4.324   3.495   2.988
 6588TIP3   OH219706   5.931   7.402   5.440
 6588TIP3    H119707   6.013   7.413   5.488
 6588TIP3    H219708   5.927   7.308   5.421
 6589TIP3   OH219709   6.844   4.974   1.546
 6589TIP3    H119710   6.864   5.023   1.625
 6589TIP3    H219711   6.749   4.969   1.544
 6590TIP3   OH219712   2.991   0.640   0.881
 6590TIP3    H119713   3.040   0.682   0.951
 6590TIP3    H219714   2.979   0.709   0.815
 6591TIP3   OH219715   4.703   7.439   5.432
 6591TIP3    H119716   4.672   7.483   5.511
 6591TIP3    H219717   4.798   7.442   5.438
 6592TIP3   OH219718   3.026   1.977   6.632
 6592TIP3    H119719   3.098   2.016   6.681
 6592TIP3    H219720   3.068   1.931   6.560
 6593TIP3   OH219721   1.961   5.450   1.983
 6593TIP3    H119722   2.023   5.492   2.042
 6593TIP3    H219723   1.918   5.522   1.937
 6594TIP3   OH219724   3.632   3.625   5.097
 6594TIP3    H119725   3.683   3.546   5.112
 6594TIP3    H219726   3.540   3.596   5.104
 6595TIP3   OH219727   8.288   0.439   0.074
 6595TIP3    H119728   8.314   0.522   0.035
 6595TIP3    H219729   8.193   0.444   0.080
 6596TIP3   OH219730   2.750   7.152   6.252
 6596TIP3    H119731   2.679   7.100   6.290
 6596TIP3    H219732   2.709   7.199   6.179
 6597TIP3   OH219733   3.712   0.772   4.391
 6597TIP3    H119734   3.744   0.853   4.431
 6597TIP3    H219735   3.629   0.755   4.436
 6598TIP3   OH219736   1.656   5.116   4.325
 6598TIP3    H119737   1.749   5.111   4.300
 6598TIP3    H219738   1.651   5.068   4.408
 6599TIP3   OH219739   1.425   5.679   1.371
 6599TIP3    H119740   1.513   5.666   1.336
 6599TIP3    H219741   1.439   5.703   1.463
 6600TIP3   OH219742   6.252   6.677   5.848
 6600TIP3    H119743   6.315   6.629   5.794
 6600TIP3    H219744   6.172   6.624   5.844
 6601TIP3   OH219745   2.089   1.090   4.796
 6601TIP3    H119746   2.179   1.073   4.767
 6601TIP3    H219747   2.042   1.010   4.777
 6602TIP3   OH219748   0.948   5.455   0.014
 6602TIP3    H119749   0.949   5.388   0.083
 6602TIP3    H219750   1.037   5.490   0.013
 6603TIP3   OH219751   5.620   7.552   5.718
 6603TIP3    H119752   5.641   7.532   5.627
 6603TIP3    H219753   5.545   7.497   5.738
 6604TIP3   OH219754   2.456   4.903   5.057
 6604TIP3    H119755   2.369   4.943   5.060
 6604TIP3    H219756   2.461   4.852   5.138
 6605TIP3   OH219757   2.720   4.562   3.845
 6605TIP3    H119758   2.801   4.610   3.861
 6605TIP3    H219759   2.650   4.626   3.859
 6606TIP3   OH219760   1.027   4.012   3.094
 6606TIP3    H119761   1.044   4.089   3.149
 6606TIP3    H219762   0.983   3.950   3.151
 6607TIP3   OH219763   3.371   2.094   2.831
 6607TIP3    H119764   3.416   2.015   2.803
 6607TIP3    H219765   3.432   2.137   2.891
 6608TIP3   OH219766   4.898   2.421   2.945
 6608TIP3    H119767   4.900   2.357   2.873
 6608TIP3    H219768   4.908   2.506   2.903
 6609TIP3   OH219769   0.111   0.754   4.757
 6609TIP3    H119770   0.141   0.845   4.753
 6609TIP3    H219771   0.154   0.711   4.684
 6610TIP3   OH219772   3.204   0.285   2.456
 6610TIP3    H119773   3.182   0.222   2.387
 6610TIP3    H219774   3.257   0.352   2.412
 6611TIP3   OH219775   3.786   7.817   0.534
 6611TIP3    H119776   3.822   7.728   0.529
 6611TIP3    H219777   3.748   7.822   0.622
 6612TIP3   OH219778   2.622   6.542   1.710
 6612TIP3    H119779   2.609   6.531   1.804
 6612TIP3    H219780   2.534   6.534   1.673
 6613TIP3   OH219781   7.381   6.679   5.298
 6613TIP3    H119782   7.461   6.720   5.265
 6613TIP3    H219783   7.411   6.621   5.368
 6614TIP3   OH219784   2.394   7.320   2.493
 6614TIP3    H119785   2.401   7.235   2.537
 6614TIP3    H219786   2.459   7.317   2.423
 6615TIP3   OH219787   3.091   4.154   4.282
 6615TIP3    H119788   3.076   4.149   4.188
 6615TIP3    H219789   3.132   4.071   4.305
 6616TIP3   OH219790   6.870   0.919   4.217
 6616TIP3    H119791   6.874   0.886   4.307
 6616TIP3    H219792   6.785   0.889   4.185
 6617TIP3   OH219793   7.848   4.009   6.705
 6617TIP3    H119794   7.785   3.940   6.729
 6617TIP3    H219795   7.874   3.987   6.616
 6618TIP3   OH219796   5.286   7.542   1.620
 6618TIP3    H119797   5.378   7.547   1.594
 6618TIP3    H219798   5.259   7.454   1.594
 6619TIP3   OH219799   0.665   1.224   3.460
 6619TIP3    H119800   0.756   1.251   3.454
 6619TIP3    H219801   0.668   1.130   3.477
 6620TIP3   OH219802   0.062   5.674   5.160
 6620TIP3    H119803   0.025   5.762   5.164
 6620TIP3    H219804   0.012   5.630   5.091
 6621TIP3   OH219805   6.008   6.947   0.994
 6621TIP3    H119806   5.959   6.881   1.044
 6621TIP3    H219807   6.044   6.899   0.920
 6622TIP3   OH219808   4.228   2.509   1.109
 6622TIP3    H119809   4.278   2.523   1.190
 6622TIP3    H219810   4.233   2.594   1.064
 6623TIP3   OH219811   4.649   1.884   2.556
 6623TIP3    H119812   4.570   1.874   2.504
 6623TIP3    H219813   4.698   1.803   2.542
 6624TIP3   OH219814   7.946   6.602   2.460
 6624TIP3    H119815   8.029   6.594   2.414
 6624TIP3    H219816   7.962   6.564   2.547
 6625TIP3   OH219817   0.091   2.695   3.279
 6625TIP3    H119818   0.060   2.671   3.192
 6625TIP3    H219819   0.171   2.645   3.291
 6626TIP3   OH219820   7.465   6.501   5.565
 6626TIP3    H119821   7.385   6.463   5.529
 6626TIP3    H219822   7.433   6.566   5.628
 6627TIP3   OH219823   7.668   3.348   3.532
 6627TIP3    H119824   7.728   3.386   3.596
 6627TIP3    H219825   7.581   3.378   3.560
 6628TIP3   OH219826   2.210   6.459   5.791
 6628TIP3    H119827   2.267   6.448   5.868
 6628TIP3    H219828   2.125   6.482   5.827
 6629TIP3   OH219829   1.268   1.385   0.876
 6629TIP3    H119830   1.236   1.467   0.838
 6629TIP3    H219831   1.290   1.407   0.966
 6630TIP3   OH219832   3.989   2.763   2.041
 6630TIP3    H119833   3.972   2.796   1.953
 6630TIP3    H219834   4.079   2.791   2.060
 6631TIP3   OH219835   4.980   3.222   6.415
 6631TIP3    H119836   4.957   3.156   6.350
 6631TIP3    H219837   4.988   3.303   6.364
 6632TIP3   OH219838   1.174   6.542   2.106
 6632TIP3    H119839   1.249   6.487   2.128
 6632TIP3    H219840   1.111   6.482   2.067
 6633TIP3   OH219841   0.610   5.438   3.019
 6633TIP3    H119842   0.617   5.485   3.102
 6633TIP3    H219843   0.522   5.460   2.987
 6634TIP3   OH219844   6.307   6.786   6.393
 6634TIP3    H119845   6.332   6.878   6.393
 6634TIP3    H219846   6.363   6.747   6.460
 6635TIP3   OH219847   2.862   7.282   2.057
 6635TIP3    H119848   2.805   7.355   2.032
 6635TIP3    H219849   2.925   7.321   2.118
 6636TIP3   OH219850   5.434   0.540   3.349
 6636TIP3    H119851   5.469   0.463   3.303
 6636TIP3    H219852   5.346   0.551   3.315
 6637TIP3   OH219853   3.771   4.085   6.478
 6637TIP3    H119854   3.820   4.132   6.411
 6637TIP3    H219855   3.791   4.131   6.559
 6638TIP3   OH219856   4.695   2.694   3.556
 6638TIP3    H119857   4.741   2.691   3.640
 6638TIP3    H219858   4.760   2.730   3.495
 6639TIP3   OH219859   0.041   7.429   0.817
 6639TIP3    H119860   0.122   7.479   0.814
 6639TIP3    H219861   0.048   7.367   0.745
 6640TIP3   OH219862   1.720   2.331   1.582
 6640TIP3    H119863   1.654   2.262   1.584
 6640TIP3    H219864   1.704   2.378   1.500
 6641TIP3   OH219865   6.435   6.779   1.018
 6641TIP3    H119866   6.443   6.684   1.015
 6641TIP3    H219867   6.457   6.802   1.108
 6642TIP3   OH219868   2.656   0.005   6.605
 6642TIP3    H119869   2.571   0.049   6.611
 6642TIP3    H219870   2.675   0.003   6.511
 6643TIP3   OH219871   1.005   4.845   4.731
 6643TIP3    H119872   1.058   4.901   4.787
 6643TIP3    H219873   1.068   4.785   4.691
 6644TIP3   OH219874   1.898   7.301   1.238
 6644TIP3    H119875   1.965   7.258   1.186
 6644TIP3    H219876   1.849   7.354   1.175
 6645TIP3   OH219877   2.883   1.051   0.122
 6645TIP3    H119878   2.861   1.000   0.200
 6645TIP3    H219879   2.835   1.133   0.133
 6646TIP3   OH219880   2.713   3.722   5.517
 6646TIP3    H119881   2.789   3.687   5.472
 6646TIP3    H219882   2.674   3.784   5.455
 6647TIP3   OH219883   8.223   5.035   1.167
 6647TIP3    H119884   8.313   5.002   1.169
 6647TIP3    H219885   8.169   4.958   1.182
 6648TIP3   OH219886   5.696   2.694   4.404
 6648TIP3    H119887   5.745   2.616   4.429
 6648TIP3    H219888   5.604   2.669   4.414
 6649TIP3   OH219889   3.343   3.890   4.136
 6649TIP3    H119890   3.317   3.802   4.109
 6649TIP3    H219891   3.296   3.948   4.076
 6650TIP3   OH219892   3.741   5.777   4.576
 6650TIP3    H119893   3.826   5.770   4.620
 6650TIP3    H219894   3.760   5.758   4.484
 6651TIP3   OH219895   5.138   3.297   4.347
 6651TIP3    H119896   5.071   3.338   4.402
 6651TIP3    H219897   5.091   3.267   4.269
 6652TIP3   OH219898   0.990   3.298   3.903
 6652TIP3    H119899   0.990   3.225   3.841
 6652TIP3    H219900   1.082   3.306   3.929
 6653TIP3   OH219901   7.885   3.198   0.960
 6653TIP3    H119902   7.963   3.146   0.978
 6653TIP3    H219903   7.826   3.137   0.916
 6654TIP3   OH219904   3.738   5.111   4.653
 6654TIP3    H119905   3.676   5.097   4.724
 6654TIP3    H219906   3.686   5.104   4.573
 6655TIP3   OH219907   3.688   7.246   2.101
 6655TIP3    H119908   3.683   7.167   2.047
 6655TIP3    H219909   3.641   7.224   2.181
 6656TIP3   OH219910   5.052   3.138   6.651
 6656TIP3    H119911   5.049   3.042   6.646
 6656TIP3    H219912   5.016   3.166   6.567
 6657TIP3   OH219913   6.808   5.205   3.493
 6657TIP3    H119914   6.727   5.236   3.533
 6657TIP3    H219915   6.866   5.280   3.495
 6658TIP3   OH219916   3.772   3.998   2.974
 6658TIP3    H119917   3.751   4.062   2.905
 6658TIP3    H219918   3.867   4.006   2.986
 6659TIP3   OH219919   0.068   3.718   0.017
 6659TIP3    H119920  -0.010   3.738  -0.034
 6659TIP3    H219921   0.036   3.671   0.094
 6660TIP3   OH219922   7.272   0.999   0.348
 6660TIP3    H119923   7.231   0.979   0.264
 6660TIP3    H219924   7.213   0.960   0.413
 6661TIP3   OH219925   7.417   0.827   6.093
 6661TIP3    H119926   7.509   0.852   6.108
 6661TIP3    H219927   7.400   0.853   6.003
 6662TIP3   OH219928   4.801   3.032   5.413
 6662TIP3    H119929   4.800   2.973   5.338
 6662TIP3    H219930   4.777   3.118   5.376
 6663TIP3   OH219931   0.484   0.404   2.285
 6663TIP3    H119932   0.558   0.413   2.224
 6663TIP3    H219933   0.412   0.448   2.242
 6664TIP3   OH219934   7.870   2.656   0.333
 6664TIP3    H119935   7.935   2.699   0.277
 6664TIP3    H219936   7.903   2.670   0.422
 6665TIP3   OH219937   7.389   6.675   2.142
 6665TIP3    H119938   7.358   6.629   2.220
 6665TIP3    H219939   7.322   6.742   2.126
 6666TIP3   OH219940   6.215   5.353   0.691
 6666TIP3    H119941   6.306   5.362   0.662
 6666TIP3    H219942   6.216   5.382   0.782
 6667TIP3   OH219943   3.186   2.348   5.256
 6667TIP3    H119944   3.221   2.412   5.194
 6667TIP3    H219945   3.259   2.331   5.316
 6668TIP3   OH219946   7.931   7.621   0.074
 6668TIP3    H119947   7.904   7.710   0.098
 6668TIP3    H219948   8.014   7.608   0.120
 6669TIP3   OH219949   4.190   7.507   0.589
 6669TIP3    H119950   4.175   7.500   0.683
 6669TIP3    H219951   4.254   7.577   0.580
 6670TIP3   OH219952   3.220   7.343   4.751
 6670TIP3    H119953   3.248   7.336   4.842
 6670TIP3    H219954   3.229   7.255   4.715
 6671TIP3   OH219955   3.501   0.876   0.928
 6671TIP3    H119956   3.443   0.897   0.855
 6671TIP3    H219957   3.520   0.961   0.969
 6672TIP3   OH219958   2.889   0.719   5.520
 6672TIP3    H119959   2.841   0.719   5.603
 6672TIP3    H219960   2.836   0.665   5.461
 6673TIP3   OH219961   5.683   3.730   5.140
 6673TIP3    H119962   5.664   3.811   5.093
 6673TIP3    H219963   5.598   3.684   5.142
 6674TIP3   OH219964   2.057   2.140   3.023
 6674TIP3    H119965   2.001   2.159   3.098
 6674TIP3    H219966   2.122   2.210   3.023
 6675TIP3   OH219967   8.121   7.657   0.315
 6675TIP3    H119968   8.139   7.572   0.275
 6675TIP3    H219969   8.174   7.719   0.265
 6676TIP3   OH219970   6.806   2.087   2.963
 6676TIP3    H119971   6.824   2.178   2.987
 6676TIP3    H219972   6.718   2.089   2.925
 6677TIP3   OH219973   5.924   0.683   5.506
 6677TIP3    H119974   5.831   0.695   5.525
 6677TIP3    H219975   5.941   0.741   5.431
 6678TIP3   OH219976   2.345   3.719   1.156
 6678TIP3    H119977   2.368   3.705   1.064
 6678TIP3    H219978   2.287   3.795   1.155
 6679TIP3   OH219979   7.729   7.320   2.992
 6679TIP3    H119980   7.731   7.254   2.923
 6679TIP3    H219981   7.738   7.271   3.073
 6680TIP3   OH219982   7.302   2.211   0.529
 6680TIP3    H119983   7.372   2.226   0.593
 6680TIP3    H219984   7.237   2.158   0.576
 6681TIP3   OH219985   2.869   6.555   2.445
 6681TIP3    H119986   2.816   6.619   2.494
 6681TIP3    H219987   2.841   6.470   2.479
 6682TIP3   OH219988   3.038   1.624   2.102
 6682TIP3    H119989   2.958   1.607   2.053
 6682TIP3    H219990   3.072   1.705   2.064
 6683TIP3   OH219991   7.655   2.095   3.750
 6683TIP3    H119992   7.574   2.073   3.704
 6683TIP3    H219993   7.635   2.083   3.842
 6684TIP3   OH219994   7.127   1.053   5.174
 6684TIP3    H119995   7.159   1.034   5.086
 6684TIP3    H219996   7.045   1.004   5.181
 6685TIP3   OH219997   2.650   3.298   1.355
 6685TIP3    H119998   2.687   3.346   1.428
 6685TIP3    H219999   2.724   3.281   1.296
 6686TIP3   OH220000   7.761   0.209   5.841
 6686TIP3    H120001   7.686   0.157   5.813
 6686TIP3    H220002   7.756   0.210   5.936
 6687TIP3   OH220003   1.626   2.365   2.951
 6687TIP3    H120004   1.657   2.277   2.974
 6687TIP3    H220005   1.665   2.422   3.016
 6688TIP3   OH220006   1.139   0.051   4.710
 6688TIP3    H120007   1.104   0.002   4.636
 6688TIP3    H220008   1.197  -0.011   4.754
 6689TIP3   OH220009   7.279   2.283   2.396
 6689TIP3    H120010   7.355   2.274   2.338
 6689TIP3    H220011   7.262   2.378   2.399
 6690TIP3   OH220012   2.566   1.039   0.751
 6690TIP3    H120013   2.564   0.954   0.796
 6690TIP3    H220014   2.658   1.052   0.728
 6691TIP3   OH220015   3.151   2.390   5.560
 6691TIP3    H120016   3.117   2.479   5.555
 6691TIP3    H220017   3.092   2.339   5.505
 6692TIP3   OH220018   6.881   3.774   3.139
 6692TIP3    H120019   6.820   3.824   3.194
 6692TIP3    H220020   6.829   3.699   3.109
 6693TIP3   OH220021   1.624   4.565   5.576
 6693TIP3    H120022   1.534   4.588   5.601
 6693TIP3    H220023   1.613   4.497   5.510
 6694TIP3   OH220024   6.856   6.115   1.688
 6694TIP3    H120025   6.890   6.143   1.603
 6694TIP3    H220026   6.762   6.132   1.683
 6695TIP3   OH220027   5.715   7.194   2.007
 6695TIP3    H120028   5.664   7.269   2.039
 6695TIP3    H220029   5.797   7.198   2.057
 6696TIP3   OH220030   1.579   4.824   0.810
 6696TIP3    H120031   1.610   4.840   0.721
 6696TIP3    H220032   1.502   4.880   0.819
 6697TIP3   OH220033   1.447   0.112   4.428
 6697TIP3    H120034   1.509   0.047   4.461
 6697TIP3    H220035   1.434   0.089   4.336
 6698TIP3   OH220036   0.705   0.140   6.097
 6698TIP3    H120037   0.763   0.195   6.150
 6698TIP3    H220038   0.743   0.052   6.105
 6699TIP3   OH220039   1.257   4.225   1.258
 6699TIP3    H120040   1.252   4.306   1.309
 6699TIP3    H220041   1.345   4.191   1.275
 6700TIP3   OH220042   2.588   6.323   2.950
 6700TIP3    H120043   2.591   6.331   3.045
 6700TIP3    H220044   2.654   6.257   2.928
 6701TIP3   OH220045   7.461   2.921   1.984
 6701TIP3    H120046   7.444   2.989   1.919
 6701TIP3    H220047   7.441   2.839   1.939
 6702TIP3   OH220048   0.362   5.305   5.703
 6702TIP3    H120049   0.402   5.389   5.680
 6702TIP3    H220050   0.426   5.240   5.677
 6703TIP3   OH220051   0.699   5.261   5.099
 6703TIP3    H120052   0.777   5.295   5.055
 6703TIP3    H220053   0.640   5.336   5.106
 6704TIP3   OH220054   7.981   1.577   3.805
 6704TIP3    H120055   8.045   1.615   3.745
 6704TIP3    H220056   7.933   1.513   3.752
 6705TIP3   OH220057   1.370   4.346   4.800
 6705TIP3    H120058   1.289   4.312   4.762
 6705TIP3    H220059   1.424   4.368   4.725
 6706TIP3   OH220060   4.418   0.456   4.985
 6706TIP3    H120061   4.328   0.468   4.955
 6706TIP3    H220062   4.467   0.528   4.945
 6707TIP3   OH220063   3.199   3.258   3.952
 6707TIP3    H120064   3.123   3.209   3.921
 6707TIP3    H220065   3.270   3.232   3.894
 6708TIP3   OH220066   3.543   2.542   2.366
 6708TIP3    H120067   3.449   2.544   2.386
 6708TIP3    H220068   3.586   2.539   2.451
 6709TIP3   OH220069   2.508   2.309   3.329
 6709TIP3    H120070   2.559   2.380   3.290
 6709TIP3    H220071   2.449   2.354   3.390
 6710TIP3   OH220072   1.085   5.336   1.711
 6710TIP3    H120073   1.167   5.371   1.745
 6710TIP3    H220074   1.080   5.369   1.621
 6711TIP3   OH220075   5.902   2.210   1.290
 6711TIP3    H120076   5.859   2.265   1.225
 6711TIP3    H220077   5.925   2.130   1.242
 6712TIP3   OH220078   0.112   0.887   6.643
 6712TIP3    H120079   0.060   0.926   6.713
 6712TIP3    H220080   0.200   0.877   6.681
 6713TIP3   OH220081   7.964   6.916   2.039
 6713TIP3    H120082   7.938   6.848   2.101
 6713TIP3    H220083   7.929   6.997   2.077
 6714TIP3   OH220084   5.111   0.316   4.935
 6714TIP3    H120085   5.018   0.318   4.960
 6714TIP3    H220086   5.111   0.285   4.845
 6715TIP3   OH220087   0.371   4.996   2.877
 6715TIP3    H120088   0.449   4.942   2.890
 6715TIP3    H220089   0.398   5.084   2.903
 6716TIP3   OH220090   2.237   4.542   3.407
 6716TIP3    H120091   2.294   4.520   3.334
 6716TIP3    H220092   2.296   4.553   3.482
 6717TIP3   OH220093   7.216   5.989   4.894
 6717TIP3    H120094   7.190   6.063   4.948
 6717TIP3    H220095   7.281   5.942   4.946
 6718TIP3   OH220096   6.029   3.544   3.105
 6718TIP3    H120097   6.037   3.624   3.157
 6718TIP3    H220098   6.105   3.545   3.047
 6719TIP3   OH220099   6.803   4.322   1.897
 6719TIP3    H120100   6.882   4.345   1.945
 6719TIP3    H220101   6.760   4.256   1.951
 6720TIP3   OH220102   8.242   6.596   1.017
 6720TIP3    H120103   8.187   6.518   1.024
 6720TIP3    H220104   8.315   6.570   0.961
 6721TIP3   OH220105   0.983   0.013   3.494
 6721TIP3    H120106   0.955  -0.052   3.429
 6721TIP3    H220107   0.901   0.046   3.531
 6722TIP3   OH220108   3.510   4.858   2.711
 6722TIP3    H120109   3.604   4.864   2.700
 6722TIP3    H220110   3.475   4.936   2.668
 6723TIP3   OH220111   0.632   6.976   1.760
 6723TIP3    H120112   0.641   6.918   1.685
 6723TIP3    H220113   0.542   7.008   1.754
 6724TIP3   OH220114   4.703   1.694   0.672
 6724TIP3    H120115   4.621   1.731   0.705
 6724TIP3    H220116   4.685   1.674   0.581
 6725TIP3   OH220117   0.228   1.984   0.150
 6725TIP3    H120118   0.211   1.891   0.131
 6725TIP3    H220119   0.231   1.989   0.245
 6726TIP3   OH220120   1.749   7.633   6.512
 6726TIP3    H120121   1.767   7.647   6.419
 6726TIP3    H220122   1.660   7.598   6.514
 6727TIP3   OH220123   7.703   2.862   2.701
 6727TIP3    H120124   7.700   2.874   2.796
 6727TIP3    H220125   7.780   2.806   2.687
 6728TIP3   OH220126   2.185   1.299   4.214
 6728TIP3    H120127   2.130   1.371   4.185
 6728TIP3    H220128   2.131   1.221   4.198
 6729TIP3   OH220129   5.669   5.127   6.482
 6729TIP3    H120130   5.584   5.106   6.442
 6729TIP3    H220131   5.682   5.058   6.547
 6730TIP3   OH220132   0.993   0.691   1.816
 6730TIP3    H120133   0.902   0.716   1.802
 6730TIP3    H220134   0.988   0.611   1.870
 6731TIP3   OH220135   0.365   2.582   3.358
 6731TIP3    H120136   0.415   2.624   3.288
 6731TIP3    H220137   0.424   2.514   3.392
 6732TIP3   OH220138   7.009   7.397   2.772
 6732TIP3    H120139   6.964   7.373   2.853
 6732TIP3    H220140   7.102   7.384   2.791
 6733TIP3   OH220141   5.003   4.141   6.491
 6733TIP3    H120142   4.942   4.152   6.563
 6733TIP3    H220143   5.039   4.053   6.503
 6734TIP3   OH220144   6.109   6.202   3.312
 6734TIP3    H120145   6.138   6.136   3.374
 6734TIP3    H220146   6.022   6.172   3.284
 6735TIP3   OH220147   4.830   5.984   6.461
 6735TIP3    H120148   4.795   5.895   6.448
 6735TIP3    H220149   4.915   5.971   6.503
 6736TIP3   OH220150   2.890   4.094   5.256
 6736TIP3    H120151   2.816   4.115   5.199
 6736TIP3    H220152   2.938   4.025   5.209
 6737TIP3   OH220153   7.575   3.156   6.673
 6737TIP3    H120154   7.632   3.213   6.724
 6737TIP3    H220155   7.486   3.185   6.695
 6738TIP3   OH220156   3.099   4.461   1.872
 6738TIP3    H120157   3.113   4.549   1.837
 6738TIP3    H220158   3.045   4.416   1.807
 6739TIP3   OH220159   5.331   5.536   4.170
 6739TIP3    H120160   5.255   5.498   4.214
 6739TIP3    H220161   5.300   5.554   4.081
 6740TIP3   OH220162   3.586   4.692   1.548
 6740TIP3    H120163   3.584   4.732   1.461
 6740TIP3    H220164   3.601   4.765   1.607
 6741TIP3   OH220165   4.498   2.681   2.611
 6741TIP3    H120166   4.423   2.739   2.624
 6741TIP3    H220167   4.485   2.644   2.524
 6742TIP3   OH220168   3.345   1.042   6.611
 6742TIP3    H120169   3.366   1.134   6.625
 6742TIP3    H220170   3.410   0.994   6.663
 6743TIP3   OH220171   2.195   0.486   0.780
 6743TIP3    H120172   2.222   0.404   0.821
 6743TIP3    H220173   2.201   0.551   0.850
 6744TIP3   OH220174   6.668   2.127   3.513
 6744TIP3    H120175   6.732   2.181   3.560
 6744TIP3    H220176   6.672   2.042   3.557
 6745TIP3   OH220177   5.646   4.341   0.070
 6745TIP3    H120178   5.582   4.280   0.033
 6745TIP3    H220179   5.639   4.330   0.164
 6746TIP3   OH220180   4.189   0.892   3.597
 6746TIP3    H120181   4.141   0.846   3.666
 6746TIP3    H220182   4.133   0.885   3.520
 6747TIP3   OH220183   2.057   7.071   3.903
 6747TIP3    H120184   2.109   7.150   3.920
 6747TIP3    H220185   1.976   7.103   3.865
 6748TIP3   OH220186   2.954   6.216   3.154
 6748TIP3    H120187   2.988   6.258   3.075
 6748TIP3    H220188   3.016   6.241   3.222
 6749TIP3   OH220189   5.059   2.097   2.109
 6749TIP3    H120190   5.009   2.051   2.176
 6749TIP3    H220191   5.149   2.071   2.124
 6750TIP3   OH220192   3.742   2.053   3.797
 6750TIP3    H120193   3.826   2.045   3.751
 6750TIP3    H220194   3.754   2.128   3.855
 6751TIP3   OH220195   8.268   4.556   3.820
 6751TIP3    H120196   8.214   4.556   3.741
 6751TIP3    H220197   8.240   4.478   3.868
 6752TIP3   OH220198   3.915   0.117   3.918
 6752TIP3    H120199   3.843   0.178   3.902
 6752TIP3    H220200   3.892   0.073   4.000
 6753TIP3   OH220201   5.223   2.119   6.193
 6753TIP3    H120202   5.215   2.211   6.168
 6753TIP3    H220203   5.317   2.106   6.207
 6754TIP3   OH220204   6.086   0.469   4.713
 6754TIP3    H120205   6.003   0.428   4.687
 6754TIP3    H220206   6.066   0.513   4.796
 6755TIP3   OH220207   4.259   3.218   6.308
 6755TIP3    H120208   4.225   3.223   6.218
 6755TIP3    H220209   4.204   3.154   6.351
 6756TIP3   OH220210   0.700   4.863   4.520
 6756TIP3    H120211   0.650   4.939   4.549
 6756TIP3    H220212   0.647   4.825   4.450
 6757TIP3   OH220213   7.107   1.993   4.756
 6757TIP3    H120214   7.115   2.056   4.828
 6757TIP3    H220215   7.020   2.009   4.720
 6758TIP3   OH220216   8.188   4.173   0.106
 6758TIP3    H120217   8.217   4.098   0.158
 6758TIP3    H220218   8.139   4.227   0.168
 6759TIP3   OH220219   0.493   4.717   4.366
 6759TIP3    H120220   0.450   4.802   4.350
 6759TIP3    H220221   0.442   4.678   4.437
 6760TIP3   OH220222   0.794   4.300   4.524
 6760TIP3    H120223   0.785   4.262   4.612
 6760TIP3    H220224   0.877   4.265   4.492
 6761TIP3   OH220225   0.638   6.007   0.856
 6761TIP3    H120226   0.616   5.985   0.946
 6761TIP3    H220227   0.593   5.941   0.803
 6762TIP3   OH220228   7.145   0.202   2.330
 6762TIP3    H120229   7.094   0.256   2.391
 6762TIP3    H220230   7.120   0.234   2.243
 6763TIP3   OH220231   5.118   6.416   1.684
 6763TIP3    H120232   5.120   6.507   1.711
 6763TIP3    H220233   5.141   6.366   1.762
 6764TIP3   OH220234   0.220   4.000   3.982
 6764TIP3    H120235   0.309   3.964   3.982
 6764TIP3    H220236   0.227   4.079   4.034
 6765TIP3   OH220237   0.706   3.096   2.690
 6765TIP3    H120238   0.667   3.041   2.758
 6765TIP3    H220239   0.638   3.103   2.623
 6766TIP3   OH220240   4.177   4.948   3.106
 6766TIP3    H120241   4.088   4.920   3.125
 6766TIP3    H220242   4.177   5.043   3.119
 6767TIP3   OH220243   2.682   0.454   5.656
 6767TIP3    H120244   2.709   0.373   5.700
 6767TIP3    H220245   2.691   0.522   5.723
 6768TIP3   OH220246   3.327   3.498   0.551
 6768TIP3    H120247   3.293   3.569   0.605
 6768TIP3    H220248   3.357   3.541   0.471
 6769TIP3   OH220249   3.458   7.515   5.877
 6769TIP3    H120250   3.410   7.578   5.932
 6769TIP3    H220251   3.428   7.429   5.906
 6770TIP3   OH220252   4.043   4.324   5.348
 6770TIP3    H120253   4.030   4.320   5.253
 6770TIP3    H220254   4.119   4.380   5.359
 6771TIP3   OH220255   6.283   5.515   3.178
 6771TIP3    H120256   6.299   5.608   3.189
 6771TIP3    H220257   6.314   5.495   3.089
 6772TIP3   OH220258   4.161   6.184   2.190
 6772TIP3    H120259   4.185   6.119   2.257
 6772TIP3    H220260   4.244   6.212   2.153
 6773TIP3   OH220261   3.218   6.006   3.156
 6773TIP3    H120262   3.298   6.006   3.209
 6773TIP3    H220263   3.214   6.094   3.119
 6774TIP3   OH220264   6.750   1.483   2.465
 6774TIP3    H120265   6.658   1.471   2.442
 6774TIP3    H220266   6.749   1.547   2.536
 6775TIP3   OH220267   4.404   2.043   2.891
 6775TIP3    H120268   4.397   1.950   2.911
 6775TIP3    H220269   4.496   2.056   2.870
 6776TIP3   OH220270   4.970   6.419   2.071
 6776TIP3    H120271   4.874   6.424   2.075
 6776TIP3    H220272   4.988   6.377   1.986
 6777TIP3   OH220273   5.484   5.606   2.747
 6777TIP3    H120274   5.445   5.691   2.727
 6777TIP3    H220275   5.456   5.549   2.676
 6778TIP3   OH220276   5.095   2.311   3.444
 6778TIP3    H120277   5.057   2.394   3.474
 6778TIP3    H220278   5.051   2.294   3.361
 6779TIP3   OH220279   5.498   6.947   1.791
 6779TIP3    H120280   5.577   6.916   1.747
 6779TIP3    H220281   5.486   6.886   1.864
 6780TIP3   OH220282   4.254   3.544   5.105
 6780TIP3    H120283   4.194   3.515   5.173
 6780TIP3    H220284   4.264   3.469   5.048
 6781TIP3   OH220285   7.567   7.004   3.393
 6781TIP3    H120286   7.626   7.052   3.451
 6781TIP3    H220287   7.480   7.038   3.414
 6782TIP3   OH220288   0.799   7.831   0.003
 6782TIP3    H120289   0.893   7.815   0.012
 6782TIP3    H220290   0.758   7.762   0.055
 6783TIP3   OH220291   3.846   6.364   2.097
 6783TIP3    H120292   3.785   6.294   2.073
 6783TIP3    H220293   3.790   6.441   2.108
 6784TIP3   OH220294   6.746   5.653   5.134
 6784TIP3    H120295   6.787   5.567   5.121
 6784TIP3    H220296   6.665   5.633   5.182
 6785TIP3   OH220297   1.265   3.123   1.700
 6785TIP3    H120298   1.221   3.047   1.660
 6785TIP3    H220299   1.355   3.095   1.712
 6786TIP3   OH220300   8.029   3.345   0.584
 6786TIP3    H120301   8.018   3.439   0.598
 6786TIP3    H220302   8.059   3.338   0.494
 6787TIP3   OH220303   1.544   7.715   3.224
 6787TIP3    H120304   1.474   7.774   3.197
 6787TIP3    H220305   1.600   7.768   3.281
 6788TIP3   OH220306   6.511   1.953   0.351
 6788TIP3    H120307   6.429   1.964   0.303
 6788TIP3    H220308   6.579   1.950   0.284
 6789TIP3   OH220309   6.253   0.529   1.660
 6789TIP3    H120310   6.183   0.570   1.711
 6789TIP3    H220311   6.315   0.496   1.725
 6790TIP3   OH220312   5.272   7.494   6.449
 6790TIP3    H120313   5.322   7.529   6.523
 6790TIP3    H220314   5.292   7.400   6.450
 6791TIP3   OH220315   1.413   2.295   0.142
 6791TIP3    H120316   1.496   2.268   0.181
 6791TIP3    H220317   1.357   2.316   0.216
 6792TIP3   OH220318   5.327   1.832   0.855
 6792TIP3    H120319   5.329   1.926   0.840
 6792TIP3    H220320   5.323   1.823   0.950
 6793TIP3   OH220321   7.029   5.075   4.733
 6793TIP3    H120322   7.000   5.165   4.717
 6793TIP3    H220323   7.059   5.044   4.647
 6794TIP3   OH220324   3.703   4.494   5.967
 6794TIP3    H120325   3.735   4.420   5.915
 6794TIP3    H220326   3.782   4.542   5.994
 6795TIP3   OH220327   7.112   0.946   5.499
 6795TIP3    H120328   7.187   0.932   5.557
 6795TIP3    H220329   7.102   0.863   5.452
 6796TIP3   OH220330   1.007   2.620   3.399
 6796TIP3    H120331   1.033   2.528   3.389
 6796TIP3    H220332   1.079   2.669   3.360
 6797TIP3   OH220333   6.486   7.131   4.677
 6797TIP3    H120334   6.522   7.067   4.617
 6797TIP3    H220335   6.447   7.198   4.621
 6798TIP3   OH220336   1.616   7.364   0.098
 6798TIP3    H120337   1.628   7.458   0.093
 6798TIP3    H220338   1.678   7.335   0.165
 6799TIP3   OH220339   5.403   6.270   0.963
 6799TIP3    H120340   5.481   6.225   0.929
 6799TIP3    H220341   5.420   6.281   1.056
 6800TIP3   OH220342   2.843   0.778   4.884
 6800TIP3    H120343   2.820   0.868   4.904
 6800TIP3    H220344   2.933   0.769   4.915
 6801TIP3   OH220345   0.030   4.771   4.488
 6801TIP3    H120346   0.090   4.750   4.560
 6801TIP3    H220347  -0.044   4.815   4.530
 6802TIP3   OH220348   3.275   7.685   0.412
 6802TIP3    H120349   3.234   7.599   0.402
 6802TIP3    H220350   3.342   7.673   0.479
 6803TIP3   OH220351   5.022   5.278   0.252
 6803TIP3    H120352   4.983   5.320   0.175
 6803TIP3    H220353   5.117   5.290   0.240
 6804TIP3   OH220354   2.501   6.857   1.741
 6804TIP3    H120355   2.583   6.899   1.770
 6804TIP3    H220356   2.443   6.930   1.720
 6805TIP3   OH220357   6.158   0.183   3.855
 6805TIP3    H120358   6.195   0.259   3.900
 6805TIP3    H220359   6.113   0.218   3.779
 6806TIP3   OH220360   6.484   7.737   2.992
 6806TIP3    H120361   6.408   7.777   2.948
 6806TIP3    H220362   6.559   7.767   2.941
 6807TIP3   OH220363   6.721   5.710   5.712
 6807TIP3    H120364   6.739   5.727   5.619
 6807TIP3    H220365   6.804   5.678   5.747
 6808TIP3   OH220366   2.282   4.253   3.656
 6808TIP3    H120367   2.241   4.276   3.738
 6808TIP3    H220368   2.370   4.292   3.660
 6809TIP3   OH220369   4.658   4.020   3.463
 6809TIP3    H120370   4.632   3.937   3.504
 6809TIP3    H220371   4.657   4.002   3.369
 6810TIP3   OH220372   8.218   0.544   3.978
 6810TIP3    H120373   8.309   0.554   3.950
 6810TIP3    H220374   8.169   0.530   3.897
 6811TIP3   OH220375   4.270   5.761   0.171
 6811TIP3    H120376   4.194   5.813   0.193
 6811TIP3    H220377   4.345   5.811   0.204
 6812TIP3   OH220378   4.908   0.191   2.813
 6812TIP3    H120379   4.983   0.213   2.757
 6812TIP3    H220380   4.853   0.135   2.758
 6813TIP3   OH220381   1.503   7.240   2.669
 6813TIP3    H120382   1.566   7.271   2.603
 6813TIP3    H220383   1.442   7.185   2.619
 6814TIP3   OH220384   1.168   2.716   2.378
 6814TIP3    H120385   1.194   2.772   2.451
 6814TIP3    H220386   1.091   2.669   2.411
 6815TIP3   OH220387   1.318   4.931   0.769
 6815TIP3    H120388   1.288   5.010   0.815
 6815TIP3    H220389   1.237   4.890   0.737
 6816TIP3   OH220390   3.228   6.614   4.985
 6816TIP3    H120391   3.301   6.636   5.043
 6816TIP3    H220392   3.150   6.618   5.042
 6817TIP3   OH220393   7.736   5.946   0.343
 6817TIP3    H120394   7.719   5.854   0.324
 6817TIP3    H220395   7.663   5.973   0.399
 6818TIP3   OH220396   1.127   1.363   3.180
 6818TIP3    H120397   1.200   1.422   3.201
 6818TIP3    H220398   1.136   1.347   3.086
 6819TIP3   OH220399   3.942   4.333   3.894
 6819TIP3    H120400   3.988   4.351   3.812
 6819TIP3    H220401   3.900   4.416   3.917
 6820TIP3   OH220402   6.312   4.486   1.498
 6820TIP3    H120403   6.300   4.548   1.570
 6820TIP3    H220404   6.406   4.489   1.480
 6821TIP3   OH220405   0.777   2.686   5.650
 6821TIP3    H120406   0.800   2.737   5.572
 6821TIP3    H220407   0.725   2.745   5.703
 6822TIP3   OH220408   3.051   6.122   4.170
 6822TIP3    H120409   2.959   6.095   4.169
 6822TIP3    H220410   3.048   6.215   4.192
 6823TIP3   OH220411   3.369   2.959   3.963
 6823TIP3    H120412   3.275   2.944   3.951
 6823TIP3    H220413   3.377   2.992   4.053
 6824TIP3   OH220414   7.318   4.159   6.665
 6824TIP3    H120415   7.377   4.117   6.728
 6824TIP3    H220416   7.231   4.151   6.704
 6825TIP3   OH220417   1.256   3.154   0.188
 6825TIP3    H120418   1.302   3.070   0.195
 6825TIP3    H220419   1.166   3.134   0.213
 6826TIP3   OH220420   3.943   3.726   5.182
 6826TIP3    H120421   3.913   3.636   5.192
 6826TIP3    H220422   3.919   3.769   5.264
 6827TIP3   OH220423   3.504   2.699   5.607
 6827TIP3    H120424   3.516   2.735   5.695
 6827TIP3    H220425   3.410   2.707   5.591
 6828TIP3   OH220426   5.933   3.790   5.254
 6828TIP3    H120427   5.936   3.883   5.233
 6828TIP3    H220428   5.852   3.758   5.212
 6829TIP3   OH220429   6.090   6.370   6.027
 6829TIP3    H120430   6.089   6.409   5.940
 6829TIP3    H220431   6.085   6.445   6.087
 6830TIP3   OH220432   0.004   3.208   1.647
 6830TIP3    H120433  -0.067   3.266   1.674
 6830TIP3    H220434   0.077   3.230   1.704
 6831TIP3   OH220435   7.494   3.123   4.138
 6831TIP3    H120436   7.486   3.210   4.177
 6831TIP3    H220437   7.432   3.123   4.065
 6832TIP3   OH220438   1.980   6.805   5.804
 6832TIP3    H120439   1.992   6.857   5.725
 6832TIP3    H220440   2.069   6.784   5.833
 6833TIP3   OH220441   2.045   3.250   6.442
 6833TIP3    H120442   2.072   3.244   6.534
 6833TIP3    H220443   1.961   3.296   6.445
 6834TIP3   OH220444   8.132   2.358   5.374
 6834TIP3    H120445   8.200   2.291   5.379
 6834TIP3    H220446   8.146   2.413   5.451
 6835TIP3   OH220447   6.020   3.512   1.054
 6835TIP3    H120448   6.059   3.599   1.051
 6835TIP3    H220449   6.088   3.454   1.020
 6836TIP3   OH220450   6.978   1.755   0.472
 6836TIP3    H120451   7.067   1.753   0.436
 6836TIP3    H220452   6.931   1.817   0.417
 6837TIP3   OH220453   0.675   2.102   0.118
 6837TIP3    H120454   0.667   2.044   0.195
 6837TIP3    H220455   0.641   2.049   0.046
 6838TIP3   OH220456   3.958   5.519   3.751
 6838TIP3    H120457   3.983   5.609   3.730
 6838TIP3    H220458   4.008   5.466   3.690
 6839TIP3   OH220459   2.414   6.355   2.667
 6839TIP3    H120460   2.398   6.302   2.746
 6839TIP3    H220461   2.373   6.305   2.596
 6840TIP3   OH220462   6.551   0.702   4.215
 6840TIP3    H120463   6.552   0.798   4.211
 6840TIP3    H220464   6.561   0.682   4.308
 6841TIP3   OH220465   4.477   1.058   0.687
 6841TIP3    H120466   4.435   1.057   0.601
 6841TIP3    H220467   4.472   0.968   0.718
 6842TIP3   OH220468   3.745   1.258   2.132
 6842TIP3    H120469   3.704   1.267   2.045
 6842TIP3    H220470   3.683   1.204   2.182
 6843TIP3   OH220471   1.351   4.640   2.197
 6843TIP3    H120472   1.320   4.550   2.185
 6843TIP3    H220473   1.272   4.694   2.193
 6844TIP3   OH220474   1.860   0.902   6.028
 6844TIP3    H120475   1.903   0.923   5.945
 6844TIP3    H220476   1.933   0.884   6.087
 6845TIP3   OH220477   6.792   1.900   1.575
 6845TIP3    H120478   6.699   1.920   1.587
 6845TIP3    H220479   6.838   1.974   1.614
 6846TIP3   OH220480   5.121   7.233   3.609
 6846TIP3    H120481   5.178   7.240   3.685
 6846TIP3    H220482   5.172   7.269   3.537
 6847TIP3   OH220483   0.533   3.725   5.780
 6847TIP3    H120484   0.591   3.802   5.781
 6847TIP3    H220485   0.593   3.650   5.779
 6848TIP3   OH220486   7.375   7.020   4.592
 6848TIP3    H120487   7.334   7.078   4.656
 6848TIP3    H220488   7.373   7.069   4.510
 6849TIP3   OH220489   7.432   7.556   1.575
 6849TIP3    H120490   7.388   7.527   1.495
 6849TIP3    H220491   7.361   7.577   1.635
 6850TIP3   OH220492   2.117   2.434   5.043
 6850TIP3    H120493   2.116   2.460   4.951
 6850TIP3    H220494   2.075   2.507   5.089
 6851TIP3   OH220495   3.477   1.585   1.481
 6851TIP3    H120496   3.562   1.626   1.499
 6851TIP3    H220497   3.426   1.654   1.438
 6852TIP3   OH220498   2.513   1.076   2.904
 6852TIP3    H120499   2.450   1.148   2.908
 6852TIP3    H220500   2.493   1.022   2.980
 6853TIP3   OH220501   3.611   1.959   0.144
 6853TIP3    H120502   3.609   2.005   0.060
 6853TIP3    H220503   3.689   1.992   0.188
 6854TIP3   OH220504   0.867   5.403   0.654
 6854TIP3    H120505   0.894   5.312   0.660
 6854TIP3    H220506   0.897   5.442   0.736
 6855TIP3   OH220507   2.625   5.455   5.862
 6855TIP3    H120508   2.539   5.485   5.832
 6855TIP3    H220509   2.671   5.429   5.782
 6856TIP3   OH220510   2.307   7.162   6.328
 6856TIP3    H120511   2.240   7.102   6.359
 6856TIP3    H220512   2.269   7.249   6.338
 6857TIP3   OH220513   1.766   7.150   4.414
 6857TIP3    H120514   1.685   7.106   4.437
 6857TIP3    H220515   1.752   7.181   4.324
 6858TIP3   OH220516   5.769   4.444   3.069
 6858TIP3    H120517   5.728   4.489   2.996
 6858TIP3    H220518   5.787   4.356   3.036
 6859TIP3   OH220519   3.711   0.078   3.161
 6859TIP3    H120520   3.645   0.069   3.091
 6859TIP3    H220521   3.736   0.170   3.157
 6860TIP3   OH220522   5.779   1.989   6.605
 6860TIP3    H120523   5.814   1.995   6.694
 6860TIP3    H220524   5.824   1.914   6.566
 6861TIP3   OH220525   1.124   5.010   0.482
 6861TIP3    H120526   1.151   4.918   0.492
 6861TIP3    H220527   1.153   5.053   0.562
 6862TIP3   OH220528   5.215   5.605   6.243
 6862TIP3    H120529   5.305   5.583   6.265
 6862TIP3    H220530   5.187   5.665   6.313
 6863TIP3   OH220531   8.019   5.058   5.587
 6863TIP3    H120532   7.989   5.148   5.576
 6863TIP3    H220533   7.939   5.006   5.590
 6864TIP3   OH220534   5.183   3.027   5.855
 6864TIP3    H120535   5.206   3.066   5.771
 6864TIP3    H220536   5.249   3.060   5.916
 6865TIP3   OH220537   3.092   4.532   0.363
 6865TIP3    H120538   3.017   4.473   0.358
 6865TIP3    H220539   3.161   4.480   0.403
 6866TIP3   OH220540   7.447   5.810   5.047
 6866TIP3    H120541   7.528   5.798   4.998
 6866TIP3    H220542   7.405   5.725   5.045
 6867TIP3   OH220543   1.148   6.042   6.497
 6867TIP3    H120544   1.110   6.076   6.578
 6867TIP3    H220545   1.226   6.096   6.482
 6868TIP3   OH220546   0.728   1.456   1.222
 6868TIP3    H120547   0.666   1.524   1.196
 6868TIP3    H220548   0.774   1.494   1.297
 6869TIP3   OH220549   3.051   4.734   4.505
 6869TIP3    H120550   3.076   4.825   4.491
 6869TIP3    H220551   3.108   4.704   4.576
 6870TIP3   OH220552   5.457   4.996   5.386
 6870TIP3    H120553   5.540   5.042   5.378
 6870TIP3    H220554   5.439   4.963   5.298
 6871TIP3   OH220555   5.244   3.502   4.178
 6871TIP3    H120556   5.163   3.521   4.130
 6871TIP3    H220557   5.229   3.415   4.216
 6872TIP3   OH220558   4.503   0.149   3.219
 6872TIP3    H120559   4.529   0.086   3.287
 6872TIP3    H220560   4.488   0.230   3.268
 6873TIP3   OH220561   0.266   7.508   0.637
 6873TIP3    H120562   0.260   7.599   0.610
 6873TIP3    H220563   0.229   7.459   0.564
 6874TIP3   OH220564   2.412   5.787   6.023
 6874TIP3    H120565   2.358   5.724   5.977
 6874TIP3    H220566   2.431   5.855   5.959
 6875TIP3   OH220567   5.349   6.025   5.031
 6875TIP3    H120568   5.343   6.044   4.937
 6875TIP3    H220569   5.440   6.042   5.054
 6876TIP3   OH220570   3.223   6.533   2.685
 6876TIP3    H120571   3.305   6.572   2.715
 6876TIP3    H220572   3.235   6.439   2.700
 6877TIP3   OH220573   4.236   5.875   5.296
 6877TIP3    H120574   4.204   5.948   5.349
 6877TIP3    H220575   4.162   5.851   5.240
 6878TIP3   OH220576   7.222   0.749   3.019
 6878TIP3    H120577   7.209   0.701   2.937
 6878TIP3    H220578   7.245   0.681   3.083
 6879TIP3   OH220579   6.111   7.434   1.295
 6879TIP3    H120580   6.074   7.362   1.243
 6879TIP3    H220581   6.186   7.464   1.244
 6880TIP3   OH220582   1.669   4.282   5.453
 6880TIP3    H120583   1.685   4.303   5.361
 6880TIP3    H220584   1.595   4.221   5.451
 6881TIP3   OH220585   4.012   1.618   1.743
 6881TIP3    H120586   4.058   1.541   1.776
 6881TIP3    H220587   4.048   1.691   1.792
 6882TIP3   OH220588   7.312   2.458   2.898
 6882TIP3    H120589   7.338   2.415   2.979
 6882TIP3    H220590   7.342   2.400   2.829
 6883TIP3   OH220591   4.046   1.677   1.222
 6883TIP3    H120592   4.053   1.711   1.311
 6883TIP3    H220593   4.071   1.750   1.166
 6884TIP3   OH220594   7.083   6.564   4.490
 6884TIP3    H120595   7.122   6.503   4.426
 6884TIP3    H220596   7.135   6.644   4.481
 6885TIP3   OH220597   8.196   1.381   4.790
 6885TIP3    H120598   8.249   1.308   4.760
 6885TIP3    H220599   8.165   1.423   4.710
 6886TIP3   OH220600   6.947   2.391   3.807
 6886TIP3    H120601   6.929   2.306   3.767
 6886TIP3    H220602   6.871   2.409   3.861
 6887TIP3   OH220603   3.402   0.416   3.616
 6887TIP3    H120604   3.444   0.460   3.542
 6887TIP3    H220605   3.373   0.487   3.673
 6888TIP3   OH220606   6.328   2.444   1.270
 6888TIP3    H120607   6.317   2.528   1.313
 6888TIP3    H220608   6.368   2.465   1.185
 6889TIP3   OH220609   4.177   7.319   2.035
 6889TIP3    H120610   4.120   7.347   2.107
 6889TIP3    H220611   4.173   7.223   2.037
 6890TIP3   OH220612   2.301   4.307   6.305
 6890TIP3    H120613   2.261   4.227   6.270
 6890TIP3    H220614   2.237   4.337   6.370
 6891TIP3   OH220615   6.332   1.093   2.025
 6891TIP3    H120616   6.376   1.008   2.023
 6891TIP3    H220617   6.402   1.157   2.013
 6892TIP3   OH220618   4.102   6.079   5.467
 6892TIP3    H120619   4.033   6.052   5.527
 6892TIP3    H220620   4.176   6.103   5.523
 6893TIP3   OH220621   4.790   0.779   1.450
 6893TIP3    H120622   4.699   0.776   1.480
 6893TIP3    H220623   4.840   0.738   1.521
 6894TIP3   OH220624   7.923   4.333   6.251
 6894TIP3    H120625   8.005   4.297   6.217
 6894TIP3    H220626   7.934   4.428   6.245
 6895TIP3   OH220627   3.476   7.244   2.881
 6895TIP3    H120628   3.481   7.166   2.827
 6895TIP3    H220629   3.394   7.236   2.929
 6896TIP3   OH220630   6.036   1.787   0.958
 6896TIP3    H120631   6.110   1.801   0.899
 6896TIP3    H220632   6.068   1.723   1.022
 6897TIP3   OH220633   0.470   5.267   0.218
 6897TIP3    H120634   0.552   5.316   0.210
 6897TIP3    H220635   0.407   5.332   0.250
 6898TIP3   OH220636   1.199   1.989   6.129
 6898TIP3    H120637   1.258   1.923   6.166
 6898TIP3    H220638   1.202   2.061   6.192
 6899TIP3   OH220639   8.009   2.741   0.634
 6899TIP3    H120640   8.066   2.818   0.643
 6899TIP3    H220641   7.930   2.765   0.682
 6900TIP3   OH220642   8.105   5.091   3.167
 6900TIP3    H120643   8.036   5.037   3.204
 6900TIP3    H220644   8.164   5.109   3.240
 6901TIP3   OH220645   0.635   2.911   3.476
 6901TIP3    H120646   0.561   2.934   3.420
 6901TIP3    H220647   0.640   2.816   3.472
 6902TIP3   OH220648   8.080   3.185   2.669
 6902TIP3    H120649   7.993   3.224   2.656
 6902TIP3    H220650   8.062   3.099   2.706
 6903TIP3   OH220651   6.303   1.956   0.179
 6903TIP3    H120652   6.337   1.873   0.145
 6903TIP3    H220653   6.317   2.018   0.107
 6904TIP3   OH220654   6.685   6.130   3.568
 6904TIP3    H120655   6.677   6.035   3.573
 6904TIP3    H220656   6.748   6.154   3.637
 6905TIP3   OH220657   4.892   7.059   0.174
 6905TIP3    H120658   4.937   7.008   0.242
 6905TIP3    H220659   4.959   7.075   0.107
 6906TIP3   OH220660   4.339   3.953   2.420
 6906TIP3    H120661   4.306   3.979   2.333
 6906TIP3    H220662   4.393   4.027   2.447
 6907TIP3   OH220663   5.348   7.583   6.081
 6907TIP3    H120664   5.287   7.509   6.083
 6907TIP3    H220665   5.434   7.542   6.082
 6908TIP3   OH220666   0.341   6.661   6.345
 6908TIP3    H120667   0.322   6.571   6.372
 6908TIP3    H220668   0.290   6.715   6.405
 6909TIP3   OH220669   4.042   6.907   0.797
 6909TIP3    H120670   4.031   6.814   0.777
 6909TIP3    H220671   4.136   6.923   0.788
 6910TIP3   OH220672   0.541   3.537   5.516
 6910TIP3    H120673   0.623   3.510   5.557
 6910TIP3    H220674   0.538   3.488   5.434
 6911TIP3   OH220675   5.029   5.586   6.028
 6911TIP3    H120676   5.061   5.627   6.108
 6911TIP3    H220677   4.956   5.642   6.000
 6912TIP3   OH220678   3.336   2.772   1.453
 6912TIP3    H120679   3.261   2.756   1.395
 6912TIP3    H220680   3.300   2.763   1.541
 6913TIP3   OH220681   1.197   6.964   2.031
 6913TIP3    H120682   1.281   6.951   2.076
 6913TIP3    H220683   1.156   7.037   2.076
 6914TIP3   OH220684   5.088   3.083   3.857
 6914TIP3    H120685   5.137   3.001   3.867
 6914TIP3    H220686   5.151   3.144   3.819
 6915TIP3   OH220687   8.258   3.053   1.949
 6915TIP3    H120688   8.193   3.021   1.887
 6915TIP3    H220689   8.246   2.999   2.027
 6916TIP3   OH220690   0.713   3.934   3.774
 6916TIP3    H120691   0.672   3.937   3.687
 6916TIP3    H220692   0.695   4.019   3.812
 6917TIP3   OH220693   6.918   3.956   1.392
 6917TIP3    H120694   6.884   4.015   1.325
 6917TIP3    H220695   7.013   3.961   1.383
 6918TIP3   OH220696   4.945   2.544   3.485
 6918TIP3    H120697   4.880   2.499   3.538
 6918TIP3    H220698   4.896   2.577   3.409
 6919TIP3   OH220699   0.467   7.526   1.466
 6919TIP3    H120700   0.395   7.553   1.524
 6919TIP3    H220701   0.456   7.579   1.387
 6920TIP3   OH220702   6.937   6.627   1.435
 6920TIP3    H120703   6.946   6.602   1.343
 6920TIP3    H220704   6.846   6.655   1.444
 6921TIP3   OH220705   6.080   6.785   0.800
 6921TIP3    H120706   6.145   6.761   0.734
 6921TIP3    H220707   6.000   6.741   0.773
 6922TIP3   OH220708   4.399   7.307   6.715
 6922TIP3    H120709   4.359   7.394   6.725
 6922TIP3    H220710   4.479   7.311   6.767
 6923TIP3   OH220711   2.098   7.332   6.228
 6923TIP3    H120712   2.150   7.408   6.202
 6923TIP3    H220713   2.083   7.284   6.146
 6924TIP3   OH220714   5.550   6.633   2.580
 6924TIP3    H120715   5.479   6.679   2.535
 6924TIP3    H220716   5.597   6.701   2.628
 6925TIP3   OH220717   3.105   0.571   5.747
 6925TIP3    H120718   3.166   0.504   5.779
 6925TIP3    H220719   3.108   0.562   5.652
 6926TIP3   OH220720   4.033   1.146   2.207
 6926TIP3    H120721   4.081   1.202   2.146
 6926TIP3    H220722   3.941   1.165   2.189
 6927TIP3   OH220723   6.078   5.029   6.684
 6927TIP3    H120724   6.017   5.066   6.621
 6927TIP3    H220725   6.033   5.036   6.768
 6928TIP3   OH220726   5.200   2.929   0.988
 6928TIP3    H120727   5.151   2.879   1.054
 6928TIP3    H220728   5.209   3.016   1.026
 6929TIP3   OH220729   4.055   7.713   2.111
 6929TIP3    H120730   3.978   7.662   2.136
 6929TIP3    H220731   4.079   7.680   2.025
 6930TIP3   OH220732   8.252   3.297   2.264
 6930TIP3    H120733   8.214   3.341   2.340
 6930TIP3    H220734   8.222   3.348   2.189
 6931TIP3   OH220735   0.237   7.258   6.275
 6931TIP3    H120736   0.179   7.203   6.328
 6931TIP3    H220737   0.198   7.256   6.187
 6932TIP3   OH220738   6.714   3.727   6.202
 6932TIP3    H120739   6.710   3.757   6.293
 6932TIP3    H220740   6.800   3.685   6.195
 6933TIP3   OH220741   6.306   0.554   0.153
 6933TIP3    H120742   6.307   0.645   0.185
 6933TIP3    H220743   6.386   0.515   0.189
 6934TIP3   OH220744   6.171   6.552   4.223
 6934TIP3    H120745   6.130   6.540   4.309
 6934TIP3    H220746   6.254   6.505   4.231
 6935TIP3   OH220747   0.341   1.003   1.134
 6935TIP3    H120748   0.360   0.949   1.211
 6935TIP3    H220749   0.296   0.943   1.073
 6936TIP3   OH220750   6.952   1.767   1.775
 6936TIP3    H120751   7.013   1.727   1.713
 6936TIP3    H220752   6.936   1.855   1.741
 6937TIP3   OH220753   2.466   1.847   1.106
 6937TIP3    H120754   2.551   1.889   1.113
 6937TIP3    H220755   2.477   1.764   1.153
 6938TIP3   OH220756   0.570   4.312   6.276
 6938TIP3    H120757   0.550   4.321   6.369
 6938TIP3    H220758   0.646   4.255   6.273
 6939TIP3   OH220759   1.658   1.382   4.626
 6939TIP3    H120760   1.696   1.418   4.706
 6939TIP3    H220761   1.602   1.451   4.592
 6940TIP3   OH220762   4.114   5.844   0.886
 6940TIP3    H120763   4.179   5.912   0.905
 6940TIP3    H220764   4.103   5.848   0.791
 6941TIP3   OH220765   0.610   5.835   5.158
 6941TIP3    H120766   0.627   5.805   5.068
 6941TIP3    H220767   0.516   5.826   5.169
 6942TIP3   OH220768   0.336   1.140   0.320
 6942TIP3    H120769   0.263   1.118   0.261
 6942TIP3    H220770   0.302   1.212   0.374
 6943TIP3   OH220771   7.731   1.745   0.763
 6943TIP3    H120772   7.746   1.839   0.772
 6943TIP3    H220773   7.708   1.733   0.671
 6944TIP3   OH220774   5.845   1.187   4.635
 6944TIP3    H120775   5.777   1.120   4.641
 6944TIP3    H220776   5.927   1.139   4.649
 6945TIP3   OH220777   0.825   5.232   6.519
 6945TIP3    H120778   0.904   5.186   6.546
 6945TIP3    H220779   0.765   5.222   6.593
 6946TIP3   OH220780   3.979   4.243   5.703
 6946TIP3    H120781   4.014   4.191   5.630
 6946TIP3    H220782   3.950   4.325   5.663
 6947TIP3   OH220783   1.673   5.618   5.991
 6947TIP3    H120784   1.637   5.545   6.041
 6947TIP3    H220785   1.762   5.629   6.026
 6948TIP3   OH220786   4.633   6.913   4.168
 6948TIP3    H120787   4.686   6.846   4.209
 6948TIP3    H220788   4.548   6.871   4.153
 6949TIP3   OH220789   1.626   3.023   1.775
 6949TIP3    H120790   1.590   2.955   1.718
 6949TIP3    H220791   1.691   3.067   1.721
 6950TIP3   OH220792   3.380   7.193   1.028
 6950TIP3    H120793   3.421   7.260   1.083
 6950TIP3    H220794   3.297   7.173   1.071
 6951TIP3   OH220795   5.902   2.846   1.361
 6951TIP3    H120796   5.893   2.918   1.423
 6951TIP3    H220797   5.952   2.884   1.288
 6952TIP3   OH220798   5.875   1.306   1.161
 6952TIP3    H120799   5.884   1.270   1.249
 6952TIP3    H220800   5.843   1.396   1.175
 6953TIP3   OH220801   6.704   3.767   5.208
 6953TIP3    H120802   6.621   3.800   5.245
 6953TIP3    H220803   6.771   3.798   5.269
 6954TIP3   OH220804   5.004   3.433   2.331
 6954TIP3    H120805   5.048   3.421   2.247
 6954TIP3    H220806   5.074   3.430   2.396
 6955TIP3   OH220807   7.136   5.474   2.478
 6955TIP3    H120808   7.162   5.549   2.531
 6955TIP3    H220809   7.189   5.481   2.398
 6956TIP3   OH220810   2.118   2.955   2.295
 6956TIP3    H120811   2.207   2.966   2.264
 6956TIP3    H220812   2.068   3.023   2.249
 6957TIP3   OH220813   7.968   6.755   5.773
 6957TIP3    H120814   7.915   6.812   5.828
 6957TIP3    H220815   7.904   6.707   5.719
 6958TIP3   OH220816   0.555   3.014   1.584
 6958TIP3    H120817   0.646   3.011   1.554
 6958TIP3    H220818   0.544   2.935   1.636
 6959TIP3   OH220819   2.647   1.010   5.860
 6959TIP3    H120820   2.673   0.919   5.873
 6959TIP3    H220821   2.724   1.061   5.887
 6960TIP3   OH220822   1.394   7.751   3.897
 6960TIP3    H120823   1.384   7.721   3.806
 6960TIP3    H220824   1.318   7.807   3.912
 6961TIP3   OH220825   6.090   5.169   3.273
 6961TIP3    H120826   6.056   5.091   3.318
 6961TIP3    H220827   6.184   5.152   3.264
 6962TIP3   OH220828   6.666   1.742   3.118
 6962TIP3    H120829   6.608   1.666   3.123
 6962TIP3    H220830   6.633   1.803   3.184
 6963TIP3   OH220831   8.214   6.959   3.233
 6963TIP3    H120832   8.131   6.994   3.201
 6963TIP3    H220833   8.229   7.005   3.315
 6964TIP3   OH220834   2.736   3.595   4.690
 6964TIP3    H120835   2.700   3.681   4.670
 6964TIP3    H220836   2.762   3.559   4.605
 6965TIP3   OH220837   8.096   1.817   4.657
 6965TIP3    H120838   8.085   1.910   4.637
 6965TIP3    H220839   8.187   1.808   4.683
 6966TIP3   OH220840   1.088   3.910   1.821
 6966TIP3    H120841   1.170   3.876   1.786
 6966TIP3    H220842   1.021   3.847   1.793
 6967TIP3   OH220843   3.465   5.872   2.901
 6967TIP3    H120844   3.501   5.957   2.874
 6967TIP3    H220845   3.532   5.835   2.958
 6968TIP3   OH220846   7.246   6.353   5.439
 6968TIP3    H120847   7.207   6.386   5.358
 6968TIP3    H220848   7.179   6.367   5.506
 6969TIP3   OH220849   1.942   3.534   2.984
 6969TIP3    H120850   1.918   3.626   2.998
 6969TIP3    H220851   1.863   3.494   2.948
 6970TIP3   OH220852   0.058   1.310   5.725
 6970TIP3    H120853  -0.027   1.306   5.681
 6970TIP3    H220854   0.120   1.279   5.659
 6971TIP3   OH220855   7.743   5.861   6.595
 6971TIP3    H120856   7.748   5.950   6.629
 6971TIP3    H220857   7.833   5.828   6.600
 6972TIP3   OH220858   2.035   6.494   6.716
 6972TIP3    H120859   1.969   6.514   6.782
 6972TIP3    H220860   2.069   6.580   6.690
 6973TIP3   OH220861   1.692   6.120   1.368
 6973TIP3    H120862   1.683   6.163   1.283
 6973TIP3    H220863   1.638   6.172   1.428
 6974TIP3   OH220864   7.859   0.683   5.279
 6974TIP3    H120865   7.832   0.616   5.343
 6974TIP3    H220866   7.861   0.764   5.330
 6975TIP3   OH220867   4.232   7.826   0.382
 6975TIP3    H120868   4.163   7.778   0.336
 6975TIP3    H220869   4.311   7.811   0.330
 6976TIP3   OH220870   7.028   5.487   6.101
 6976TIP3    H120871   7.104   5.480   6.158
 6976TIP3    H220872   7.044   5.423   6.031
 6977TIP3   OH220873   6.718   0.150   0.288
 6977TIP3    H120874   6.726   0.055   0.285
 6977TIP3    H220875   6.659   0.168   0.361
 6978TIP3   OH220876   7.184   5.442   1.380
 6978TIP3    H120877   7.117   5.488   1.329
 6978TIP3    H220878   7.135   5.396   1.448
 6979TIP3   OH220879   4.563   2.170   3.152
 6979TIP3    H120880   4.477   2.129   3.161
 6979TIP3    H220881   4.603   2.162   3.238
 6980TIP3   OH220882   0.848   0.518   3.865
 6980TIP3    H120883   0.923   0.470   3.900
 6980TIP3    H220884   0.810   0.563   3.940
 6981TIP3   OH220885   3.499   6.139   1.043
 6981TIP3    H120886   3.519   6.220   0.995
 6981TIP3    H220887   3.584   6.097   1.054
 6982TIP3   OH220888   3.564   2.050   5.469
 6982TIP3    H120889   3.533   2.029   5.557
 6982TIP3    H220890   3.630   1.983   5.451
 6983TIP3   OH220891   3.985   2.559   4.540
 6983TIP3    H120892   4.049   2.568   4.470
 6983TIP3    H220893   3.993   2.468   4.569
 6984TIP3   OH220894   4.945   5.522   0.790
 6984TIP3    H120895   4.995   5.482   0.861
 6984TIP3    H220896   4.991   5.604   0.772
 6985TIP3   OH220897   0.591   1.782   2.139
 6985TIP3    H120898   0.536   1.706   2.120
 6985TIP3    H220899   0.539   1.835   2.199
 6986TIP3   OH220900   2.779   6.935   1.830
 6986TIP3    H120901   2.775   6.940   1.925
 6986TIP3    H220902   2.836   7.008   1.805
 6987TIP3   OH220903   7.354   0.771   2.554
 6987TIP3    H120904   7.341   0.844   2.492
 6987TIP3    H220905   7.417   0.805   2.618
 6988TIP3   OH220906   3.805   1.330   1.674
 6988TIP3    H120907   3.778   1.364   1.589
 6988TIP3    H220908   3.818   1.236   1.660
 6989TIP3   OH220909   3.223   7.262   3.338
 6989TIP3    H120910   3.161   7.324   3.376
 6989TIP3    H220911   3.201   7.178   3.379
 6990TIP3   OH220912   0.776   1.709   2.919
 6990TIP3    H120913   0.806   1.791   2.960
 6990TIP3    H220914   0.827   1.641   2.962
 6991TIP3   OH220915   4.519   1.429   1.285
 6991TIP3    H120916   4.565   1.459   1.363
 6991TIP3    H220917   4.587   1.420   1.218
 6992TIP3   OH220918   6.826   0.433   3.832
 6992TIP3    H120919   6.862   0.475   3.911
 6992TIP3    H220920   6.790   0.505   3.781
 6993TIP3   OH220921   3.168   1.664   4.162
 6993TIP3    H120922   3.249   1.642   4.116
 6993TIP3    H220923   3.189   1.654   4.255
 6994TIP3   OH220924   4.777   0.608   3.836
 6994TIP3    H120925   4.772   0.689   3.888
 6994TIP3    H220926   4.737   0.630   3.753
 6995TIP3   OH220927   0.736   5.504   3.740
 6995TIP3    H120928   0.718   5.598   3.744
 6995TIP3    H220929   0.700   5.469   3.822
 6996TIP3   OH220930   1.181   6.356   1.483
 6996TIP3    H120931   1.143   6.271   1.506
 6996TIP3    H220932   1.194   6.400   1.566
 6997TIP3   OH220933   3.528   6.928   6.031
 6997TIP3    H120934   3.447   6.976   6.047
 6997TIP3    H220935   3.523   6.902   5.939
 6998TIP3   OH220936   1.007   2.024   2.114
 6998TIP3    H120937   0.996   1.957   2.047
 6998TIP3    H220938   0.942   2.091   2.093
 6999TIP3   OH220939   7.946   1.981   4.948
 6999TIP3    H120940   7.962   1.887   4.940
 6999TIP3    H220941   8.021   2.014   4.998
 7000TIP3   OH220942   4.337   2.821   5.990
 7000TIP3    H120943   4.246   2.797   5.974
 7000TIP3    H220944   4.360   2.876   5.915
 7001TIP3   OH220945   3.832   1.444   4.711
 7001TIP3    H120946   3.873   1.358   4.713
 7001TIP3    H220947   3.757   1.436   4.770
 7002TIP3   OH220948   0.606   7.607   2.723
 7002TIP3    H120949   0.661   7.581   2.797
 7002TIP3    H220950   0.606   7.703   2.726
 7003TIP3   OH220951   1.241   7.409   1.826
 7003TIP3    H120952   1.307   7.343   1.846
 7003TIP3    H220953   1.276   7.490   1.863
 7004TIP3   OH220954   1.064   2.485   1.531
 7004TIP3    H120955   1.154   2.458   1.545
 7004TIP3    H220956   1.070   2.557   1.467
 7005TIP3   OH220957   5.943   2.994   0.193
 7005TIP3    H120958   6.017   3.055   0.194
 7005TIP3    H220959   5.969   2.923   0.252
 7006TIP3   OH220960   4.629   2.889   4.352
 7006TIP3    H120961   4.646   2.968   4.403
 7006TIP3    H220962   4.662   2.910   4.265
 7007TIP3   OH220963   3.641   1.744   4.967
 7007TIP3    H120964   3.564   1.801   4.971
 7007TIP3    H220965   3.688   1.773   4.889
 7008TIP3   OH220966   2.525   4.072   3.046
 7008TIP3    H120967   2.547   4.148   2.992
 7008TIP3    H220968   2.609   4.036   3.073
 7009TIP3   OH220969   7.528   4.355   2.128
 7009TIP3    H120970   7.480   4.373   2.208
 7009TIP3    H220971   7.615   4.328   2.158
 7010TIP3   OH220972   1.602   2.242   2.684
 7010TIP3    H120973   1.582   2.277   2.771
 7010TIP3    H220974   1.600   2.318   2.626
 7011TIP3   OH220975   6.316   5.026   3.182
 7011TIP3    H120976   6.306   4.958   3.115
 7011TIP3    H220977   6.369   5.094   3.139
 7012TIP3   OH220978   4.749   5.292   5.824
 7012TIP3    H120979   4.844   5.296   5.827
 7012TIP3    H220980   4.729   5.203   5.796
 7013TIP3   OH220981   5.484   3.233   4.170
 7013TIP3    H120982   5.481   3.281   4.253
 7013TIP3    H220983   5.408   3.174   4.174
 7014TIP3   OH220984   0.533   4.418   3.990
 7014TIP3    H120985   0.603   4.466   3.945
 7014TIP3    H220986   0.452   4.460   3.959
 7015TIP3   OH220987   4.842   6.134   2.164
 7015TIP3    H120988   4.864   6.041   2.169
 7015TIP3    H220989   4.761   6.137   2.113
 7016TIP3   OH220990   7.657   6.040   0.096
 7016TIP3    H120991   7.575   6.014   0.137
 7016TIP3    H220992   7.721   6.037   0.167
 7017TIP3   OH220993   7.290   0.632   5.374
 7017TIP3    H120994   7.333   0.696   5.432
 7017TIP3    H220995   7.336   0.642   5.291
 7018TIP3   OH220996   3.719   7.349   0.675
 7018TIP3    H120997   3.728   7.272   0.620
 7018TIP3    H220998   3.662   7.321   0.747
 7019TIP3   OH220999   6.509   5.523   6.600
 7019TIP3    H121000   6.453   5.501   6.675
 7019TIP3    H221001   6.457   5.501   6.523
 7020TIP3   OH221002   1.361   1.119   5.952
 7020TIP3    H121003   1.443   1.168   5.951
 7020TIP3    H221004   1.298   1.180   5.992
 7021TIP3   OH221005   3.949   1.226   3.159
 7021TIP3    H121006   4.029   1.175   3.145
 7021TIP3    H221007   3.973   1.315   3.133
 7022TIP3   OH221008   6.850   0.313   5.045
 7022TIP3    H121009   6.828   0.406   5.057
 7022TIP3    H221010   6.794   0.285   4.972
 7023TIP3   OH221011   1.820   2.750   4.903
 7023TIP3    H121012   1.760   2.701   4.959
 7023TIP3    H221013   1.830   2.834   4.947
 7024TIP3   OH221014   7.769   5.246   5.506
 7024TIP3    H121015   7.756   5.247   5.411
 7024TIP3    H221016   7.776   5.153   5.528
 7025TIP3   OH221017   1.340   2.477   5.032
 7025TIP3    H121018   1.374   2.552   5.081
 7025TIP3    H221019   1.390   2.477   4.950
 7026TIP3   OH221020   6.662   2.077   4.346
 7026TIP3    H121021   6.673   1.983   4.331
 7026TIP3    H221022   6.569   2.094   4.329
 7027TIP3   OH221023   5.518   5.873   0.616
 7027TIP3    H121024   5.607   5.864   0.583
 7027TIP3    H221025   5.494   5.963   0.597
 7028TIP3   OH221026   2.758   3.132   6.344
 7028TIP3    H121027   2.694   3.151   6.412
 7028TIP3    H221028   2.813   3.211   6.339
 7029TIP3   OH221029   3.308   6.085   6.311
 7029TIP3    H121030   3.240   6.120   6.368
 7029TIP3    H221031   3.330   6.158   6.252
 7030TIP3   OH221032   0.112   3.731   0.952
 7030TIP3    H121033   0.160   3.729   0.870
 7030TIP3    H221034   0.149   3.660   1.004
 7031TIP3   OH221035   2.296   3.705   6.678
 7031TIP3    H121036   2.364   3.737   6.619
 7031TIP3    H221037   2.340   3.693   6.762
 7032TIP3   OH221038   2.632   4.696   3.020
 7032TIP3    H121039   2.658   4.717   3.110
 7032TIP3    H221040   2.714   4.673   2.976
 7033TIP3   OH221041   7.328   7.245   4.981
 7033TIP3    H121042   7.286   7.262   4.897
 7033TIP3    H221043   7.421   7.261   4.965
 7034TIP3   OH221044   6.001   2.311   3.107
 7034TIP3    H121045   6.023   2.288   3.197
 7034TIP3    H221046   6.085   2.311   3.061
 7035TIP3   OH221047   5.202   0.194   3.865
 7035TIP3    H121048   5.123   0.206   3.813
 7035TIP3    H221049   5.172   0.199   3.956
 7036TIP3   OH221050   0.050   7.760   5.240
 7036TIP3    H121051   0.010   7.831   5.190
 7036TIP3    H221052   0.120   7.727   5.184
 7037TIP3   OH221053   1.874   1.049   2.849
 7037TIP3    H121054   1.809   1.005   2.903
 7037TIP3    H221055   1.829   1.067   2.767
 7038TIP3   OH221056   7.264   7.704   6.155
 7038TIP3    H121057   7.254   7.628   6.099
 7038TIP3    H221058   7.334   7.681   6.216
 7039TIP3   OH221059   5.846   5.121   4.734
 7039TIP3    H121060   5.770   5.169   4.766
 7039TIP3    H221061   5.856   5.149   4.643
 7040TIP3   OH221062   7.653   5.394   4.877
 7040TIP3    H121063   7.668   5.326   4.943
 7040TIP3    H221064   7.652   5.476   4.927
 7041TIP3   OH221065   2.591   5.989   1.957
 7041TIP3    H121066   2.582   6.067   1.903
 7041TIP3    H221067   2.643   6.017   2.033
 7042TIP3   OH221068   8.004   5.389   4.685
 7042TIP3    H121069   7.989   5.385   4.780
 7042TIP3    H221070   7.953   5.315   4.651
 7043TIP3   OH221071   4.163   7.685   5.305
 7043TIP3    H121072   4.140   7.704   5.214
 7043TIP3    H221073   4.254   7.656   5.302
 7044TIP3   OH221074   6.340   6.413   5.431
 7044TIP3    H121075   6.264   6.454   5.391
 7044TIP3    H221076   6.322   6.319   5.425
 7045TIP3   OH221077   6.169   6.835   2.666
 7045TIP3    H121078   6.095   6.787   2.702
 7045TIP3    H221079   6.153   6.837   2.571
 7046TIP3   OH221080   7.391   6.631   1.763
 7046TIP3    H121081   7.339   6.706   1.789
 7046TIP3    H221082   7.391   6.573   1.839
 7047TIP3   OH221083   7.551   6.971   5.281
 7047TIP3    H121084   7.521   6.992   5.370
 7047TIP3    H221085   7.471   6.975   5.228
 7048TIP3   OH221086   7.424   1.650   3.944
 7048TIP3    H121087   7.512   1.673   3.975
 7048TIP3    H221088   7.436   1.569   3.895
 7049TIP3   OH221089   8.181   1.162   1.120
 7049TIP3    H121090   8.260   1.215   1.110
 7049TIP3    H221091   8.188   1.094   1.053
 7050TIP3   OH221092   1.680   2.435   5.152
 7050TIP3    H121093   1.637   2.512   5.115
 7050TIP3    H221094   1.611   2.390   5.200
 7051TIP3   OH221095   1.622   7.004   1.836
 7051TIP3    H121096   1.716   7.007   1.854
 7051TIP3    H221097   1.616   6.998   1.740
 7052TIP3   OH221098   2.872   4.658   1.669
 7052TIP3    H121099   2.822   4.738   1.680
 7052TIP3    H221100   2.956   4.676   1.711
 7053TIP3   OH221101   5.788   5.559   1.791
 7053TIP3    H121102   5.765   5.474   1.753
 7053TIP3    H221103   5.705   5.602   1.807
 7054TIP3   OH221104   3.016   2.658   4.504
 7054TIP3    H121105   3.036   2.568   4.529
 7054TIP3    H221106   3.028   2.708   4.585
 7055TIP3   OH221107   7.971   7.191   6.341
 7055TIP3    H121108   8.040   7.125   6.345
 7055TIP3    H221109   8.011   7.263   6.291
 7056TIP3   OH221110   6.917   4.611   3.211
 7056TIP3    H121111   6.851   4.637   3.148
 7056TIP3    H221112   6.996   4.658   3.184
 7057TIP3   OH221113   5.244   4.024   3.797
 7057TIP3    H121114   5.240   4.106   3.846
 7057TIP3    H221115   5.153   3.996   3.790
 7058TIP3   OH221116   7.424   4.770   0.623
 7058TIP3    H121117   7.397   4.743   0.711
 7058TIP3    H221118   7.413   4.691   0.570
 7059TIP3   OH221119   6.786   4.203   4.634
 7059TIP3    H121120   6.845   4.162   4.572
 7059TIP3    H221121   6.844   4.245   4.698
 7060TIP3   OH221122   2.758   1.019   6.656
 7060TIP3    H121123   2.767   0.977   6.742
 7060TIP3    H221124   2.785   0.952   6.593
 7061TIP3   OH221125   3.889   0.945   2.321
 7061TIP3    H121126   3.961   0.995   2.283
 7061TIP3    H221127   3.931   0.870   2.364
 7062TIP3   OH221128   3.770   4.429   1.115
 7062TIP3    H121129   3.787   4.336   1.102
 7062TIP3    H221130   3.697   4.431   1.177
 7063TIP3   OH221131   6.768   7.681   3.540
 7063TIP3    H121132   6.690   7.736   3.548
 7063TIP3    H221133   6.739   7.605   3.490
 7064TIP3   OH221134   8.123   0.649   6.332
 7064TIP3    H121135   8.072   0.660   6.252
 7064TIP3    H221136   8.073   0.694   6.400
 7065TIP3   OH221137   7.041   1.216   1.742
 7065TIP3    H121138   7.059   1.198   1.835
 7065TIP3    H221139   7.039   1.130   1.701
 7066TIP3   OH221140   7.487   4.259   5.598
 7066TIP3    H121141   7.404   4.247   5.551
 7066TIP3    H221142   7.539   4.182   5.576
 7067TIP3   OH221143   2.009   0.569   4.087
 7067TIP3    H121144   1.913   0.563   4.089
 7067TIP3    H221145   2.028   0.627   4.014
 7068TIP3   OH221146   6.367   3.087   4.747
 7068TIP3    H121147   6.454   3.116   4.719
 7068TIP3    H221148   6.383   3.036   4.827
 7069TIP3   OH221149   4.410   6.231   4.345
 7069TIP3    H121150   4.453   6.146   4.345
 7069TIP3    H221151   4.342   6.224   4.412
 7070TIP3   OH221152   0.726   2.828   6.055
 7070TIP3    H121153   0.675   2.824   5.974
 7070TIP3    H221154   0.660   2.823   6.125
 7071TIP3   OH221155   1.572   2.755   1.250
 7071TIP3    H121156   1.561   2.831   1.307
 7071TIP3    H221157   1.506   2.693   1.281
 7072TIP3   OH221158   5.007   2.198   2.455
 7072TIP3    H121159   4.920   2.226   2.426
 7072TIP3    H221160   5.014   2.231   2.545
 7073TIP3   OH221161   4.755  -0.017   0.825
 7073TIP3    H121162   4.679  -0.002   0.769
 7073TIP3    H221163   4.816   0.054   0.804
 7074TIP3   OH221164   4.659   6.844   5.536
 7074TIP3    H121165   4.731   6.872   5.593
 7074TIP3    H221166   4.595   6.804   5.595
 7075TIP3   OH221167   3.990   0.653   5.178
 7075TIP3    H121168   4.017   0.564   5.156
 7075TIP3    H221169   3.917   0.671   5.118
 7076TIP3   OH221170   4.622   4.333   4.821
 7076TIP3    H121171   4.592   4.305   4.907
 7076TIP3    H221172   4.544   4.371   4.780
 7077TIP3   OH221173   5.084   7.424   6.072
 7077TIP3    H121174   5.084   7.431   6.167
 7077TIP3    H221175   5.035   7.500   6.042
 7078TIP3   OH221176   1.072   7.631   3.938
 7078TIP3    H121177   1.054   7.706   3.880
 7078TIP3    H221178   1.147   7.587   3.897
 7079TIP3   OH221179   0.135   0.400   2.938
 7079TIP3    H121180   0.196   0.471   2.918
 7079TIP3    H221181   0.147   0.337   2.867
 7080TIP3   OH221182   0.690   5.780   4.889
 7080TIP3    H121183   0.690   5.700   4.837
 7080TIP3    H221184   0.781   5.810   4.886
 7081TIP3   OH221185   3.460   6.843   4.638
 7081TIP3    H121186   3.492   6.832   4.728
 7081TIP3    H221187   3.374   6.801   4.637
 7082TIP3   OH221188   4.612   1.971   0.363
 7082TIP3    H121189   4.653   1.885   0.366
 7082TIP3    H221190   4.646   2.018   0.439
 7083TIP3   OH221191   2.108   3.464   3.194
 7083TIP3    H121192   2.056   3.474   3.114
 7083TIP3    H221193   2.160   3.544   3.198
 7084TIP3   OH221194   2.538   5.025   1.222
 7084TIP3    H121195   2.528   5.091   1.290
 7084TIP3    H221196   2.466   5.043   1.161
 7085TIP3   OH221197   4.938   3.179   3.100
 7085TIP3    H121198   4.951   3.222   3.016
 7085TIP3    H221199   4.981   3.237   3.163
 7086TIP3   OH221200   6.348   4.389   3.303
 7086TIP3    H121201   6.429   4.415   3.260
 7086TIP3    H221202   6.279   4.425   3.247
 7087TIP3   OH221203   7.342   2.681   2.185
 7087TIP3    H121204   7.333   2.634   2.102
 7087TIP3    H221205   7.436   2.689   2.199
 7088TIP3   OH221206   6.593   0.690   3.932
 7088TIP3    H121207   6.531   0.729   3.994
 7088TIP3    H221208   6.570   0.597   3.930
 7089TIP3   OH221209   2.371   0.703   4.220
 7089TIP3    H121210   2.316   0.780   4.234
 7089TIP3    H221211   2.430   0.701   4.295
 7090TIP3   OH221212   3.012   4.783   5.182
 7090TIP3    H121213   3.027   4.702   5.231
 7090TIP3    H221214   3.015   4.852   5.249
 7091TIP3   OH221215   2.696   1.188   1.275
 7091TIP3    H121216   2.753   1.262   1.294
 7091TIP3    H221217   2.678   1.149   1.361
 7092TIP3   OH221218   0.282   0.564   4.309
 7092TIP3    H121219   0.204   0.511   4.296
 7092TIP3    H221220   0.250   0.653   4.320
 7093TIP3   OH221221   1.573   0.728   0.267
 7093TIP3    H121222   1.567   0.633   0.279
 7093TIP3    H221223   1.559   0.741   0.173
 7094TIP3   OH221224   6.886   5.018   0.283
 7094TIP3    H121225   6.879   4.932   0.323
 7094TIP3    H221226   6.947   5.006   0.210
 7095TIP3   OH221227   3.815   5.651   0.058
 7095TIP3    H121228   3.780   5.613  -0.023
 7095TIP3    H221229   3.909   5.636   0.052
 7096TIP3   OH221230   1.975   1.300   4.980
 7096TIP3    H121231   1.951   1.307   5.073
 7096TIP3    H221232   2.036   1.226   4.978
 7097TIP3   OH221233   6.725   0.206   2.727
 7097TIP3    H121234   6.767   0.135   2.776
 7097TIP3    H221235   6.677   0.256   2.792
 7098TIP3   OH221236   2.070   2.915   2.922
 7098TIP3    H121237   2.069   2.825   2.954
 7098TIP3    H221238   1.986   2.952   2.949
 7099TIP3   OH221239   5.092   1.328   1.647
 7099TIP3    H121240   5.037   1.352   1.572
 7099TIP3    H221241   5.091   1.406   1.703
 7100TIP3   OH221242   1.870   5.687   4.752
 7100TIP3    H121243   1.894   5.760   4.694
 7100TIP3    H221244   1.809   5.724   4.814
 7101TIP3   OH221245   3.380   7.710   0.840
 7101TIP3    H121246   3.467   7.749   0.846
 7101TIP3    H221247   3.395   7.622   0.805
 7102TIP3   OH221248   7.165   4.606   1.914
 7102TIP3    H121249   7.150   4.518   1.946
 7102TIP3    H221250   7.168   4.661   1.992
 7103TIP3   OH221251   6.573   4.525   0.918
 7103TIP3    H121252   6.624   4.606   0.926
 7103TIP3    H221253   6.545   4.524   0.827
 7104TIP3   OH221254   0.707   0.321   4.485
 7104TIP3    H121255   0.633   0.375   4.458
 7104TIP3    H221256   0.667   0.236   4.507
 7105TIP3   OH221257   6.407   2.518   1.846
 7105TIP3    H121258   6.394   2.600   1.893
 7105TIP3    H221259   6.502   2.508   1.841
 7106TIP3   OH221260   7.155   2.146   0.751
 7106TIP3    H121261   7.064   2.175   0.754
 7106TIP3    H221262   7.156   2.065   0.802
 7107TIP3   OH221263   1.846   5.547   5.684
 7107TIP3    H121264   1.818   5.488   5.755
 7107TIP3    H221265   1.779   5.614   5.680
 7108TIP3   OH221266   4.900   6.864   6.615
 7108TIP3    H121267   4.826   6.832   6.666
 7108TIP3    H221268   4.961   6.789   6.611
 7109TIP3   OH221269   1.136   6.805   6.709
 7109TIP3    H121270   1.194   6.775   6.780
 7109TIP3    H221271   1.118   6.726   6.658
 7110TIP3   OH221272   7.072   5.765   3.651
 7110TIP3    H121273   7.157   5.784   3.690
 7110TIP3    H221274   7.009   5.783   3.720
 7111TIP3   OH221275   3.125   6.847   1.703
 7111TIP3    H121276   3.096   6.838   1.794
 7111TIP3    H221277   3.066   6.790   1.653
 7112TIP3   OH221278   1.610   1.665   5.269
 7112TIP3    H121279   1.597   1.731   5.337
 7112TIP3    H221280   1.526   1.619   5.263
 7113TIP3   OH221281   5.556   3.784   3.890
 7113TIP3    H121282   5.486   3.800   3.953
 7113TIP3    H221283   5.619   3.729   3.937
 7114TIP3   OH221284   0.194   6.226   0.916
 7114TIP3    H121285   0.158   6.201   1.001
 7114TIP3    H221286   0.168   6.155   0.857
 7115TIP3   OH221287   0.050   2.757   0.908
 7115TIP3    H121288   0.108   2.805   0.848
 7115TIP3    H221289   0.065   2.797   0.993
 7116TIP3   OH221290   7.139   1.472   1.635
 7116TIP3    H121291   7.121   1.389   1.680
 7116TIP3    H221292   7.088   1.467   1.555
 7117TIP3   OH221293   2.752   5.252   2.683
 7117TIP3    H121294   2.738   5.298   2.600
 7117TIP3    H221295   2.688   5.292   2.742
 7118TIP3   OH221296   5.570   4.963   4.041
 7118TIP3    H121297   5.611   4.923   3.964
 7118TIP3    H221298   5.490   5.003   4.007
 7119TIP3   OH221299   1.570   5.673   4.507
 7119TIP3    H121300   1.573   5.599   4.567
 7119TIP3    H221301   1.661   5.699   4.496
 7120TIP3   OH221302   0.310   6.464   2.944
 7120TIP3    H121303   0.245   6.495   2.881
 7120TIP3    H221304   0.394   6.485   2.904
 7121TIP3   OH221305   3.939   4.852   2.641
 7121TIP3    H121306   3.847   4.873   2.653
 7121TIP3    H221307   3.950   4.842   2.547
 7122TIP3   OH221308   5.104   6.958   5.478
 7122TIP3    H121309   5.174   6.915   5.429
 7122TIP3    H221310   5.147   7.032   5.521
 7123TIP3   OH221311   5.596   1.009   0.567
 7123TIP3    H121312   5.517   0.968   0.604
 7123TIP3    H221313   5.649   1.032   0.643
 7124TIP3   OH221314   4.392   2.224   5.107
 7124TIP3    H121315   4.450   2.155   5.138
 7124TIP3    H221316   4.425   2.247   5.020
 7125TIP3   OH221317   6.604   5.592   5.987
 7125TIP3    H121318   6.572   5.560   6.072
 7125TIP3    H221319   6.670   5.658   6.010
 7126TIP3   OH221320   5.562   0.778   3.413
 7126TIP3    H121321   5.547   0.755   3.505
 7126TIP3    H221322   5.520   0.708   3.363
 7127TIP3   OH221323   4.887   1.834   4.381
 7127TIP3    H121324   4.801   1.838   4.421
 7127TIP3    H221325   4.905   1.924   4.352
 7128TIP3   OH221326   6.092   3.410   6.632
 7128TIP3    H121327   6.038   3.430   6.556
 7128TIP3    H221328   6.182   3.418   6.600
 7129TIP3   OH221329   4.124   1.749   1.950
 7129TIP3    H121330   4.201   1.700   1.920
 7129TIP3    H221331   4.088   1.697   2.022
 7130TIP3   OH221332   8.144   5.680   1.756
 7130TIP3    H121333   8.231   5.686   1.716
 7130TIP3    H221334   8.086   5.652   1.685
 7131TIP3   OH221335   1.238   4.556   2.489
 7131TIP3    H121336   1.202   4.487   2.434
 7131TIP3    H221337   1.162   4.593   2.535
 7132TIP3   OH221338   2.838   3.112   3.365
 7132TIP3    H121339   2.781   3.057   3.311
 7132TIP3    H221340   2.926   3.092   3.335
 7133TIP3   OH221341   7.344   5.664   4.693
 7133TIP3    H121342   7.417   5.697   4.639
 7133TIP3    H221343   7.370   5.684   4.783
 7134TIP3   OH221344   0.437   1.788   6.029
 7134TIP3    H121345   0.428   1.705   5.982
 7134TIP3    H221346   0.467   1.850   5.962
 7135TIP3   OH221347   4.994   6.037   4.613
 7135TIP3    H121348   4.899   6.047   4.623
 7135TIP3    H221349   5.012   5.949   4.644
 7136TIP3   OH221350   6.749   0.324   1.115
 7136TIP3    H121351   6.773   0.329   1.208
 7136TIP3    H221352   6.718   0.412   1.094
 7137TIP3   OH221353   2.190   5.013   4.859
 7137TIP3    H121354   2.266   4.996   4.804
 7137TIP3    H221355   2.203   5.103   4.891
 7138TIP3   OH221356   2.966   4.379   5.168
 7138TIP3    H121357   2.877   4.400   5.140
 7138TIP3    H221358   2.956   4.299   5.220
 7139TIP3   OH221359   3.670   5.928   5.692
 7139TIP3    H121360   3.663   5.846   5.644
 7139TIP3    H221361   3.612   5.917   5.767
 7140TIP3   OH221362   4.384   5.182   3.086
 7140TIP3    H121363   4.436   5.227   3.019
 7140TIP3    H221364   4.298   5.223   3.082
 7141TIP3   OH221365   7.099   6.006   1.707
 7141TIP3    H121366   7.128   6.024   1.796
 7141TIP3    H221367   7.005   6.020   1.708
 7142TIP3   OH221368   4.916   3.248   2.066
 7142TIP3    H121369   4.893   3.213   1.979
 7142TIP3    H221370   4.871   3.190   2.127
 7143TIP3   OH221371   0.946   0.371   4.298
 7143TIP3    H121372   0.877   0.328   4.348
 7143TIP3    H221373   0.934   0.338   4.209
 7144TIP3   OH221374   0.765   4.435   1.941
 7144TIP3    H121375   0.767   4.477   2.027
 7144TIP3    H221376   0.682   4.387   1.939
 7145TIP3   OH221377   7.407   6.391   2.554
 7145TIP3    H121378   7.384   6.417   2.643
 7145TIP3    H221379   7.500   6.368   2.558
 7146TIP3   OH221380   2.106   3.927   0.286
 7146TIP3    H121381   2.120   3.849   0.232
 7146TIP3    H221382   2.127   3.899   0.375
 7147TIP3   OH221383   1.144   2.230   1.432
 7147TIP3    H121384   1.180   2.259   1.348
 7147TIP3    H221385   1.054   2.204   1.412
 7148TIP3   OH221386   4.269   7.357   1.619
 7148TIP3    H121387   4.292   7.279   1.668
 7148TIP3    H221388   4.254   7.326   1.530
 7149TIP3   OH221389   3.886   6.198   2.942
 7149TIP3    H121390   3.966   6.227   2.985
 7149TIP3    H221391   3.916   6.157   2.861
 7150TIP3   OH221392   5.183   4.977   0.167
 7150TIP3    H121393   5.148   5.066   0.158
 7150TIP3    H221394   5.266   4.989   0.213
 7151TIP3   OH221395   5.628   7.423   1.795
 7151TIP3    H121396   5.594   7.384   1.715
 7151TIP3    H221397   5.591   7.370   1.865
 7152TIP3   OH221398   5.015   5.543   1.571
 7152TIP3    H121399   5.046   5.488   1.643
 7152TIP3    H221400   5.019   5.632   1.605
 7153TIP3   OH221401  -0.019   5.965   4.086
 7153TIP3    H121402   0.011   6.053   4.106
 7153TIP3    H221403   0.054   5.909   4.113
 7154TIP3   OH221404   1.213   7.320   6.237
 7154TIP3    H121405   1.185   7.229   6.246
 7154TIP3    H221406   1.210   7.337   6.142
 7155TIP3   OH221407   2.814   3.749   3.236
 7155TIP3    H121408   2.833   3.842   3.246
 7155TIP3    H221409   2.899   3.709   3.218
 7156TIP3   OH221410   6.473   7.576   6.567
 7156TIP3    H121411   6.485   7.651   6.508
 7156TIP3    H221412   6.437   7.507   6.511
 7157TIP3   OH221413   1.217   7.158   1.135
 7157TIP3    H121414   1.246   7.188   1.222
 7157TIP3    H221415   1.299   7.144   1.086
 7158TIP3   OH221416   3.750   0.709   5.044
 7158TIP3    H121417   3.666   0.696   5.087
 7158TIP3    H221418   3.729   0.725   4.952
 7159TIP3   OH221419   5.453   3.195   3.611
 7159TIP3    H121420   5.429   3.110   3.646
 7159TIP3    H221421   5.534   3.178   3.561
 7160TIP3   OH221422   0.544   2.320   3.288
 7160TIP3    H121423   0.548   2.339   3.194
 7160TIP3    H221424   0.631   2.284   3.308
 7161TIP3   OH221425   1.424   7.616   4.589
 7161TIP3    H121426   1.491   7.676   4.622
 7161TIP3    H221427   1.469   7.531   4.583
 7162TIP3   OH221428   7.342   5.286   5.553
 7162TIP3    H121429   7.370   5.339   5.627
 7162TIP3    H221430   7.251   5.310   5.539
 7163TIP3   OH221431   3.976   5.714   5.562
 7163TIP3    H121432   4.071   5.713   5.565
 7163TIP3    H221433   3.949   5.697   5.653
 7164TIP3   OH221434   0.153   3.224   6.551
 7164TIP3    H121435   0.209   3.296   6.580
 7164TIP3    H221436   0.089   3.266   6.493
 7165TIP3   OH221437   2.233   0.194   2.246
 7165TIP3    H121438   2.142   0.219   2.263
 7165TIP3    H221439   2.282   0.235   2.317
 7166TIP3   OH221440   6.749   7.543   5.686
 7166TIP3    H121441   6.661   7.508   5.669
 7166TIP3    H221442   6.808   7.478   5.647
 7167TIP3   OH221443   6.234   3.822   2.389
 7167TIP3    H121444   6.215   3.894   2.449
 7167TIP3    H221445   6.300   3.769   2.434
 7168TIP3   OH221446   1.256   3.352   5.121
 7168TIP3    H121447   1.322   3.366   5.190
 7168TIP3    H221448   1.178   3.397   5.153
 7169TIP3   OH221449   3.292   2.008   1.281
 7169TIP3    H121450   3.263   1.950   1.210
 7169TIP3    H221451   3.292   2.095   1.242
 7170TIP3   OH221452   1.341   6.237   6.192
 7170TIP3    H121453   1.251   6.254   6.219
 7170TIP3    H221454   1.333   6.186   6.112
 7171TIP3   OH221455   0.880   4.143   2.110
 7171TIP3    H121456   0.902   4.220   2.058
 7171TIP3    H221457   0.833   4.176   2.186
 7172TIP3   OH221458   7.274   0.174   3.389
 7172TIP3    H121459   7.320   0.103   3.343
 7172TIP3    H221460   7.204   0.129   3.438
 7173TIP3   OH221461   4.071   3.523   2.807
 7173TIP3    H121462   4.059   3.528   2.712
 7173TIP3    H221463   4.108   3.608   2.831
 7174TIP3   OH221464   4.306   3.995   4.596
 7174TIP3    H121465   4.322   4.089   4.586
 7174TIP3    H221466   4.212   3.989   4.614
 7175TIP3   OH221467   8.029   1.339   0.984
 7175TIP3    H121468   8.087   1.414   0.969
 7175TIP3    H221469   8.081   1.278   1.036
 7176TIP3   OH221470   1.665   2.610   1.611
 7176TIP3    H121471   1.620   2.551   1.672
 7176TIP3    H221472   1.637   2.581   1.524
 7177TIP3   OH221473   2.044   3.174   6.198
 7177TIP3    H121474   2.057   3.196   6.290
 7177TIP3    H221475   2.017   3.257   6.158
 7178TIP3   OH221476   1.618   6.298   1.126
 7178TIP3    H121477   1.610   6.215   1.080
 7178TIP3    H221478   1.537   6.306   1.175
 7179TIP3   OH221479   0.170   1.848   3.873
 7179TIP3    H121480   0.262   1.822   3.870
 7179TIP3    H221481   0.131   1.809   3.794
 7180TIP3   OH221482   2.272   4.954   1.500
 7180TIP3    H121483   2.318   4.913   1.573
 7180TIP3    H221484   2.303   5.045   1.499
 7181TIP3   OH221485   1.187   1.722   2.349
 7181TIP3    H121486   1.202   1.731   2.255
 7181TIP3    H221487   1.136   1.799   2.373
 7182TIP3   OH221488   7.606   3.913   1.418
 7182TIP3    H121489   7.537   3.980   1.415
 7182TIP3    H221490   7.601   3.868   1.334
 7183TIP3   OH221491   6.171   3.803   4.453
 7183TIP3    H121492   6.254   3.850   4.459
 7183TIP3    H221493   6.113   3.862   4.405
 7184TIP3   OH221494   3.263   3.611   1.700
 7184TIP3    H121495   3.284   3.518   1.705
 7184TIP3    H221496   3.336   3.654   1.746
 7185TIP3   OH221497   0.016   7.451   2.887
 7185TIP3    H121498   0.011   7.478   2.796
 7185TIP3    H221499   0.103   7.412   2.896
 7186TIP3   OH221500   8.111   3.898   0.239
 7186TIP3    H121501   8.037   3.917   0.297
 7186TIP3    H221502   8.142   3.812   0.269
 7187TIP3   OH221503   4.351   5.437   0.877
 7187TIP3    H121504   4.263   5.459   0.846
 7187TIP3    H221505   4.337   5.400   0.965
 7188TIP3   OH221506   5.465   2.245   2.271
 7188TIP3    H121507   5.388   2.270   2.321
 7188TIP3    H221508   5.431   2.196   2.197
 7189TIP3   OH221509   6.947   1.196   1.235
 7189TIP3    H121510   6.971   1.131   1.300
 7189TIP3    H221511   7.018   1.261   1.237
 7190TIP3   OH221512   7.280   7.070   3.197
 7190TIP3    H121513   7.359   7.090   3.147
 7190TIP3    H221514   7.306   7.085   3.288
 7191TIP3   OH221515   4.310   2.723   6.591
 7191TIP3    H121516   4.339   2.763   6.509
 7191TIP3    H221517   4.391   2.702   6.637
 7192TIP3   OH221518   3.110   2.305   4.932
 7192TIP3    H121519   3.115   2.297   5.027
 7192TIP3    H221520   3.190   2.263   4.900
 7193TIP3   OH221521   3.994   2.935   2.539
 7193TIP3    H121522   3.976   3.020   2.499
 7193TIP3    H221523   3.937   2.875   2.492
 7194TIP3   OH221524   7.650   5.632   5.479
 7194TIP3    H121525   7.722   5.658   5.422
 7194TIP3    H221526   7.577   5.687   5.452
 7195TIP3   OH221527   7.499   2.963   1.351
 7195TIP3    H121528   7.589   2.981   1.378
 7195TIP3    H221529   7.494   2.997   1.262
 7196TIP3   OH221530   6.560   5.245   1.615
 7196TIP3    H121531   6.479   5.261   1.565
 7196TIP3    H221532   6.630   5.256   1.551
 7197TIP3   OH221533   7.386   5.176   1.066
 7197TIP3    H121534   7.377   5.235   1.142
 7197TIP3    H221535   7.303   5.129   1.062
 7198TIP3   OH221536   2.173   3.339   1.821
 7198TIP3    H121537   2.227   3.366   1.896
 7198TIP3    H221538   2.111   3.411   1.810
 7199TIP3   OH221539   5.640   0.664   2.957
 7199TIP3    H121540   5.621   0.660   2.864
 7199TIP3    H221541   5.587   0.594   2.995
 7200TIP3   OH221542   5.012   6.671   4.007
 7200TIP3    H121543   5.000   6.578   3.984
 7200TIP3    H221544   5.097   6.693   3.968
 7201TIP3   OH221545   5.467   0.849   4.383
 7201TIP3    H121546   5.443   0.904   4.458
 7201TIP3    H221547   5.386   0.841   4.332
 7202TIP3   OH221548   5.877   1.518   0.867
 7202TIP3    H121549   5.815   1.502   0.939
 7202TIP3    H221550   5.914   1.604   0.886
 7203TIP3   OH221551   8.032   2.975   2.875
 7203TIP3    H121552   7.987   2.890   2.872
 7203TIP3    H221553   7.990   3.021   2.948
 7204TIP3   OH221554   4.145   5.183   1.648
 7204TIP3    H121555   4.205   5.257   1.639
 7204TIP3    H221556   4.122   5.159   1.559
 7205TIP3   OH221557   3.372   5.020   0.806
 7205TIP3    H121558   3.400   4.936   0.842
 7205TIP3    H221559   3.403   5.019   0.716
 7206TIP3   OH221560   3.262   2.641   5.110
 7206TIP3    H121561   3.347   2.651   5.152
 7206TIP3    H221562   3.276   2.669   5.020
 7207TIP3   OH221563   3.615   0.737   0.089
 7207TIP3    H121564   3.638   0.665   0.030
 7207TIP3    H221565   3.682   0.736   0.156
 7208TIP3   OH221566   7.069   2.437   0.152
 7208TIP3    H121567   7.157   2.455   0.120
 7208TIP3    H221568   7.055   2.502   0.221
 7209TIP3   OH221569   3.145   4.236   0.345
 7209TIP3    H121570   3.207   4.240   0.273
 7209TIP3    H221571   3.104   4.150   0.336
 7210TIP3   OH221572   3.284   1.181   4.964
 7210TIP3    H121573   3.310   1.264   5.005
 7210TIP3    H221574   3.235   1.207   4.886
 7211TIP3   OH221575   2.677   5.683   6.062
 7211TIP3    H121576   2.685   5.615   5.996
 7211TIP3    H221577   2.587   5.715   6.053
 7212TIP3   OH221578   4.554   7.329   2.378
 7212TIP3    H121579   4.542   7.290   2.291
 7212TIP3    H221580   4.631   7.285   2.414
 7213TIP3   OH221581   4.934   6.404   0.616
 7213TIP3    H121582   4.868   6.423   0.550
 7213TIP3    H221583   4.935   6.480   0.673
 7214TIP3   OH221584   6.894   3.536   5.438
 7214TIP3    H121585   6.922   3.622   5.409
 7214TIP3    H221586   6.808   3.523   5.398
 7215TIP3   OH221587   0.815   0.437   1.206
 7215TIP3    H121588   0.893   0.385   1.188
 7215TIP3    H221589   0.846   0.509   1.261
 7216TIP3   OH221590   1.103   6.738   5.318
 7216TIP3    H121591   1.078   6.739   5.411
 7216TIP3    H221592   1.106   6.830   5.293
 7217TIP3   OH221593   3.754   7.207   6.141
 7217TIP3    H121594   3.838   7.167   6.163
 7217TIP3    H221595   3.725   7.160   6.063
 7218TIP3   OH221596   2.276   2.710   4.730
 7218TIP3    H121597   2.276   2.652   4.653
 7218TIP3    H221598   2.318   2.658   4.799
 7219TIP3   OH221599   2.882   7.191   4.902
 7219TIP3    H121600   2.947   7.213   4.969
 7219TIP3    H221601   2.851   7.276   4.869
 7220TIP3   OH221602   7.968   2.044   0.017
 7220TIP3    H121603   7.896   1.984   0.038
 7220TIP3    H221604   7.927   2.130   0.011
 7221TIP3   OH221605   6.263   7.116   0.601
 7221TIP3    H121606   6.318   7.064   0.660
 7221TIP3    H221607   6.311   7.198   0.590
 7222TIP3   OH221608   3.534   1.803   4.181
 7222TIP3    H121609   3.543   1.743   4.107
 7222TIP3    H221610   3.530   1.890   4.141
 7223TIP3   OH221611   2.742   7.546   1.569
 7223TIP3    H121612   2.837   7.548   1.574
 7223TIP3    H221613   2.722   7.560   1.476
 7224TIP3   OH221614   1.988   7.507   6.570
 7224TIP3    H121615   1.900   7.542   6.559
 7224TIP3    H221616   1.992   7.431   6.513
 7225TIP3   OH221617   0.806   1.208   5.913
 7225TIP3    H121618   0.730   1.253   5.877
 7225TIP3    H221619   0.769   1.131   5.958
 7226TIP3   OH221620   7.042   2.861   3.051
 7226TIP3    H121621   7.036   2.848   3.146
 7226TIP3    H221622   7.128   2.826   3.027
 7227TIP3   OH221623   2.242   7.285   5.680
 7227TIP3    H121624   2.292   7.204   5.671
 7227TIP3    H221625   2.267   7.320   5.765
 7228TIP3   OH221626   7.523   4.734   6.260
 7228TIP3    H121627   7.499   4.734   6.353
 7228TIP3    H221628   7.599   4.676   6.255
 7229TIP3   OH221629   1.787   6.679   2.598
 7229TIP3    H121630   1.827   6.663   2.513
 7229TIP3    H221631   1.796   6.774   2.611
 7230TIP3   OH221632   3.375   3.207   6.650
 7230TIP3    H121633   3.348   3.122   6.684
 7230TIP3    H221634   3.442   3.238   6.711
 7231TIP3   OH221635   2.187   1.056   1.544
 7231TIP3    H121636   2.232   1.052   1.628
 7231TIP3    H221637   2.094   1.061   1.567
 7232TIP3   OH221638   0.147   0.142   1.674
 7232TIP3    H121639   0.184   0.143   1.586
 7232TIP3    H221640   0.110   0.055   1.684
 7233TIP3   OH221641   4.699   1.089   0.085
 7233TIP3    H121642   4.731   1.163   0.137
 7233TIP3    H221643   4.717   1.113  -0.005
 7234TIP3   OH221644   4.953   1.929   0.306
 7234TIP3    H121645   4.944   1.897   0.396
 7234TIP3    H221646   4.934   1.853   0.251
 7235TIP3   OH221647   2.063   4.019   4.985
 7235TIP3    H121648   2.002   3.949   4.962
 7235TIP3    H221649   2.120   3.981   5.051
 7236TIP3   OH221650   7.417   6.369   0.341
 7236TIP3    H121651   7.388   6.308   0.273
 7236TIP3    H221652   7.346   6.369   0.405
 7237TIP3   OH221653   1.881   6.598   3.664
 7237TIP3    H121654   1.894   6.574   3.572
 7237TIP3    H221655   1.950   6.552   3.711
 7238TIP3   OH221656   3.407   2.743   6.659
 7238TIP3    H121657   3.342   2.676   6.640
 7238TIP3    H221658   3.383   2.816   6.601
 7239TIP3   OH221659   2.432   3.291   1.168
 7239TIP3    H121660   2.491   3.304   1.243
 7239TIP3    H221661   2.481   3.325   1.093
 7240TIP3   OH221662   5.144   3.572   5.094
 7240TIP3    H121663   5.108   3.649   5.138
 7240TIP3    H221664   5.096   3.568   5.011
 7241TIP3   OH221665   6.943   7.644   2.664
 7241TIP3    H121666   6.986   7.569   2.704
 7241TIP3    H221667   6.852   7.616   2.650
 7242TIP3   OH221668   5.740   2.510   6.468
 7242TIP3    H121669   5.676   2.576   6.443
 7242TIP3    H221670   5.709   2.477   6.553
 7243TIP3   OH221671   1.393   1.610   3.371
 7243TIP3    H121672   1.305   1.638   3.348
 7243TIP3    H221673   1.438   1.597   3.287
 7244TIP3   OH221674   1.211   0.946   2.370
 7244TIP3    H121675   1.305   0.963   2.374
 7244TIP3    H221676   1.198   0.901   2.287
 7245TIP3   OH221677   2.486   7.038   5.256
 7245TIP3    H121678   2.507   7.124   5.293
 7245TIP3    H221679   2.405   7.053   5.208
 7246TIP3   OH221680   0.918   1.090   5.349
 7246TIP3    H121681   0.877   1.049   5.273
 7246TIP3    H221682   0.907   1.026   5.419
 7247TIP3   OH221683   6.963   1.735   5.521
 7247TIP3    H121684   6.886   1.726   5.465
 7247TIP3    H221685   6.940   1.687   5.601
 7248TIP3   OH221686   3.109   4.939   4.057
 7248TIP3    H121687   3.104   5.006   4.126
 7248TIP3    H221688   3.198   4.946   4.024
 7249TIP3   OH221689   5.892   6.241   4.056
 7249TIP3    H121690   5.839   6.253   4.135
 7249TIP3    H221691   5.829   6.249   3.984
 7250TIP3   OH221692   3.655   6.441   3.719
 7250TIP3    H121693   3.575   6.494   3.716
 7250TIP3    H221694   3.625   6.352   3.735
 7251TIP3   OH221695   5.272   7.250   4.339
 7251TIP3    H121696   5.180   7.274   4.350
 7251TIP3    H221697   5.283   7.242   4.244
 7252TIP3   OH221698   7.429   7.073   6.291
 7252TIP3    H121699   7.393   7.002   6.238
 7252TIP3    H221700   7.522   7.051   6.301
 7253TIP3   OH221701   0.892   4.844   2.325
 7253TIP3    H121702   0.841   4.764   2.314
 7253TIP3    H221703   0.900   4.879   2.237
 7254TIP3   OH221704   0.209   0.869   2.395
 7254TIP3    H121705   0.248   0.858   2.308
 7254TIP3    H221706   0.212   0.964   2.410
 7255TIP3   OH221707   6.913   0.014   5.547
 7255TIP3    H121708   6.896  -0.001   5.454
 7255TIP3    H221709   6.966   0.094   5.549
 7256TIP3   OH221710   4.416   2.748   0.034
 7256TIP3    H121711   4.445   2.658   0.053
 7256TIP3    H221712   4.492   2.790  -0.005
 7257TIP3   OH221713   7.203   0.338   4.345
 7257TIP3    H121714   7.207   0.361   4.252
 7257TIP3    H221715   7.156   0.254   4.347
 7258TIP3   OH221716   1.928   6.303   3.534
 7258TIP3    H121717   1.919   6.334   3.444
 7258TIP3    H221718   1.863   6.233   3.542
 7259TIP3   OH221719   3.612   4.372   3.002
 7259TIP3    H121720   3.562   4.290   3.000
 7259TIP3    H221721   3.552   4.437   2.965
 7260TIP3   OH221722   5.010   7.143   6.103
 7260TIP3    H121723   4.947   7.200   6.060
 7260TIP3    H221724   5.062   7.201   6.159
 7261TIP3   OH221725   6.870   1.957   4.616
 7261TIP3    H121726   6.851   2.048   4.595
 7261TIP3    H221727   6.789   1.924   4.654
 7262TIP3   OH221728   4.017   4.644   0.063
 7262TIP3    H121729   4.010   4.739   0.064
 7262TIP3    H221730   4.020   4.619   0.155
 7263TIP3   OH221731   6.157   6.905   4.924
 7263TIP3    H121732   6.065   6.877   4.928
 7263TIP3    H221733   6.207   6.825   4.937
 7264TIP3   OH221734   1.061   5.579   4.902
 7264TIP3    H121735   1.023   5.616   4.823
 7264TIP3    H221736   1.151   5.557   4.878
 7265TIP3   OH221737   6.740   6.539   3.610
 7265TIP3    H121738   6.821   6.495   3.635
 7265TIP3    H221739   6.740   6.539   3.514
 7266TIP3   OH221740   2.027   0.529   6.395
 7266TIP3    H121741   1.975   0.570   6.464
 7266TIP3    H221742   2.029   0.436   6.418
 7267TIP3   OH221743   1.196   5.920   0.901
 7267TIP3    H121744   1.263   5.973   0.857
 7267TIP3    H221745   1.113   5.954   0.868
 7268TIP3   OH221746   5.660   6.591   3.300
 7268TIP3    H121747   5.632   6.554   3.216
 7268TIP3    H221748   5.583   6.636   3.334
 7269TIP3   OH221749   3.019   6.492   0.980
 7269TIP3    H121750   3.096   6.491   0.923
 7269TIP3    H221751   2.958   6.553   0.937
 7270TIP3   OH221752   5.994   3.248   0.628
 7270TIP3    H121753   5.996   3.331   0.675
 7270TIP3    H221754   6.031   3.267   0.542
 7271TIP3   OH221755   6.040   7.227   1.142
 7271TIP3    H121756   6.128   7.198   1.119
 7271TIP3    H221757   5.995   7.148   1.171
 7272TIP3   OH221758   6.370   4.015   1.854
 7272TIP3    H121759   6.306   4.084   1.870
 7272TIP3    H221760   6.433   4.055   1.793
 7273TIP3   OH221761   7.768   5.370   0.874
 7273TIP3    H121762   7.850   5.375   0.923
 7273TIP3    H221763   7.711   5.315   0.927
 7274TIP3   OH221764   0.212   3.582   1.147
 7274TIP3    H121765   0.261   3.510   1.185
 7274TIP3    H221766   0.222   3.654   1.210
 7275TIP3   OH221767   3.437   0.161   4.439
 7275TIP3    H121768   3.483   0.081   4.413
 7275TIP3    H221769   3.504   0.214   4.483
 7276TIP3   OH221770   7.331   4.762   1.183
 7276TIP3    H121771   7.357   4.687   1.236
 7276TIP3    H221772   7.400   4.770   1.117
 7277TIP3   OH221773   7.799   7.042   5.131
 7277TIP3    H121774   7.720   7.029   5.183
 7277TIP3    H221775   7.769   7.039   5.040
 7278TIP3   OH221776   6.452   3.357   1.948
 7278TIP3    H121777   6.357   3.345   1.951
 7278TIP3    H221778   6.480   3.356   2.039
 7279TIP3   OH221779   4.658   1.779   1.264
 7279TIP3    H121780   4.569   1.812   1.270
 7279TIP3    H221781   4.708   1.833   1.326
 7280TIP3   OH221782   7.967   1.185   5.264
 7280TIP3    H121783   7.985   1.092   5.282
 7280TIP3    H221784   8.041   1.213   5.210
 7281TIP3   OH221785   2.471   7.057   0.381
 7281TIP3    H121786   2.496   6.998   0.310
 7281TIP3    H221787   2.433   7.133   0.337
 7282TIP3   OH221788   2.521   5.636   4.614
 7282TIP3    H121789   2.613   5.633   4.588
 7282TIP3    H221790   2.475   5.663   4.535
 7283TIP3   OH221791   0.603   1.138   0.400
 7283TIP3    H121792   0.515   1.146   0.366
 7283TIP3    H221793   0.640   1.062   0.356
 7284TIP3   OH221794   2.118   6.318   5.318
 7284TIP3    H121795   2.176   6.338   5.392
 7284TIP3    H221796   2.051   6.386   5.321
 7285TIP3   OH221797   5.457   2.486   3.176
 7285TIP3    H121798   5.451   2.398   3.213
 7285TIP3    H221799   5.521   2.477   3.105
 7286TIP3   OH221800   6.812   0.512   4.098
 7286TIP3    H121801   6.797   0.425   4.136
 7286TIP3    H221802   6.725   0.552   4.094
 7287TIP3   OH221803   2.006   4.758   0.453
 7287TIP3    H121804   1.986   4.826   0.516
 7287TIP3    H221805   1.965   4.787   0.371
 7288TIP3   OH221806   7.154   0.073   1.282
 7288TIP3    H121807   7.209  -0.006   1.283
 7288TIP3    H221808   7.191   0.129   1.350
 7289TIP3   OH221809   0.438   5.928   1.398
 7289TIP3    H121810   0.466   5.839   1.421
 7289TIP3    H221811   0.498   5.985   1.446
 7290TIP3   OH221812   3.690   0.538   5.459
 7290TIP3    H121813   3.604   0.500   5.479
 7290TIP3    H221814   3.739   0.466   5.420
 7291TIP3   OH221815   0.050   6.345   0.252
 7291TIP3    H121816  -0.031   6.389   0.226
 7291TIP3    H221817   0.118   6.411   0.239
 7292TIP3   OH221818   0.578   5.497   0.642
 7292TIP3    H121819   0.522   5.456   0.708
 7292TIP3    H221820   0.666   5.466   0.662
 7293TIP3   OH221821   4.569   7.339   3.176
 7293TIP3    H121822   4.638   7.403   3.194
 7293TIP3    H221823   4.502   7.388   3.129
 7294TIP3   OH221824   1.910   1.804   6.292
 7294TIP3    H121825   1.994   1.790   6.248
 7294TIP3    H221826   1.853   1.840   6.224
 7295TIP3   OH221827   2.765   6.711   5.524
 7295TIP3    H121828   2.731   6.664   5.600
 7295TIP3    H221829   2.689   6.757   5.488
 7296TIP3   OH221830   0.686   1.062   4.696
 7296TIP3    H121831   0.779   1.042   4.708
 7296TIP3    H221832   0.670   1.047   4.603
 7297TIP3   OH221833   4.499   1.735   1.592
 7297TIP3    H121834   4.530   1.741   1.682
 7297TIP3    H221835   4.533   1.651   1.560
 7298TIP3   OH221836   3.813   0.110   0.423
 7298TIP3    H121837   3.825   0.200   0.392
 7298TIP3    H221838   3.729   0.111   0.469
 7299TIP3   OH221839   6.534   6.103   4.251
 7299TIP3    H121840   6.530   6.008   4.265
 7299TIP3    H221841   6.568   6.138   4.334
 7300TIP3   OH221842   5.931   4.378   0.083
 7300TIP3    H121843   5.841   4.391   0.113
 7300TIP3    H221844   5.923   4.329   0.001
 7301TIP3   OH221845   1.262   0.023   0.618
 7301TIP3    H121846   1.310   0.026   0.701
 7301TIP3    H221847   1.190  -0.038   0.635
 7302TIP3   OH221848   0.620   3.751   1.415
 7302TIP3    H121849   0.527   3.730   1.425
 7302TIP3    H221850   0.633   3.830   1.469
 7303TIP3   OH221851   4.546   2.963   1.342
 7303TIP3    H121852   4.618   3.026   1.344
 7303TIP3    H221853   4.585   2.884   1.305
 7304TIP3   OH221854   4.666   5.390   3.855
 7304TIP3    H121855   4.684   5.423   3.943
 7304TIP3    H221856   4.685   5.297   3.860
 7305TIP3   OH221857   4.642   7.355   1.372
 7305TIP3    H121858   4.640   7.431   1.314
 7305TIP3    H221859   4.619   7.391   1.458
 7306TIP3   OH221860   7.276   0.492   4.643
 7306TIP3    H121861   7.332   0.424   4.605
 7306TIP3    H221862   7.236   0.534   4.567
 7307TIP3   OH221863   4.498   6.109   2.752
 7307TIP3    H121864   4.522   6.193   2.792
 7307TIP3    H221865   4.432   6.073   2.811
 7308TIP3   OH221866   1.507   3.462   4.489
 7308TIP3    H121867   1.578   3.401   4.507
 7308TIP3    H221868   1.536   3.545   4.526
 7309TIP3   OH221869   6.973   3.901   3.848
 7309TIP3    H121870   6.963   3.842   3.773
 7309TIP3    H221871   6.975   3.844   3.924
 7310TIP3   OH221872   2.054   6.865   6.195
 7310TIP3    H121873   1.979   6.925   6.195
 7310TIP3    H221874   2.086   6.868   6.285
 7311TIP3   OH221875   4.505   3.609   4.071
 7311TIP3    H121876   4.460   3.634   4.152
 7311TIP3    H221877   4.593   3.645   4.079
 7312TIP3   OH221878   6.647   2.453   0.704
 7312TIP3    H121879   6.600   2.395   0.764
 7312TIP3    H221880   6.655   2.402   0.623
 7313TIP3   OH221881   8.218   1.620   0.740
 7313TIP3    H121882   8.142   1.676   0.724
 7313TIP3    H221883   8.291   1.668   0.702
 7314TIP3   OH221884   0.353   2.626   1.288
 7314TIP3    H121885   0.429   2.684   1.294
 7314TIP3    H221886   0.278   2.686   1.289
 7315TIP3   OH221887   6.760   5.912   4.656
 7315TIP3    H121888   6.712   5.829   4.662
 7315TIP3    H221889   6.839   5.897   4.708
 7316TIP3   OH221890   3.920   3.992   4.845
 7316TIP3    H121891   3.894   3.909   4.885
 7316TIP3    H221892   3.838   4.037   4.827
 7317TIP3   OH221893   3.652   4.962   2.987
 7317TIP3    H121894   3.574   4.944   3.040
 7317TIP3    H221895   3.658   4.887   2.928
 7318TIP3   OH221896   6.533   1.195   2.829
 7318TIP3    H121897   6.602   1.232   2.883
 7318TIP3    H221898   6.487   1.134   2.886
 7319TIP3   OH221899   2.203   5.344   3.925
 7319TIP3    H121900   2.177   5.305   3.842
 7319TIP3    H221901   2.130   5.325   3.984
 7320TIP3   OH221902   1.499   2.511   4.805
 7320TIP3    H121903   1.501   2.436   4.746
 7320TIP3    H221904   1.565   2.571   4.770
 7321TIP3   OH221905   4.747   7.131   6.218
 7321TIP3    H121906   4.735   7.058   6.278
 7321TIP3    H221907   4.835   7.121   6.184
 7322TIP3   OH221908   6.341   7.467   2.118
 7322TIP3    H121909   6.356   7.373   2.104
 7322TIP3    H221910   6.263   7.471   2.173
 7323TIP3   OH221911   0.916   6.108   0.378
 7323TIP3    H121912   0.915   6.198   0.346
 7323TIP3    H221913   0.979   6.063   0.321
 7324TIP3   OH221914   1.887   2.366   0.251
 7324TIP3    H121915   1.942   2.322   0.316
 7324TIP3    H221916   1.923   2.454   0.245
 7325TIP3   OH221917   5.711   0.802   1.017
 7325TIP3    H121918   5.728   0.728   0.959
 7325TIP3    H221919   5.762   0.874   0.980
 7326TIP3   OH221920   3.525   7.692   6.662
 7326TIP3    H121921   3.577   7.681   6.583
 7326TIP3    H221922   3.447   7.637   6.648
 7327TIP3   OH221923   0.339   5.108   5.963
 7327TIP3    H121924   0.340   5.202   5.947
 7327TIP3    H221925   0.254   5.091   6.004
 7328TIP3   OH221926   0.226   4.106   1.764
 7328TIP3    H121927   0.140   4.111   1.724
 7328TIP3    H221928   0.212   4.060   1.847
 7329TIP3   OH221929   1.182   7.512   5.840
 7329TIP3    H121930   1.177   7.460   5.760
 7329TIP3    H221931   1.274   7.541   5.844
 7330TIP3   OH221932   3.150   2.447   3.696
 7330TIP3    H121933   3.224   2.425   3.753
 7330TIP3    H221934   3.088   2.376   3.709
 7331TIP3   OH221935   6.531   6.884   5.020
 7331TIP3    H121936   6.482   6.807   5.049
 7331TIP3    H221937   6.559   6.863   4.931
 7332TIP3   OH221938   8.277   1.748   3.664
 7332TIP3    H121939   8.278   1.831   3.617
 7332TIP3    H221940   8.209   1.696   3.622
 7333TIP3   OH221941   6.101   3.161   1.385
 7333TIP3    H121942   6.114   3.252   1.358
 7333TIP3    H221943   6.137   3.109   1.313
 7334TIP3   OH221944   3.515   4.738   0.857
 7334TIP3    H121945   3.445   4.692   0.904
 7334TIP3    H221946   3.595   4.692   0.884
 7335TIP3   OH221947   3.597   3.921   5.140
 7335TIP3    H121948   3.629   3.836   5.171
 7335TIP3    H221949   3.549   3.901   5.060
 7336TIP3   OH221950   7.839   7.434   5.112
 7336TIP3    H121951   7.914   7.378   5.095
 7336TIP3    H221952   7.806   7.456   5.025
 7337TIP3   OH221953   2.609   3.415   1.823
 7337TIP3    H121954   2.657   3.337   1.795
 7337TIP3    H221955   2.590   3.463   1.743
 7338TIP3   OH221956   3.898   2.563   3.877
 7338TIP3    H121957   3.971   2.529   3.826
 7338TIP3    H221958   3.852   2.485   3.909
 7339TIP3   OH221959   7.844   0.602   3.547
 7339TIP3    H121960   7.775   0.653   3.589
 7339TIP3    H221961   7.905   0.668   3.513
 7340TIP3   OH221962   6.266   3.679   3.538
 7340TIP3    H121963   6.269   3.672   3.633
 7340TIP3    H221964   6.174   3.664   3.515
 7341TIP3   OH221965   5.376   4.132   2.783
 7341TIP3    H121966   5.387   4.099   2.872
 7341TIP3    H221967   5.439   4.203   2.776
 7342TIP3   OH221968   4.289   5.093   5.313
 7342TIP3    H121969   4.288   5.185   5.287
 7342TIP3    H221970   4.248   5.093   5.400
 7343TIP3   OH221971   2.486   2.610   1.950
 7343TIP3    H121972   2.427   2.685   1.938
 7343TIP3    H221973   2.478   2.560   1.869
 7344TIP3   OH221974   3.864   1.209   0.602
 7344TIP3    H121975   3.886   1.286   0.654
 7344TIP3    H221976   3.948   1.176   0.571
 7345TIP3   OH221977   4.530   1.256   4.316
 7345TIP3    H121978   4.529   1.349   4.294
 7345TIP3    H221979   4.596   1.248   4.384
 7346TIP3   OH221980   2.503   0.639   6.003
 7346TIP3    H121981   2.427   0.672   6.051
 7346TIP3    H221982   2.509   0.547   6.029
 7347TIP3   OH221983   0.893   5.071   5.809
 7347TIP3    H121984   0.808   5.114   5.796
 7347TIP3    H221985   0.957   5.142   5.803
 7348TIP3   OH221986   4.730   5.803   0.774
 7348TIP3    H121987   4.665   5.743   0.811
 7348TIP3    H221988   4.716   5.799   0.680
 7349TIP3   OH221989   1.411   6.474   2.902
 7349TIP3    H121990   1.380   6.480   2.811
 7349TIP3    H221991   1.498   6.514   2.900
 7350TIP3   OH221992   8.130   0.214   6.728
 7350TIP3    H121993   8.101   0.169   6.649
 7350TIP3    H221994   8.194   0.278   6.698
 7351TIP3   OH221995   1.108   3.656   6.725
 7351TIP3    H121996   1.014   3.642   6.722
 7351TIP3    H221997   1.119   3.751   6.730
 7352TIP3   OH221998   7.484   3.048   5.484
 7352TIP3    H121999   7.395   3.067   5.452
 7352TIP3    H222000   7.470   3.006   5.569
 7353TIP3   OH222001   0.418   4.173   0.048
 7353TIP3    H122002   0.470   4.161  -0.031
 7353TIP3    H222003   0.373   4.090   0.060
 7354TIP3   OH222004   2.895   2.537   3.306
 7354TIP3    H122005   2.943   2.578   3.378
 7354TIP3    H222006   2.872   2.450   3.338
 7355TIP3   OH222007   3.573   1.614   4.633
 7355TIP3    H122008   3.668   1.605   4.644
 7355TIP3    H222009   3.554   1.705   4.655
 7356TIP3   OH222010   1.307   5.428   1.831
 7356TIP3    H122011   1.329   5.335   1.820
 7356TIP3    H222012   1.381   5.464   1.881
 7357TIP3   OH222013   1.017   0.043   1.704
 7357TIP3    H122014   0.978   0.051   1.617
 7357TIP3    H222015   1.033  -0.050   1.714
 7358TIP3   OH222016   3.263   6.135   0.214
 7358TIP3    H122017   3.212   6.090   0.146
 7358TIP3    H222018   3.354   6.126   0.186
 7359TIP3   OH222019   3.222   5.353   2.636
 7359TIP3    H122020   3.176   5.306   2.566
 7359TIP3    H222021   3.157   5.363   2.705
 7360TIP3   OH222022   2.736   7.730   6.042
 7360TIP3    H122023   2.740   7.756   6.134
 7360TIP3    H222024   2.793   7.794   5.997
 7361TIP3   OH222025   7.157   7.793   2.879
 7361TIP3    H122026   7.094   7.730   2.915
 7361TIP3    H222027   7.228   7.739   2.846
 7362TIP3   OH222028   4.741   1.259   4.498
 7362TIP3    H122029   4.788   1.335   4.531
 7362TIP3    H222030   4.761   1.189   4.561
 7363TIP3   OH222031   2.648   1.578   3.995
 7363TIP3    H122032   2.675   1.668   4.013
 7363TIP3    H222033   2.713   1.545   3.933
 7364TIP3   OH222034   1.371   3.126   2.405
 7364TIP3    H122035   1.351   3.209   2.362
 7364TIP3    H222036   1.460   3.138   2.440
 7365TIP3   OH222037   4.599   1.418   2.322
 7365TIP3    H122038   4.595   1.514   2.321
 7365TIP3    H222039   4.544   1.391   2.249
 7366TIP3   OH222040   7.332   2.544   1.566
 7366TIP3    H122041   7.387   2.621   1.581
 7366TIP3    H222042   7.373   2.500   1.491
 7367TIP3   OH222043   0.411   7.736   0.984
 7367TIP3    H122044   0.487   7.789   1.008
 7367TIP3    H222045   0.383   7.772   0.900
 7368TIP3   OH222046   1.096   6.788   3.580
 7368TIP3    H122047   1.037   6.810   3.507
 7368TIP3    H222048   1.131   6.702   3.557
 7369TIP3   OH222049   0.633   1.825   5.050
 7369TIP3    H122050   0.557   1.876   5.022
 7369TIP3    H222051   0.644   1.758   4.983
 7370TIP3   OH222052   6.746   5.127   2.660
 7370TIP3    H122053   6.724   5.040   2.626
 7370TIP3    H222054   6.813   5.160   2.600
 7371TIP3   OH222055   2.448   6.146   3.984
 7371TIP3    H122056   2.505   6.198   3.928
 7371TIP3    H222057   2.408   6.210   4.043
 7372TIP3   OH222058   1.095   4.065   0.808
 7372TIP3    H122059   1.078   3.989   0.863
 7372TIP3    H222060   1.186   4.088   0.827
 7373TIP3   OH222061   4.033   5.085   4.844
 7373TIP3    H122062   4.048   5.014   4.907
 7373TIP3    H222063   4.067   5.050   4.761
 7374TIP3   OH222064   3.023   0.503   2.315
 7374TIP3    H122065   3.041   0.585   2.268
 7374TIP3    H222066   3.085   0.440   2.279
 7375TIP3   OH222067   7.529   3.786   5.972
 7375TIP3    H122068   7.459   3.743   5.924
 7375TIP3    H222069   7.484   3.832   6.043
 7376TIP3   OH222070   7.242   4.982   0.319
 7376TIP3    H122071   7.262   5.022   0.403
 7376TIP3    H222072   7.223   5.056   0.261
 7377TIP3   OH222073   4.560   1.109   6.650
 7377TIP3    H122074   4.643   1.067   6.672
 7377TIP3    H222075   4.520   1.050   6.586
 7378TIP3   OH222076   1.666   2.906   1.056
 7378TIP3    H122077   1.746   2.944   1.093
 7378TIP3    H222078   1.633   2.848   1.124
 7379TIP3   OH222079   2.888   6.791   5.004
 7379TIP3    H122080   2.822   6.828   5.063
 7379TIP3    H222081   2.915   6.864   4.949
 7380TIP3   OH222082   4.396   3.867   3.818
 7380TIP3    H122083   4.301   3.872   3.811
 7380TIP3    H222084   4.413   3.857   3.912
 7381TIP3   OH222085   6.803   7.751   2.036
 7381TIP3    H122086   6.896   7.766   2.019
 7381TIP3    H222087   6.801   7.705   2.119
 7382TIP3   OH222088   3.750   3.808   4.277
 7382TIP3    H122089   3.770   3.787   4.186
 7382TIP3    H222090   3.683   3.876   4.273
 7383TIP3   OH222091   8.207   4.350   4.297
 7383TIP3    H122092   8.167   4.311   4.376
 7383TIP3    H222093   8.135   4.353   4.234
 7384TIP3   OH222094   3.255   6.826   2.148
 7384TIP3    H122095   3.185   6.844   2.085
 7384TIP3    H222096   3.238   6.887   2.220
 7385TIP3   OH222097   7.287   4.676   2.455
 7385TIP3    H122098   7.317   4.748   2.400
 7385TIP3    H222099   7.343   4.679   2.532
 7386TIP3   OH222100   4.558   0.126   0.589
 7386TIP3    H122101   4.554   0.190   0.518
 7386TIP3    H222102   4.577   0.043   0.545
 7387TIP3   OH222103   2.222   0.405   5.994
 7387TIP3    H122104   2.157   0.387   6.062
 7387TIP3    H222105   2.174   0.455   5.928
 7388TIP3   OH222106   2.784   0.892   6.169
 7388TIP3    H122107   2.800   0.984   6.147
 7388TIP3    H222108   2.833   0.843   6.104
 7389TIP3   OH222109   2.037   1.162   2.018
 7389TIP3    H122110   1.977   1.197   1.953
 7389TIP3    H222111   2.032   1.067   2.006
 7390TIP3   OH222112   1.515   4.130   1.236
 7390TIP3    H122113   1.542   4.071   1.166
 7390TIP3    H222114   1.596   4.172   1.264
 7391TIP3   OH222115   3.977   2.159   4.099
 7391TIP3    H122116   3.937   2.244   4.116
 7391TIP3    H222117   4.054   2.179   4.045
 7392TIP3   OH222118   7.555   4.341   5.006
 7392TIP3    H122119   7.597   4.287   5.072
 7392TIP3    H222120   7.497   4.282   4.958
 7393TIP3   OH222121   3.482   4.544   0.502
 7393TIP3    H122122   3.444   4.464   0.538
 7393TIP3    H222123   3.568   4.550   0.542
 7394TIP3   OH222124   8.005   3.889   1.319
 7394TIP3    H122125   8.021   3.956   1.386
 7394TIP3    H222126   8.085   3.838   1.316
 7395TIP3   OH222127   6.195   3.188   4.413
 7395TIP3    H122128   6.210   3.207   4.320
 7395TIP3    H222129   6.273   3.222   4.457
 7396TIP3   OH222130   3.222   6.055   4.387
 7396TIP3    H122131   3.167   6.045   4.309
 7396TIP3    H222132   3.248   6.147   4.386
 7397TIP3   OH222133   7.362   2.005   4.650
 7397TIP3    H122134   7.382   1.923   4.604
 7397TIP3    H222135   7.268   2.001   4.666
 7398TIP3   OH222136   6.586   6.768   5.748
 7398TIP3    H122137   6.673   6.804   5.766
 7398TIP3    H222138   6.597   6.673   5.755
 7399TIP3   OH222139   3.988   5.459   5.218
 7399TIP3    H122140   4.068   5.411   5.241
 7399TIP3    H222141   3.929   5.391   5.185
 7400TIP3   OH222142   5.363   2.140   0.098
 7400TIP3    H122143   5.282   2.134   0.149
 7400TIP3    H222144   5.418   2.201   0.148
 7401TIP3   OH222145   2.568   6.652   0.546
 7401TIP3    H122146   2.573   6.575   0.603
 7401TIP3    H222147   2.582   6.618   0.458
 7402TIP3   OH222148   4.393   3.812   3.550
 7402TIP3    H122149   4.411   3.825   3.643
 7402TIP3    H222150   4.404   3.718   3.536
 7403TIP3   OH222151   8.031   6.600   6.680
 7403TIP3    H122152   8.103   6.596   6.743
 7403TIP3    H222153   7.994   6.512   6.680
 7404TIP3   OH222154   8.060   4.882   6.352
 7404TIP3    H122155   8.129   4.900   6.289
 7404TIP3    H222156   8.091   4.920   6.434
 7405TIP3   OH222157   1.662   0.162   0.243
 7405TIP3    H122158   1.625   0.187   0.327
 7405TIP3    H222159   1.586   0.137   0.190
 7406TIP3   OH222160   0.411   7.551   0.235
 7406TIP3    H122161   0.452   7.557   0.321
 7406TIP3    H222162   0.407   7.641   0.203
 7407TIP3   OH222163   6.871   1.993   6.626
 7407TIP3    H122164   6.816   2.022   6.698
 7407TIP3    H222165   6.907   1.909   6.655
 7408TIP3   OH222166   0.344   0.357   1.979
 7408TIP3    H122167   0.398   0.294   2.028
 7408TIP3    H222168   0.298   0.406   2.047
 7409TIP3   OH222169   6.189   5.115   5.663
 7409TIP3    H122170   6.261   5.054   5.679
 7409TIP3    H222171   6.152   5.087   5.580
 7410TIP3   OH222172   2.156   0.443   3.823
 7410TIP3    H122173   2.211   0.498   3.879
 7410TIP3    H222174   2.070   0.446   3.864
 7411TIP3   OH222175   3.479   7.279   6.463
 7411TIP3    H122176   3.384   7.280   6.450
 7411TIP3    H222177   3.511   7.210   6.406
 7412TIP3   OH222178   6.616   5.772   4.235
 7412TIP3    H122179   6.650   5.707   4.174
 7412TIP3    H222180   6.688   5.788   4.296
 7413TIP3   OH222181   2.423   3.398   3.402
 7413TIP3    H122182   2.360   3.470   3.407
 7413TIP3    H222183   2.505   3.440   3.378
 7414TIP3   OH222184   7.495   6.790   4.506
 7414TIP3    H122185   7.438   6.819   4.436
 7414TIP3    H222186   7.489   6.859   4.572
 7415TIP3   OH222187   1.949   5.807   3.942
 7415TIP3    H122188   1.946   5.772   4.031
 7415TIP3    H222189   1.867   5.778   3.902
 7416TIP3   OH222190   6.327   6.354   3.307
 7416TIP3    H122191   6.263   6.283   3.308
 7416TIP3    H222192   6.404   6.317   3.351
 7417TIP3   OH222193   6.918   0.273   5.851
 7417TIP3    H122194   6.949   0.348   5.802
 7417TIP3    H222195   6.831   0.255   5.816
 7418TIP3   OH222196   4.791   5.406   4.119
 7418TIP3    H122197   4.831   5.327   4.157
 7418TIP3    H222198   4.824   5.478   4.172
 7419TIP3   OH222199   2.428   5.491   1.051
 7419TIP3    H122200   2.458   5.582   1.046
 7419TIP3    H222201   2.451   5.454   0.966
 7420TIP3   OH222202   7.871   6.763   3.663
 7420TIP3    H122203   7.931   6.689   3.673
 7420TIP3    H222204   7.804   6.730   3.602
 7421TIP3   OH222205   4.907   4.215   4.293
 7421TIP3    H122206   4.871   4.297   4.259
 7421TIP3    H222207   4.846   4.190   4.363
 7422TIP3   OH222208   1.701   7.235   5.658
 7422TIP3    H122209   1.790   7.221   5.689
 7422TIP3    H222210   1.676   7.153   5.616
 7423TIP3   OH222211   3.273   0.801   5.774
 7423TIP3    H122212   3.235   0.825   5.690
 7423TIP3    H222213   3.229   0.719   5.797
 7424TIP3   OH222214   0.620   7.455   3.429
 7424TIP3    H122215   0.548   7.484   3.485
 7424TIP3    H222216   0.656   7.379   3.474
 7425TIP3   OH222217   5.405   6.540   5.120
 7425TIP3    H122218   5.496   6.571   5.118
 7425TIP3    H222219   5.371   6.561   5.033
 7426TIP3   OH222220   4.843   7.501   3.533
 7426TIP3    H122221   4.858   7.505   3.628
 7426TIP3    H222222   4.931   7.496   3.495
 7427TIP3   OH222223   2.155   5.463   1.683
 7427TIP3    H122224   2.207   5.507   1.751
 7427TIP3    H222225   2.146   5.529   1.614
 7428TIP3   OH222226   2.359   2.619   4.095
 7428TIP3    H122227   2.408   2.641   4.174
 7428TIP3    H222228   2.423   2.625   4.024
 7429TIP3   OH222229   0.082   6.872   4.195
 7429TIP3    H122230   0.097   6.964   4.175
 7429TIP3    H222231   0.146   6.825   4.141
 7430TIP3   OH222232   7.935   5.569   5.928
 7430TIP3    H122233   7.986   5.554   6.007
 7430TIP3    H222234   7.986   5.632   5.877
 7431TIP3   OH222235   2.097   4.832   2.292
 7431TIP3    H122236   2.038   4.784   2.234
 7431TIP3    H222237   2.056   4.917   2.305
 7432TIP3   OH222238   5.394   0.331   4.945
 7432TIP3    H122239   5.423   0.269   5.012
 7432TIP3    H222240   5.298   0.333   4.954
 7433TIP3   OH222241   5.439   4.702   0.084
 7433TIP3    H122242   5.393   4.695   0.168
 7433TIP3    H222243   5.523   4.658   0.099
 7434TIP3   OH222244   6.263   1.757   5.004
 7434TIP3    H122245   6.201   1.792   5.068
 7434TIP3    H222246   6.285   1.670   5.037
 7435TIP3   OH222247   7.154   3.084   4.359
 7435TIP3    H122248   7.145   3.161   4.302
 7435TIP3    H222249   7.122   3.011   4.306
 7436TIP3   OH222250   3.294   4.130   4.494
 7436TIP3    H122251   3.322   4.192   4.427
 7436TIP3    H222252   3.333   4.163   4.575
 7437TIP3   OH222253   4.320   5.604   5.310
 7437TIP3    H122254   4.286   5.694   5.304
 7437TIP3    H222255   4.410   5.615   5.339
 7438TIP3   OH222256   2.692   6.206   4.260
 7438TIP3    H122257   2.739   6.289   4.267
 7438TIP3    H222258   2.730   6.162   4.184
 7439TIP3   OH222259   6.273   4.431   0.860
 7439TIP3    H122260   6.227   4.359   0.903
 7439TIP3    H222261   6.363   4.425   0.893
 7440TIP3   OH222262   1.763   4.647   5.134
 7440TIP3    H122263   1.805   4.680   5.213
 7440TIP3    H222264   1.673   4.680   5.139
 7441TIP3   OH222265   7.906   3.526   0.329
 7441TIP3    H122266   7.954   3.587   0.384
 7441TIP3    H222267   7.960   3.447   0.328
 7442TIP3   OH222268   7.614   2.513   4.709
 7442TIP3    H122269   7.703   2.483   4.723
 7442TIP3    H222270   7.580   2.530   4.797
 7443TIP3   OH222271   4.138   2.569   3.411
 7443TIP3    H122272   4.190   2.617   3.346
 7443TIP3    H222273   4.173   2.480   3.409
 7444TIP3   OH222274   5.920   3.538   1.550
 7444TIP3    H122275   5.867   3.460   1.534
 7444TIP3    H222276   5.998   3.527   1.495
 7445TIP3   OH222277   6.394   4.571   4.695
 7445TIP3    H122278   6.392   4.525   4.779
 7445TIP3    H222279   6.464   4.528   4.646
 7446TIP3   OH222280   6.167   2.163   4.494
 7446TIP3    H122281   6.099   2.108   4.454
 7446TIP3    H222282   6.159   2.247   4.450
 7447TIP3   OH222283   7.751   6.688   1.236
 7447TIP3    H122284   7.689   6.743   1.284
 7447TIP3    H222285   7.815   6.661   1.303
 7448TIP3   OH222286   3.871   7.156   3.675
 7448TIP3    H122287   3.840   7.215   3.744
 7448TIP3    H222288   3.844   7.199   3.594
 7449TIP3   OH222289   2.571   4.766   2.247
 7449TIP3    H122290   2.644   4.710   2.221
 7449TIP3    H222291   2.599   4.854   2.222
 7450TIP3   OH222292   0.357   4.948   4.348
 7450TIP3    H122293   0.395   4.971   4.432
 7450TIP3    H222294   0.388   5.016   4.288
 7451TIP3   OH222295   1.352   0.327   2.878
 7451TIP3    H122296   1.265   0.355   2.849
 7451TIP3    H222297   1.360   0.362   2.967
 7452TIP3   OH222298   0.131   7.403   5.157
 7452TIP3    H122299   0.153   7.411   5.250
 7452TIP3    H222300   0.151   7.489   5.121
 7453TIP3   OH222301   0.343   4.255   3.649
 7453TIP3    H122302   0.406   4.252   3.577
 7453TIP3    H222303   0.294   4.173   3.642
 7454TIP3   OH222304   2.736   4.094   1.424
 7454TIP3    H122305   2.780   4.160   1.371
 7454TIP3    H222306   2.680   4.144   1.483
 7455TIP3   OH222307   1.437   4.301   0.614
 7455TIP3    H122308   1.472   4.390   0.625
 7455TIP3    H222309   1.343   4.314   0.604
 7456TIP3   OH222310   2.064   0.030   1.473
 7456TIP3    H122311   2.147   0.000   1.510
 7456TIP3    H222312   2.013   0.058   1.549
 7457TIP3   OH222313   0.120   6.475   0.838
 7457TIP3    H122314   0.146   6.386   0.864
 7457TIP3    H222315   0.096   6.466   0.746
 7458TIP3   OH222316   6.692   3.509   4.265
 7458TIP3    H122317   6.658   3.582   4.212
 7458TIP3    H222318   6.621   3.445   4.265
 7459TIP3   OH222319   5.252   0.552   4.245
 7459TIP3    H122320   5.225   0.642   4.228
 7459TIP3    H222321   5.181   0.498   4.210
 7460TIP3   OH222322   2.194   6.937   6.438
 7460TIP3    H122323   2.252   6.862   6.425
 7460TIP3    H222324   2.213   6.967   6.527
 7461TIP3   OH222325   0.699   4.198   5.312
 7461TIP3    H122326   0.638   4.126   5.327
 7461TIP3    H222327   0.651   4.276   5.341
 7462TIP3   OH222328   3.749   7.738   1.402
 7462TIP3    H122329   3.669   7.687   1.415
 7462TIP3    H222330   3.820   7.678   1.427
 7463TIP3   OH222331   4.644   7.361   0.433
 7463TIP3    H122332   4.652   7.455   0.414
 7463TIP3    H222333   4.551   7.348   0.450
 7464TIP3   OH222334   3.840   7.078   2.778
 7464TIP3    H122335   3.931   7.083   2.807
 7464TIP3    H222336   3.804   7.164   2.798
 7465TIP3   OH222337   1.200   6.584   4.951
 7465TIP3    H122338   1.224   6.613   4.863
 7465TIP3    H222339   1.279   6.596   5.003
 7466TIP3   OH222340   4.375   2.715   1.855
 7466TIP3    H122341   4.455   2.663   1.853
 7466TIP3    H222342   4.337   2.698   1.941
 7467TIP3   OH222343   4.557   7.019   1.160
 7467TIP3    H122344   4.621   6.988   1.225
 7467TIP3    H222345   4.608   7.033   1.081
 7468TIP3   OH222346   0.671   4.001   1.524
 7468TIP3    H122347   0.747   3.998   1.582
 7468TIP3    H222348   0.601   4.034   1.580
 7469TIP3   OH222349   7.378   6.786   6.659
 7469TIP3    H122350   7.397   6.837   6.738
 7469TIP3    H222351   7.358   6.852   6.592
 7470TIP3   OH222352   6.943   2.552   3.195
 7470TIP3    H122353   7.034   2.547   3.225
 7470TIP3    H222354   6.926   2.645   3.187
 7471TIP3   OH222355   4.945   3.945   2.067
 7471TIP3    H122356   4.927   3.851   2.066
 7471TIP3    H222357   4.992   3.962   1.986
 7472TIP3   OH222358   6.814   2.467   4.519
 7472TIP3    H122359   6.731   2.514   4.522
 7472TIP3    H222360   6.854   2.494   4.437
 7473TIP3   OH222361   5.347   1.032   4.569
 7473TIP3    H122362   5.386   1.091   4.633
 7473TIP3    H222363   5.254   1.054   4.570
 7474TIP3   OH222364   6.954   0.306   3.614
 7474TIP3    H122365   6.888   0.350   3.668
 7474TIP3    H222366   7.036   0.319   3.661
 7475TIP3   OH222367   1.717   1.895   5.670
 7475TIP3    H122368   1.723   1.950   5.748
 7475TIP3    H222369   1.801   1.908   5.625
 7476TIP3   OH222370   0.325   6.880   5.094
 7476TIP3    H122371   0.294   6.926   5.172
 7476TIP3    H222372   0.285   6.927   5.021
 7477TIP3   OH222373   6.800   5.686   0.909
 7477TIP3    H122374   6.800   5.594   0.936
 7477TIP3    H222375   6.822   5.735   0.988
 7478TIP3   OH222376   2.192   7.029   3.429
 7478TIP3    H122377   2.112   7.037   3.481
 7478TIP3    H222378   2.178   7.084   3.353
 7479TIP3   OH222379   1.936   5.590   6.069
 7479TIP3    H122380   1.979   5.610   5.986
 7479TIP3    H222381   2.004   5.603   6.135
 7480TIP3   OH222382   5.519   6.563   2.139
 7480TIP3    H122383   5.544   6.623   2.209
 7480TIP3    H222384   5.591   6.500   2.136
 7481TIP3   OH222385   2.412   2.244   1.664
 7481TIP3    H122386   2.317   2.231   1.669
 7481TIP3    H222387   2.444   2.169   1.615
 7482TIP3   OH222388   4.094   1.904   3.492
 7482TIP3    H122389   4.173   1.928   3.445
 7482TIP3    H222390   4.059   1.830   3.442
 7483TIP3   OH222391   6.177   0.732   0.802
 7483TIP3    H122392   6.121   0.806   0.781
 7483TIP3    H222393   6.182   0.682   0.721
 7484TIP3   OH222394   3.829   2.716   5.501
 7484TIP3    H122395   3.752   2.688   5.552
 7484TIP3    H222396   3.816   2.810   5.487
 7485TIP3   OH222397   0.973   3.369   1.466
 7485TIP3    H122398   0.898   3.428   1.467
 7485TIP3    H222399   1.046   3.421   1.499
 7486TIP3   OH222400   3.315   2.778   1.969
 7486TIP3    H122401   3.403   2.790   2.005
 7486TIP3    H222402   3.275   2.711   2.024
 7487TIP3   OH222403   3.930   3.463   5.512
 7487TIP3    H122404   3.945   3.530   5.579
 7487TIP3    H222405   3.841   3.478   5.482
 7488TIP3   OH222406   4.189   0.574   4.128
 7488TIP3    H122407   4.142   0.638   4.075
 7488TIP3    H222408   4.196   0.496   4.072
 7489TIP3   OH222409   4.454   3.284   2.054
 7489TIP3    H122410   4.538   3.237   2.058
 7489TIP3    H222411   4.425   3.287   2.145
 7490TIP3   OH222412   0.828   7.520   4.710
 7490TIP3    H122413   0.786   7.455   4.653
 7490TIP3    H222414   0.780   7.601   4.693
 7491TIP3   OH222415   5.307   0.234   6.623
 7491TIP3    H122416   5.228   0.283   6.644
 7491TIP3    H222417   5.372   0.265   6.687
 7492TIP3   OH222418   3.788   0.476   2.869
 7492TIP3    H122419   3.801   0.402   2.809
 7492TIP3    H222420   3.802   0.554   2.815
 7493TIP3   OH222421   2.725   4.045   2.169
 7493TIP3    H122422   2.808   4.001   2.192
 7493TIP3    H222423   2.687   4.070   2.253
 7494TIP3   OH222424   4.764   2.557   6.200
 7494TIP3    H122425   4.710   2.630   6.170
 7494TIP3    H222426   4.839   2.557   6.140
 7495TIP3   OH222427   3.461   6.147   4.126
 7495TIP3    H122428   3.371   6.130   4.097
 7495TIP3    H222429   3.499   6.060   4.136
 7496TIP3   OH222430   8.007   7.458   3.795
 7496TIP3    H122431   8.006   7.534   3.852
 7496TIP3    H222432   8.045   7.490   3.713
 7497TIP3   OH222433   3.020   3.941   1.595
 7497TIP3    H122434   2.943   3.886   1.582
 7497TIP3    H222435   2.997   4.000   1.667
 7498TIP3   OH222436   0.693   3.923   5.680
 7498TIP3    H122437   0.734   3.886   5.602
 7498TIP3    H222438   0.641   3.996   5.648
 7499TIP3   OH222439   6.749   4.627   5.025
 7499TIP3    H122440   6.734   4.697   4.962
 7499TIP3    H222441   6.720   4.547   4.980
 7500TIP3   OH222442   2.996   3.091   0.352
 7500TIP3    H122443   3.050   3.071   0.276
 7500TIP3    H222444   2.984   3.007   0.396
 7501TIP3   OH222445   0.404   1.783   0.836
 7501TIP3    H122446   0.427   1.764   0.745
 7501TIP3    H222447   0.484   1.819   0.874
 7502TIP3   OH222448   6.883   2.606   4.963
 7502TIP3    H122449   6.826   2.675   4.928
 7502TIP3    H222450   6.903   2.551   4.888
 7503TIP3   OH222451   5.627   2.943   3.515
 7503TIP3    H122452   5.611   2.867   3.459
 7503TIP3    H222453   5.708   2.981   3.481
 7504TIP3   OH222454   2.534   0.852   3.914
 7504TIP3    H122455   2.540   0.896   3.999
 7504TIP3    H222456   2.615   0.800   3.909
 7505TIP3   OH222457   7.799   4.568   3.132
 7505TIP3    H122458   7.863   4.563   3.203
 7505TIP3    H222459   7.797   4.480   3.094
 7506TIP3   OH222460   8.257   0.569   3.084
 7506TIP3    H122461   8.206   0.509   3.138
 7506TIP3    H222462   8.317   0.512   3.035
 7507TIP3   OH222463   7.669   4.091   3.458
 7507TIP3    H122464   7.617   4.169   3.439
 7507TIP3    H222465   7.657   4.035   3.381
 7508TIP3   OH222466   6.767   6.887   4.780
 7508TIP3    H122467   6.757   6.794   4.759
 7508TIP3    H222468   6.820   6.888   4.859
 7509TIP3   OH222469   0.700   3.179   6.104
 7509TIP3    H122470   0.657   3.138   6.180
 7509TIP3    H222471   0.735   3.261   6.138
 7510TIP3   OH222472   2.396   2.552   6.226
 7510TIP3    H122473   2.425   2.615   6.160
 7510TIP3    H222474   2.474   2.502   6.248
 7511TIP3   OH222475   1.527   3.995   0.105
 7511TIP3    H122476   1.463   4.050   0.151
 7511TIP3    H222477   1.495   3.993   0.014
 7512TIP3   OH222478   6.703   1.657   4.860
 7512TIP3    H122479   6.637   1.726   4.862
 7512TIP3    H222480   6.667   1.591   4.801
 7513TIP3   OH222481   6.029   5.619   4.516
 7513TIP3    H122482   6.007   5.647   4.428
 7513TIP3    H222483   6.114   5.576   4.509
 7514TIP3   OH222484   2.441   2.238   6.124
 7514TIP3    H122485   2.531   2.217   6.149
 7514TIP3    H222486   2.391   2.159   6.147
 7515TIP3   OH222487   3.417   4.440   0.173
 7515TIP3    H122488   3.488   4.470   0.117
 7515TIP3    H222489   3.385   4.520   0.215
 7516TIP3   OH222490   8.015   2.262   0.870
 7516TIP3    H122491   7.930   2.286   0.906
 7516TIP3    H222492   8.059   2.346   0.853
 7517TIP3   OH222493   4.801   6.921   0.961
 7517TIP3    H122494   4.804   6.972   0.880
 7517TIP3    H222495   4.867   6.960   1.018
 7518TIP3   OH222496   7.831   4.517   2.812
 7518TIP3    H122497   7.883   4.487   2.886
 7518TIP3    H222498   7.896   4.540   2.745
 7519TIP3   OH222499   5.066   2.653   4.865
 7519TIP3    H122500   5.154   2.676   4.833
 7519TIP3    H222501   5.071   2.667   4.959
 7520TIP3   OH222502   1.291   5.339   2.598
 7520TIP3    H122503   1.317   5.345   2.690
 7520TIP3    H222504   1.291   5.245   2.579
 7521TIP3   OH222505   2.331   1.219   0.498
 7521TIP3    H122506   2.278   1.291   0.465
 7521TIP3    H222507   2.417   1.233   0.459
 7522TIP3   OH222508   3.362   7.298   6.004
 7522TIP3    H122509   3.391   7.271   6.091
 7522TIP3    H222510   3.380   7.223   5.948
 7523TIP3   OH222511   3.571   6.337   3.396
 7523TIP3    H122512   3.508   6.409   3.408
 7523TIP3    H222513   3.544   6.271   3.460
 7524TIP3   OH222514   0.296   6.517   5.899
 7524TIP3    H122515   0.287   6.537   5.805
 7524TIP3    H222516   0.265   6.426   5.906
 7525TIP3   OH222517   5.626   3.836   0.865
 7525TIP3    H122518   5.649   3.885   0.944
 7525TIP3    H222519   5.710   3.802   0.833
 7526TIP3   OH222520   2.071   4.228   2.663
 7526TIP3    H122521   2.136   4.263   2.602
 7526TIP3    H222522   2.103   4.142   2.687
 7527TIP3   OH222523   2.687   5.078   4.761
 7527TIP3    H122524   2.741   5.057   4.685
 7527TIP3    H222525   2.701   5.006   4.821
 7528TIP3   OH222526   1.335   2.275   6.438
 7528TIP3    H122527   1.328   2.365   6.469
 7528TIP3    H222528   1.301   2.222   6.509
 7529TIP3   OH222529   7.061   6.850   3.893
 7529TIP3    H122530   7.126   6.910   3.855
 7529TIP3    H222531   6.982   6.865   3.842
 7530TIP3   OH222532   0.389   0.915   4.476
 7530TIP3    H122533   0.457   0.871   4.526
 7530TIP3    H222534   0.434   0.950   4.399
 7531TIP3   OH222535  -0.015   7.645   5.505
 7531TIP3    H122536   0.009   7.552   5.509
 7531TIP3    H222537   0.023   7.676   5.423
 7532TIP3   OH222538   5.940   5.786   5.712
 7532TIP3    H122539   6.028   5.753   5.692
 7532TIP3    H222540   5.901   5.718   5.766
 7533TIP3   OH222541   3.549   2.655   2.114
 7533TIP3    H122542   3.538   2.628   2.205
 7533TIP3    H222543   3.527   2.576   2.063
 7534TIP3   OH222544   7.122   6.812   4.169
 7534TIP3    H122545   7.093   6.832   4.080
 7534TIP3    H222546   7.149   6.720   4.165
 7535TIP3   OH222547   1.612   5.493   5.375
 7535TIP3    H122548   1.631   5.404   5.404
 7535TIP3    H222549   1.697   5.536   5.370
 7536TIP3   OH222550   6.944   1.612   6.334
 7536TIP3    H122551   6.861   1.606   6.286
 7536TIP3    H222552   7.010   1.590   6.268
 7537TIP3   OH222553   4.427   7.189   3.372
 7537TIP3    H122554   4.509   7.142   3.388
 7537TIP3    H222555   4.452   7.262   3.315
 7538TIP3   OH222556   0.026   7.070   2.760
 7538TIP3    H122557   0.108   7.075   2.810
 7538TIP3    H222558  -0.042   7.056   2.826
 7539TIP3   OH222559   5.034   4.486   4.495
 7539TIP3    H122560   5.028   4.581   4.504
 7539TIP3    H222561   4.970   4.452   4.557
 7540TIP3   OH222562   6.642   1.147   0.850
 7540TIP3    H122563   6.685   1.233   0.849
 7540TIP3    H222564   6.562   1.161   0.799
 7541TIP3   OH222565   1.239   0.346   5.958
 7541TIP3    H122566   1.319   0.396   5.941
 7541TIP3    H222567   1.198   0.391   6.032
 7542TIP3   OH222568   4.013   1.849   2.777
 7542TIP3    H122569   4.034   1.814   2.864
 7542TIP3    H222570   3.918   1.845   2.772
 7543TIP3   OH222571   5.378   4.567   1.746
 7543TIP3    H122572   5.395   4.571   1.652
 7543TIP3    H222573   5.286   4.540   1.753
 7544TIP3   OH222574   0.674   5.268   4.705
 7544TIP3    H122575   0.730   5.199   4.741
 7544TIP3    H222576   0.736   5.336   4.676
 7545TIP3   OH222577   2.828   5.711   2.965
 7545TIP3    H122578   2.887   5.763   3.021
 7545TIP3    H222579   2.879   5.697   2.884
 7546TIP3   OH222580   1.915   1.696   2.296
 7546TIP3    H122581   2.000   1.655   2.283
 7546TIP3    H222582   1.908   1.762   2.226
 7547TIP3   OH222583   2.957   3.478   0.610
 7547TIP3    H122584   3.019   3.548   0.589
 7547TIP3    H222585   2.961   3.470   0.705
 7548TIP3   OH222586   0.919   1.983   1.834
 7548TIP3    H122587   0.929   1.926   1.758
 7548TIP3    H222588   0.944   2.070   1.802
 7549TIP3   OH222589   4.944   2.690   2.114
 7549TIP3    H122590   4.926   2.667   2.205
 7549TIP3    H222591   5.005   2.763   2.119
 7550TIP3   OH222592   6.370   7.466   5.019
 7550TIP3    H122593   6.305   7.426   4.962
 7550TIP3    H222594   6.340   7.446   5.108
 7551TIP3   OH222595   2.177   4.367   2.437
 7551TIP3    H122596   2.146   4.452   2.467
 7551TIP3    H222597   2.174   4.372   2.342
 7552TIP3   OH222598   0.950   3.256   0.513
 7552TIP3    H122599   1.038   3.294   0.514
 7552TIP3    H222600   0.955   3.189   0.445
 7553TIP3   OH222601   8.012   1.504   6.457
 7553TIP3    H122602   8.097   1.521   6.497
 7553TIP3    H222603   7.969   1.442   6.515
 7554TIP3   OH222604   2.897   4.201   3.943
 7554TIP3    H122605   2.974   4.252   3.968
 7554TIP3    H222606   2.823   4.253   3.975
 7555TIP3   OH222607   2.175   5.066   2.068
 7555TIP3    H122608   2.232   5.141   2.052
 7555TIP3    H222609   2.137   5.082   2.154
 7556TIP3   OH222610   1.800   3.548   3.283
 7556TIP3    H122611   1.734   3.617   3.280
 7556TIP3    H222612   1.879   3.589   3.249
 7557TIP3   OH222613   1.763   2.201   6.275
 7557TIP3    H122614   1.725   2.116   6.300
 7557TIP3    H222615   1.854   2.196   6.306
 7558TIP3   OH222616   3.766   6.695   3.642
 7558TIP3    H122617   3.746   6.602   3.630
 7558TIP3    H222618   3.804   6.700   3.730
 7559TIP3   OH222619   4.058   4.913   0.143
 7559TIP3    H122620   4.036   5.004   0.124
 7559TIP3    H222621   4.057   4.907   0.238
 7560TIP3   OH222622   5.018   4.612   3.726
 7560TIP3    H122623   4.996   4.698   3.690
 7560TIP3    H222624   5.020   4.554   3.651
 7561TIP3   OH222625   5.014   5.990   4.064
 7561TIP3    H122626   5.086   6.019   4.008
 7561TIP3    H222627   5.019   5.895   4.063
 7562TIP3   OH222628   5.956   7.617   3.523
 7562TIP3    H122629   6.048   7.639   3.521
 7562TIP3    H222630   5.949   7.552   3.594
 7563TIP3   OH222631   2.824   6.970   4.779
 7563TIP3    H122632   2.865   7.051   4.808
 7563TIP3    H222633   2.889   6.928   4.723
 7564TIP3   OH222634   6.565   7.240   6.311
 7564TIP3    H122635   6.540   7.310   6.251
 7564TIP3    H222636   6.641   7.198   6.270
 7565TIP3   OH222637   7.865   0.702   4.090
 7565TIP3    H122638   7.790   0.663   4.045
 7565TIP3    H222639   7.875   0.788   4.049
 7566TIP3   OH222640   0.244   2.283   2.331
 7566TIP3    H122641   0.329   2.286   2.375
 7566TIP3    H222642   0.206   2.369   2.347
 7567TIP3   OH222643   3.799   7.207   3.098
 7567TIP3    H122644   3.838   7.283   3.054
 7567TIP3    H222645   3.859   7.188   3.171
 7568TIP3   OH222646   7.424   0.318   0.176
 7568TIP3    H122647   7.423   0.241   0.233
 7568TIP3    H222648   7.387   0.388   0.230
 7569TIP3   OH222649   3.316   3.668   2.922
 7569TIP3    H122650   3.311   3.758   2.892
 7569TIP3    H222651   3.304   3.674   3.017
 7570TIP3   OH222652   0.162   6.074   6.393
 7570TIP3    H122653   0.076   6.034   6.410
 7570TIP3    H222654   0.141   6.161   6.358
 7571TIP3   OH222655   3.996   0.884   3.401
 7571TIP3    H122656   3.906   0.858   3.381
 7571TIP3    H222657   4.039   0.887   3.315
 7572TIP3   OH222658   3.814   0.964   5.165
 7572TIP3    H122659   3.800   1.022   5.090
 7572TIP3    H222660   3.769   0.882   5.141
 7573TIP3   OH222661   0.811   6.968   2.156
 7573TIP3    H122662   0.850   7.042   2.111
 7573TIP3    H222663   0.835   6.979   2.248
 7574TIP3   OH222664   1.960   0.649   3.138
 7574TIP3    H122665   1.975   0.695   3.055
 7574TIP3    H222666   1.885   0.694   3.177
 7575TIP3   OH222667   4.748   6.443   5.631
 7575TIP3    H122668   4.714   6.367   5.677
 7575TIP3    H222669   4.691   6.453   5.555
 7576TIP3   OH222670   7.395   2.669   1.290
 7576TIP3    H122671   7.331   2.722   1.337
 7576TIP3    H222672   7.371   2.679   1.198
 7577TIP3   OH222673   0.574   2.645   3.182
 7577TIP3    H122674   0.520   2.609   3.112
 7577TIP3    H222675   0.639   2.699   3.137
 7578TIP3   OH222676   1.984   0.001   0.843
 7578TIP3    H122677   1.913   0.037   0.897
 7578TIP3    H222678   1.954   0.014   0.753
 7579TIP3   OH222679   3.517   2.876   0.341
 7579TIP3    H122680   3.600   2.828   0.349
 7579TIP3    H222681   3.522   2.920   0.257
 7580TIP3   OH222682   3.655   6.268   0.294
 7580TIP3    H122683   3.691   6.213   0.364
 7580TIP3    H222684   3.616   6.342   0.339
 7581TIP3   OH222685   2.844   0.200   2.795
 7581TIP3    H122686   2.869   0.227   2.707
 7581TIP3    H222687   2.867   0.273   2.851
 7582TIP3   OH222688   3.540   2.606   4.761
 7582TIP3    H122689   3.608   2.566   4.815
 7582TIP3    H222690   3.572   2.695   4.745
 7583TIP3   OH222691   3.966   0.585   6.366
 7583TIP3    H122692   3.879   0.589   6.407
 7583TIP3    H222693   3.948   0.588   6.272
 7584TIP3   OH222694   2.971   1.730   2.688
 7584TIP3    H122695   3.019   1.654   2.655
 7584TIP3    H222696   3.011   1.749   2.773
 7585TIP3   OH222697   7.130   1.203   2.987
 7585TIP3    H122698   7.180   1.126   2.960
 7585TIP3    H222699   7.061   1.168   3.044
 7586TIP3   OH222700   7.432   1.090   1.719
 7586TIP3    H122701   7.365   1.101   1.787
 7586TIP3    H222702   7.400   1.019   1.664
 7587TIP3   OH222703   3.885   1.705   0.226
 7587TIP3    H122704   3.979   1.687   0.235
 7587TIP3    H222705   3.856   1.643   0.159
 7588TIP3   OH222706   6.735   6.458   1.933
 7588TIP3    H122707   6.687   6.484   2.012
 7588TIP3    H222708   6.785   6.381   1.959
 7589TIP3   OH222709   0.718   2.821   0.356
 7589TIP3    H122710   0.709   2.832   0.261
 7589TIP3    H222711   0.725   2.726   0.368
 7590TIP3   OH222712   5.504   3.591   5.692
 7590TIP3    H122713   5.582   3.581   5.637
 7590TIP3    H222714   5.538   3.628   5.774
 7591TIP3   OH222715   0.400   3.721   1.732
 7591TIP3    H122716   0.381   3.648   1.673
 7591TIP3    H222717   0.401   3.681   1.819
 7592TIP3   OH222718   6.366   5.834   0.709
 7592TIP3    H122719   6.303   5.899   0.680
 7592TIP3    H222720   6.313   5.758   0.735
 7593TIP3   OH222721   2.786   1.405   3.116
 7593TIP3    H122722   2.878   1.404   3.145
 7593TIP3    H222723   2.780   1.482   3.059
 7594TIP3   OH222724   6.463   2.560   0.189
 7594TIP3    H122725   6.386   2.562   0.131
 7594TIP3    H222726   6.428   2.584   0.275
 7595TIP3   OH222727   1.881   2.344   2.147
 7595TIP3    H122728   1.812   2.376   2.205
 7595TIP3    H222729   1.859   2.382   2.062
 7596TIP3   OH222730   7.496   0.882   2.798
 7596TIP3    H122731   7.528   0.796   2.770
 7596TIP3    H222732   7.532   0.894   2.885
 7597TIP3   OH222733   5.158   3.102   5.588
 7597TIP3    H122734   5.168   3.041   5.515
 7597TIP3    H222735   5.075   3.077   5.629
 7598TIP3   OH222736   7.556   1.105   0.364
 7598TIP3    H122737   7.533   1.197   0.377
 7598TIP3    H222738   7.472   1.060   0.363
 7599TIP3   OH222739   6.548   0.479   1.002
 7599TIP3    H122740   6.508   0.531   0.933
 7599TIP3    H222741   6.480   0.468   1.068
 7600TIP3   OH222742   2.510   0.327   1.061
 7600TIP3    H122743   2.508   0.243   1.107
 7600TIP3    H222744   2.458   0.385   1.117
 7601TIP3   OH222745   1.461   2.465   0.919
 7601TIP3    H122746   1.473   2.550   0.876
 7601TIP3    H222747   1.543   2.419   0.904
 7602TIP3   OH222748   7.976   7.193   1.548
 7602TIP3    H122749   7.983   7.205   1.643
 7602TIP3    H222750   8.064   7.166   1.521
 7603TIP3   OH222751   2.010   7.472   5.652
 7603TIP3    H122752   1.922   7.493   5.685
 7603TIP3    H222753   2.026   7.383   5.683
 7604TIP3   OH222754   5.515   1.866   5.198
 7604TIP3    H122755   5.557   1.937   5.151
 7604TIP3    H222756   5.527   1.789   5.142
 7605TIP3   OH222757   6.737   7.524   6.579
 7605TIP3    H122758   6.751   7.618   6.565
 7605TIP3    H222759   6.642   7.514   6.580
 7606TIP3   OH222760   2.089   4.277   0.692
 7606TIP3    H122761   2.052   4.365   0.692
 7606TIP3    H222762   2.175   4.286   0.731
 7607TIP3   OH222763   5.689   0.508   0.583
 7607TIP3    H122764   5.613   0.534   0.636
 7607TIP3    H222765   5.654   0.498   0.495
 7608TIP3   OH222766   6.600   0.792   0.610
 7608TIP3    H122767   6.572   0.769   0.699
 7608TIP3    H222768   6.682   0.841   0.623
 7609TIP3   OH222769   1.812   4.030   1.639
 7609TIP3    H122770   1.850   3.997   1.721
 7609TIP3    H222771   1.826   4.124   1.642
 7610TIP3   OH222772   3.064   7.170   5.105
 7610TIP3    H122773   3.074   7.261   5.132
 7610TIP3    H222774   3.152   7.132   5.113
 7611TIP3   OH222775   0.732   7.582   3.762
 7611TIP3    H122776   0.745   7.640   3.687
 7611TIP3    H222777   0.800   7.607   3.824
 7612TIP3   OH222778   4.523   4.100   0.675
 7612TIP3    H122779   4.613   4.069   0.687
 7612TIP3    H222780   4.532   4.186   0.636
 7613TIP3   OH222781   6.945   3.258   2.537
 7613TIP3    H122782   6.957   3.353   2.535
 7613TIP3    H222783   6.968   3.229   2.449
 7614TIP3   OH222784   3.325   3.181   0.793
 7614TIP3    H122785   3.365   3.127   0.862
 7614TIP3    H222786   3.396   3.238   0.764
 7615TIP3   OH222787   4.765   6.087   1.408
 7615TIP3    H122788   4.768   6.002   1.364
 7615TIP3    H222789   4.740   6.149   1.339
 7616TIP3   OH222790   1.078   6.279   6.266
 7616TIP3    H122791   1.035   6.194   6.267
 7616TIP3    H222792   1.030   6.331   6.332
 7617TIP3   OH222793   0.323   0.839   2.160
 7617TIP3    H122794   0.293   0.807   2.075
 7617TIP3    H222795   0.381   0.912   2.138
 7618TIP3   OH222796   5.419   7.360   5.185
 7618TIP3    H122797   5.498   7.415   5.182
 7618TIP3    H222798   5.434   7.294   5.118
 7619TIP3   OH222799   5.162   7.640   3.035
 7619TIP3    H122800   5.082   7.673   3.076
 7619TIP3    H222801   5.208   7.594   3.106
 7620TIP3   OH222802   3.816   5.808   0.616
 7620TIP3    H122803   3.855   5.721   0.631
 7620TIP3    H222804   3.880   5.869   0.651
 7621TIP3   OH222805   2.791   7.171   6.540
 7621TIP3    H122806   2.830   7.085   6.555
 7621TIP3    H222807   2.779   7.175   6.445
 7622TIP3   OH222808   3.400   0.925   1.691
 7622TIP3    H122809   3.396   0.936   1.786
 7622TIP3    H222810   3.464   0.855   1.678
 7623TIP3   OH222811   0.640   4.316   5.738
 7623TIP3    H122812   0.607   4.327   5.827
 7623TIP3    H222813   0.618   4.398   5.693
 7624TIP3   OH222814   2.141   1.297   2.440
 7624TIP3    H122815   2.148   1.228   2.374
 7624TIP3    H222816   2.085   1.260   2.508
 7625TIP3   OH222817   4.986   0.161   0.767
 7625TIP3    H122818   5.048   0.137   0.698
 7625TIP3    H222819   5.041   0.182   0.843
 7626TIP3   OH222820   4.350   4.441   3.966
 7626TIP3    H122821   4.380   4.350   3.972
 7626TIP3    H222822   4.279   4.439   3.903
 7627TIP3   OH222823   4.281   3.632   5.628
 7627TIP3    H122824   4.289   3.541   5.659
 7627TIP3    H222825   4.269   3.683   5.708
 7628TIP3   OH222826   5.023   6.167   1.135
 7628TIP3    H122827   5.019   6.250   1.184
 7628TIP3    H222828   4.984   6.188   1.050
 7629TIP3   OH222829   3.338   6.591   0.127
 7629TIP3    H122830   3.322   6.683   0.107
 7629TIP3    H222831   3.392   6.559   0.055
 7630TIP3   OH222832   0.290   3.742   0.751
 7630TIP3    H122833   0.339   3.686   0.691
 7630TIP3    H222834   0.355   3.774   0.813
 7631TIP3   OH222835   4.005   4.714   5.316
 7631TIP3    H122836   3.917   4.707   5.353
 7631TIP3    H222837   3.993   4.699   5.222
 7632TIP3   OH222838   5.215   1.165   5.057
 7632TIP3    H122839   5.308   1.162   5.034
 7632TIP3    H222840   5.191   1.257   5.049
 7633TIP3   OH222841   5.689   7.464   6.510
 7633TIP3    H122842   5.695   7.416   6.427
 7633TIP3    H222843   5.743   7.542   6.496
 7634TIP3   OH222844   6.824   5.897   4.388
 7634TIP3    H122845   6.893   5.831   4.388
 7634TIP3    H222846   6.795   5.902   4.479
 7635TIP3   OH222847   1.460   4.298   0.133
 7635TIP3    H122848   1.417   4.261   0.056
 7635TIP3    H222849   1.419   4.384   0.144
 7636TIP3   OH222850   5.308   7.192   5.968
 7636TIP3    H122851   5.335   7.129   5.901
 7636TIP3    H222852   5.214   7.201   5.954
 7637TIP3   OH222853   2.399   4.599   0.650
 7637TIP3    H122854   2.485   4.637   0.633
 7637TIP3    H222855   2.345   4.674   0.676
 7638TIP3   OH222856   3.182   1.056   4.052
 7638TIP3    H122857   3.146   0.998   3.984
 7638TIP3    H222858   3.121   1.129   4.056
 7639TIP3   OH222859   2.446   2.967   0.256
 7639TIP3    H122860   2.400   2.979   0.339
 7639TIP3    H222861   2.505   2.893   0.272
 7640TIP3   OH222862   3.940   1.210   0.001
 7640TIP3    H122863   4.020   1.159  -0.009
 7640TIP3    H222864   3.901   1.179   0.082
 7641TIP3   OH222865   7.881   5.407   0.609
 7641TIP3    H122866   7.806   5.441   0.559
 7641TIP3    H222867   7.847   5.393   0.697
 7642TIP3   OH222868   4.858   4.748   5.805
 7642TIP3    H122869   4.801   4.774   5.732
 7642TIP3    H222870   4.907   4.827   5.826
 7643TIP3   OH222871   1.820   6.109   5.720
 7643TIP3    H122872   1.842   6.200   5.700
 7643TIP3    H222873   1.869   6.058   5.655
 7644TIP3   OH222874   3.664   2.622   3.739
 7644TIP3    H122875   3.749   2.660   3.765
 7644TIP3    H222876   3.605   2.644   3.811
 7645TIP3   OH222877   1.673   1.298   5.227
 7645TIP3    H122878   1.750   1.241   5.222
 7645TIP3    H222879   1.680   1.340   5.313
 7646TIP3   OH222880   2.755   7.535   3.211
 7646TIP3    H122881   2.701   7.535   3.132
 7646TIP3    H222882   2.692   7.528   3.283
 7647TIP3   OH222883   0.792   3.331   2.137
 7647TIP3    H122884   0.741   3.340   2.217
 7647TIP3    H222885   0.754   3.395   2.076
 7648TIP3   OH222886   7.367   7.575   6.528
 7648TIP3    H122887   7.365   7.597   6.621
 7648TIP3    H222888   7.330   7.486   6.524
 7649TIP3   OH222889   7.702   5.459   3.482
 7649TIP3    H122890   7.751   5.520   3.426
 7649TIP3    H222891   7.614   5.459   3.445
 7650TIP3   OH222892   7.697   7.675   0.609
 7650TIP3    H122893   7.746   7.597   0.586
 7650TIP3    H222894   7.748   7.747   0.572
 7651TIP3   OH222895   1.491   6.062   5.201
 7651TIP3    H122896   1.507   6.128   5.268
 7651TIP3    H222897   1.565   6.001   5.209
 7652TIP3   OH222898   4.673   3.119   4.460
 7652TIP3    H122899   4.670   3.169   4.378
 7652TIP3    H222900   4.584   3.123   4.494
 7653TIP3   OH222901   0.596   3.923   3.524
 7653TIP3    H122902   0.502   3.919   3.503
 7653TIP3    H222903   0.628   3.835   3.507
 7654TIP3   OH222904   0.035   5.454   6.763
 7654TIP3    H122905   0.104   5.518   6.776
 7654TIP3    H222906  -0.028   5.498   6.706
 7655TIP3   OH222907   2.276   1.524   1.658
 7655TIP3    H122908   2.223   1.473   1.596
 7655TIP3    H222909   2.235   1.611   1.657
 7656TIP3   OH222910   6.949   0.639   6.696
 7656TIP3    H122911   6.867   0.665   6.738
 7656TIP3    H222912   7.012   0.708   6.718
 7657TIP3   OH222913   2.268   5.449   2.363
 7657TIP3    H122914   2.213   5.472   2.289
 7657TIP3    H222915   2.248   5.514   2.430
 7658TIP3   OH222916   2.770   3.865   3.534
 7658TIP3    H122917   2.853   3.902   3.507
 7658TIP3    H222918   2.704   3.912   3.482
 7659TIP3   OH222919   7.417   3.125   4.468
 7659TIP3    H122920   7.452   3.045   4.429
 7659TIP3    H222921   7.343   3.148   4.411
 7660TIP3   OH222922   6.139   1.044   2.302
 7660TIP3    H122923   6.075   0.976   2.321
 7660TIP3    H222924   6.207   1.032   2.368
 7661TIP3   OH222925   5.357   0.791   2.967
 7661TIP3    H122926   5.277   0.739   2.975
 7661TIP3    H222927   5.376   0.820   3.057
 7662TIP3   OH222928   1.925   1.716   4.124
 7662TIP3    H122929   1.981   1.786   4.158
 7662TIP3    H222930   1.958   1.700   4.036
 7663TIP3   OH222931   5.480   6.812   4.511
 7663TIP3    H122932   5.530   6.748   4.460
 7663TIP3    H222933   5.479   6.891   4.457
 7664TIP3   OH222934   7.708   5.418   1.946
 7664TIP3    H122935   7.706   5.341   2.003
 7664TIP3    H222936   7.729   5.491   2.004
 7665TIP3   OH222937   1.020   5.201   5.376
 7665TIP3    H122938   0.934   5.167   5.350
 7665TIP3    H222939   1.010   5.296   5.372
 7666TIP3   OH222940   8.232   3.748   1.231
 7666TIP3    H122941   8.271   3.671   1.272
 7666TIP3    H222942   8.265   3.747   1.141
 7667TIP3   OH222943   4.376   3.099   4.522
 7667TIP3    H122944   4.382   3.153   4.443
 7667TIP3    H222945   4.314   3.030   4.500
 7668TIP3   OH222946   7.099   1.797   4.532
 7668TIP3    H122947   7.048   1.726   4.573
 7668TIP3    H222948   7.057   1.877   4.563
 7669TIP3   OH222949   7.478   4.192   1.751
 7669TIP3    H122950   7.443   4.163   1.667
 7669TIP3    H222951   7.523   4.115   1.786
 7670TIP3   OH222952   6.964   3.613   6.182
 7670TIP3    H122953   7.033   3.628   6.117
 7670TIP3    H222954   7.006   3.631   6.266
 7671TIP3   OH222955   4.803   6.219   0.028
 7671TIP3    H122956   4.866   6.282  -0.007
 7671TIP3    H222957   4.841   6.192   0.112
 7672TIP3   OH222958   4.465   6.957   2.537
 7672TIP3    H122959   4.393   6.920   2.588
 7672TIP3    H222960   4.544   6.917   2.575
 7673TIP3   OH222961   0.547   6.833   1.531
 7673TIP3    H122962   0.483   6.823   1.461
 7673TIP3    H222963   0.579   6.744   1.547
 7674TIP3   OH222964   1.020   2.206   6.456
 7674TIP3    H122965   1.083   2.145   6.495
 7674TIP3    H222966   1.052   2.293   6.480
 7675TIP3   OH222967   4.552   1.669   5.007
 7675TIP3    H122968   4.587   1.714   5.084
 7675TIP3    H222969   4.573   1.577   5.021
 7676TIP3   OH222970   5.167   6.257   2.692
 7676TIP3    H122971   5.094   6.219   2.644
 7676TIP3    H222972   5.218   6.303   2.625
 7677TIP3   OH222973   4.265   5.974   0.485
 7677TIP3    H122974   4.340   5.979   0.545
 7677TIP3    H222975   4.249   6.064   0.460
 7678TIP3   OH222976   0.356   2.032   2.981
 7678TIP3    H122977   0.359   2.006   2.889
 7678TIP3    H222978   0.431   2.091   2.991
 7679TIP3   OH222979   4.788   1.071   5.396
 7679TIP3    H122980   4.765   1.033   5.481
 7679TIP3    H222981   4.713   1.052   5.340
 7680TIP3   OH222982   8.210   2.045   2.022
 7680TIP3    H122983   8.153   2.028   1.946
 7680TIP3    H222984   8.286   2.089   1.984
 7681TIP3   OH222985   6.485   1.549   2.521
 7681TIP3    H122986   6.502   1.643   2.520
 7681TIP3    H222987   6.451   1.532   2.609
 7682TIP3   OH222988   1.824   7.016   6.202
 7682TIP3    H122989   1.823   7.048   6.112
 7682TIP3    H222990   1.838   7.093   6.256
 7683TIP3   OH222991   7.823   5.624   2.089
 7683TIP3    H122992   7.911   5.588   2.073
 7683TIP3    H222993   7.834   5.718   2.081
 7684TIP3   OH222994   7.509   3.650   2.159
 7684TIP3    H122995   7.485   3.560   2.184
 7684TIP3    H222996   7.462   3.666   2.078
 7685TIP3   OH222997   5.170   4.508   5.102
 7685TIP3    H122998   5.163   4.579   5.166
 7685TIP3    H222999   5.137   4.547   5.021
 7686TIP3   OH223000   2.514   4.106   1.214
 7686TIP3    H123001   2.592   4.097   1.267
 7686TIP3    H223002   2.504   4.201   1.202
 7687TIP3   OH223003   7.080   1.444   1.353
 7687TIP3    H123004   7.169   1.423   1.324
 7687TIP3    H223005   7.062   1.530   1.315
 7688TIP3   OH223006   1.090   4.344   5.826
 7688TIP3    H123007   1.029   4.388   5.886
 7688TIP3    H223008   1.034   4.289   5.771
 7689TIP3   OH223009   1.858   1.442   6.215
 7689TIP3    H123010   1.762   1.437   6.215
 7689TIP3    H223011   1.887   1.353   6.197
 7690TIP3   OH223012   1.147   1.770   6.429
 7690TIP3    H123013   1.068   1.807   6.390
 7690TIP3    H223014   1.216   1.789   6.365
 7691TIP3   OH223015   7.950   3.079   6.344
 7691TIP3    H123016   7.947   3.087   6.439
 7691TIP3    H223017   7.926   2.988   6.326
 7692TIP3   OH223018   2.618   5.264   3.862
 7692TIP3    H123019   2.707   5.297   3.856
 7692TIP3    H223020   2.623   5.189   3.921
 7693TIP3   OH223021   7.988   3.078   2.339
 7693TIP3    H123022   7.942   3.056   2.258
 7693TIP3    H223023   7.948   3.161   2.367
 7694TIP3   OH223024   2.623   5.130   2.310
 7694TIP3    H123025   2.653   5.208   2.357
 7694TIP3    H223026   2.529   5.127   2.326
 7695TIP3   OH223027   0.601   6.712   2.926
 7695TIP3    H123028   0.560   6.674   2.848
 7695TIP3    H223029   0.541   6.690   2.997
 7696TIP3   OH223030   6.830   1.240   2.758
 7696TIP3    H123031   6.878   1.171   2.803
 7696TIP3    H223032   6.774   1.194   2.695
 7697TIP3   OH223033   0.988   5.981   1.879
 7697TIP3    H123034   0.993   6.012   1.969
 7697TIP3    H223035   1.077   5.952   1.858
 7698TIP3   OH223036   2.241   4.409   3.925
 7698TIP3    H123037   2.274   4.460   3.999
 7698TIP3    H223038   2.161   4.455   3.899
 7699TIP3   OH223039   2.357   4.173   2.472
 7699TIP3    H123040   2.308   4.095   2.444
 7699TIP3    H223041   2.294   4.244   2.463
 7700TIP3   OH223042   7.696   5.237   2.177
 7700TIP3    H123043   7.682   5.167   2.112
 7700TIP3    H223044   7.791   5.244   2.183
 7701TIP3   OH223045   1.841   7.549   5.376
 7701TIP3    H123046   1.751   7.568   5.351
 7701TIP3    H223047   1.848   7.581   5.466
 7702TIP3   OH223048   6.944   0.299   0.919
 7702TIP3    H123049   6.905   0.366   0.864
 7702TIP3    H223050   6.881   0.286   0.990
 7703TIP3   OH223051   7.563   3.478   1.487
 7703TIP3    H123052   7.648   3.482   1.533
 7703TIP3    H223053   7.504   3.439   1.551
 7704TIP3   OH223054   1.907   4.134   2.052
 7704TIP3    H123055   1.834   4.169   2.001
 7704TIP3    H223056   1.924   4.200   2.118
 7705TIP3   OH223057   3.074   5.204   1.353
 7705TIP3    H123058   3.084   5.159   1.437
 7705TIP3    H223059   3.140   5.273   1.355
 7706TIP3   OH223060   3.488   3.550   6.195
 7706TIP3    H123061   3.458   3.493   6.265
 7706TIP3    H223062   3.583   3.545   6.199
 7707TIP3   OH223063   3.496   1.377   0.951
 7707TIP3    H123064   3.546   1.367   1.032
 7707TIP3    H223065   3.429   1.308   0.955
 7708TIP3   OH223066   1.599   7.491   0.910
 7708TIP3    H123067   1.511   7.511   0.879
 7708TIP3    H223068   1.622   7.409   0.866
 7709TIP3   OH223069   2.246   4.334   0.964
 7709TIP3    H123070   2.240   4.241   0.939
 7709TIP3    H223071   2.321   4.367   0.914
 7710TIP3   OH223072   3.614   0.891   4.124
 7710TIP3    H123073   3.688   0.947   4.102
 7710TIP3    H223074   3.635   0.856   4.211
 7711TIP3   OH223075   6.819   0.470   0.308
 7711TIP3    H123076   6.855   0.533   0.371
 7711TIP3    H223077   6.845   0.384   0.342
 7712TIP3   OH223078   4.423   1.523   0.730
 7712TIP3    H123079   4.483   1.594   0.754
 7712TIP3    H223080   4.338   1.549   0.765
 7713TIP3   OH223081   2.457   4.377   0.794
 7713TIP3    H123082   2.435   4.461   0.753
 7713TIP3    H223083   2.535   4.347   0.747
 7714TIP3   OH223084   5.029   0.297   1.570
 7714TIP3    H123085   5.115   0.334   1.550
 7714TIP3    H223086   4.967   0.365   1.544
 7715TIP3   OH223087   1.515   2.577   2.808
 7715TIP3    H123088   1.426   2.608   2.828
 7715TIP3    H223089   1.526   2.500   2.863
 7716TIP3   OH223090   6.117   4.577   0.085
 7716TIP3    H123091   6.043   4.518   0.101
 7716TIP3    H223092   6.165   4.536   0.013
 7717TIP3   OH223093   3.968   5.615   0.743
 7717TIP3    H123094   4.004   5.526   0.736
 7717TIP3    H223095   4.033   5.670   0.699
 7718TIP3   OH223096   5.152   7.536   4.489
 7718TIP3    H123097   5.079   7.574   4.538
 7718TIP3    H223098   5.198   7.611   4.452
 7719TIP3   OH223099   2.390   0.888   3.095
 7719TIP3    H123100   2.481   0.864   3.111
 7719TIP3    H223101   2.340   0.810   3.119
 7720TIP3   OH223102   1.420   2.161   4.171
 7720TIP3    H123103   1.383   2.241   4.208
 7720TIP3    H223104   1.381   2.090   4.222
 7721TIP3   OH223105   1.272   6.823   2.718
 7721TIP3    H123106   1.219   6.800   2.642
 7721TIP3    H223107   1.326   6.746   2.734
 7722TIP3   OH223108   3.507   5.925   6.229
 7722TIP3    H123109   3.424   5.972   6.239
 7722TIP3    H223110   3.514   5.872   6.308
 7723TIP3   OH223111   3.741   3.534   6.469
 7723TIP3    H123112   3.743   3.504   6.378
 7723TIP3    H223113   3.742   3.629   6.464
 7724TIP3   OH223114   1.703   0.266   4.212
 7724TIP3    H123115   1.697   0.358   4.239
 7724TIP3    H223116   1.666   0.265   4.123
 7725TIP3   OH223117   4.760   3.928   4.998
 7725TIP3    H123118   4.806   3.966   5.074
 7725TIP3    H223119   4.818   3.858   4.968
 7726TIP3   OH223120   5.899   3.747   5.968
 7726TIP3    H123121   5.917   3.812   6.036
 7726TIP3    H223122   5.899   3.798   5.886
 7727TIP3   OH223123   4.385   3.148   6.012
 7727TIP3    H123124   4.361   3.111   5.927
 7727TIP3    H223125   4.374   3.076   6.074
 7728TIP3   OH223126   4.561   3.326   0.098
 7728TIP3    H123127   4.566   3.320   0.194
 7728TIP3    H223128   4.504   3.402   0.083
 7729TIP3   OH223129   7.287   1.143   5.386
 7729TIP3    H123130   7.281   1.065   5.442
 7729TIP3    H223131   7.216   1.133   5.323
 7730TIP3   OH223132   4.725   6.654   3.364
 7730TIP3    H123133   4.759   6.619   3.282
 7730TIP3    H223134   4.646   6.603   3.381
 7731TIP3   OH223135   7.075   3.518   4.281
 7731TIP3    H123136   7.161   3.559   4.281
 7731TIP3    H223137   7.026   3.566   4.213
 7732TIP3   OH223138   5.278   2.186   2.729
 7732TIP3    H123139   5.270   2.139   2.646
 7732TIP3    H223140   5.287   2.118   2.795
 7733TIP3   OH223141   2.755   5.866   0.802
 7733TIP3    H123142   2.676   5.826   0.839
 7733TIP3    H223143   2.808   5.791   0.773
 7734TIP3   OH223144   4.142   1.511   4.657
 7734TIP3    H123145   4.055   1.474   4.639
 7734TIP3    H223146   4.127   1.571   4.731
 7735TIP3   OH223147   0.802   2.661   4.522
 7735TIP3    H123148   0.836   2.742   4.560
 7735TIP3    H223149   0.778   2.608   4.598
 7736TIP3   OH223150   3.457   4.542   6.584
 7736TIP3    H123151   3.425   4.457   6.554
 7736TIP3    H223152   3.515   4.571   6.513
 7737TIP3   OH223153   6.774   2.672   2.462
 7737TIP3    H123154   6.767   2.759   2.423
 7737TIP3    H223155   6.830   2.623   2.401
 7738TIP3   OH223156   1.496   4.291   3.547
 7738TIP3    H123157   1.536   4.214   3.507
 7738TIP3    H223158   1.498   4.358   3.479
 7739TIP3   OH223159   5.881   7.684   2.724
 7739TIP3    H123160   5.867   7.761   2.668
 7739TIP3    H223161   5.796   7.641   2.729
 7740TIP3   OH223162   2.989   6.119   0.329
 7740TIP3    H123163   2.993   6.027   0.353
 7740TIP3    H223164   3.064   6.131   0.270
 7741TIP3   OH223165   7.104   6.648   2.088
 7741TIP3    H123166   7.099   6.573   2.147
 7741TIP3    H223167   7.133   6.721   2.143
 7742TIP3   OH223168   1.776   7.698   0.990
 7742TIP3    H123169   1.703   7.637   0.982
 7742TIP3    H223170   1.752   7.772   0.934
 7743TIP3   OH223171   6.716   5.269   6.419
 7743TIP3    H123172   6.760   5.331   6.361
 7743TIP3    H223173   6.640   5.316   6.452
 7744TIP3   OH223174   2.996   6.420   4.522
 7744TIP3    H123175   2.914   6.469   4.511
 7744TIP3    H223176   2.989   6.381   4.609
 7745TIP3   OH223177   2.279   2.184   2.702
 7745TIP3    H123178   2.346   2.214   2.641
 7745TIP3    H223179   2.282   2.088   2.696
 7746TIP3   OH223180   4.605   3.430   3.288
 7746TIP3    H123181   4.686   3.423   3.339
 7746TIP3    H223182   4.619   3.373   3.213
 7747TIP3   OH223183   5.592   1.582   6.048
 7747TIP3    H123184   5.552   1.508   6.093
 7747TIP3    H223185   5.680   1.587   6.085
 7748TIP3   OH223186   4.890   1.825   3.698
 7748TIP3    H123187   4.958   1.766   3.666
 7748TIP3    H223188   4.901   1.825   3.793
 7749TIP3   OH223189   0.325   1.198   0.660
 7749TIP3    H123190   0.255   1.263   0.654
 7749TIP3    H223191   0.281   1.114   0.651
 7750TIP3   OH223192   4.114   3.683   4.898
 7750TIP3    H123193   4.022   3.657   4.892
 7750TIP3    H223194   4.152   3.620   4.959
 7751TIP3   OH223195   1.408   3.123   0.540
 7751TIP3    H123196   1.466   3.113   0.616
 7751TIP3    H223197   1.433   3.050   0.482
 7752TIP3   OH223198   3.195   2.946   0.017
 7752TIP3    H123199   3.277   2.899   0.029
 7752TIP3    H223200   3.216   3.015  -0.046
 7753TIP3   OH223201   8.046   3.730   4.690
 7753TIP3    H123202   7.988   3.797   4.655
 7753TIP3    H223203   8.132   3.772   4.692
 7754TIP3   OH223204   5.759   6.001   4.245
 7754TIP3    H123205   5.819   6.067   4.279
 7754TIP3    H223206   5.705   6.048   4.181
 7755TIP3   OH223207   5.148   0.547   3.265
 7755TIP3    H123208   5.177   0.638   3.259
 7755TIP3    H223209   5.064   0.552   3.310
 7756TIP3   OH223210   5.546   7.511   1.471
 7756TIP3    H123211   5.468   7.487   1.421
 7756TIP3    H223212   5.619   7.478   1.419
 7757TIP3   OH223213   0.545   4.009   5.942
 7757TIP3    H123214   0.622   4.031   5.889
 7757TIP3    H223215   0.559   4.054   6.025
 7758TIP3   OH223216   4.198   4.008   2.983
 7758TIP3    H123217   4.257   4.080   3.003
 7758TIP3    H223218   4.111   4.048   2.978
 7759TIP3   OH223219   2.617   4.652   5.574
 7759TIP3    H123220   2.544   4.591   5.576
 7759TIP3    H223221   2.645   4.658   5.666
 7760TIP3   OH223222   6.049   4.438   1.788
 7760TIP3    H123223   5.995   4.516   1.778
 7760TIP3    H223224   5.993   4.366   1.758
 7761TIP3   OH223225   6.990   0.193   4.101
 7761TIP3    H123226   6.940   0.161   4.026
 7761TIP3    H223227   6.924   0.227   4.161
 7762TIP3   OH223228   0.696   7.177   6.095
 7762TIP3    H123229   0.791   7.184   6.088
 7762TIP3    H223230   0.662   7.257   6.054
 7763TIP3   OH223231   7.449   6.225   2.953
 7763TIP3    H123232   7.381   6.162   2.976
 7763TIP3    H223233   7.450   6.287   3.026
 7764TIP3   OH223234   3.311   2.713   4.819
 7764TIP3    H123235   3.322   2.806   4.798
 7764TIP3    H223236   3.393   2.672   4.793
 7765TIP3   OH223237   1.654   2.132   1.204
 7765TIP3    H123238   1.601   2.057   1.175
 7765TIP3    H223239   1.596   2.180   1.262
 7766TIP3   OH223240   3.964   4.078   5.460
 7766TIP3    H123241   3.885   4.082   5.406
 7766TIP3    H223242   4.032   4.117   5.406
 7767TIP3   OH223243   0.053   4.569   0.938
 7767TIP3    H123244   0.023   4.620   0.863
 7767TIP3    H223245  -0.016   4.503   0.951
 7768TIP3   OH223246   2.376   4.868   1.739
 7768TIP3    H123247   2.444   4.935   1.739
 7768TIP3    H223248   2.410   4.798   1.794
 7769TIP3   OH223249   7.102   0.411   2.014
 7769TIP3    H123250   7.083   0.427   2.107
 7769TIP3    H223251   7.024   0.440   1.968
 7770TIP3   OH223252   7.666   6.234   0.946
 7770TIP3    H123253   7.738   6.251   1.007
 7770TIP3    H223254   7.694   6.275   0.864
 7771TIP3   OH223255   5.340   0.483   3.596
 7771TIP3    H123256   5.295   0.559   3.633
 7771TIP3    H223257   5.383   0.517   3.517
 7772TIP3   OH223258   4.400   5.006   4.886
 7772TIP3    H123259   4.441   5.081   4.930
 7772TIP3    H223260   4.368   4.951   4.957
 7773TIP3   OH223261   5.869   2.881   2.954
 7773TIP3    H123262   5.809   2.879   3.029
 7773TIP3    H223263   5.821   2.835   2.885
 7774TIP3   OH223264   0.124   0.967   5.832
 7774TIP3    H123265   0.041   0.935   5.795
 7774TIP3    H223266   0.178   0.889   5.840
 7775TIP3   OH223267   7.577   6.725   3.321
 7775TIP3    H123268   7.484   6.702   3.316
 7775TIP3    H223269   7.578   6.814   3.354
 7776TIP3   OH223270   0.256   5.610   5.925
 7776TIP3    H123271   0.303   5.661   5.859
 7776TIP3    H223272   0.248   5.669   6.000
 7777TIP3   OH223273   2.093   6.806   1.813
 7777TIP3    H123274   2.153   6.830   1.884
 7777TIP3    H223275   2.095   6.882   1.754
 7778TIP3   OH223276   5.375   0.447   6.314
 7778TIP3    H123277   5.311   0.515   6.336
 7778TIP3    H223278   5.323   0.378   6.272
 7779TIP3   OH223279   8.155   2.006   5.948
 7779TIP3    H123280   8.113   1.922   5.929
 7779TIP3    H223281   8.096   2.072   5.911
 7780TIP3   OH223282   3.748   1.834   6.048
 7780TIP3    H123283   3.740   1.816   6.142
 7780TIP3    H223284   3.715   1.755   6.006
 7781TIP3   OH223285   6.123   7.633   1.614
 7781TIP3    H123286   6.112   7.700   1.548
 7781TIP3    H223287   6.046   7.576   1.604
 7782TIP3   OH223288   5.974   4.273   5.734
 7782TIP3    H123289   5.987   4.350   5.679
 7782TIP3    H223290   6.054   4.268   5.786
 7783TIP3   OH223291   3.153   1.994   3.914
 7783TIP3    H123292   3.075   1.949   3.944
 7783TIP3    H223293   3.213   1.924   3.887
 7784TIP3   OH223294   5.047   4.412   1.254
 7784TIP3    H123295   5.120   4.472   1.234
 7784TIP3    H223296   5.013   4.443   1.338
 7785TIP3   OH223297   0.951   1.195   4.281
 7785TIP3    H123298   0.871   1.168   4.326
 7785TIP3    H223299   0.954   1.141   4.202
 7786TIP3   OH223300   0.843   2.217   2.933
 7786TIP3    H123301   0.883   2.131   2.948
 7786TIP3    H223302   0.909   2.266   2.884
 7787TIP3   OH223303   7.764   0.678   5.968
 7787TIP3    H123304   7.729   0.766   5.953
 7787TIP3    H223305   7.813   0.658   5.888
 7788TIP3   OH223306   4.603   1.578   5.303
 7788TIP3    H123307   4.519   1.543   5.333
 7788TIP3    H223308   4.667   1.511   5.326
 7789TIP3   OH223309   2.943   5.193   3.361
 7789TIP3    H123310   2.975   5.103   3.356
 7789TIP3    H223311   2.955   5.218   3.453
 7790TIP3   OH223312   5.391   4.624   5.553
 7790TIP3    H123313   5.381   4.640   5.459
 7790TIP3    H223314   5.321   4.562   5.574
 7791TIP3   OH223315   2.937   2.117   1.264
 7791TIP3    H123316   2.877   2.190   1.274
 7791TIP3    H223317   2.975   2.128   1.176
 7792TIP3   OH223318   4.659   2.068   6.314
 7792TIP3    H123319   4.696   2.074   6.226
 7792TIP3    H223320   4.711   2.129   6.366
 7793TIP3   OH223321   2.224   5.997   3.955
 7793TIP3    H123322   2.204   5.989   3.862
 7793TIP3    H223323   2.310   6.039   3.958
 7794TIP3   OH223324   2.842   3.141   2.957
 7794TIP3    H123325   2.884   3.061   2.924
 7794TIP3    H223326   2.768   3.155   2.897
 7795TIP3   OH223327   6.368   6.455   6.578
 7795TIP3    H123328   6.293   6.457   6.519
 7795TIP3    H223329   6.426   6.524   6.547
 7796TIP3   OH223330   0.875   2.789   4.026
 7796TIP3    H123331   0.876   2.702   3.986
 7796TIP3    H223332   0.885   2.772   4.120
 7797TIP3   OH223333   5.977   3.397   0.130
 7797TIP3    H123334   5.889   3.406   0.093
 7797TIP3    H223335   6.035   3.426   0.060
 7798TIP3   OH223336   1.956   1.013   0.004
 7798TIP3    H123337   1.955   1.103   0.037
 7798TIP3    H223338   1.865   0.995  -0.020
 7799TIP3   OH223339   4.843   3.640   1.958
 7799TIP3    H123340   4.867   3.551   1.982
 7799TIP3    H223341   4.785   3.669   2.029
 7800TIP3   OH223342   4.047   4.983   6.061
 7800TIP3    H123343   4.016   5.061   6.014
 7800TIP3    H223344   3.980   4.967   6.128
 7801TIP3   OH223345   1.266   7.588   3.624
 7801TIP3    H123346   1.353   7.619   3.598
 7801TIP3    H223347   1.277   7.494   3.634
 7802TIP3   OH223348   0.727   2.055   1.191
 7802TIP3    H123349   0.663   2.125   1.207
 7802TIP3    H223350   0.772   2.044   1.275
 7803TIP3   OH223351   5.029   5.413   5.211
 7803TIP3    H123352   5.067   5.492   5.248
 7803TIP3    H223353   4.981   5.373   5.284
 7804TIP3   OH223354   5.050   5.000   5.059
 7804TIP3    H123355   5.001   5.054   5.121
 7804TIP3    H223356   5.141   5.008   5.087
 7805TIP3   OH223357   5.683   2.273   5.215
 7805TIP3    H123358   5.688   2.343   5.280
 7805TIP3    H223359   5.658   2.317   5.134
 7806TIP3   OH223360   4.512   2.698   2.966
 7806TIP3    H123361   4.499   2.617   2.917
 7806TIP3    H223362   4.485   2.676   3.056
 7807TIP3   OH223363   1.104   2.404   2.172
 7807TIP3    H123364   1.031   2.356   2.211
 7807TIP3    H223365   1.075   2.495   2.170
 7808TIP3   OH223366   7.048   4.734   3.714
 7808TIP3    H123367   7.030   4.800   3.780
 7808TIP3    H223368   7.074   4.656   3.764
 7809TIP3   OH223369   7.234   4.103   1.939
 7809TIP3    H123370   7.329   4.104   1.949
 7809TIP3    H223371   7.214   4.015   1.907
 7810TIP3   OH223372   1.888   6.293   0.935
 7810TIP3    H123373   1.877   6.212   0.986
 7810TIP3    H223374   1.812   6.346   0.958
 7811TIP3   OH223375   6.257   1.984   2.532
 7811TIP3    H123376   6.297   2.072   2.530
 7811TIP3    H223377   6.299   1.941   2.607
 7812TIP3   OH223378   0.194   5.043   1.799
 7812TIP3    H123379   0.153   4.960   1.773
 7812TIP3    H223380   0.274   5.017   1.845
 7813TIP3   OH223381   5.171   4.922   3.740
 7813TIP3    H123382   5.257   4.910   3.699
 7813TIP3    H223383   5.108   4.894   3.673
 7814TIP3   OH223384   2.041   0.035   6.026
 7814TIP3    H123385   2.016   0.025   5.934
 7814TIP3    H223386   1.964   0.075   6.067
 7815TIP3   OH223387   8.035   6.215   1.395
 7815TIP3    H123388   8.043   6.300   1.438
 7815TIP3    H223389   8.105   6.214   1.330
 7816TIP3   OH223390   5.177   7.738   3.394
 7816TIP3    H123391   5.099   7.711   3.346
 7816TIP3    H223392   5.159   7.713   3.485
 7817TIP3   OH223393   2.434   5.828   3.834
 7817TIP3    H123394   2.366   5.832   3.767
 7817TIP3    H223395   2.516   5.818   3.784
 7818TIP3   OH223396   5.421   0.380   3.839
 7818TIP3    H123397   5.337   0.334   3.847
 7818TIP3    H223398   5.403   0.451   3.777
 7819TIP3   OH223399   1.359   7.626   5.227
 7819TIP3    H123400   1.342   7.600   5.136
 7819TIP3    H223401   1.300   7.572   5.279
 7820TIP3   OH223402   2.621   3.625   4.066
 7820TIP3    H123403   2.548   3.647   4.008
 7820TIP3    H223404   2.589   3.645   4.154
 7821TIP3   OH223405   2.093   5.384   6.450
 7821TIP3    H123406   2.166   5.364   6.391
 7821TIP3    H223407   2.135   5.421   6.528
 7822TIP3   OH223408   2.074   4.220   6.122
 7822TIP3    H123409   1.983   4.192   6.122
 7822TIP3    H223410   2.119   4.158   6.065
 7823TIP3   OH223411   5.894   6.258   4.336
 7823TIP3    H123412   5.911   6.331   4.395
 7823TIP3    H223413   5.981   6.229   4.308
 7824TIP3   OH223414   5.641   4.459   5.056
 7824TIP3    H123415   5.650   4.488   4.965
 7824TIP3    H223416   5.561   4.407   5.057
 7825TIP3   OH223417   2.269   5.488   4.394
 7825TIP3    H123418   2.230   5.538   4.323
 7825TIP3    H223419   2.225   5.520   4.473
 7826TIP3   OH223420   1.296   5.887   3.605
 7826TIP3    H123421   1.278   5.796   3.583
 7826TIP3    H223422   1.217   5.917   3.650
 7827TIP3   OH223423   1.500   3.518   3.281
 7827TIP3    H123424   1.518   3.552   3.194
 7827TIP3    H223425   1.520   3.424   3.276
 7828TIP3   OH223426   0.263   4.444   3.470
 7828TIP3    H123427   0.284   4.390   3.546
 7828TIP3    H223428   0.280   4.534   3.499
 7829TIP3   OH223429   3.837   2.828   3.071
 7829TIP3    H123430   3.891   2.749   3.066
 7829TIP3    H223431   3.826   2.855   2.980
 7830TIP3   OH223432   5.862   0.382   4.551
 7830TIP3    H123433   5.824   0.307   4.596
 7830TIP3    H223434   5.818   0.384   4.466
 7831TIP3   OH223435   3.528   2.540   1.227
 7831TIP3    H123436   3.571   2.503   1.150
 7831TIP3    H223437   3.600   2.556   1.289
 7832TIP3   OH223438   3.264   5.396   2.329
 7832TIP3    H123439   3.240   5.449   2.404
 7832TIP3    H223440   3.259   5.455   2.254
 7833TIP3   OH223441   7.606   4.707   5.410
 7833TIP3    H123442   7.562   4.659   5.340
 7833TIP3    H223443   7.559   4.681   5.489
 7834TIP3   OH223444   5.190   2.790   6.514
 7834TIP3    H123445   5.143   2.801   6.596
 7834TIP3    H223446   5.126   2.750   6.455
 7835TIP3   OH223447   6.234   2.158   5.652
 7835TIP3    H123448   6.236   2.228   5.587
 7835TIP3    H223449   6.325   2.129   5.658
 7836TIP3   OH223450   6.756   4.790   3.804
 7836TIP3    H123451   6.792   4.879   3.809
 7836TIP3    H223452   6.730   4.770   3.894
 7837TIP3   OH223453   1.800   1.136   6.208
 7837TIP3    H123454   1.827   1.118   6.298
 7837TIP3    H223455   1.853   1.078   6.154
 7838TIP3   OH223456   2.693   5.594   6.312
 7838TIP3    H123457   2.715   5.649   6.237
 7838TIP3    H223458   2.616   5.636   6.351
 7839TIP3   OH223459   7.834   6.408   3.336
 7839TIP3    H123460   7.908   6.384   3.392
 7839TIP3    H223461   7.832   6.340   3.269
 7840TIP3   OH223462   3.431   7.446   2.203
 7840TIP3    H123463   3.486   7.416   2.275
 7840TIP3    H223464   3.374   7.371   2.183
 7841TIP3   OH223465   3.887   3.065   4.074
 7841TIP3    H123466   3.892   2.970   4.059
 7841TIP3    H223467   3.964   3.099   4.028
 7842TIP3   OH223468   3.009   3.120   5.091
 7842TIP3    H123469   2.929   3.079   5.059
 7842TIP3    H223470   3.079   3.065   5.057
 7843TIP3   OH223471   0.943   1.825   5.636
 7843TIP3    H123472   1.005   1.853   5.704
 7843TIP3    H223473   0.919   1.736   5.661
 7844TIP3   OH223474   1.255   7.788   4.758
 7844TIP3    H123475   1.275   7.714   4.700
 7844TIP3    H223476   1.286   7.865   4.710
 7845TIP3   OH223477   3.761   7.545   0.272
 7845TIP3    H123478   3.689   7.601   0.301
 7845TIP3    H223479   3.730   7.505   0.191
 7846TIP3   OH223480   6.796   0.507   0.835
 7846TIP3    H123481   6.720   0.476   0.885
 7846TIP3    H223482   6.790   0.602   0.840
 7847TIP3   OH223483   4.202   5.423   1.513
 7847TIP3    H123484   4.169   5.399   1.427
 7847TIP3    H223485   4.144   5.495   1.541
 7848TIP3   OH223486   3.717   1.946   1.273
 7848TIP3    H123487   3.730   1.953   1.178
 7848TIP3    H223488   3.687   2.033   1.299
 7849TIP3   OH223489   7.429   1.558   3.233
 7849TIP3    H123490   7.497   1.580   3.169
 7849TIP3    H223491   7.399   1.471   3.207
 7850TIP3   OH223492   3.337   3.837   1.187
 7850TIP3    H123493   3.255   3.808   1.228
 7850TIP3    H223494   3.316   3.923   1.150
 7851TIP3   OH223495   2.925   1.050   5.024
 7851TIP3    H123496   2.874   1.095   5.090
 7851TIP3    H223497   2.952   0.968   5.065
 7852TIP3   OH223498   0.528   5.535   5.259
 7852TIP3    H123499   0.622   5.550   5.259
 7852TIP3    H223500   0.491   5.611   5.215
 7853TIP3   OH223501   0.796   7.439   5.014
 7853TIP3    H123502   0.742   7.367   4.983
 7853TIP3    H223503   0.850   7.464   4.938
 7854TIP3   OH223504   3.294   0.274   4.923
 7854TIP3    H123505   3.358   0.291   4.854
 7854TIP3    H223506   3.327   0.195   4.967
 7855TIP3   OH223507   0.220   5.245   3.047
 7855TIP3    H123508   0.163   5.192   2.991
 7855TIP3    H223509   0.216   5.202   3.133
 7856TIP3   OH223510   1.405   4.797   3.281
 7856TIP3    H123511   1.319   4.771   3.248
 7856TIP3    H223512   1.395   4.799   3.376
 7857TIP3   OH223513   6.568   3.933   3.126
 7857TIP3    H123514   6.540   3.995   3.192
 7857TIP3    H223515   6.552   3.847   3.165
 7858TIP3   OH223516   2.093   5.979   4.209
 7858TIP3    H123517   2.009   6.023   4.197
 7858TIP3    H223518   2.128   5.970   4.120
 7859TIP3   OH223519   4.904   6.545   2.405
 7859TIP3    H123520   4.906   6.458   2.367
 7859TIP3    H223521   4.986   6.551   2.454
 7860TIP3   OH223522   2.836   5.278   6.706
 7860TIP3    H123523   2.871   5.221   6.638
 7860TIP3    H223524   2.804   5.355   6.660
 7861TIP3   OH223525   3.813   4.579   3.919
 7861TIP3    H123526   3.749   4.604   3.985
 7861TIP3    H223527   3.776   4.610   3.836
 7862TIP3   OH223528   7.084   2.691   1.687
 7862TIP3    H123529   7.039   2.678   1.604
 7862TIP3    H223530   7.176   2.697   1.664
 7863TIP3   OH223531   6.860   7.190   4.731
 7863TIP3    H123532   6.941   7.162   4.688
 7863TIP3    H223533   6.812   7.108   4.748
 7864TIP3   OH223534   5.328   5.403   0.994
 7864TIP3    H123535   5.298   5.384   1.082
 7864TIP3    H223536   5.358   5.494   0.997
 7865TIP3   OH223537   6.643   6.267   0.518
 7865TIP3    H123538   6.693   6.228   0.590
 7865TIP3    H223539   6.710   6.295   0.456
 7866TIP3   OH223540   1.043   2.976   5.984
 7866TIP3    H123541   0.981   2.921   6.031
 7866TIP3    H223542   1.104   2.914   5.944
 7867TIP3   OH223543   1.012   1.843   4.714
 7867TIP3    H123544   0.925   1.873   4.688
 7867TIP3    H223545   1.066   1.856   4.636
 7868TIP3   OH223546   2.307   3.941   4.855
 7868TIP3    H123547   2.214   3.942   4.880
 7868TIP3    H223548   2.320   3.856   4.813
 7869TIP3   OH223549   2.822   7.753   2.923
 7869TIP3    H123550   2.834   7.683   2.859
 7869TIP3    H223551   2.728   7.772   2.919
 7870TIP3   OH223552   1.061   6.062   3.469
 7870TIP3    H123553   1.060   6.155   3.492
 7870TIP3    H223554   1.153   6.043   3.450
 7871TIP3   OH223555   7.324   6.021   5.811
 7871TIP3    H123556   7.309   5.951   5.746
 7871TIP3    H223557   7.366   6.091   5.761
 7872TIP3   OH223558   1.730   1.858   4.481
 7872TIP3    H123559   1.824   1.855   4.499
 7872TIP3    H223560   1.689   1.873   4.566
 7873TIP3   OH223561   6.574   0.437   5.979
 7873TIP3    H123562   6.524   0.411   5.902
 7873TIP3    H223563   6.508   0.468   6.041
 7874TIP3   OH223564   4.194   1.864   6.398
 7874TIP3    H123565   4.267   1.919   6.369
 7874TIP3    H223566   4.225   1.825   6.480
 7875TIP3   OH223567   6.040   1.326   0.742
 7875TIP3    H123568   5.974   1.266   0.706
 7875TIP3    H223569   5.989   1.395   0.784
 7876TIP3   OH223570   1.438   2.496   5.911
 7876TIP3    H123571   1.343   2.489   5.924
 7876TIP3    H223572   1.449   2.491   5.816
 7877TIP3   OH223573   4.611   7.136   2.894
 7877TIP3    H123574   4.641   7.225   2.876
 7877TIP3    H223575   4.691   7.084   2.892
 7878TIP3   OH223576   7.027   4.056   5.523
 7878TIP3    H123577   7.119   4.032   5.532
 7878TIP3    H223578   7.022   4.144   5.561
 7879TIP3   OH223579   5.570   2.016   4.579
 7879TIP3    H123580   5.548   2.095   4.629
 7879TIP3    H223581   5.574   1.947   4.645
 7880TIP3   OH223582   3.824   5.978   1.682
 7880TIP3    H123583   3.753   5.937   1.633
 7880TIP3    H223584   3.869   5.906   1.725
 7881TIP3   OH223585   1.170   7.396   0.357
 7881TIP3    H123586   1.220   7.397   0.276
 7881TIP3    H223587   1.121   7.478   0.357
 7882TIP3   OH223588   3.755   6.643   5.428
 7882TIP3    H123589   3.820   6.603   5.486
 7882TIP3    H223590   3.763   6.594   5.346
 7883TIP3   OH223591   0.351   4.100   5.090
 7883TIP3    H123592   0.361   4.061   5.176
 7883TIP3    H223593   0.440   4.120   5.061
 7884TIP3   OH223594   6.083   5.344   5.600
 7884TIP3    H123595   6.121   5.269   5.646
 7884TIP3    H223596   6.134   5.350   5.519
 7885TIP3   OH223597   3.772   1.430   1.421
 7885TIP3    H123598   3.813   1.496   1.365
 7885TIP3    H223599   3.712   1.479   1.477
 7886TIP3   OH223600   3.077   7.700   5.396
 7886TIP3    H123601   3.089   7.685   5.489
 7886TIP3    H223602   3.054   7.793   5.390
 7887TIP3   OH223603   5.546   4.711   1.969
 7887TIP3    H123604   5.482   4.657   1.922
 7887TIP3    H223605   5.560   4.787   1.912
 7888TIP3   OH223606   0.340   5.786   3.460
 7888TIP3    H123607   0.316   5.702   3.501
 7888TIP3    H223608   0.280   5.794   3.386
 7889TIP3   OH223609   6.419   1.439   3.333
 7889TIP3    H123610   6.431   1.377   3.405
 7889TIP3    H223611   6.470   1.516   3.358
 7890TIP3   OH223612   7.531   2.848   4.209
 7890TIP3    H123613   7.530   2.942   4.190
 7890TIP3    H223614   7.617   2.832   4.248
 7891TIP3   OH223615   8.264   1.911   0.468
 7891TIP3    H123616   8.190   1.910   0.529
 7891TIP3    H223617   8.230   1.954   0.390
 7892TIP3   OH223618   1.399   0.351   1.366
 7892TIP3    H123619   1.438   0.270   1.334
 7892TIP3    H223620   1.343   0.324   1.439
 7893TIP3   OH223621   3.375   7.016   4.435
 7893TIP3    H123622   3.410   7.000   4.523
 7893TIP3    H223623   3.287   7.050   4.451
 7894TIP3   OH223624   3.134  -0.007   0.264
 7894TIP3    H123625   3.072   0.056   0.227
 7894TIP3    H223626   3.210   0.045   0.290
 7895TIP3   OH223627   2.193   5.862   2.166
 7895TIP3    H123628   2.238   5.818   2.095
 7895TIP3    H223629   2.113   5.898   2.126
 7896TIP3   OH223630   3.284   5.874   6.695
 7896TIP3    H123631   3.244   5.882   6.608
 7896TIP3    H223632   3.296   5.780   6.707
 7897TIP3   OH223633   0.686   0.416   0.858
 7897TIP3    H123634   0.629   0.340   0.848
 7897TIP3    H223635   0.644   0.469   0.926
 7898TIP3   OH223636   0.722   3.677   3.460
 7898TIP3    H123637   0.814   3.702   3.450
 7898TIP3    H223638   0.724   3.584   3.480
 7899TIP3   OH223639   0.197   0.210   4.887
 7899TIP3    H123640   0.168   0.284   4.941
 7899TIP3    H223641   0.272   0.244   4.838
 7900TIP3   OH223642   4.206   4.083   3.620
 7900TIP3    H123643   4.209   4.131   3.538
 7900TIP3    H223644   4.297   4.057   3.636
 7901TIP3   OH223645   2.740   1.046   5.567
 7901TIP3    H123646   2.669   1.047   5.632
 7901TIP3    H223647   2.722   0.968   5.513
 7902TIP3   OH223648   0.417   1.719   0.564
 7902TIP3    H123649   0.460   1.634   0.550
 7902TIP3    H223650   0.441   1.770   0.487
 7903TIP3   OH223651   6.509   1.998   1.632
 7903TIP3    H123652   6.455   2.026   1.558
 7903TIP3    H223653   6.446   1.963   1.695
 7904TIP3   OH223654   3.706   4.455   1.684
 7904TIP3    H123655   3.656   4.449   1.765
 7904TIP3    H223656   3.705   4.549   1.663
 7905TIP3   OH223657   1.571   0.337   0.879
 7905TIP3    H123658   1.530   0.389   0.948
 7905TIP3    H223659   1.656   0.311   0.916
 7906TIP3   OH223660   2.108   2.360   2.499
 7906TIP3    H123661   2.116   2.267   2.522
 7906TIP3    H223662   2.193   2.383   2.463
 7907TIP3   OH223663   5.835   4.779   1.172
 7907TIP3    H123664   5.818   4.824   1.254
 7907TIP3    H223665   5.930   4.787   1.159
 7908TIP3   OH223666   1.454   7.449   4.888
 7908TIP3    H123667   1.405   7.425   4.966
 7908TIP3    H223668   1.389   7.483   4.828
 7909TIP3   OH223669   4.383   5.092   3.360
 7909TIP3    H123670   4.404   5.103   3.267
 7909TIP3    H223671   4.288   5.102   3.365
 7910TIP3   OH223672   7.745   2.898   6.074
 7910TIP3    H123673   7.728   2.992   6.077
 7910TIP3    H223674   7.694   2.862   6.146
 7911TIP3   OH223675   4.081   3.392   0.243
 7911TIP3    H123676   4.144   3.348   0.301
 7911TIP3    H223677   4.043   3.321   0.191
 7912TIP3   OH223678   4.169   1.889   1.094
 7912TIP3    H123679   4.225   1.897   1.172
 7912TIP3    H223680   4.099   1.953   1.109
 7913TIP3   OH223681   2.852   1.931   3.745
 7913TIP3    H123682   2.774   1.971   3.707
 7913TIP3    H223683   2.880   1.866   3.680
 7914TIP3   OH223684   2.325   1.597   4.901
 7914TIP3    H123685   2.273   1.526   4.863
 7914TIP3    H223686   2.371   1.556   4.974
 7915TIP3   OH223687   5.094   0.298   1.001
 7915TIP3    H123688   5.115   0.262   1.087
 7915TIP3    H223689   5.037   0.372   1.018
 7916TIP3   OH223690   6.850   3.549   2.064
 7916TIP3    H123691   6.812   3.622   2.114
 7916TIP3    H223692   6.821   3.564   1.974
 7917TIP3   OH223693   1.078   5.113   4.146
 7917TIP3    H123694   1.097   5.019   4.141
 7917TIP3    H223695   1.159   5.153   4.178
 7918TIP3   OH223696   4.353   1.792   0.579
 7918TIP3    H123697   4.421   1.859   0.577
 7918TIP3    H223698   4.343   1.770   0.671
 7919TIP3   OH223699   7.140   6.161   0.751
 7919TIP3    H123700   7.110   6.096   0.815
 7919TIP3    H223701   7.197   6.219   0.800
 7920TIP3   OH223702   5.854   4.166   3.693
 7920TIP3    H123703   5.804   4.120   3.761
 7920TIP3    H223704   5.908   4.228   3.742
 7921TIP3   OH223705   0.816   7.733   0.296
 7921TIP3    H123706   0.763   7.688   0.230
 7921TIP3    H223707   0.907   7.710   0.274
 7922TIP3   OH223708   1.725   3.655   5.440
 7922TIP3    H123709   1.678   3.679   5.361
 7922TIP3    H223710   1.691   3.569   5.464
 7923TIP3   OH223711   0.959   0.676   1.344
 7923TIP3    H123712   0.971   0.762   1.305
 7923TIP3    H223713   1.047   0.651   1.373
 7924TIP3   OH223714   4.885   1.603   1.639
 7924TIP3    H123715   4.945   1.649   1.580
 7924TIP3    H223716   4.851   1.670   1.697
 7925TIP3   OH223717   7.427   1.566   5.419
 7925TIP3    H123718   7.339   1.550   5.386
 7925TIP3    H223719   7.465   1.628   5.357
 7926TIP3   OH223720   5.888   4.792   1.950
 7926TIP3    H123721   5.848   4.860   2.005
 7926TIP3    H223722   5.963   4.836   1.909
 7927TIP3   OH223723   3.082   7.007   4.238
 7927TIP3    H123724   3.033   7.055   4.305
 7927TIP3    H223725   3.037   6.923   4.232
 7928TIP3   OH223726   2.533   3.294   5.478
 7928TIP3    H123727   2.602   3.237   5.444
 7928TIP3    H223728   2.560   3.312   5.569
 7929TIP3   OH223729   6.698   2.350   2.316
 7929TIP3    H123730   6.636   2.298   2.264
 7929TIP3    H223731   6.727   2.290   2.385
 7930TIP3   OH223732   6.478   2.030   1.044
 7930TIP3    H123733   6.382   2.028   1.043
 7930TIP3    H223734   6.504   1.956   0.989
 7931TIP3   OH223735   3.254   7.366   5.481
 7931TIP3    H123736   3.261   7.271   5.478
 7931TIP3    H223737   3.211   7.384   5.564
 7932TIP3   OH223738   0.588   4.542   4.799
 7932TIP3    H123739   0.626   4.460   4.830
 7932TIP3    H223740   0.543   4.578   4.875
 7933TIP3   OH223741   3.322   5.614   3.746
 7933TIP3    H123742   3.405   5.584   3.785
 7933TIP3    H223743   3.344   5.633   3.655
 7934TIP3   OH223744   2.010   7.649   1.108
 7934TIP3    H123745   1.954   7.628   1.183
 7934TIP3    H223746   1.951   7.684   1.042
 7935TIP3   OH223747   6.828   6.286   4.262
 7935TIP3    H123748   6.775   6.310   4.186
 7935TIP3    H223749   6.869   6.368   4.290
 7936TIP3   OH223750   2.914   7.174   5.347
 7936TIP3    H123751   2.832   7.184   5.300
 7936TIP3    H223752   2.981   7.196   5.282
 7937TIP3   OH223753   7.813   7.354   1.977
 7937TIP3    H123754   7.860   7.438   1.978
 7937TIP3    H223755   7.728   7.375   1.940
 7938TIP3   OH223756   1.254   0.487   2.542
 7938TIP3    H123757   1.210   0.540   2.609
 7938TIP3    H223758   1.347   0.493   2.565
 7939TIP3   OH223759   3.291   3.961   5.026
 7939TIP3    H123760   3.327   3.877   4.999
 7939TIP3    H223761   3.216   3.975   4.969
 7940TIP3   OH223762   1.241   2.294   1.932
 7940TIP3    H123763   1.205   2.323   2.016
 7940TIP3    H223764   1.231   2.199   1.932
 7941TIP3   OH223765   1.135   6.228   2.616
 7941TIP3    H123766   1.052   6.185   2.593
 7941TIP3    H223767   1.201   6.159   2.606
 7942TIP3   OH223768   6.101   2.411   4.425
 7942TIP3    H123769   6.166   2.469   4.465
 7942TIP3    H223770   6.047   2.469   4.371
 7943TIP3   OH223771   3.781   6.312   1.037
 7943TIP3    H123772   3.811   6.222   1.021
 7943TIP3    H223773   3.719   6.329   0.966
 7944TIP3   OH223774   6.353   2.785   0.298
 7944TIP3    H123775   6.272   2.735   0.312
 7944TIP3    H223776   6.334   2.840   0.222
 7945TIP3   OH223777   3.115   5.661   2.497
 7945TIP3    H123778   3.037   5.670   2.553
 7945TIP3    H223779   3.185   5.701   2.548
 7946TIP3   OH223780   7.441   5.368   1.320
 7946TIP3    H123781   7.491   5.340   1.396
 7946TIP3    H223782   7.359   5.401   1.356
 7947TIP3   OH223783   6.673   5.870   6.144
 7947TIP3    H123784   6.746   5.808   6.155
 7947TIP3    H223785   6.688   5.937   6.211
 7948TIP3   OH223786   1.539   1.351   4.302
 7948TIP3    H123787   1.597   1.324   4.373
 7948TIP3    H223788   1.462   1.386   4.348
 7949TIP3   OH223789   5.959   0.330   5.474
 7949TIP3    H123790   5.947   0.420   5.504
 7949TIP3    H223791   6.053   0.315   5.480
 7950TIP3   OH223792   0.501   2.663   3.674
 7950TIP3    H123793   0.549   2.680   3.593
 7950TIP3    H223794   0.547   2.715   3.740
 7951TIP3   OH223795   0.796   3.755   2.540
 7951TIP3    H123796   0.835   3.668   2.529
 7951TIP3    H223797   0.863   3.805   2.586
 7952TIP3   OH223798   6.780   2.197   4.569
 7952TIP3    H123799   6.741   2.139   4.504
 7952TIP3    H223800   6.801   2.277   4.520
 7953TIP3   OH223801   2.964   6.506   3.515
 7953TIP3    H123802   2.922   6.464   3.440
 7953TIP3    H223803   2.945   6.599   3.505
 7954TIP3   OH223804   4.971   0.695   1.673
 7954TIP3    H123805   4.996   0.704   1.765
 7954TIP3    H223806   4.918   0.615   1.671
 7955TIP3   OH223807   7.613   2.700   4.494
 7955TIP3    H123808   7.644   2.626   4.442
 7955TIP3    H223809   7.638   2.680   4.583
 7956TIP3   OH223810   3.452   4.874   0.311
 7956TIP3    H123811   3.431   4.961   0.277
 7956TIP3    H223812   3.404   4.868   0.393
 7957TIP3   OH223813   3.980   2.285   4.554
 7957TIP3    H123814   3.885   2.288   4.544
 7957TIP3    H223815   3.994   2.230   4.631
 7958TIP3   OH223816   1.048   7.398   4.859
 7958TIP3    H123817   1.098   7.461   4.911
 7958TIP3    H223818   1.040   7.440   4.773
 7959TIP3   OH223819   6.501   1.486   4.098
 7959TIP3    H123820   6.454   1.458   4.019
 7959TIP3    H223821   6.592   1.497   4.069
 7960TIP3   OH223822   6.701   7.164   1.513
 7960TIP3    H123823   6.721   7.072   1.494
 7960TIP3    H223824   6.605   7.168   1.513
 7961TIP3   OH223825   5.369   3.403   2.691
 7961TIP3    H123826   5.401   3.318   2.659
 7961TIP3    H223827   5.305   3.380   2.758
 7962TIP3   OH223828   0.013   7.058   3.482
 7962TIP3    H123829  -0.017   6.991   3.543
 7962TIP3    H223830   0.007   7.140   3.532
 7963TIP3   OH223831   4.807   6.766   4.855
 7963TIP3    H123832   4.842   6.684   4.890
 7963TIP3    H223833   4.883   6.813   4.823
 7964TIP3   OH223834   7.505   6.769   4.940
 7964TIP3    H123835   7.483   6.687   4.897
 7964TIP3    H223836   7.553   6.744   5.019
 7965TIP3   OH223837   7.999   0.003   2.080
 7965TIP3    H123838   7.978   0.080   2.028
 7965TIP3    H223839   8.000  -0.069   2.017
 7966TIP3   OH223840   1.128   3.908   2.340
 7966TIP3    H123841   1.125   3.826   2.390
 7966TIP3    H223842   1.094   3.884   2.253
 7967TIP3   OH223843   5.104   4.050   5.918
 7967TIP3    H123844   5.021   4.078   5.958
 7967TIP3    H223845   5.171   4.097   5.967
 7968TIP3   OH223846   0.747   1.621   3.749
 7968TIP3    H123847   0.793   1.691   3.704
 7968TIP3    H223848   0.780   1.541   3.709
 7969TIP3   OH223849   4.993   7.209   4.383
 7969TIP3    H123850   4.923   7.269   4.408
 7969TIP3    H223851   4.959   7.122   4.403
 7970TIP3   OH223852   6.967   3.699   0.031
 7970TIP3    H123853   6.999   3.626  -0.022
 7970TIP3    H223854   6.881   3.671   0.061
 7971TIP3   OH223855   1.882   2.499   5.561
 7971TIP3    H123856   1.879   2.558   5.636
 7971TIP3    H223857   1.851   2.552   5.487
 7972TIP3   OH223858   6.795   1.617   5.718
 7972TIP3    H123859   6.734   1.683   5.684
 7972TIP3    H223860   6.746   1.535   5.713
 7973TIP3   OH223861   4.261   0.441   1.393
 7973TIP3    H123862   4.213   0.359   1.383
 7973TIP3    H223863   4.199   0.510   1.370
 7974TIP3   OH223864   1.864   2.418   4.083
 7974TIP3    H123865   1.850   2.415   3.988
 7974TIP3    H223866   1.864   2.511   4.104
 7975TIP3   OH223867   5.016   2.693   6.323
 7975TIP3    H123868   4.923   2.673   6.309
 7975TIP3    H223869   5.062   2.641   6.257
 7976TIP3   OH223870   2.714   1.807   0.681
 7976TIP3    H123871   2.798   1.790   0.638
 7976TIP3    H223872   2.648   1.783   0.616
 7977TIP3   OH223873   6.604   5.340   5.368
 7977TIP3    H123874   6.561   5.340   5.283
 7977TIP3    H223875   6.604   5.432   5.396
 7978TIP3   OH223876   2.879   2.396   6.571
 7978TIP3    H123877   2.974   2.385   6.568
 7978TIP3    H223878   2.865   2.490   6.559
 7979TIP3   OH223879   2.372   1.979   6.215
 7979TIP3    H123880   2.460   1.958   6.249
 7979TIP3    H223881   2.316   1.910   6.252
 7980TIP3   OH223882   6.399   3.416   0.488
 7980TIP3    H123883   6.306   3.435   0.472
 7980TIP3    H223884   6.408   3.323   0.466
 7981TIP3   OH223885   7.848   6.608   0.164
 7981TIP3    H123886   7.808   6.533   0.120
 7981TIP3    H223887   7.784   6.634   0.230
 7982TIP3   OH223888   7.650   0.043   2.230
 7982TIP3    H123889   7.559   0.070   2.242
 7982TIP3    H223890   7.670   0.069   2.140
 7983TIP3   OH223891   7.216   7.145   2.569
 7983TIP3    H123892   7.294   7.114   2.522
 7983TIP3    H223893   7.210   7.237   2.546
 7984TIP3   OH223894   2.869   3.414   2.885
 7984TIP3    H123895   2.827   3.464   2.955
 7984TIP3    H223896   2.872   3.324   2.917
 7985TIP3   OH223897   6.203   7.704   1.879
 7985TIP3    H123898   6.168   7.693   1.790
 7985TIP3    H223899   6.132   7.677   1.936
 7986TIP3   OH223900   2.950   5.502   2.328
 7986TIP3    H123901   2.997   5.565   2.382
 7986TIP3    H223902   2.943   5.544   2.243
 7987TIP3   OH223903   6.304   4.619   2.744
 7987TIP3    H123904   6.280   4.576   2.826
 7987TIP3    H223905   6.396   4.641   2.756
 7988TIP3   OH223906   6.266   3.986   3.132
 7988TIP3    H123907   6.246   4.029   3.049
 7988TIP3    H223908   6.328   4.045   3.175
 7989TIP3   OH223909   3.483   7.630   5.210
 7989TIP3    H123910   3.493   7.589   5.296
 7989TIP3    H223911   3.445   7.716   5.229
 7990TIP3   OH223912   8.265   3.026   2.999
 7990TIP3    H123913   8.227   2.963   2.938
 7990TIP3    H223914   8.210   3.104   2.990
 7991TIP3   OH223915   7.114   1.912   1.974
 7991TIP3    H123916   7.107   1.830   2.023
 7991TIP3    H223917   7.106   1.886   1.882
 7992TIP3   OH223918   5.763   4.885   3.455
 7992TIP3    H123919   5.821   4.873   3.530
 7992TIP3    H223920   5.718   4.801   3.445
 7993TIP3   OH223921   2.128   0.667   2.009
 7993TIP3    H123922   2.147   0.574   2.021
 7993TIP3    H223923   2.212   0.711   2.026
 7994TIP3   OH223924   3.222   0.875   4.404
 7994TIP3    H123925   3.194   0.966   4.406
 7994TIP3    H223926   3.276   0.869   4.325
 7995TIP3   OH223927   7.679   1.296   2.021
 7995TIP3    H123928   7.740   1.237   1.976
 7995TIP3    H223929   7.679   1.375   1.967
 7996TIP3   OH223930   3.552   1.117   1.549
 7996TIP3    H123931   3.511   1.180   1.489
 7996TIP3    H223932   3.483   1.055   1.570
 7997TIP3   OH223933   5.131   0.466   1.302
 7997TIP3    H123934   5.165   0.385   1.338
 7997TIP3    H223935   5.179   0.478   1.220
 7998TIP3   OH223936   7.071   1.477   3.132
 7998TIP3    H123937   7.089   1.388   3.103
 7998TIP3    H223938   6.991   1.501   3.086
 7999TIP3   OH223939   2.038   5.017   1.318
 7999TIP3    H123940   1.984   4.941   1.298
 7999TIP3    H223941   2.121   4.980   1.348
 8000TIP3   OH223942   7.664   0.713   3.763
 8000TIP3    H123943   7.641   0.624   3.791
 8000TIP3    H223944   7.590   0.767   3.792
 8001TIP3   OH223945   7.481   0.225   2.876
 8001TIP3    H123946   7.541   0.299   2.876
 8001TIP3    H223947   7.412   0.250   2.814
 8002TIP3   OH223948   4.642   6.826   6.728
 8002TIP3    H123949   4.547   6.838   6.715
 8002TIP3    H223950   4.669   6.904   6.776
 8003TIP3   OH223951   0.684   2.655   0.097
 8003TIP3    H123952   0.756   2.614   0.050
 8003TIP3    H223953   0.695   2.626   0.188
 8004TIP3   OH223954   5.564   4.115   2.476
 8004TIP3    H123955   5.499   4.045   2.477
 8004TIP3    H223956   5.513   4.195   2.463
 8005TIP3   OH223957   5.698   5.437   4.243
 8005TIP3    H123958   5.715   5.521   4.285
 8005TIP3    H223959   5.656   5.460   4.160
 8006TIP3   OH223960   6.021   7.688   2.078
 8006TIP3    H123961   6.065   7.619   2.128
 8006TIP3    H223962   5.946   7.645   2.038
 8007TIP3   OH223963   7.384   0.855   5.187
 8007TIP3    H123964   7.449   0.805   5.137
 8007TIP3    H223965   7.327   0.894   5.120
 8008TIP3   OH223966   6.101   6.575   5.424
 8008TIP3    H123967   6.155   6.645   5.386
 8008TIP3    H223968   6.046   6.620   5.487
 8009TIP3   OH223969   3.003   1.534   6.203
 8009TIP3    H123970   2.991   1.456   6.256
 8009TIP3    H223971   2.925   1.537   6.147
 8010TIP3   OH223972   0.189   1.105   4.298
 8010TIP3    H123973   0.096   1.081   4.308
 8010TIP3    H223974   0.199   1.126   4.206
 8011TIP3   OH223975   4.266   3.989   2.121
 8011TIP3    H123976   4.359   4.009   2.123
 8011TIP3    H223977   4.249   3.962   2.030
 8012TIP3   OH223978   3.161   0.165   1.631
 8012TIP3    H123979   3.147   0.255   1.600
 8012TIP3    H223980   3.087   0.116   1.595
 8013TIP3   OH223981   2.671   1.776   5.522
 8013TIP3    H123982   2.642   1.842   5.460
 8013TIP3    H223983   2.687   1.698   5.469
 8014TIP3   OH223984   2.051   1.787   5.883
 8014TIP3    H123985   1.987   1.848   5.919
 8014TIP3    H223986   2.071   1.727   5.954
 8015TIP3   OH223987   5.857   1.275   3.377
 8015TIP3    H123988   5.820   1.314   3.456
 8015TIP3    H223989   5.795   1.206   3.353
 8016TIP3   OH223990   8.038   0.047   2.679
 8016TIP3    H123991   8.106   0.089   2.627
 8016TIP3    H223992   8.024  -0.038   2.637
 8017TIP3   OH223993   5.351   7.544   1.098
 8017TIP3    H123994   5.412   7.472   1.086
 8017TIP3    H223995   5.311   7.528   1.183
 8018TIP3   OH223996   5.137   0.622   6.050
 8018TIP3    H123997   5.116   0.529   6.039
 8018TIP3    H223998   5.224   0.631   6.012
 8019TIP3   OH223999   2.644   7.672   4.821
 8019TIP3    H124000   2.668   7.750   4.871
 8019TIP3    H224001   2.633   7.703   4.731
 8020TIP3   OH224002   6.906   6.576   3.148
 8020TIP3    H124003   6.988   6.535   3.122
 8020TIP3    H224004   6.931   6.663   3.179
 8021TIP3   OH224005   2.317   6.275   1.519
 8021TIP3    H124006   2.319   6.185   1.485
 8021TIP3    H224007   2.251   6.319   1.465
 8022TIP3   OH224008   0.628   1.355   1.548
 8022TIP3    H124009   0.623   1.373   1.642
 8022TIP3    H224010   0.671   1.432   1.510
 8023TIP3   OH224011   2.341   7.279   2.861
 8023TIP3    H124012   2.275   7.294   2.794
 8023TIP3    H224013   2.299   7.221   2.924
 8024TIP3   OH224014   0.374   4.483   6.211
 8024TIP3    H124015   0.352   4.446   6.126
 8024TIP3    H224016   0.447   4.430   6.243
 8025TIP3   OH224017   3.407   3.927   5.864
 8025TIP3    H124018   3.456   3.996   5.910
 8025TIP3    H224019   3.433   3.846   5.909
 8026TIP3   OH224020   2.298   0.633   2.357
 8026TIP3    H124021   2.266   0.721   2.377
 8026TIP3    H224022   2.316   0.635   2.263
 8027TIP3   OH224023   1.558   3.952   5.293
 8027TIP3    H124024   1.634   4.008   5.278
 8027TIP3    H224025   1.515   3.989   5.369
 8028TIP3   OH224026   4.391   2.797   4.931
 8028TIP3    H124027   4.410   2.789   4.837
 8028TIP3    H224028   4.427   2.718   4.970
 8029TIP3   OH224029   3.095   3.350   5.176
 8029TIP3    H124030   3.053   3.273   5.140
 8029TIP3    H224031   3.048   3.367   5.258
 8030TIP3   OH224032   0.773   0.125   3.685
 8030TIP3    H124033   0.789   0.167   3.770
 8030TIP3    H224034   0.743   0.196   3.628
 8031TIP3   OH224035   2.544   2.743   2.927
 8031TIP3    H124036   2.483   2.770   2.996
 8031TIP3    H224037   2.630   2.752   2.967
 8032TIP3   OH224038   0.188   7.388   4.199
 8032TIP3    H124039   0.175   7.482   4.191
 8032TIP3    H224040   0.275   7.378   4.237
 8033TIP3   OH224041   3.408   3.417   6.431
 8033TIP3    H124042   3.384   3.344   6.489
 8033TIP3    H224043   3.450   3.480   6.489
 8034TIP3   OH224044   5.707   0.980   4.576
 8034TIP3    H124045   5.643   0.919   4.613
 8034TIP3    H224046   5.739   0.937   4.497
 8035TIP3   OH224047   6.251   1.450   0.596
 8035TIP3    H124048   6.178   1.402   0.635
 8035TIP3    H224049   6.289   1.388   0.534
 8036TIP3   OH224050   6.054   7.097   6.637
 8036TIP3    H124051   5.999   7.175   6.633
 8036TIP3    H224052   6.067   7.072   6.545
 8037TIP3   OH224053   5.459   4.595   1.479
 8037TIP3    H124054   5.388   4.628   1.424
 8037TIP3    H224055   5.537   4.602   1.423
 8038TIP3   OH224056   2.799   6.598   4.522
 8038TIP3    H124057   2.704   6.596   4.538
 8038TIP3    H224058   2.835   6.642   4.598
 8039TIP3   OH224059   4.357   7.141   1.770
 8039TIP3    H124060   4.388   7.085   1.841
 8039TIP3    H224061   4.285   7.092   1.730
 8040TIP3   OH224062   5.174   3.540   3.687
 8040TIP3    H124063   5.099   3.569   3.635
 8040TIP3    H224064   5.224   3.620   3.702
 8041TIP3   OH224065   7.182   6.995   2.803
 8041TIP3    H124066   7.186   6.906   2.767
 8041TIP3    H224067   7.172   7.051   2.726
 8042TIP3   OH224068   6.458   2.601   3.290
 8042TIP3    H124069   6.528   2.574   3.350
 8042TIP3    H224070   6.436   2.521   3.241
 8043TIP3   OH224071   2.121   4.974   5.218
 8043TIP3    H124072   2.052   4.998   5.156
 8043TIP3    H224073   2.174   5.053   5.227
 8044TIP3   OH224074   1.564   5.876   3.611
 8044TIP3    H124075   1.551   5.814   3.539
 8044TIP3    H224076   1.477   5.916   3.623
 8045TIP3   OH224077   2.597   4.029   3.373
 8045TIP3    H124078   2.641   4.090   3.432
 8045TIP3    H224079   2.647   4.036   3.291
 8046TIP3   OH224080   2.624   3.103   6.602
 8046TIP3    H124081   2.604   3.022   6.555
 8046TIP3    H224082   2.567   3.169   6.564
 8047TIP3   OH224083   5.277   6.093   5.894
 8047TIP3    H124084   5.345   6.155   5.869
 8047TIP3    H224085   5.213   6.098   5.823
 8048TIP3   OH224086   7.079   2.613   3.708
 8048TIP3    H124087   7.133   2.556   3.653
 8048TIP3    H224088   7.018   2.553   3.751
 8049TIP3   OH224089   3.021   3.002   6.683
 8049TIP3    H124090   3.030   3.030   6.592
 8049TIP3    H224091   2.942   3.046   6.714
 8050TIP3   OH224092   7.960   4.750   5.814
 8050TIP3    H124093   7.883   4.785   5.858
 8050TIP3    H224094   8.016   4.718   5.885
 8051TIP3   OH224095   4.411   1.792   5.655
 8051TIP3    H124096   4.442   1.854   5.720
 8051TIP3    H224097   4.324   1.824   5.630
 8052TIP3   OH224098   3.395   4.102   5.225
 8052TIP3    H124099   3.416   4.037   5.292
 8052TIP3    H224100   3.353   4.053   5.155
 8053TIP3   OH224101   4.984   5.335   6.150
 8053TIP3    H124102   4.929   5.354   6.226
 8053TIP3    H224103   4.965   5.405   6.088
 8054TIP3   OH224104   7.745   0.157   6.669
 8054TIP3    H124105   7.750   0.117   6.582
 8054TIP3    H224106   7.794   0.097   6.726
 8055TIP3   OH224107   1.358   7.283   5.163
 8055TIP3    H124108   1.349   7.194   5.128
 8055TIP3    H224109   1.442   7.283   5.208
 8056TIP3   OH224110   3.515   6.864   4.911
 8056TIP3    H124111   3.595   6.832   4.953
 8056TIP3    H224112   3.509   6.956   4.938
 8057TIP3   OH224113   0.968   3.876   4.386
 8057TIP3    H124114   1.001   3.952   4.339
 8057TIP3    H224115   1.047   3.831   4.417
 8058TIP3   OH224116   5.074   1.015   5.390
 8058TIP3    H124117   4.982   1.040   5.397
 8058TIP3    H224118   5.075   0.922   5.412
 8059TIP3   OH224119   3.673   3.510   3.535
 8059TIP3    H124120   3.724   3.430   3.550
 8059TIP3    H224121   3.727   3.561   3.476
 8060TIP3   OH224122   7.921   3.734   1.761
 8060TIP3    H124123   7.941   3.823   1.790
 8060TIP3    H224124   7.871   3.746   1.681
 8061TIP3   OH224125   6.384   0.458   6.185
 8061TIP3    H124126   6.307   0.415   6.223
 8061TIP3    H224127   6.427   0.499   6.260
 8062TIP3   OH224128   6.138   4.737   5.939
 8062TIP3    H124129   6.091   4.777   5.866
 8062TIP3    H224130   6.087   4.761   6.017
 8063TIP3   OH224131   1.507   0.592   3.347
 8063TIP3    H124132   1.453   0.670   3.343
 8063TIP3    H224133   1.592   0.624   3.378
 8064TIP3   OH224134   7.347   5.075   5.210
 8064TIP3    H124135   7.267   5.050   5.163
 8064TIP3    H224136   7.333   5.046   5.300
 8065TIP3   OH224137   5.771   3.151   4.134
 8065TIP3    H124138   5.824   3.071   4.136
 8065TIP3    H224139   5.703   3.136   4.199
 8066TIP3   OH224140   5.721   5.145   5.410
 8066TIP3    H124141   5.745   5.180   5.325
 8066TIP3    H224142   5.761   5.205   5.473
 8067TIP3   OH224143   6.385   1.695   0.704
 8067TIP3    H124144   6.419   1.659   0.786
 8067TIP3    H224145   6.343   1.620   0.660
 8068TIP3   OH224146   8.286   5.105   5.708
 8068TIP3    H124147   8.313   5.184   5.661
 8068TIP3    H224148   8.194   5.094   5.684
 8069TIP3   OH224149   6.818   7.133   6.493
 8069TIP3    H124150   6.803   7.214   6.444
 8069TIP3    H224151   6.883   7.157   6.560
 8070TIP3   OH224152   1.334   1.997   5.557
 8070TIP3    H124153   1.286   1.914   5.554
 8070TIP3    H224154   1.378   1.996   5.642
 8071TIP3   OH224155   3.649   6.402   2.763
 8071TIP3    H124156   3.590   6.469   2.728
 8071TIP3    H224157   3.667   6.345   2.688
 8072TIP3   OH224158   6.970   3.960   2.520
 8072TIP3    H124159   6.991   3.872   2.491
 8072TIP3    H224160   7.054   3.997   2.548
 8073TIP3   OH224161   7.128   7.520   3.596
 8073TIP3    H124162   7.053   7.482   3.642
 8073TIP3    H224163   7.201   7.511   3.658
 8074TIP3   OH224164   0.507   6.177   2.724
 8074TIP3    H124165   0.449   6.238   2.680
 8074TIP3    H224166   0.595   6.211   2.707
 8075TIP3   OH224167   6.824   3.109   0.272
 8075TIP3    H124168   6.791   3.068   0.352
 8075TIP3    H224169   6.843   3.035   0.214
 8076TIP3   OH224170   3.852   2.968   3.633
 8076TIP3    H124171   3.907   2.934   3.563
 8076TIP3    H224172   3.885   2.926   3.712
 8077TIP3   OH224173   2.910   5.304   5.351
 8077TIP3    H124174   2.820   5.332   5.372
 8077TIP3    H224175   2.961   5.385   5.357
 8078TIP3   OH224176   7.059   7.198   6.638
 8078TIP3    H124177   7.071   7.113   6.679
 8078TIP3    H224178   7.092   7.261   6.702
 8079TIP3   OH224179   2.916   0.433   1.388
 8079TIP3    H124180   2.853   0.394   1.448
 8079TIP3    H224181   2.913   0.527   1.407
 8080TIP3   OH224182   3.259   6.920   1.489
 8080TIP3    H124183   3.322   6.851   1.463
 8080TIP3    H224184   3.229   6.892   1.575
 8081TIP3   OH224185   7.680   4.417   6.343
 8081TIP3    H124186   7.609   4.370   6.298
 8081TIP3    H224187   7.760   4.383   6.302
 8082TIP3   OH224188   7.272   4.785   3.531
 8082TIP3    H124189   7.312   4.803   3.616
 8082TIP3    H224190   7.179   4.772   3.551
 8083TIP3   OH224191  -0.007   3.335   6.219
 8083TIP3    H124192  -0.026   3.356   6.310
 8083TIP3    H224193   0.074   3.283   6.223
 8084TIP3   OH224194   5.296   0.383   0.508
 8084TIP3    H124195   5.284   0.452   0.443
 8084TIP3    H224196   5.231   0.402   0.575
 8085TIP3   OH224197   3.454   0.366   5.507
 8085TIP3    H124198   3.508   0.333   5.435
 8085TIP3    H224199   3.421   0.287   5.550
 8086TIP3   OH224200   3.342   4.812   6.321
 8086TIP3    H124201   3.415   4.752   6.337
 8086TIP3    H224202   3.323   4.803   6.228
 8087TIP3   OH224203   2.659   4.706   6.093
 8087TIP3    H124204   2.618   4.662   6.168
 8087TIP3    H224205   2.649   4.644   6.021
 8088TIP3   OH224206   3.229   6.206   1.006
 8088TIP3    H124207   3.322   6.191   1.023
 8088TIP3    H224208   3.228   6.270   0.935
 8089TIP3   OH224209   2.964   3.324   5.664
 8089TIP3    H124210   3.033   3.354   5.724
 8089TIP3    H224211   2.966   3.229   5.672
 8090TIP3   OH224212   2.968   6.565   5.093
 8090TIP3    H124213   2.935   6.646   5.052
 8090TIP3    H224214   2.916   6.496   5.053
 8091TIP3   OH224215   1.436   5.280   6.508
 8091TIP3    H124216   1.454   5.188   6.528
 8091TIP3    H224217   1.521   5.316   6.486
 8092TIP3   OH224218   3.477   4.002   1.582
 8092TIP3    H124219   3.419   3.973   1.651
 8092TIP3    H224220   3.554   4.037   1.628
 8093TIP3   OH224221   0.248   4.369   5.059
 8093TIP3    H124222   0.265   4.276   5.046
 8093TIP3    H224223   0.167   4.386   5.011
 8094TIP3   OH224224   6.549   2.943   5.659
 8094TIP3    H124225   6.564   2.849   5.649
 8094TIP3    H224226   6.594   2.965   5.741
 8095TIP3   OH224227   7.255   3.489   5.102
 8095TIP3    H124228   7.342   3.475   5.140
 8095TIP3    H224229   7.198   3.428   5.148
 8096TIP3   OH224230   4.683   0.438   0.269
 8096TIP3    H124231   4.714   0.512   0.321
 8096TIP3    H224232   4.763   0.388   0.250
 8097TIP3   OH224233   2.250   2.882   4.315
 8097TIP3    H124234   2.244   2.937   4.392
 8097TIP3    H224235   2.228   2.940   4.242
 8098TIP3   OH224236   2.405   0.385   5.491
 8098TIP3    H124237   2.320   0.425   5.474
 8098TIP3    H224238   2.446   0.441   5.557
 8099TIP3   OH224239   5.732   4.977   5.009
 8099TIP3    H124240   5.665   5.045   5.014
 8099TIP3    H224241   5.792   5.007   4.940
 8100TIP3   OH224242   2.585   2.291   4.759
 8100TIP3    H124243   2.551   2.204   4.740
 8100TIP3    H224244   2.645   2.278   4.833
 8101TIP3   OH224245   6.308   1.329   0.312
 8101TIP3    H124246   6.366   1.390   0.266
 8101TIP3    H224247   6.367   1.276   0.366
 8102TIP3   OH224248   3.051   1.352   3.259
 8102TIP3    H124249   3.125   1.298   3.286
 8102TIP3    H224250   3.053   1.427   3.318
 8103TIP3   OH224251   5.655   5.313   2.393
 8103TIP3    H124252   5.605   5.274   2.321
 8103TIP3    H224253   5.651   5.249   2.463
 8104TIP3   OH224254   6.419   4.424   6.688
 8104TIP3    H124255   6.363   4.346   6.690
 8104TIP3    H224256   6.480   4.407   6.616
 8105TIP3   OH224257   3.554   6.320   3.013
 8105TIP3    H124258   3.607   6.328   2.934
 8105TIP3    H224259   3.595   6.250   3.063
 8106TIP3   OH224260   6.705   6.608   3.872
 8106TIP3    H124261   6.716   6.571   3.784
 8106TIP3    H224262   6.616   6.644   3.871
 8107TIP3   OH224263   4.825   6.580   1.700
 8107TIP3    H124264   4.739   6.583   1.742
 8107TIP3    H224265   4.834   6.489   1.670
 8108TIP3   OH224266   5.035   4.543   1.502
 8108TIP3    H124267   5.019   4.524   1.595
 8108TIP3    H224268   5.038   4.638   1.497
 8109TIP3   OH224269   3.599   2.726   4.132
 8109TIP3    H124270   3.547   2.744   4.054
 8109TIP3    H224271   3.562   2.645   4.167
 8110TIP3   OH224272   0.486   7.592   2.471
 8110TIP3    H124273   0.498   7.683   2.446
 8110TIP3    H224274   0.535   7.583   2.553
 8111TIP3   OH224275   6.379   3.430   1.201
 8111TIP3    H124276   6.335   3.414   1.118
 8111TIP3    H224277   6.472   3.431   1.179
 8112TIP3   OH224278   7.524   3.659   4.451
 8112TIP3    H124279   7.564   3.585   4.405
 8112TIP3    H224280   7.572   3.664   4.534
 8113TIP3   OH224281   8.104   1.379   2.513
 8113TIP3    H124282   8.151   1.306   2.473
 8113TIP3    H224283   8.138   1.385   2.602
 8114TIP3   OH224284   6.143   5.806   4.911
 8114TIP3    H124285   6.184   5.854   4.983
 8114TIP3    H224286   6.145   5.868   4.838
 8115TIP3   OH224287   0.639   3.439   2.874
 8115TIP3    H124288   0.573   3.380   2.837
 8115TIP3    H224289   0.591   3.521   2.888
 8116TIP3   OH224290   5.677   6.662   5.134
 8116TIP3    H124291   5.760   6.699   5.165
 8116TIP3    H224292   5.668   6.695   5.045
 8117TIP3   OH224293   6.654   6.367   0.205
 8117TIP3    H124294   6.659   6.408   0.119
 8117TIP3    H224295   6.620   6.280   0.188
 8118TIP3   OH224296   3.416   6.930   3.367
 8118TIP3    H124297   3.392   6.916   3.275
 8118TIP3    H224298   3.337   6.965   3.407
 8119TIP3   OH224299   2.914   1.929   5.586
 8119TIP3    H124300   2.838   1.872   5.594
 8119TIP3    H224301   2.985   1.879   5.628
 8120TIP3   OH224302   2.228   5.580   6.643
 8120TIP3    H124303   2.236   5.590   6.738
 8120TIP3    H224304   2.153   5.635   6.620
 8121TIP3   OH224305   7.955   0.392   5.497
 8121TIP3    H124306   7.872   0.437   5.480
 8121TIP3    H224307   8.020   0.440   5.446
 8122TIP3   OH224308   3.039   2.293   1.047
 8122TIP3    H124309   3.096   2.274   0.972
 8122TIP3    H224310   2.951   2.283   1.013
 8123TIP3   OH224311   0.620   6.464   5.873
 8123TIP3    H124312   0.618   6.376   5.911
 8123TIP3    H224313   0.558   6.460   5.800
 8124TIP3   OH224314   4.571   7.046   4.623
 8124TIP3    H124315   4.487   7.057   4.579
 8124TIP3    H224316   4.589   7.131   4.662
 8125TIP3   OH224317   5.833   4.250   6.510
 8125TIP3    H124318   5.914   4.235   6.461
 8125TIP3    H224319   5.859   4.309   6.581
 8126TIP3   OH224320   7.125   3.847   1.828
 8126TIP3    H124321   7.034   3.868   1.846
 8126TIP3    H224322   7.121   3.785   1.754
 8127TIP3   OH224323   3.566   1.324   0.610
 8127TIP3    H124324   3.652   1.308   0.649
 8127TIP3    H224325   3.586   1.350   0.520
 8128TIP3   OH224326   0.142   1.523   6.258
 8128TIP3    H124327   0.120   1.503   6.167
 8128TIP3    H224328   0.119   1.615   6.269
 8129TIP3   OH224329   3.100   0.464   4.876
 8129TIP3    H124330   3.099   0.472   4.972
 8129TIP3    H224331   3.186   0.426   4.857
 8130TIP3   OH224332   2.333   2.962   0.522
 8130TIP3    H124333   2.358   2.948   0.613
 8130TIP3    H224334   2.252   2.913   0.511
 8131TIP3   OH224335   3.444   7.078   0.071
 8131TIP3    H124336   3.394   7.038   0.000
 8131TIP3    H224337   3.385   7.143   0.109
 8132TIP3   OH224338   3.439   3.194   0.333
 8132TIP3    H124339   3.439   3.219   0.241
 8132TIP3    H224340   3.366   3.132   0.341
 8133TIP3   OH224341   2.144   5.665   5.168
 8133TIP3    H124342   2.179   5.614   5.095
 8133TIP3    H224343   2.179   5.753   5.155
 8134TIP3   OH224344   4.674   5.907   1.902
 8134TIP3    H124345   4.712   5.961   1.833
 8134TIP3    H224346   4.604   5.961   1.939
 8135TIP3   OH224347   8.255   0.850   2.558
 8135TIP3    H124348   8.338   0.853   2.511
 8135TIP3    H224349   8.247   0.937   2.598
 8136TIP3   OH224350   5.523   7.313   5.864
 8136TIP3    H124351   5.563   7.368   5.932
 8136TIP3    H224352   5.447   7.274   5.906
 8137TIP3   OH224353   8.109   2.299   2.943
 8137TIP3    H124354   8.131   2.212   2.976
 8137TIP3    H224355   8.047   2.334   3.007
 8138TIP3   OH224356   2.063   4.187   4.288
 8138TIP3    H124357   2.129   4.129   4.252
 8138TIP3    H224358   2.009   4.131   4.345
 8139TIP3   OH224359   5.931   7.130   6.285
 8139TIP3    H124360   5.852   7.151   6.335
 8139TIP3    H224361   5.985   7.079   6.346
 8140TIP3   OH224362   0.433   5.510   3.768
 8140TIP3    H124363   0.422   5.600   3.800
 8140TIP3    H224364   0.477   5.465   3.840
 8141TIP3   OH224365   1.158   4.299   0.575
 8141TIP3    H124366   1.129   4.208   0.563
 8141TIP3    H224367   1.095   4.336   0.637
 8142TIP3   OH224368   3.703   0.849   3.357
 8142TIP3    H124369   3.656   0.775   3.317
 8142TIP3    H224370   3.651   0.872   3.434
 8143TIP3   OH224371   3.178   2.599   2.109
 8143TIP3    H124372   3.215   2.515   2.136
 8143TIP3    H224373   3.106   2.614   2.170
 8144TIP3   OH224374   6.187   7.323   4.888
 8144TIP3    H124375   6.125   7.364   4.828
 8144TIP3    H224376   6.133   7.260   4.937
 8145TIP3   OH224377   5.931   2.665   3.849
 8145TIP3    H124378   5.843   2.629   3.846
 8145TIP3    H224379   5.985   2.600   3.802
 8146TIP3   OH224380   4.386   7.580   6.714
 8146TIP3    H124381   4.477   7.583   6.745
 8146TIP3    H224382   4.381   7.647   6.646
 8147TIP3   OH224383   4.846   2.991   2.807
 8147TIP3    H124384   4.849   2.953   2.895
 8147TIP3    H224385   4.913   2.943   2.758
 8148TIP3   OH224386   1.197   7.130   2.734
 8148TIP3    H124387   1.229   7.087   2.654
 8148TIP3    H224388   1.252   7.094   2.804
 8149TIP3   OH224389   0.751   4.953   3.190
 8149TIP3    H124390   0.680   5.016   3.185
 8149TIP3    H224391   0.746   4.918   3.279
 8150TIP3   OH224392   5.474   2.310   6.360
 8150TIP3    H124393   5.488   2.250   6.433
 8150TIP3    H224394   5.559   2.316   6.317
 8151TIP3   OH224395   6.409   1.542   2.788
 8151TIP3    H124396   6.373   1.465   2.831
 8151TIP3    H224397   6.496   1.553   2.827
 8152TIP3   OH224398   5.138   6.687   6.532
 8152TIP3    H124399   5.167   6.778   6.525
 8152TIP3    H224400   5.217   6.638   6.553
 8153TIP3   OH224401   8.145   6.688   3.245
 8153TIP3    H124402   8.057   6.709   3.275
 8153TIP3    H224403   8.182   6.772   3.218
 8154TIP3   OH224404   6.254   2.755   2.311
 8154TIP3    H124405   6.163   2.775   2.287
 8154TIP3    H224406   6.275   2.676   2.261
 8155TIP3   OH224407   6.799   1.973   6.351
 8155TIP3    H124408   6.815   1.987   6.444
 8155TIP3    H224409   6.741   1.897   6.348
 8156TIP3   OH224410   3.057   5.767   4.218
 8156TIP3    H124411   2.963   5.762   4.199
 8156TIP3    H224412   3.065   5.732   4.307
 8157TIP3   OH224413   3.696   4.236   5.819
 8157TIP3    H124414   3.765   4.278   5.768
 8157TIP3    H224415   3.619   4.238   5.762
 8158TIP3   OH224416   2.885   0.957   2.359
 8158TIP3    H124417   2.923   0.876   2.324
 8158TIP3    H224418   2.931   0.971   2.442
 8159TIP3   OH224419   1.650   7.714   4.702
 8159TIP3    H124420   1.657   7.810   4.705
 8159TIP3    H224421   1.700   7.688   4.625
 8160TIP3   OH224422   2.951   6.907   1.409
 8160TIP3    H124423   2.937   6.955   1.327
 8160TIP3    H224424   2.863   6.887   1.440
 8161TIP3   OH224425   6.057   4.928   2.879
 8161TIP3    H124426   6.034   5.011   2.921
 8161TIP3    H224427   6.138   4.948   2.831
 8162TIP3   OH224428   5.553   0.174   1.864
 8162TIP3    H124429   5.595   0.088   1.862
 8162TIP3    H224430   5.620   0.234   1.831
 8163TIP3   OH224431   7.201   0.134   3.887
 8163TIP3    H124432   7.217   0.219   3.848
 8163TIP3    H224433   7.173   0.153   3.977
 8164TIP3   OH224434   8.091   5.487   0.322
 8164TIP3    H124435   8.012   5.469   0.272
 8164TIP3    H224436   8.113   5.577   0.301
 8165TIP3   OH224437   0.847   0.197   2.635
 8165TIP3    H124438   0.839   0.181   2.540
 8165TIP3    H224439   0.930   0.244   2.644
 8166TIP3   OH224440   0.440   6.299   1.052
 8166TIP3    H124441   0.454   6.393   1.041
 8166TIP3    H224442   0.374   6.277   0.986
 8167TIP3   OH224443   5.050   7.290   6.334
 8167TIP3    H124444   5.003   7.364   6.372
 8167TIP3    H224445   5.112   7.263   6.401
 8168TIP3   OH224446   5.058   1.683   4.514
 8168TIP3    H124447   5.145   1.722   4.516
 8168TIP3    H224448   5.006   1.743   4.461
 8169TIP3   OH224449   2.903   2.117   0.533
 8169TIP3    H124450   2.819   2.075   0.515
 8169TIP3    H224451   2.919   2.173   0.457
 8170TIP3   OH224452   4.586   6.403   2.277
 8170TIP3    H124453   4.632   6.474   2.231
 8170TIP3    H224454   4.502   6.441   2.301
 8171TIP3   OH224455   0.750   2.939   1.087
 8171TIP3    H124456   0.788   2.924   1.000
 8171TIP3    H224457   0.804   3.009   1.125
 8172TIP3   OH224458   7.581   5.363   6.286
 8172TIP3    H124459   7.628   5.396   6.209
 8172TIP3    H224460   7.650   5.334   6.346
 8173TIP3   OH224461   6.947   1.292   2.467
 8173TIP3    H124462   6.949   1.298   2.371
 8173TIP3    H224463   6.862   1.327   2.491
 8174TIP3   OH224464   7.095   1.023   0.142
 8174TIP3    H124465   7.037   1.085   0.186
 8174TIP3    H224466   7.067   0.937   0.174
 8175TIP3   OH224467   6.275   5.451   5.856
 8175TIP3    H124468   6.238   5.362   5.854
 8175TIP3    H224469   6.356   5.444   5.806
 8176TIP3   OH224470   6.444   3.076   6.539
 8176TIP3    H124471   6.479   3.025   6.467
 8176TIP3    H224472   6.349   3.066   6.533
 8177TIP3   OH224473   2.856   0.500   3.727
 8177TIP3    H124474   2.909   0.530   3.801
 8177TIP3    H224475   2.768   0.530   3.746
 8178TIP3   OH224476   2.738   7.209   2.563
 8178TIP3    H124477   2.661   7.159   2.589
 8178TIP3    H224478   2.761   7.260   2.641
 8179TIP3   OH224479   3.362   0.377   0.176
 8179TIP3    H124480   3.376   0.438   0.248
 8179TIP3    H224481   3.349   0.292   0.219
 8180TIP3   OH224482   5.634   2.968   6.428
 8180TIP3    H124483   5.729   2.957   6.439
 8180TIP3    H224484   5.611   3.037   6.491
 8181TIP3   OH224485   4.884   2.114   1.910
 8181TIP3    H124486   4.951   2.147   1.970
 8181TIP3    H224487   4.842   2.043   1.957
 8182TIP3   OH224488   2.351   0.499   1.200
 8182TIP3    H124489   2.323   0.534   1.116
 8182TIP3    H224490   2.285   0.433   1.222
 8183TIP3   OH224491   1.380   1.804   0.821
 8183TIP3    H124492   1.380   1.885   0.872
 8183TIP3    H224493   1.430   1.742   0.874
 8184TIP3   OH224494   3.322   3.573   6.679
 8184TIP3    H124495   3.281   3.639   6.734
 8184TIP3    H224496   3.403   3.551   6.724
 8185TIP3   OH224497   3.711   1.519   5.434
 8185TIP3    H124498   3.680   1.608   5.417
 8185TIP3    H224499   3.652   1.486   5.501
 8186TIP3   OH224500   3.884   6.824   1.660
 8186TIP3    H124501   3.852   6.901   1.612
 8186TIP3    H224502   3.849   6.834   1.748
 8187TIP3   OH224503   5.831   1.956   0.831
 8187TIP3    H124504   5.801   2.018   0.897
 8187TIP3    H224505   5.902   1.908   0.874
 8188TIP3   OH224506   2.528   7.157   4.250
 8188TIP3    H124507   2.500   7.166   4.341
 8188TIP3    H224508   2.617   7.191   4.249
 8189TIP3   OH224509   3.614   0.214   5.358
 8189TIP3    H124510   3.694   0.166   5.381
 8189TIP3    H224511   3.639   0.267   5.283
 8190TIP3   OH224512   6.522   0.566   1.472
 8190TIP3    H124513   6.436   0.561   1.512
 8190TIP3    H224514   6.558   0.478   1.482
 8191TIP3   OH224515   4.957   2.938   0.090
 8191TIP3    H124516   4.942   3.021   0.134
 8191TIP3    H224517   4.916   2.948   0.004
 8192TIP3   OH224518   6.113   2.156   5.023
 8192TIP3    H124519   6.161   2.141   4.941
 8192TIP3    H224520   6.024   2.179   4.994
 8193TIP3   OH224521   7.199   4.710   4.910
 8193TIP3    H124522   7.173   4.751   4.828
 8193TIP3    H224523   7.270   4.764   4.944
 8194TIP3   OH224524   8.036   5.600   5.600
 8194TIP3    H124525   8.071   5.517   5.568
 8194TIP3    H224526   8.094   5.623   5.673
 8195TIP3   OH224527   3.072   3.733   0.571
 8195TIP3    H124528   3.050   3.792   0.643
 8195TIP3    H224529   3.039   3.778   0.493
 8196TIP3   OH224530   3.412   3.663   3.918
 8196TIP3    H124531   3.426   3.660   3.824
 8196TIP3    H224532   3.437   3.752   3.944
 8197TIP3   OH224533   7.108   7.659   6.428
 8197TIP3    H124534   7.111   7.610   6.345
 8197TIP3    H224535   7.200   7.668   6.454
 8198TIP3   OH224536   0.929   5.145   1.311
 8198TIP3    H124537   0.957   5.067   1.263
 8198TIP3    H224538   0.946   5.123   1.403
 8199TIP3   OH224539   2.720   4.372   4.059
 8199TIP3    H124540   2.632   4.384   4.092
 8199TIP3    H224541   2.727   4.434   3.986
 8200TIP3   OH224542   0.953   7.470   3.123
 8200TIP3    H124543   0.908   7.399   3.168
 8200TIP3    H224544   1.033   7.430   3.089
 8201TIP3   OH224545   1.628   6.140   2.177
 8201TIP3    H124546   1.606   6.122   2.086
 8201TIP3    H224547   1.578   6.218   2.199
 8202TIP3   OH224548   5.195   0.175   5.173
 8202TIP3    H124549   5.133   0.175   5.101
 8202TIP3    H224550   5.269   0.122   5.142
 8203TIP3   OH224551   1.315   4.906   6.368
 8203TIP3    H124552   1.292   4.841   6.302
 8203TIP3    H224553   1.247   4.973   6.360
 8204TIP3   OH224554   6.668   6.676   1.473
 8204TIP3    H124555   6.597   6.630   1.428
 8204TIP3    H224556   6.689   6.620   1.548
 8205TIP3   OH224557   3.748   2.864   2.435
 8205TIP3    H124558   3.762   2.938   2.376
 8205TIP3    H224559   3.714   2.794   2.378
 8206TIP3   OH224560   4.723   7.572   3.289
 8206TIP3    H124561   4.719   7.665   3.266
 8206TIP3    H224562   4.744   7.571   3.382
 8207TIP3   OH224563   0.511   3.640   4.646
 8207TIP3    H124564   0.470   3.702   4.706
 8207TIP3    H224565   0.441   3.617   4.584
 8208TIP3   OH224566   8.246   0.850   6.167
 8208TIP3    H124567   8.195   0.795   6.227
 8208TIP3    H224568   8.275   0.791   6.098
 8209TIP3   OH224569   7.844   2.998   0.121
 8209TIP3    H124570   7.900   3.022   0.194
 8209TIP3    H224571   7.768   2.956   0.162
 8210TIP3   OH224572   2.508   0.513   1.671
 8210TIP3    H124573   2.474   0.444   1.727
 8210TIP3    H224574   2.438   0.532   1.609
 8211TIP3   OH224575   2.452   6.928   5.997
 8211TIP3    H124576   2.445   6.871   5.920
 8211TIP3    H224577   2.520   6.992   5.974
 8212TIP3   OH224578   5.168   4.697   2.688
 8212TIP3    H124579   5.226   4.659   2.621
 8212TIP3    H224580   5.104   4.629   2.706
 8213TIP3   OH224581   5.651   7.458   0.923
 8213TIP3    H124582   5.668   7.483   1.014
 8213TIP3    H224583   5.638   7.540   0.877
 8214TIP3   OH224584   4.228   7.762   4.505
 8214TIP3    H124585   4.272   7.680   4.483
 8214TIP3    H224586   4.232   7.766   4.601
 8215TIP3   OH224587   0.117   5.299   4.164
 8215TIP3    H124588   0.152   5.241   4.096
 8215TIP3    H224589   0.024   5.277   4.169
 8216TIP3   OH224590   4.707   6.252   5.818
 8216TIP3    H124591   4.709   6.235   5.912
 8216TIP3    H224592   4.693   6.165   5.778
 8217TIP3   OH224593   3.362   0.912   4.177
 8217TIP3    H124594   3.450   0.926   4.144
 8217TIP3    H224595   3.308   0.979   4.134
 8218TIP3   OH224596   2.179   5.710   3.390
 8218TIP3    H124597   2.210   5.698   3.300
 8218TIP3    H224598   2.218   5.638   3.439
 8219TIP3   OH224599   6.549   2.223   0.808
 8219TIP3    H124600   6.562   2.133   0.838
 8219TIP3    H224601   6.514   2.214   0.720
 8220TIP3   OH224602   2.128   6.049   0.679
 8220TIP3    H124603   2.212   6.060   0.636
 8220TIP3    H224604   2.106   5.957   0.668
 8221TIP3   OH224605   6.528   4.107   5.743
 8221TIP3    H124606   6.535   4.032   5.802
 8221TIP3    H224607   6.526   4.183   5.802
 8222TIP3   OH224608   0.950   3.043   2.575
 8222TIP3    H124609   0.960   3.094   2.494
 8222TIP3    H224610   0.862   3.065   2.606
 8223TIP3   OH224611   1.857   1.584   5.337
 8223TIP3    H124612   1.776   1.608   5.293
 8223TIP3    H224613   1.830   1.522   5.405
 8224TIP3   OH224614   0.173   5.835   3.200
 8224TIP3    H124615   0.161   5.740   3.191
 8224TIP3    H224616   0.085   5.872   3.192
 8225TIP3   OH224617   2.053   0.444   4.353
 8225TIP3    H124618   2.044   0.522   4.298
 8225TIP3    H224619   1.978   0.448   4.412
 8226TIP3   OH224620   3.119   2.952   0.834
 8226TIP3    H124621   3.037   2.941   0.882
 8226TIP3    H224622   3.127   3.047   0.822
 8227TIP3   OH224623   7.994   1.518   1.428
 8227TIP3    H124624   7.932   1.446   1.415
 8227TIP3    H224625   8.043   1.522   1.346
 8228TIP3   OH224626   8.230   0.132   6.318
 8228TIP3    H124627   8.235   0.218   6.277
 8228TIP3    H224628   8.186   0.148   6.402
 8229TIP3   OH224629   7.593   7.554   6.006
 8229TIP3    H124630   7.564   7.592   6.089
 8229TIP3    H224631   7.674   7.600   5.985
 8230TIP3   OH224632   4.091   6.985   4.996
 8230TIP3    H124633   4.140   6.914   5.038
 8230TIP3    H224634   4.060   7.039   5.069
 8231TIP3   OH224635   2.513   0.640   4.450
 8231TIP3    H124636   2.518   0.707   4.519
 8231TIP3    H224637   2.585   0.580   4.470
 8232TIP3   OH224638   2.141   2.915   3.663
 8232TIP3    H124639   2.109   2.826   3.676
 8232TIP3    H224640   2.197   2.931   3.739
 8233TIP3   OH224641   3.580   4.748   6.777
 8233TIP3    H124642   3.510   4.685   6.761
 8233TIP3    H224643   3.605   4.779   6.690
 8234TIP3   OH224644   2.315   1.840   2.466
 8234TIP3    H124645   2.262   1.878   2.536
 8234TIP3    H224646   2.405   1.854   2.494
 8235TIP3   OH224647   8.163   2.448   5.651
 8235TIP3    H124648   8.183   2.454   5.744
 8235TIP3    H224649   8.070   2.424   5.648
 8236TIP3   OH224650   5.632   1.511   4.120
 8236TIP3    H124651   5.640   1.435   4.178
 8236TIP3    H224652   5.638   1.474   4.032
 8237TIP3   OH224653   0.576   1.655   5.575
 8237TIP3    H124654   0.564   1.750   5.572
 8237TIP3    H224655   0.505   1.620   5.521
 8238TIP3   OH224656   7.342   5.094   2.186
 8238TIP3    H124657   7.357   5.188   2.197
 8238TIP3    H224658   7.362   5.077   2.094
 8239TIP3   OH224659   5.398   4.292   1.185
 8239TIP3    H124660   5.371   4.383   1.172
 8239TIP3    H224661   5.316   4.243   1.190
 8240TIP3   OH224662   7.193   4.222   1.542
 8240TIP3    H124663   7.099   4.207   1.553
 8240TIP3    H224664   7.213   4.293   1.603
 8241TIP3   OH224665   1.975   2.085   0.231
 8241TIP3    H124666   1.922   2.096   0.309
 8241TIP3    H224667   1.993   1.991   0.226
 8242TIP3   OH224668   0.512   0.255   1.746
 8242TIP3    H124669   0.508   0.338   1.794
 8242TIP3    H224670   0.606   0.238   1.735
 8243TIP3   OH224671   4.615   5.150   1.768
 8243TIP3    H124672   4.626   5.066   1.724
 8243TIP3    H224673   4.679   5.208   1.726
 8244TIP3   OH224674   1.510   2.907   2.034
 8244TIP3    H124675   1.489   2.934   1.945
 8244TIP3    H224676   1.600   2.935   2.047
 8245TIP3   OH224677   8.224   6.092   2.408
 8245TIP3    H124678   8.314   6.090   2.442
 8245TIP3    H224679   8.233   6.128   2.320
 8246TIP3   OH224680   1.412   5.659   5.466
 8246TIP3    H124681   1.443   5.584   5.417
 8246TIP3    H224682   1.378   5.719   5.399
 8247TIP3   OH224683   1.071   4.368   1.957
 8247TIP3    H124684   1.038   4.457   1.950
 8247TIP3    H224685   1.052   4.329   1.872
 8248TIP3   OH224686   5.531   2.731   1.125
 8248TIP3    H124687   5.439   2.726   1.153
 8248TIP3    H224688   5.573   2.659   1.173
 8249TIP3   OH224689   1.995   0.200   5.229
 8249TIP3    H124690   1.957   0.120   5.192
 8249TIP3    H224691   2.089   0.189   5.218
 8250TIP3   OH224692   6.308   7.311   4.282
 8250TIP3    H124693   6.370   7.384   4.279
 8250TIP3    H224694   6.278   7.300   4.192
 8251TIP3   OH224695   3.468   1.517   4.404
 8251TIP3    H124696   3.385   1.564   4.402
 8251TIP3    H224697   3.510   1.546   4.485
 8252TIP3   OH224698   7.553   7.214   6.717
 8252TIP3    H124699   7.563   7.128   6.759
 8252TIP3    H224700   7.459   7.231   6.721
 8253TIP3   OH224701   7.527   2.364   0.393
 8253TIP3    H124702   7.581   2.410   0.328
 8253TIP3    H224703   7.491   2.289   0.346
 8254TIP3   OH224704   6.857   7.359   2.559
 8254TIP3    H124705   6.885   7.403   2.478
 8254TIP3    H224706   6.919   7.389   2.625
 8255TIP3   OH224707   6.657   1.934   0.039
 8255TIP3    H124708   6.701   1.902  -0.040
 8255TIP3    H224709   6.610   1.858   0.072
 8256TIP3   OH224710   3.586   0.548   0.857
 8256TIP3    H124711   3.495   0.557   0.826
 8256TIP3    H224712   3.636   0.608   0.802
 8257TIP3   OH224713   6.735   6.190   4.724
 8257TIP3    H124714   6.811   6.233   4.763
 8257TIP3    H224715   6.766   6.102   4.702
 8258TIP3   OH224716   3.453   3.395   4.496
 8258TIP3    H124717   3.417   3.389   4.585
 8258TIP3    H224718   3.376   3.387   4.439
 8259TIP3   OH224719   3.380   7.048   5.219
 8259TIP3    H124720   3.468   7.085   5.226
 8259TIP3    H224721   3.381   7.000   5.136
 8260TIP3   OH224722   1.799   3.492   1.993
 8260TIP3    H124723   1.772   3.446   1.914
 8260TIP3    H224724   1.725   3.548   2.015
 8261TIP3   OH224725   3.602   5.934   0.785
 8261TIP3    H124726   3.658   5.887   0.724
 8261TIP3    H224727   3.518   5.943   0.738
 8262TIP3   OH224728   4.447   1.565   6.793
 8262TIP3    H124729   4.511   1.580   6.724
 8262TIP3    H224730   4.392   1.493   6.762
 8263TIP3   OH224731   3.918   4.285   5.111
 8263TIP3    H124732   3.872   4.203   5.094
 8263TIP3    H224733   3.941   4.317   5.023
 8264TIP3   OH224734   4.944   7.500   4.860
 8264TIP3    H124735   4.921   7.555   4.934
 8264TIP3    H224736   5.029   7.532   4.831
 8265TIP3   OH224737   3.849   2.481   5.618
 8265TIP3    H124738   3.849   2.539   5.542
 8265TIP3    H224739   3.775   2.423   5.604
 8266TIP3   OH224740   3.116   2.386   6.434
 8266TIP3    H124741   3.184   2.423   6.377
 8266TIP3    H224742   3.098   2.300   6.396
 8267TIP3   OH224743   7.090   0.887   0.758
 8267TIP3    H124744   7.104   0.967   0.808
 8267TIP3    H224745   7.005   0.900   0.717
 8268TIP3   OH224746   3.589   7.757   2.874
 8268TIP3    H124747   3.598   7.682   2.932
 8268TIP3    H224748   3.498   7.785   2.885
 8269TIP3   OH224749   2.490   5.968   1.422
 8269TIP3    H124750   2.582   5.971   1.447
 8269TIP3    H224751   2.482   6.028   1.349
 8270TIP3   OH224752   4.406   5.486   4.381
 8270TIP3    H124753   4.312   5.471   4.391
 8270TIP3    H224754   4.434   5.420   4.316
 8271TIP3   OH224755   2.106   0.548   6.743
 8271TIP3    H124756   2.137   0.473   6.692
 8271TIP3    H224757   2.024   0.573   6.701
 8272TIP3   OH224758   0.698   7.819   6.028
 8272TIP3    H124759   0.712   7.799   6.121
 8272TIP3    H224760   0.610   7.786   6.009
 8273TIP3   OH224761   6.641   0.681   1.696
 8273TIP3    H124762   6.590   0.607   1.729
 8273TIP3    H224763   6.657   0.660   1.604
 8274TIP3   OH224764   6.681   7.260   3.880
 8274TIP3    H124765   6.710   7.351   3.868
 8274TIP3    H224766   6.601   7.267   3.932
 8275TIP3   OH224767   0.920   0.584   5.448
 8275TIP3    H124768   0.874   0.539   5.377
 8275TIP3    H224769   1.008   0.599   5.415
 8276TIP3   OH224770   2.964   2.093   5.816
 8276TIP3    H124771   2.944   2.051   5.900
 8276TIP3    H224772   2.903   2.052   5.754
 8277TIP3   OH224773   2.451   0.194   6.544
 8277TIP3    H124774   2.367   0.222   6.507
 8277TIP3    H224775   2.482   0.271   6.592
 8278TIP3   OH224776   6.683   5.026   2.947
 8278TIP3    H124777   6.746   5.028   2.875
 8278TIP3    H224778   6.734   4.995   3.022
 8279TIP3   OH224779   5.441   4.824   6.097
 8279TIP3    H124780   5.417   4.874   6.019
 8279TIP3    H224781   5.407   4.876   6.170
 8280TIP3   OH224782   3.484   6.643   2.789
 8280TIP3    H124783   3.506   6.736   2.788
 8280TIP3    H224784   3.502   6.615   2.879
 8281TIP3   OH224785   2.832   7.130   0.956
 8281TIP3    H124786   2.744   7.093   0.964
 8281TIP3    H224787   2.883   7.060   0.916
 8282TIP3   OH224788   4.986   4.252   4.960
 8282TIP3    H124789   5.059   4.295   4.916
 8282TIP3    H224790   4.933   4.324   4.994
 8283TIP3   OH224791   5.970   3.763   2.446
 8283TIP3    H124792   5.912   3.840   2.448
 8283TIP3    H224793   6.047   3.793   2.399
 8284TIP3   OH224794   3.089   7.536   2.496
 8284TIP3    H124795   3.004   7.506   2.463
 8284TIP3    H224796   3.135   7.456   2.520
 8285TIP3   OH224797   7.373   3.566   6.566
 8285TIP3    H124798   7.280   3.550   6.555
 8285TIP3    H224799   7.386   3.656   6.537
 8286TIP3   OH224800   2.911   5.916   6.336
 8286TIP3    H124801   2.995   5.897   6.377
 8286TIP3    H224802   2.861   5.961   6.404
 8287TIP3   OH224803   4.099   4.643   0.348
 8287TIP3    H124804   4.111   4.703   0.422
 8287TIP3    H224805   4.045   4.573   0.383
 8288TIP3   OH224806   6.484   3.475   3.089
 8288TIP3    H124807   6.539   3.501   3.015
 8288TIP3    H224808   6.403   3.524   3.076
 8289TIP3   OH224809   4.999   4.828   2.077
 8289TIP3    H124810   5.005   4.847   2.171
 8289TIP3    H224811   5.079   4.780   2.057
 8290TIP3   OH224812   7.649   6.414   5.903
 8290TIP3    H124813   7.726   6.375   5.862
 8290TIP3    H224814   7.616   6.475   5.837
 8291TIP3   OH224815   0.702   5.738   6.472
 8291TIP3    H124816   0.693   5.706   6.382
 8291TIP3    H224817   0.749   5.668   6.518
 8292TIP3   OH224818   3.390   6.335   6.209
 8292TIP3    H124819   3.430   6.312   6.293
 8292TIP3    H224820   3.462   6.370   6.157
 8293TIP3   OH224821   4.753   2.261   1.580
 8293TIP3    H124822   4.732   2.168   1.578
 8293TIP3    H224823   4.667   2.305   1.577
 8294TIP3   OH224824   2.562   4.234   2.653
 8294TIP3    H124825   2.589   4.297   2.586
 8294TIP3    H224826   2.472   4.211   2.630
 8295TIP3   OH224827   8.197   3.769   2.810
 8295TIP3    H124828   8.144   3.735   2.738
 8295TIP3    H224829   8.245   3.693   2.842
 8296TIP3   OH224830   0.112   0.190   0.180
 8296TIP3    H124831   0.061   0.270   0.170
 8296TIP3    H224832   0.133   0.186   0.273
 8297TIP3   OH224833   2.287   4.402   2.753
 8297TIP3    H124834   2.217   4.346   2.787
 8297TIP3    H224835   2.367   4.369   2.794
 8298TIP3   OH224836   2.735   3.524   5.257
 8298TIP3    H124837   2.798   3.594   5.274
 8298TIP3    H224838   2.775   3.446   5.294
 8299TIP3   OH224839   8.161   5.048   1.515
 8299TIP3    H124840   8.215   5.019   1.442
 8299TIP3    H224841   8.141   4.968   1.564
 8300TIP3   OH224842   5.834   0.098   3.333
 8300TIP3    H124843   5.750   0.074   3.294
 8300TIP3    H224844   5.848   0.035   3.404
 8301TIP3   OH224845   2.810   0.420   0.899
 8301TIP3    H124846   2.858   0.502   0.887
 8301TIP3    H224847   2.874   0.360   0.937
 8302TIP3   OH224848   4.523   4.861   2.044
 8302TIP3    H124849   4.485   4.909   2.119
 8302TIP3    H224850   4.577   4.926   2.000
 8303TIP3   OH224851   0.457   0.189   5.980
 8303TIP3    H124852   0.548   0.176   6.004
 8303TIP3    H224853   0.424   0.101   5.962
 8304TIP3   OH224854   7.111   5.405   0.312
 8304TIP3    H124855   7.163   5.357   0.247
 8304TIP3    H224856   7.086   5.486   0.267
 8305TIP3   OH224857   5.753   0.746   1.961
 8305TIP3    H124858   5.686   0.753   2.028
 8305TIP3    H224859   5.717   0.792   1.885
 8306TIP3   OH224860   5.849   1.015   6.323
 8306TIP3    H124861   5.874   1.003   6.414
 8306TIP3    H224862   5.924   0.981   6.273
 8307TIP3   OH224863   6.929   3.080   3.274
 8307TIP3    H124864   6.961   2.995   3.305
 8307TIP3    H224865   6.854   3.058   3.218
 8308TIP3   OH224866   0.827   3.890   5.194
 8308TIP3    H124867   0.834   3.875   5.288
 8308TIP3    H224868   0.910   3.859   5.158
 8309TIP3   OH224869   7.052   2.786   2.542
 8309TIP3    H124870   6.964   2.810   2.512
 8309TIP3    H224871   7.036   2.737   2.623
 8310TIP3   OH224872   2.936   2.140   0.830
 8310TIP3    H124873   2.964   2.157   0.740
 8310TIP3    H224874   2.846   2.107   0.821
 8311TIP3   OH224875   4.768   4.735   0.329
 8311TIP3    H124876   4.843   4.676   0.313
 8311TIP3    H224877   4.734   4.753   0.241
 8312TIP3   OH224878   5.332   1.999   2.153
 8312TIP3    H124879   5.355   1.974   2.063
 8312TIP3    H224880   5.318   1.915   2.198
 8313TIP3   OH224881   8.236   7.681   3.813
 8313TIP3    H124882   8.205   7.667   3.724
 8313TIP3    H224883   8.329   7.701   3.803
 8314TIP3   OH224884   5.649   2.433   4.976
 8314TIP3    H124885   5.671   2.466   4.889
 8314TIP3    H224886   5.554   2.447   4.984
 8315TIP3   OH224887   0.508   1.366   3.285
 8315TIP3    H124888   0.536   1.456   3.305
 8315TIP3    H224889   0.555   1.312   3.349
 8316TIP3   OH224890   4.441   2.183   6.575
 8316TIP3    H124891   4.421   2.276   6.569
 8316TIP3    H224892   4.536   2.179   6.586
 8317TIP3   OH224893   7.916   1.851   6.575
 8317TIP3    H124894   7.833   1.835   6.619
 8317TIP3    H224895   7.902   1.931   6.525
 8318TIP3   OH224896   5.136   3.892   0.111
 8318TIP3    H124897   5.056   3.908   0.160
 8318TIP3    H224898   5.206   3.901   0.176
 8319TIP3   OH224899   8.130   3.585   4.382
 8319TIP3    H124900   8.158   3.498   4.352
 8319TIP3    H224901   8.185   3.603   4.458
 8320TIP3   OH224902   3.739   1.402   2.927
 8320TIP3    H124903   3.743   1.475   2.865
 8320TIP3    H224904   3.764   1.325   2.875
 8321TIP3   OH224905   7.292   1.676   4.195
 8321TIP3    H124906   7.373   1.713   4.229
 8321TIP3    H224907   7.319   1.628   4.117
 8322TIP3   OH224908   7.143   5.838   2.885
 8322TIP3    H124909   7.123   5.925   2.849
 8322TIP3    H224910   7.107   5.777   2.820
 8323TIP3   OH224911   0.375   0.294   0.637
 8323TIP3    H124912   0.434   0.282   0.711
 8323TIP3    H224913   0.383   0.214   0.585
 8324TIP3   OH224914   3.670   4.451   2.254
 8324TIP3    H124915   3.694   4.364   2.287
 8324TIP3    H224916   3.580   4.464   2.283
 8325TIP3   OH224917   6.890   4.893   2.105
 8325TIP3    H124918   6.954   4.951   2.147
 8325TIP3    H224919   6.885   4.817   2.164
 8326TIP3   OH224920   4.060   0.800   5.941
 8326TIP3    H124921   4.105   0.807   5.857
 8326TIP3    H224922   4.063   0.888   5.978
 8327TIP3   OH224923   1.263   7.094   1.406
 8327TIP3    H124924   1.268   7.031   1.478
 8327TIP3    H224925   1.223   7.046   1.334
 8328TIP3   OH224926   3.335   6.697   6.131
 8328TIP3    H124927   3.358   6.604   6.126
 8328TIP3    H224928   3.416   6.743   6.107
 8329TIP3   OH224929   6.505   4.190   2.609
 8329TIP3    H124930   6.503   4.127   2.681
 8329TIP3    H224931   6.498   4.136   2.530
 8330TIP3   OH224932   3.689   6.777   5.107
 8330TIP3    H124933   3.729   6.831   5.175
 8330TIP3    H224934   3.754   6.708   5.090
 8331TIP3   OH224935   6.910   2.334   0.510
 8331TIP3    H124936   6.868   2.384   0.440
 8331TIP3    H224937   7.004   2.337   0.489
 8332TIP3   OH224938   6.095   6.956   1.594
 8332TIP3    H124939   6.056   6.963   1.682
 8332TIP3    H224940   6.082   6.864   1.571
 8333TIP3   OH224941   1.550   0.166   3.970
 8333TIP3    H124942   1.498   0.241   3.942
 8333TIP3    H224943   1.500   0.129   4.043
 8334TIP3   OH224944   6.703   3.340   0.205
 8334TIP3    H124945   6.753   3.268   0.244
 8334TIP3    H224946   6.700   3.406   0.274
 8335TIP3   OH224947   4.322   2.763   3.833
 8335TIP3    H124948   4.377   2.685   3.845
 8335TIP3    H224949   4.363   2.809   3.760
 8336TIP3   OH224950   6.814   2.057   1.019
 8336TIP3    H124951   6.779   1.971   0.996
 8336TIP3    H224952   6.789   2.070   1.111
 8337TIP3   OH224953   5.189   0.951   4.865
 8337TIP3    H124954   5.268   0.995   4.896
 8337TIP3    H224955   5.219   0.894   4.795
 8338TIP3   OH224956   7.222   3.748   1.435
 8338TIP3    H124957   7.263   3.731   1.520
 8338TIP3    H224958   7.277   3.702   1.372
 8339TIP3   OH224959   4.718   2.362   0.510
 8339TIP3    H124960   4.671   2.376   0.428
 8339TIP3    H224961   4.755   2.274   0.503
 8340TIP3   OH224962   5.759   3.278   6.278
 8340TIP3    H124963   5.750   3.197   6.228
 8340TIP3    H224964   5.673   3.290   6.320
 8341TIP3   OH224965   1.128   2.787   2.110
 8341TIP3    H124966   1.204   2.846   2.106
 8341TIP3    H224967   1.120   2.763   2.202
 8342TIP3   OH224968   2.337   6.435   3.332
 8342TIP3    H124969   2.306   6.524   3.316
 8342TIP3    H224970   2.263   6.379   3.310
 8343TIP3   OH224971   0.755   4.997   1.596
 8343TIP3    H124972   0.699   4.943   1.539
 8343TIP3    H224973   0.843   4.986   1.560
 8344TIP3   OH224974   3.482   4.583   2.644
 8344TIP3    H124975   3.459   4.676   2.649
 8344TIP3    H224976   3.549   4.579   2.575
 8345TIP3   OH224977   0.296   3.321   5.966
 8345TIP3    H124978   0.327   3.411   5.976
 8345TIP3    H224979   0.211   3.330   5.922
 8346TIP3   OH224980   1.547   4.203   4.008
 8346TIP3    H124981   1.506   4.182   4.093
 8346TIP3    H224982   1.620   4.142   4.002
 8347TIP3   OH224983   2.550   6.684   1.094
 8347TIP3    H124984   2.533   6.599   1.054
 8347TIP3    H224985   2.535   6.747   1.023
 8348TIP3   OH224986   5.795   4.285   5.482
 8348TIP3    H124987   5.771   4.332   5.562
 8348TIP3    H224988   5.754   4.336   5.412
 8349TIP3   OH224989   7.879   1.546   3.179
 8349TIP3    H124990   7.801   1.602   3.188
 8349TIP3    H224991   7.865   1.500   3.096
 8350TIP3   OH224992   0.272   5.227   2.465
 8350TIP3    H124993   0.301   5.235   2.374
 8350TIP3    H224994   0.178   5.210   2.458
 8351TIP3   OH224995   7.367   4.577   0.415
 8351TIP3    H124996   7.323   4.626   0.346
 8351TIP3    H224997   7.388   4.492   0.375
 8352TIP3   OH224998   5.349   1.620   4.590
 8352TIP3    H124999   5.434   1.652   4.620
 8352TIP3    H225000   5.332   1.542   4.643
 8353TIP3   OH225001   6.485   4.395   3.532
 8353TIP3    H125002   6.420   4.359   3.472
 8353TIP3    H225003   6.455   4.484   3.550
 8354TIP3   OH225004   7.905   3.973   1.922
 8354TIP3    H125005   7.900   3.893   1.975
 8354TIP3    H225006   7.814   3.987   1.893
 8355TIP3   OH225007   5.541   0.303   0.951
 8355TIP3    H125008   5.627   0.330   0.982
 8355TIP3    H225009   5.555   0.277   0.860
 8356TIP3   OH225010   0.705   3.420   3.137
 8356TIP3    H125011   0.679   3.413   3.045
 8356TIP3    H225012   0.639   3.370   3.185
 8357TIP3   OH225013   8.104   5.201   6.282
 8357TIP3    H125014   8.172   5.252   6.325
 8357TIP3    H225015   8.031   5.201   6.344
 8358TIP3   OH225016   8.107   4.628   3.024
 8358TIP3    H125017   8.192   4.637   3.068
 8358TIP3    H225018   8.084   4.536   3.034
 8359TIP3   OH225019   2.226   1.123   2.212
 8359TIP3    H125020   2.174   1.143   2.134
 8359TIP3    H225021   2.303   1.180   2.205
 8360TIP3   OH225022   0.048   6.271   5.764
 8360TIP3    H125023   0.111   6.207   5.798
 8360TIP3    H225024  -0.007   6.220   5.705
 8361TIP3   OH225025   7.784   6.940   1.788
 8361TIP3    H125026   7.789   6.889   1.707
 8361TIP3    H225027   7.794   6.876   1.858
 8362TIP3   OH225028   4.274   3.303   4.976
 8362TIP3    H125029   4.287   3.254   4.896
 8362TIP3    H225030   4.218   3.247   5.030
 8363TIP3   OH225031   4.634   1.105   5.650
 8363TIP3    H125032   4.669   1.075   5.734
 8363TIP3    H225033   4.546   1.138   5.671
 8364TIP3   OH225034   7.739   1.083   5.164
 8364TIP3    H125035   7.816   1.122   5.206
 8364TIP3    H225036   7.775   1.021   5.101
 8365TIP3   OH225037   0.753   4.123   6.199
 8365TIP3    H125038   0.765   4.055   6.132
 8365TIP3    H225039   0.789   4.085   6.279
 8366TIP3   OH225040   1.232   4.434   6.759
 8366TIP3    H125041   1.291   4.433   6.684
 8366TIP3    H225042   1.277   4.382   6.826
 8367TIP3   OH225043   4.294   5.247   2.265
 8367TIP3    H125044   4.328   5.159   2.248
 8367TIP3    H225045   4.246   5.270   2.185
 8368TIP3   OH225046   0.733   6.825   3.503
 8368TIP3    H125047   0.790   6.856   3.433
 8368TIP3    H225048   0.723   6.731   3.486
 8369TIP3   OH225049   0.405   0.799   1.342
 8369TIP3    H125050   0.441   0.741   1.275
 8369TIP3    H225051   0.351   0.742   1.398
 8370TIP3   OH225052   7.641   0.438   4.773
 8370TIP3    H125053   7.731   0.421   4.801
 8370TIP3    H225054   7.641   0.529   4.744
 8371TIP3   OH225055   4.598   1.581   6.546
 8371TIP3    H125056   4.573   1.642   6.477
 8371TIP3    H225057   4.623   1.501   6.501
 8372TIP3   OH225058   6.148   0.078   5.285
 8372TIP3    H125059   6.052   0.081   5.280
 8372TIP3    H225060   6.169   0.120   5.368
 8373TIP3   OH225061   0.109   7.658   4.496
 8373TIP3    H125062   0.070   7.572   4.480
 8373TIP3    H225063   0.133   7.657   4.589
 8374TIP3   OH225064   3.737   6.368   1.422
 8374TIP3    H125065   3.763   6.458   1.441
 8374TIP3    H225066   3.642   6.368   1.429
 8375TIP3   OH225067   4.124   7.229   0.639
 8375TIP3    H125068   4.107   7.323   0.645
 8375TIP3    H225069   4.143   7.203   0.730
 8376TIP3   OH225070   5.269   5.992   2.108
 8376TIP3    H125071   5.214   5.939   2.050
 8376TIP3    H225072   5.341   6.021   2.052
 8377TIP3   OH225073   1.885   7.469   2.323
 8377TIP3    H125074   1.980   7.468   2.311
 8377TIP3    H225075   1.869   7.543   2.381
 8378TIP3   OH225076   3.272   1.437   2.090
 8378TIP3    H125077   3.189   1.483   2.102
 8378TIP3    H225078   3.269   1.365   2.153
 8379TIP3   OH225079   2.006   5.703   1.664
 8379TIP3    H125080   1.974   5.728   1.578
 8379TIP3    H225081   1.943   5.638   1.695
 8380TIP3   OH225082   7.895   1.418   2.767
 8380TIP3    H125083   7.854   1.337   2.796
 8380TIP3    H225084   7.989   1.398   2.762
 8381TIP3   OH225085   3.446   6.811   6.725
 8381TIP3    H125086   3.416   6.830   6.636
 8381TIP3    H225087   3.383   6.747   6.758
 8382TIP3   OH225088   7.661   0.138   5.053
 8382TIP3    H125089   7.742   0.161   5.006
 8382TIP3    H225090   7.595   0.198   5.018
 8383TIP3   OH225091   7.055   6.994   3.056
 8383TIP3    H125092   7.074   6.993   2.962
 8383TIP3    H225093   7.139   7.017   3.097
 8384TIP3   OH225094   1.470   2.958   3.352
 8384TIP3    H125095   1.564   2.968   3.338
 8384TIP3    H225096   1.431   3.032   3.306
 8385TIP3   OH225097   2.907   2.715   0.730
 8385TIP3    H125098   2.874   2.689   0.816
 8385TIP3    H225099   2.828   2.742   0.682
 8386TIP3   OH225100   5.095   6.485   5.201
 8386TIP3    H125101   5.128   6.404   5.161
 8386TIP3    H225102   5.174   6.537   5.218
 8387TIP3   OH225103   1.543   1.569   1.336
 8387TIP3    H125104   1.589   1.526   1.264
 8387TIP3    H225105   1.552   1.509   1.410
 8388TIP3   OH225106   1.333   3.307   4.051
 8388TIP3    H125107   1.356   3.393   4.085
 8388TIP3    H225108   1.252   3.284   4.097
 8389TIP3   OH225109   4.046   6.768   4.544
 8389TIP3    H125110   4.084   6.770   4.632
 8389TIP3    H225111   4.059   6.678   4.514
 8390TIP3   OH225112   3.456   3.902   3.321
 8390TIP3    H125113   3.479   3.890   3.413
 8390TIP3    H225114   3.538   3.929   3.279
 8391TIP3   OH225115   7.072   7.119   4.539
 8391TIP3    H125116   7.155   7.121   4.493
 8391TIP3    H225117   7.032   7.035   4.514
 8392TIP3   OH225118   5.629   5.853   0.072
 8392TIP3    H125119   5.688   5.851  -0.004
 8392TIP3    H225120   5.657   5.929   0.122
 8393TIP3   OH225121   4.172   7.310   5.624
 8393TIP3    H125122   4.142   7.221   5.645
 8393TIP3    H225123   4.183   7.309   5.529
 8394TIP3   OH225124   1.741   2.674   0.673
 8394TIP3    H125125   1.660   2.675   0.724
 8394TIP3    H225126   1.768   2.765   0.667
 8395TIP3   OH225127   0.816   4.667   5.943
 8395TIP3    H125128   0.841   4.709   5.861
 8395TIP3    H225129   0.870   4.710   6.009
 8396TIP3   OH225130   6.677   1.889   4.033
 8396TIP3    H125131   6.730   1.868   4.110
 8396TIP3    H225132   6.695   1.982   4.016
 8397TIP3   OH225133   1.075   3.272   2.889
 8397TIP3    H125134   1.050   3.306   2.974
 8397TIP3    H225135   0.996   3.279   2.836
 8398TIP3   OH225136   3.667   1.491   3.402
 8398TIP3    H125137   3.721   1.453   3.471
 8398TIP3    H225138   3.638   1.575   3.438
 8399TIP3   OH225139   7.371   2.605   4.288
 8399TIP3    H125140   7.361   2.599   4.383
 8399TIP3    H225141   7.404   2.694   4.273
 8400TIP3   OH225142   1.714   3.996   2.909
 8400TIP3    H125143   1.635   4.004   2.963
 8400TIP3    H225144   1.762   4.077   2.924
 8401TIP3   OH225145   4.892   5.398   0.048
 8401TIP3    H125146   4.842   5.480   0.050
 8401TIP3    H225147   4.825   5.329   0.048
 8402TIP3   OH225148   6.068   1.594   0.151
 8402TIP3    H125149   6.128   1.600   0.225
 8402TIP3    H225150   6.042   1.685   0.134
 8403TIP3   OH225151   2.033   3.030   0.568
 8403TIP3    H125152   2.087   3.073   0.634
 8403TIP3    H225153   1.993   3.101   0.519
 8404TIP3   OH225154   5.151   1.455   4.945
 8404TIP3    H125155   5.065   1.488   4.919
 8404TIP3    H225156   5.187   1.418   4.864
 8405TIP3   OH225157   6.131   3.669   5.097
 8405TIP3    H125158   6.037   3.685   5.104
 8405TIP3    H225159   6.170   3.757   5.094
 8406TIP3   OH225160   1.898   7.437   0.954
 8406TIP3    H125161   1.832   7.493   0.912
 8406TIP3    H225162   1.962   7.499   0.989
 8407TIP3   OH225163   5.395   3.588   1.688
 8407TIP3    H125164   5.402   3.497   1.717
 8407TIP3    H225165   5.467   3.599   1.626
 8408TIP3   OH225166   2.515   6.373   5.685
 8408TIP3    H125167   2.571   6.355   5.760
 8408TIP3    H225168   2.566   6.345   5.609
 8409TIP3   OH225169   6.071   2.459   6.447
 8409TIP3    H125170   6.118   2.379   6.424
 8409TIP3    H225171   6.043   2.496   6.363
 8410TIP3   OH225172   2.302   0.334   6.331
 8410TIP3    H125173   2.232   0.338   6.396
 8410TIP3    H225174   2.257   0.349   6.247
 8411TIP3   OH225175   5.979   1.070   6.015
 8411TIP3    H125176   5.974   0.983   5.974
 8411TIP3    H225177   6.004   1.129   5.943
 8412TIP3   OH225178   7.034   0.281   5.554
 8412TIP3    H125179   7.119   0.325   5.544
 8412TIP3    H225180   6.987   0.302   5.473
 8413TIP3   OH225181   0.589   3.449   1.251
 8413TIP3    H125182   0.643   3.462   1.329
 8413TIP3    H225183   0.647   3.472   1.178
 8414TIP3   OH225184   2.396   3.838   3.412
 8414TIP3    H125185   2.442   3.911   3.371
 8414TIP3    H225186   2.401   3.856   3.505
 8415TIP3   OH225187   5.320   1.579   0.648
 8415TIP3    H125188   5.313   1.668   0.684
 8415TIP3    H225189   5.253   1.529   0.694
 8416TIP3   OH225190   7.368   0.373   2.488
 8416TIP3    H125191   7.298   0.433   2.463
 8416TIP3    H225192   7.346   0.347   2.578
 8417TIP3   OH225193   7.734   3.362   3.011
 8417TIP3    H125194   7.655   3.415   3.009
 8417TIP3    H225195   7.799   3.412   2.962
 8418TIP3   OH225196   6.941   6.518   5.069
 8418TIP3    H125197   6.924   6.479   5.155
 8418TIP3    H225198   6.948   6.443   5.010
 8419TIP3   OH225199   7.457   0.031   3.643
 8419TIP3    H125200   7.442   0.046   3.736
 8419TIP3    H225201   7.395  -0.038   3.620
 8420TIP3   OH225202   4.253   6.087   1.909
 8420TIP3    H125203   4.345   6.089   1.879
 8420TIP3    H225204   4.212   6.161   1.865
 8421TIP3   OH225205   5.327   7.656   3.962
 8421TIP3    H125206   5.280   7.591   3.910
 8421TIP3    H225207   5.345   7.727   3.901
 8422TIP3   OH225208   0.036   4.099   4.513
 8422TIP3    H125209  -0.055   4.129   4.519
 8422TIP3    H225210   0.088   4.179   4.522
 8423TIP3   OH225211   5.385   1.713   1.672
 8423TIP3    H125212   5.459   1.732   1.614
 8423TIP3    H225213   5.414   1.638   1.724
 8424TIP3   OH225214   7.731   2.191   0.182
 8424TIP3    H125215   7.825   2.186   0.196
 8424TIP3    H225216   7.710   2.284   0.188
 8425TIP3   OH225217   5.981   1.581   4.952
 8425TIP3    H125218   5.914   1.543   4.895
 8425TIP3    H225219   6.001   1.665   4.912
 8426TIP3   OH225220   3.506   6.777   5.804
 8426TIP3    H125221   3.497   6.683   5.791
 8426TIP3    H225222   3.437   6.816   5.751
 8427TIP3   OH225223   3.227   5.348   3.450
 8427TIP3    H125224   3.295   5.302   3.499
 8427TIP3    H225225   3.227   5.306   3.364
 8428TIP3   OH225226   0.200   6.844   2.506
 8428TIP3    H125227   0.203   6.926   2.457
 8428TIP3    H225228   0.218   6.776   2.441
 8429TIP3   OH225229   3.382   6.708   0.369
 8429TIP3    H125230   3.293   6.694   0.401
 8429TIP3    H225231   3.385   6.660   0.285
 8430TIP3   OH225232   1.050   6.853   4.309
 8430TIP3    H125233   1.077   6.785   4.371
 8430TIP3    H225234   1.112   6.846   4.237
 8431TIP3   OH225235   7.974   2.838   4.734
 8431TIP3    H125236   7.992   2.773   4.666
 8431TIP3    H225237   7.927   2.789   4.801
 8432TIP3   OH225238   5.713   2.881   0.046
 8432TIP3    H125239   5.658   2.958   0.030
 8432TIP3    H225240   5.800   2.918   0.063
 8433TIP3   OH225241   6.318   6.479   3.939
 8433TIP3    H125242   6.331   6.385   3.927
 8433TIP3    H225243   6.225   6.493   3.925
 8434TIP3   OH225244   5.376   2.878   1.788
 8434TIP3    H125245   5.354   2.872   1.882
 8434TIP3    H225246   5.292   2.891   1.745
 8435TIP3   OH225247   3.159   1.201   4.452
 8435TIP3    H125248   3.067   1.198   4.426
 8435TIP3    H225249   3.195   1.275   4.404
 8436TIP3   OH225250   6.940   4.751   4.167
 8436TIP3    H125251   6.863   4.710   4.127
 8436TIP3    H225252   6.980   4.801   4.095
 8437TIP3   OH225253   4.085   7.169   2.864
 8437TIP3    H125254   4.070   7.253   2.909
 8437TIP3    H225255   4.151   7.125   2.917
 8438TIP3   OH225256   0.594   3.349   4.591
 8438TIP3    H125257   0.537   3.308   4.655
 8438TIP3    H225258   0.628   3.277   4.538
 8439TIP3   OH225259   5.631   1.213   0.996
 8439TIP3    H125260   5.575   1.258   0.932
 8439TIP3    H225261   5.651   1.279   1.062
 8440TIP3   OH225262   4.511   0.741   5.518
 8440TIP3    H125263   4.549   0.751   5.431
 8440TIP3    H225264   4.520   0.647   5.537
 8441TIP3   OH225265   2.964   1.145   6.525
 8441TIP3    H125266   3.004   1.160   6.611
 8441TIP3    H225267   2.872   1.127   6.544
 8442TIP3   OH225268   2.479   5.101   3.674
 8442TIP3    H125269   2.408   5.065   3.725
 8442TIP3    H225270   2.527   5.157   3.735
 8443TIP3   OH225271   5.298   5.128   1.659
 8443TIP3    H125272   5.270   5.095   1.745
 8443TIP3    H225273   5.217   5.159   1.618
 8444TIP3   OH225274   4.860   2.688   3.772
 8444TIP3    H125275   4.837   2.735   3.852
 8444TIP3    H225276   4.956   2.681   3.776
 8445TIP3   OH225277   7.739   5.501   1.380
 8445TIP3    H125278   7.774   5.412   1.380
 8445TIP3    H225279   7.680   5.504   1.455
 8446TIP3   OH225280   6.121   3.708   3.775
 8446TIP3    H125281   6.117   3.776   3.708
 8446TIP3    H225282   6.064   3.740   3.845
 8447TIP3   OH225283   5.665   7.832   5.816
 8447TIP3    H125284   5.639   7.748   5.777
 8447TIP3    H225285   5.753   7.816   5.849
 8448TIP3   OH225286   0.128   5.398   4.822
 8448TIP3    H125287   0.221   5.378   4.832
 8448TIP3    H225288   0.084   5.314   4.836
 8449TIP3   OH225289   2.911   6.298   0.524
 8449TIP3    H125290   2.958   6.275   0.604
 8449TIP3    H225291   2.938   6.232   0.461
 8450TIP3   OH225292   4.724   5.479   1.809
 8450TIP3    H125293   4.688   5.474   1.898
 8450TIP3    H225294   4.671   5.545   1.765
 8451TIP3   OH225295   5.509   4.689   4.951
 8451TIP3    H125296   5.417   4.676   4.926
 8451TIP3    H225297   5.538   4.762   4.897
 8452TIP3   OH225298   7.120   4.892   0.099
 8452TIP3    H125299   7.140   4.917   0.008
 8452TIP3    H225300   7.197   4.921   0.149
 8453TIP3   OH225301   0.720   4.718   2.080
 8453TIP3    H125302   0.800   4.668   2.096
 8453TIP3    H225303   0.736   4.766   1.999
 8454TIP3   OH225304   5.679   2.978   3.152
 8454TIP3    H125305   5.628   2.916   3.204
 8454TIP3    H225306   5.751   3.004   3.209
 8455TIP3   OH225307   0.848   0.521   0.039
 8455TIP3    H125308   0.834   0.548   0.130
 8455TIP3    H225309   0.801   0.586  -0.013
 8456TIP3   OH225310   2.619   3.765   1.267
 8456TIP3    H125311   2.524   3.760   1.263
 8456TIP3    H225312   2.649   3.713   1.193
 8457TIP3   OH225313   6.079   7.016   4.142
 8457TIP3    H125314   6.032   7.040   4.222
 8457TIP3    H225315   6.030   6.943   4.106
 8458TIP3   OH225316   2.859   4.483   3.120
 8458TIP3    H125317   2.918   4.559   3.115
 8458TIP3    H225318   2.789   4.512   3.178
 8459TIP3   OH225319   0.226   2.350   1.289
 8459TIP3    H125320   0.216   2.426   1.347
 8459TIP3    H225321   0.188   2.379   1.206
 8460TIP3   OH225322   6.521   4.107   5.256
 8460TIP3    H125323   6.506   4.160   5.335
 8460TIP3    H225324   6.503   4.017   5.284
 8461TIP3   OH225325   6.724   5.724   2.386
 8461TIP3    H125326   6.641   5.771   2.386
 8461TIP3    H225327   6.752   5.724   2.477
 8462TIP3   OH225328   2.409   5.947   5.460
 8462TIP3    H125329   2.385   6.008   5.390
 8462TIP3    H225330   2.500   5.970   5.481
 8463TIP3   OH225331   7.424   1.813   6.095
 8463TIP3    H125332   7.494   1.855   6.044
 8463TIP3    H225333   7.459   1.809   6.184
 8464TIP3   OH225334   0.771   7.374   1.384
 8464TIP3    H125335   0.718   7.378   1.464
 8464TIP3    H225336   0.852   7.333   1.412
 8465TIP3   OH225337   8.167   3.456   3.976
 8465TIP3    H125338   8.213   3.373   3.962
 8465TIP3    H225339   8.161   3.465   4.071
 8466TIP3   OH225340   5.774   4.021   0.194
 8466TIP3    H125341   5.751   3.997   0.104
 8466TIP3    H225342   5.730   4.104   0.209
 8467TIP3   OH225343   7.753   6.553   4.825
 8467TIP3    H125344   7.677   6.544   4.767
 8467TIP3    H225345   7.770   6.465   4.857
 8468TIP3   OH225346   2.429   5.414   4.760
 8468TIP3    H125347   2.513   5.370   4.774
 8468TIP3    H225348   2.452   5.495   4.714
 8469TIP3   OH225349   6.477   4.015   2.373
 8469TIP3    H125350   6.474   4.037   2.280
 8469TIP3    H225351   6.387   4.029   2.404
 8470TIP3   OH225352   5.099   5.216   2.290
 8470TIP3    H125353   5.107   5.188   2.381
 8470TIP3    H225354   5.071   5.137   2.243
 8471TIP3   OH225355   1.625   5.802   1.073
 8471TIP3    H125356   1.655   5.718   1.108
 8471TIP3    H225357   1.551   5.779   1.016
 8472TIP3   OH225358   1.582   2.880   6.646
 8472TIP3    H125359   1.546   2.969   6.644
 8472TIP3    H225360   1.525   2.832   6.706
 8473TIP3   OH225361   7.827   4.398   0.166
 8473TIP3    H125362   7.736   4.401   0.196
 8473TIP3    H225363   7.839   4.480   0.118
 8474TIP3   OH225364   0.210   5.136   0.978
 8474TIP3    H125365   0.285   5.095   0.934
 8474TIP3    H225366   0.134   5.092   0.941
 8475TIP3   OH225367   2.934   5.715   3.247
 8475TIP3    H125368   2.894   5.786   3.297
 8475TIP3    H225369   2.982   5.758   3.176
 8476TIP3   OH225370   7.398   0.086   4.691
 8476TIP3    H125371   7.392   0.170   4.644
 8476TIP3    H225372   7.425   0.023   4.624
 8477TIP3   OH225373   6.804   2.253   6.522
 8477TIP3    H125374   6.797   2.246   6.617
 8477TIP3    H225375   6.871   2.189   6.497
 8478TIP3   OH225376   4.741   7.302   4.531
 8478TIP3    H125377   4.726   7.392   4.502
 8478TIP3    H225378   4.676   7.288   4.600
 8479TIP3   OH225379   6.544   5.813   6.609
 8479TIP3    H125380   6.604   5.829   6.681
 8479TIP3    H225381   6.549   5.718   6.594
 8480TIP3   OH225382   3.348   4.942   5.829
 8480TIP3    H125383   3.278   4.961   5.766
 8480TIP3    H225384   3.340   4.848   5.845
 8481TIP3   OH225385   0.890   6.104   3.011
 8481TIP3    H125386   0.871   6.118   3.104
 8481TIP3    H225387   0.829   6.160   2.965
 8482TIP3   OH225388   6.380   1.149   4.375
 8482TIP3    H125389   6.439   1.103   4.315
 8482TIP3    H225390   6.325   1.202   4.318
 8483TIP3   OH225391   6.999   7.302   3.709
 8483TIP3    H125392   7.077   7.248   3.699
 8483TIP3    H225393   6.961   7.275   3.792
 8484TIP3   OH225394   1.724   5.859   4.235
 8484TIP3    H125395   1.736   5.926   4.303
 8484TIP3    H225396   1.645   5.886   4.188
 8485TIP3   OH225397   0.834   2.874   3.270
 8485TIP3    H125398   0.863   2.798   3.321
 8485TIP3    H225399   0.757   2.906   3.316
 8486TIP3   OH225400   6.942   0.980   1.430
 8486TIP3    H125401   6.998   0.903   1.420
 8486TIP3    H225402   6.871   0.951   1.487
 8487TIP3   OH225403   3.596   5.260   4.233
 8487TIP3    H125404   3.548   5.275   4.314
 8487TIP3    H225405   3.685   5.238   4.261
 8488TIP3   OH225406   1.041   0.181   0.583
 8488TIP3    H125407   1.122   0.161   0.629
 8488TIP3    H225408   0.990   0.234   0.644
 8489TIP3   OH225409   4.964   6.758   0.561
 8489TIP3    H125410   4.986   6.713   0.642
 8489TIP3    H225411   4.879   6.798   0.578
 8490TIP3   OH225412   4.385   6.284   3.845
 8490TIP3    H125413   4.355   6.332   3.768
 8490TIP3    H225414   4.371   6.192   3.823
 8491TIP3   OH225415   3.917   6.038   6.582
 8491TIP3    H125416   3.843   6.025   6.641
 8491TIP3    H225417   3.959   5.952   6.577
 8492TIP3   OH225418   6.814   2.656   6.492
 8492TIP3    H125419   6.768   2.738   6.508
 8492TIP3    H225420   6.805   2.607   6.574
 8493TIP3   OH225421   5.474   7.267   3.192
 8493TIP3    H125422   5.565   7.271   3.221
 8493TIP3    H225423   5.473   7.198   3.125
 8494TIP3   OH225424   3.123   1.356   2.940
 8494TIP3    H125425   3.138   1.321   3.027
 8494TIP3    H225426   3.067   1.432   2.955
 8495TIP3   OH225427   0.327   3.893   3.397
 8495TIP3    H125428   0.306   3.803   3.369
 8495TIP3    H225429   0.276   3.906   3.477
 8496TIP3   OH225430   7.302   4.228   1.257
 8496TIP3    H125431   7.236   4.287   1.221
 8496TIP3    H225432   7.282   4.224   1.351
 8497TIP3   OH225433   3.580   0.605   3.474
 8497TIP3    H125434   3.586   0.690   3.518
 8497TIP3    H225435   3.669   0.571   3.477
 8498TIP3   OH225436   7.290   4.001   0.060
 8498TIP3    H125437   7.334   3.973  -0.020
 8498TIP3    H225438   7.228   4.067   0.031
 8499TIP3   OH225439   4.440   4.549   3.029
 8499TIP3    H125440   4.504   4.487   3.063
 8499TIP3    H225441   4.418   4.516   2.942
 8500TIP3   OH225442   6.438   4.125   3.308
 8500TIP3    H125443   6.404   4.213   3.293
 8500TIP3    H225444   6.390   4.093   3.384
 8501TIP3   OH225445   4.355   1.202   5.747
 8501TIP3    H125446   4.328   1.119   5.707
 8501TIP3    H225447   4.328   1.194   5.839
 8502TIP3   OH225448   4.611   0.223   1.659
 8502TIP3    H125449   4.562   0.143   1.636
 8502TIP3    H225450   4.641   0.257   1.574
 8503TIP3   OH225451   6.783   2.696   3.816
 8503TIP3    H125452   6.735   2.735   3.890
 8503TIP3    H225453   6.722   2.633   3.779
 8504TIP3   OH225454   6.713   3.076   4.178
 8504TIP3    H125455   6.693   3.096   4.086
 8504TIP3    H225456   6.665   3.142   4.228
 8505TIP3   OH225457   4.692   6.585   0.407
 8505TIP3    H125458   4.682   6.634   0.489
 8505TIP3    H225459   4.612   6.603   0.358
 8506TIP3   OH225460   4.299   2.467   0.010
 8506TIP3    H125461   4.328   2.377   0.024
 8506TIP3    H225462   4.300   2.506   0.097
 8507TIP3   OH225463   3.881   7.332   6.660
 8507TIP3    H125464   3.800   7.283   6.671
 8507TIP3    H225465   3.859   7.422   6.682
 8508TIP3   OH225466   3.396   4.600   2.312
 8508TIP3    H125467   3.446   4.663   2.260
 8508TIP3    H225468   3.341   4.654   2.369
 8509TIP3   OH225469   2.312   1.026   6.019
 8509TIP3    H125470   2.346   1.052   5.933
 8509TIP3    H225471   2.356   1.085   6.080
 8510TIP3   OH225472   2.615   7.122   5.873
 8510TIP3    H125473   2.614   7.200   5.817
 8510TIP3    H225474   2.683   7.140   5.938
 8511TIP3   OH225475   3.652   2.021   6.341
 8511TIP3    H125476   3.677   1.930   6.354
 8511TIP3    H225477   3.677   2.065   6.423
 8512TIP3   OH225478   0.475   5.246   3.648
 8512TIP3    H125479   0.557   5.206   3.676
 8512TIP3    H225480   0.477   5.334   3.687
 8513TIP3   OH225481   1.051   5.457   6.669
 8513TIP3    H125482   1.021   5.477   6.580
 8513TIP3    H225483   1.131   5.508   6.679
 8514TIP3   OH225484   8.291   3.526   1.406
 8514TIP3    H125485   8.249   3.560   1.485
 8514TIP3    H225486   8.244   3.445   1.386
 8515TIP3   OH225487   7.653   2.634   2.134
 8515TIP3    H125488   7.672   2.657   2.225
 8515TIP3    H225489   7.737   2.604   2.099
 8516TIP3   OH225490   6.728   5.099   3.253
 8516TIP3    H125491   6.766   5.136   3.332
 8516TIP3    H225492   6.639   5.075   3.278
 8517TIP3   OH225493   7.873   4.140   5.992
 8517TIP3    H125494   7.956   4.181   6.016
 8517TIP3    H225495   7.813   4.214   5.982
 8518TIP3   OH225496   1.112   3.108   1.005
 8518TIP3    H125497   1.129   3.104   0.911
 8518TIP3    H225498   1.029   3.155   1.012
 8519TIP3   OH225499   1.931   3.204   1.039
 8519TIP3    H125500   1.871   3.279   1.037
 8519TIP3    H225501   2.006   3.232   0.986
 8520TIP3   OH225502   7.317   3.725   0.485
 8520TIP3    H125503   7.240   3.764   0.528
 8520TIP3    H225504   7.325   3.773   0.403
 8521TIP3   OH225505   4.526   5.588   5.034
 8521TIP3    H125506   4.559   5.612   4.947
 8521TIP3    H225507   4.433   5.571   5.020
 8522TIP3   OH225508   2.491   2.004   3.060
 8522TIP3    H125509   2.480   2.017   3.155
 8522TIP3    H225510   2.585   1.994   3.047
 8523TIP3   OH225511   0.916   5.341   1.930
 8523TIP3    H125512   0.928   5.427   1.971
 8523TIP3    H225513   0.971   5.343   1.852
 8524TIP3   OH225514   2.424   5.015   4.740
 8524TIP3    H125515   2.508   5.058   4.755
 8524TIP3    H225516   2.443   4.921   4.751
 8525TIP3   OH225517   7.096   3.917   2.148
 8525TIP3    H125518   7.051   3.921   2.064
 8525TIP3    H225519   7.036   3.960   2.209
 8526TIP3   OH225520   3.922   5.665   2.843
 8526TIP3    H125521   3.968   5.736   2.887
 8526TIP3    H225522   3.960   5.585   2.881
 8527TIP3   OH225523   3.723   3.939   5.811
 8527TIP3    H125524   3.720   4.034   5.816
 8527TIP3    H225525   3.718   3.909   5.902
 8528TIP3   OH225526   1.495   1.336   2.828
 8528TIP3    H125527   1.506   1.422   2.787
 8528TIP3    H225528   1.582   1.312   2.858
 8529TIP3   OH225529   6.452   7.804   1.454
 8529TIP3    H125530   6.409   7.833   1.374
 8529TIP3    H225531   6.447   7.709   1.451
 8530TIP3   OH225532   3.718   3.275   5.920
 8530TIP3    H125533   3.787   3.314   5.866
 8530TIP3    H225534   3.758   3.195   5.954
 8531TIP3   OH225535   4.132   1.305   0.584
 8531TIP3    H125536   4.097   1.393   0.574
 8531TIP3    H225537   4.192   1.311   0.659
 8532TIP3   OH225538   6.249   4.198   6.437
 8532TIP3    H125539   6.224   4.288   6.417
 8532TIP3    H225540   6.268   4.198   6.530
 8533TIP3   OH225541   4.805   4.473   4.211
 8533TIP3    H125542   4.817   4.491   4.118
 8533TIP3    H225543   4.775   4.556   4.248
 8534TIP3   OH225544   1.408   1.915   4.965
 8534TIP3    H125545   1.437   1.831   4.930
 8534TIP3    H225546   1.471   1.935   5.034
 8535TIP3   OH225547   5.774   3.633   6.515
 8535TIP3    H125548   5.816   3.692   6.577
 8535TIP3    H225549   5.845   3.580   6.479
 8536TIP3   OH225550   4.415   1.508   6.245
 8536TIP3    H125551   4.374   1.530   6.161
 8536TIP3    H225552   4.459   1.589   6.272
 8537TIP3   OH225553   3.329   4.026   3.672
 8537TIP3    H125554   3.411   3.980   3.655
 8537TIP3    H225555   3.268   3.958   3.698
 8538TIP3   OH225556   3.987   6.251   0.182
 8538TIP3    H125557   3.918   6.245   0.248
 8538TIP3    H225558   4.051   6.311   0.220
 8539TIP3   OH225559   3.006   0.772   2.200
 8539TIP3    H125560   2.938   0.735   2.144
 8539TIP3    H225561   3.075   0.799   2.140
 8540TIP3   OH225562   6.314   0.247   0.455
 8540TIP3    H125563   6.395   0.274   0.497
 8540TIP3    H225564   6.270   0.192   0.520
 8541TIP3   OH225565   3.819   4.489   5.627
 8541TIP3    H125566   3.890   4.541   5.663
 8541TIP3    H225567   3.808   4.522   5.538
 8542TIP3   OH225568   3.318   0.621   4.149
 8542TIP3    H125569   3.347   0.709   4.126
 8542TIP3    H225570   3.358   0.565   4.083
 8543TIP3   OH225571   6.357   2.808   5.963
 8543TIP3    H125572   6.326   2.775   6.047
 8543TIP3    H225573   6.329   2.741   5.900
 8544TIP3   OH225574   1.577   5.305   2.818
 8544TIP3    H125575   1.630   5.363   2.873
 8544TIP3    H225576   1.487   5.327   2.841
 8545TIP3   OH225577   3.051   5.155   2.472
 8545TIP3    H125578   2.986   5.188   2.410
 8545TIP3    H225579   3.001   5.100   2.532
 8546TIP3   OH225580   1.010   1.126   4.730
 8546TIP3    H125581   1.085   1.126   4.671
 8546TIP3    H225582   0.983   1.035   4.735
 8547TIP3   OH225583   1.631   5.759   5.617
 8547TIP3    H125584   1.566   5.713   5.563
 8547TIP3    H225585   1.707   5.767   5.559
 8548TIP3   OH225586   5.398   1.420   1.806
 8548TIP3    H125587   5.484   1.460   1.803
 8548TIP3    H225588   5.408   1.337   1.759
 8549TIP3   OH225589   7.044   0.296   6.083
 8549TIP3    H125590   7.049   0.391   6.094
 8549TIP3    H225591   7.007   0.283   5.996
 8550TIP3   OH225592   5.617   4.575   1.248
 8550TIP3    H125593   5.691   4.613   1.201
 8550TIP3    H225594   5.585   4.506   1.190
 8551TIP3   OH225595   1.633   5.827   1.822
 8551TIP3    H125596   1.578   5.778   1.761
 8551TIP3    H225597   1.698   5.869   1.766
 8552TIP3   OH225598   5.273   5.755   5.082
 8552TIP3    H125599   5.300   5.846   5.068
 8552TIP3    H225600   5.333   5.703   5.028
 8553TIP3   OH225601   2.020   6.559   3.106
 8553TIP3    H125602   2.036   6.585   3.015
 8553TIP3    H225603   2.100   6.587   3.152
 8554TIP3   OH225604   0.391   3.436   2.704
 8554TIP3    H125605   0.417   3.463   2.616
 8554TIP3    H225606   0.342   3.511   2.739
 8555TIP3   OH225607   2.773   6.086   4.012
 8555TIP3    H125608   2.817   6.020   3.959
 8555TIP3    H225609   2.695   6.108   3.962
 8556TIP3   OH225610   3.318   7.405   5.009
 8556TIP3    H125611   3.336   7.434   5.098
 8556TIP3    H225612   3.400   7.419   4.962
 8557TIP3   OH225613   0.445   4.708   4.968
 8557TIP3    H125614   0.358   4.724   5.004
 8557TIP3    H225615   0.477   4.795   4.943
 8558TIP3   OH225616   6.278   4.593   0.393
 8558TIP3    H125617   6.238   4.558   0.313
 8558TIP3    H225618   6.214   4.657   0.425
 8559TIP3   OH225619   7.999   5.949   2.337
 8559TIP3    H125620   8.081   5.989   2.368
 8559TIP3    H225621   8.014   5.855   2.345
 8560TIP3   OH225622   5.417   1.565   3.918
 8560TIP3    H125623   5.450   1.535   4.003
 8560TIP3    H225624   5.417   1.660   3.924
 8561TIP3   OH225625   1.340   1.916   2.721
 8561TIP3    H125626   1.345   1.821   2.717
 8561TIP3    H225627   1.346   1.945   2.629
 8562TIP3   OH225628   6.198   7.100   2.385
 8562TIP3    H125629   6.155   7.099   2.471
 8562TIP3    H225630   6.290   7.116   2.405
 8563TIP3   OH225631   6.510   3.320   4.231
 8563TIP3    H125632   6.436   3.324   4.169
 8563TIP3    H225633   6.472   3.343   4.315
 8564TIP3   OH225634  -0.015   6.536   3.483
 8564TIP3    H125635   0.066   6.557   3.530
 8564TIP3    H225636  -0.015   6.595   3.407
 8565TIP3   OH225637   2.476   7.637   0.857
 8565TIP3    H125638   2.487   7.601   0.768
 8565TIP3    H225639   2.382   7.654   0.864
 8566TIP3   OH225640   4.815   4.712   6.628
 8566TIP3    H125641   4.757   4.776   6.669
 8566TIP3    H225642   4.766   4.630   6.633
 8567TIP3   OH225643   0.336   5.356   5.309
 8567TIP3    H125644   0.413   5.407   5.282
 8567TIP3    H225645   0.283   5.418   5.358
 8568TIP3   OH225646   1.724   4.857   6.577
 8568TIP3    H125647   1.804   4.841   6.527
 8568TIP3    H225648   1.752   4.909   6.652
 8569TIP3   OH225649   1.378   0.062   4.138
 8569TIP3    H125650   1.329   0.040   4.059
 8569TIP3    H225651   1.410  -0.022   4.170
 8570TIP3   OH225652   1.671   4.500   2.209
 8570TIP3    H125653   1.754   4.475   2.169
 8570TIP3    H225654   1.641   4.574   2.157
 8571TIP3   OH225655   4.042   2.233   3.010
 8571TIP3    H125656   4.020   2.309   2.956
 8571TIP3    H225657   3.995   2.247   3.092
 8572TIP3   OH225658   6.914   4.293   4.174
 8572TIP3    H125659   6.859   4.256   4.244
 8572TIP3    H225660   6.887   4.246   4.095
 8573TIP3   OH225661   1.751   3.873   5.047
 8573TIP3    H125662   1.671   3.825   5.072
 8573TIP3    H225663   1.758   3.859   4.953
 8574TIP3   OH225664   3.786   1.475   2.361
 8574TIP3    H125665   3.854   1.493   2.426
 8574TIP3    H225666   3.794   1.382   2.343
 8575TIP3   OH225667   5.125   6.675   5.658
 8575TIP3    H125668   5.207   6.709   5.620
 8575TIP3    H225669   5.096   6.609   5.595
 8576TIP3   OH225670   5.203   5.912   5.451
 8576TIP3    H125671   5.266   5.841   5.433
 8576TIP3    H225672   5.117   5.871   5.441
 8577TIP3   OH225673   7.861   1.821   3.510
 8577TIP3    H125674   7.907   1.871   3.577
 8577TIP3    H225675   7.822   1.887   3.453
 8578TIP3   OH225676   1.642   0.530   4.250
 8578TIP3    H125677   1.656   0.582   4.329
 8578TIP3    H225678   1.563   0.480   4.268
 8579TIP3   OH225679   5.369   6.554   6.654
 8579TIP3    H125680   5.425   6.612   6.603
 8579TIP3    H225681   5.425   6.479   6.676
 8580TIP3   OH225682   3.684   3.545   5.401
 8580TIP3    H125683   3.602   3.532   5.353
 8580TIP3    H225684   3.712   3.633   5.378
 8581TIP3   OH225685   2.391   2.133   5.703
 8581TIP3    H125686   2.364   2.063   5.644
 8581TIP3    H225687   2.357   2.107   5.788
 8582TIP3   OH225688   1.070   6.333   5.574
 8582TIP3    H125689   1.021   6.415   5.585
 8582TIP3    H225690   1.152   6.359   5.532
 8583TIP3   OH225691   1.540   7.502   1.683
 8583TIP3    H125692   1.445   7.494   1.673
 8583TIP3    H225693   1.558   7.473   1.772
 8584TIP3   OH225694   5.660   2.168   5.497
 8584TIP3    H125695   5.573   2.130   5.501
 8584TIP3    H225696   5.680   2.176   5.404
 8585TIP3   OH225697   2.486   5.414   6.127
 8585TIP3    H125698   2.540   5.477   6.175
 8585TIP3    H225699   2.540   5.385   6.054
 8586TIP3   OH225700   5.438   4.899   0.359
 8586TIP3    H125701   5.424   4.828   0.422
 8586TIP3    H225702   5.397   4.975   0.399
 8587TIP3   OH225703   1.576   2.020   5.206
 8587TIP3    H125704   1.569   1.977   5.291
 8587TIP3    H225705   1.570   2.114   5.226
 8588TIP3   OH225706   3.565   7.057   3.106
 8588TIP3    H125707   3.627   7.123   3.075
 8588TIP3    H225708   3.601   7.028   3.190
 8589TIP3   OH225709   3.108   6.791   6.525
 8589TIP3    H125710   3.125   6.723   6.590
 8589TIP3    H225711   3.193   6.807   6.484
 8590TIP3   OH225712   3.139   6.854   6.257
 8590TIP3    H125713   3.175   6.772   6.223
 8590TIP3    H225714   3.045   6.849   6.237
 8591TIP3   OH225715   3.948   2.778   3.476
 8591TIP3    H125716   3.877   2.717   3.455
 8591TIP3    H225717   4.027   2.724   3.475
 8592TIP3   OH225718   1.776   3.924   5.508
 8592TIP3    H125719   1.775   3.829   5.500
 8592TIP3    H225720   1.704   3.944   5.569
 8593TIP3   OH225721   3.554   6.219   3.859
 8593TIP3    H125722   3.524   6.131   3.879
 8593TIP3    H225723   3.609   6.243   3.934
 8594TIP3   OH225724   7.401   6.377   6.235
 8594TIP3    H125725   7.307   6.391   6.239
 8594TIP3    H225726   7.415   6.330   6.153
 8595TIP3   OH225727   6.766   5.312   1.417
 8595TIP3    H125728   6.730   5.234   1.373
 8595TIP3    H225729   6.805   5.363   1.346
 8596TIP3   OH225730   4.878   7.205   1.362
 8596TIP3    H125731   4.798   7.255   1.343
 8596TIP3    H225732   4.850   7.114   1.360
 8597TIP3   OH225733   5.680   7.036   2.488
 8597TIP3    H125734   5.588   7.038   2.463
 8597TIP3    H225735   5.714   7.121   2.461
 8598TIP3   OH225736   5.273   0.943   0.834
 8598TIP3    H125737   5.347   0.920   0.891
 8598TIP3    H225738   5.196   0.910   0.880
 8599TIP3   OH225739   6.342   2.652   4.977
 8599TIP3    H125740   6.403   2.587   4.942
 8599TIP3    H225741   6.332   2.627   5.069
 8600TIP3   OH225742   5.950   5.967   6.646
 8600TIP3    H125743   6.010   6.010   6.585
 8600TIP3    H225744   5.866   5.965   6.600
 8601TIP3   OH225745   3.043   1.414   4.128
 8601TIP3    H125746   3.133   1.381   4.128
 8601TIP3    H225747   3.051   1.508   4.112
 8602TIP3   OH225748   5.860   3.815   0.471
 8602TIP3    H125749   5.919   3.866   0.527
 8602TIP3    H225750   5.852   3.866   0.391
 8603TIP3   OH225751   0.629   0.662   5.397
 8603TIP3    H125752   0.692   0.660   5.325
 8603TIP3    H225753   0.615   0.569   5.419
 8604TIP3   OH225754   5.795   5.351   5.600
 8604TIP3    H125755   5.748   5.322   5.678
 8604TIP3    H225756   5.887   5.349   5.626
 8605TIP3   OH225757   0.906   4.149   5.028
 8605TIP3    H125758   0.842   4.081   5.052
 8605TIP3    H225759   0.923   4.195   5.111
 8606TIP3   OH225760   6.589   5.284   0.059
 8606TIP3    H125761   6.611   5.375   0.079
 8606TIP3    H225762   6.529   5.290  -0.015
 8607TIP3   OH225763   2.180   3.756   0.474
 8607TIP3    H125764   2.158   3.773   0.566
 8607TIP3    H225765   2.272   3.732   0.475
 8608TIP3   OH225766   7.329   1.730   2.816
 8608TIP3    H125767   7.424   1.722   2.818
 8608TIP3    H225768   7.307   1.774   2.898
 8609TIP3   OH225769   6.309   1.808   1.757
 8609TIP3    H125770   6.262   1.839   1.834
 8609TIP3    H225771   6.242   1.762   1.705
 8610TIP3   OH225772   6.038   7.064   3.401
 8610TIP3    H125773   6.063   7.137   3.345
 8610TIP3    H225774   6.083   6.988   3.365
 8611TIP3   OH225775   3.757   1.760   6.319
 8611TIP3    H125776   3.740   1.670   6.290
 8611TIP3    H225777   3.845   1.757   6.356
 8612TIP3   OH225778   4.426   3.431   4.674
 8612TIP3    H125779   4.476   3.452   4.595
 8612TIP3    H225780   4.480   3.367   4.721
 8613TIP3   OH225781   6.999   4.499   2.916
 8613TIP3    H125782   6.996   4.452   2.999
 8613TIP3    H225783   6.938   4.572   2.928
 8614TIP3   OH225784   0.373   1.122   5.811
 8614TIP3    H125785   0.284   1.086   5.809
 8614TIP3    H225786   0.406   1.099   5.898
 8615TIP3   OH225787   3.429   1.530   6.109
 8615TIP3    H125788   3.388   1.542   6.194
 8615TIP3    H225789   3.450   1.618   6.078
 8616TIP3   OH225790   3.905   7.082   1.836
 8616TIP3    H125791   3.881   7.060   1.926
 8616TIP3    H225792   3.999   7.063   1.831
 8617TIP3   OH225793   5.306   2.162   1.659
 8617TIP3    H125794   5.224   2.192   1.699
 8617TIP3    H225795   5.279   2.095   1.597
 8618TIP3   OH225796   5.486   2.312   4.620
 8618TIP3    H125797   5.400   2.340   4.652
 8618TIP3    H225798   5.548   2.354   4.679
 8619TIP3   OH225799   2.227   7.287   0.680
 8619TIP3    H125800   2.209   7.194   0.673
 8619TIP3    H225801   2.287   7.294   0.755
 8620TIP3   OH225802   6.497   3.984   5.999
 8620TIP3    H125803   6.406   4.015   5.994
 8620TIP3    H225804   6.538   4.039   6.065
 8621TIP3   OH225805   6.504   4.032   1.011
 8621TIP3    H125806   6.586   4.033   0.961
 8621TIP3    H225807   6.454   3.960   0.971
 8622TIP3   OH225808   6.069   1.425   3.851
 8622TIP3    H125809   6.025   1.361   3.906
 8622TIP3    H225810   6.082   1.502   3.907
 8623TIP3   OH225811   4.690   2.366   3.975
 8623TIP3    H125812   4.744   2.439   4.007
 8623TIP3    H225813   4.715   2.292   4.030
 8624TIP3   OH225814   2.610   5.153   4.389
 8624TIP3    H125815   2.545   5.122   4.453
 8624TIP3    H225816   2.559   5.199   4.323
 8625TIP3   OH225817   6.301   4.135   0.048
 8625TIP3    H125818   6.210   4.109   0.060
 8625TIP3    H225819   6.297   4.230   0.033
 8626TIP3   OH225820   1.880   3.659   3.636
 8626TIP3    H125821   1.800   3.706   3.612
 8626TIP3    H225822   1.949   3.702   3.586
 8627TIP3   OH225823   7.501   1.949   0.679
 8627TIP3    H125824   7.554   1.967   0.757
 8627TIP3    H225825   7.545   1.996   0.608
 8628TIP3   OH225826   4.154   6.799   4.784
 8628TIP3    H125827   4.119   6.862   4.847
 8628TIP3    H225828   4.229   6.760   4.829
 8629TIP3   OH225829   1.627   3.494   2.927
 8629TIP3    H125830   1.646   3.587   2.926
 8629TIP3    H225831   1.542   3.487   2.970
 8630TIP3   OH225832   2.418   3.872  -0.032
 8630TIP3    H125833   2.477   3.927   0.020
 8630TIP3    H225834   2.409   3.792   0.020
 8631TIP3   OH225835   6.403   3.867   5.063
 8631TIP3    H125836   6.471   3.931   5.086
 8631TIP3    H225837   6.324   3.919   5.053
 8632TIP3   OH225838   2.109   5.570   2.854
 8632TIP3    H125839   2.193   5.580   2.899
 8632TIP3    H225840   2.063   5.504   2.905
 8633TIP3   OH225841   6.933   3.966   0.892
 8633TIP3    H125842   6.857   3.998   0.843
 8633TIP3    H225843   6.957   4.040   0.949
 8634TIP3   OH225844   2.875   1.933   5.313
 8634TIP3    H125845   2.798   1.882   5.286
 8634TIP3    H225846   2.889   1.907   5.404
 8635TIP3   OH225847   4.010   2.532   0.201
 8635TIP3    H125848   3.946   2.589   0.157
 8635TIP3    H225849   3.958   2.479   0.261
 8636TIP3   OH225850   4.957   2.265   4.739
 8636TIP3    H125851   4.994   2.178   4.724
 8636TIP3    H225852   5.005   2.322   4.678
 8637TIP3   OH225853   3.187   6.245   2.731
 8637TIP3    H125854   3.138   6.247   2.649
 8637TIP3    H225855   3.259   6.184   2.715
 8638TIP3   OH225856   5.508   3.171   3.011
 8638TIP3    H125857   5.577   3.114   3.047
 8638TIP3    H225858   5.556   3.244   2.972
 8639TIP3   OH225859   7.898   3.674   4.937
 8639TIP3    H125860   7.886   3.620   4.859
 8639TIP3    H225861   7.833   3.642   4.999
 8640TIP3   OH225862   4.653   6.367   3.871
 8640TIP3    H125863   4.559   6.371   3.855
 8640TIP3    H225864   4.665   6.405   3.958
 8641TIP3   OH225865   5.319   5.278   4.512
 8641TIP3    H125866   5.261   5.332   4.566
 8641TIP3    H225867   5.407   5.299   4.544
 8642TIP3   OH225868   3.332   1.306   6.379
 8642TIP3    H125869   3.403   1.293   6.317
 8642TIP3    H225870   3.372   1.290   6.465
 8643TIP3   OH225871   4.022   4.569   1.463
 8643TIP3    H125872   3.946   4.589   1.409
 8643TIP3    H225873   4.097   4.602   1.412
 8644TIP3   OH225874   3.022   7.200   6.109
 8644TIP3    H125875   3.007   7.143   6.034
 8644TIP3    H225876   2.945   7.187   6.165
 8645TIP3   OH225877   4.436   5.292   4.217
 8645TIP3    H125878   4.480   5.209   4.195
 8645TIP3    H225879   4.402   5.324   4.133
 8646TIP3   OH225880   0.977   0.918   6.256
 8646TIP3    H125881   1.028   0.941   6.333
 8646TIP3    H225882   0.932   0.998   6.231
 8647TIP3   OH225883   0.507   2.641   2.260
 8647TIP3    H125884   0.503   2.582   2.336
 8647TIP3    H225885   0.515   2.582   2.185
 8648TIP3   OH225886   3.151   7.637   1.182
 8648TIP3    H125887   3.100   7.684   1.248
 8648TIP3    H225888   3.193   7.706   1.131
 8649TIP3   OH225889   0.105   4.037   2.835
 8649TIP3    H125890   0.073   3.955   2.799
 8649TIP3    H225891   0.190   4.016   2.872
 8650TIP3   OH225892   4.586   7.603   2.419
 8650TIP3    H125893   4.584   7.511   2.393
 8650TIP3    H225894   4.676   7.617   2.449
 8651TIP3   OH225895   5.823   2.346   3.661
 8651TIP3    H125896   5.776   2.294   3.595
 8651TIP3    H225897   5.754   2.393   3.707
 8652TIP3   OH225898   7.213   4.053   5.099
 8652TIP3    H125899   7.303   4.047   5.132
 8652TIP3    H225900   7.167   4.107   5.164
 8653TIP3   OH225901   2.600   7.542   2.985
 8653TIP3    H125902   2.583   7.456   2.949
 8653TIP3    H225903   2.515   7.572   3.018
 8654TIP3   OH225904   6.280   4.282   1.704
 8654TIP3    H125905   6.369   4.316   1.715
 8654TIP3    H225906   6.226   4.361   1.694
 8655TIP3   OH225907   7.219   0.410   3.777
 8655TIP3    H125908   7.202   0.443   3.865
 8655TIP3    H225909   7.188   0.479   3.718
 8656TIP3   OH225910   8.071   7.049   2.932
 8656TIP3    H125911   8.084   7.099   3.013
 8656TIP3    H225912   7.981   7.068   2.907
 8657TIP3   OH225913   5.856   6.517   1.966
 8657TIP3    H125914   5.929   6.579   1.965
 8657TIP3    H225915   5.866   6.470   2.049
 8658TIP3   OH225916   4.837   5.308   1.638
 8658TIP3    H125917   4.780   5.317   1.562
 8658TIP3    H225918   4.819   5.385   1.692
 8659TIP3   OH225919   2.432   7.433   1.253
 8659TIP3    H125920   2.469   7.519   1.273
 8659TIP3    H225921   2.350   7.453   1.208
 8660TIP3   OH225922   3.972   2.595   0.685
 8660TIP3    H125923   3.939   2.685   0.682
 8660TIP3    H225924   3.900   2.542   0.651
 8661TIP3   OH225925   6.732   4.592   2.174
 8661TIP3    H125926   6.800   4.581   2.241
 8661TIP3    H225927   6.685   4.508   2.174
 8662TIP3   OH225928   6.898   6.415   5.609
 8662TIP3    H125929   6.933   6.338   5.653
 8662TIP3    H225930   6.803   6.398   5.605
 8663TIP3   OH225931   2.373   2.426   5.149
 8663TIP3    H125932   2.386   2.490   5.219
 8663TIP3    H225933   2.278   2.413   5.145
 8664TIP3   OH225934   1.741   2.057   2.818
 8664TIP3    H125935   1.760   2.132   2.875
 8664TIP3    H225936   1.684   2.093   2.750
 8665TIP3   OH225937   1.915   3.662   6.150
 8665TIP3    H125938   1.968   3.740   6.165
 8665TIP3    H225939   1.825   3.692   6.162
 8666TIP3   OH225940   4.890   1.646   6.623
 8666TIP3    H125941   4.953   1.712   6.596
 8666TIP3    H225942   4.805   1.680   6.594
 8667TIP3   OH225943   5.263   1.295   3.879
 8667TIP3    H125944   5.248   1.261   3.791
 8667TIP3    H225945   5.318   1.372   3.866
 8668TIP3   OH225946   3.410   7.724   3.978
 8668TIP3    H125947   3.424   7.817   3.965
 8668TIP3    H225948   3.315   7.715   3.988
 8669TIP3   OH225949   2.366   2.827   6.658
 8669TIP3    H125950   2.365   2.849   6.752
 8669TIP3    H225951   2.277   2.842   6.629
 8670TIP3   OH225952   0.444   2.423   2.055
 8670TIP3    H125953   0.367   2.457   2.010
 8670TIP3    H225954   0.436   2.328   2.049
 8671TIP3   OH225955   7.250   7.329   2.882
 8671TIP3    H125956   7.328   7.315   2.828
 8671TIP3    H225957   7.277   7.302   2.970
 8672TIP3   OH225958   3.266   6.325   4.937
 8672TIP3    H125959   3.261   6.418   4.914
 8672TIP3    H225960   3.327   6.322   5.011
 8673TIP3   OH225961   6.763   3.482   1.354
 8673TIP3    H125962   6.814   3.466   1.433
 8673TIP3    H225963   6.823   3.462   1.282
 8674TIP3   OH225964   2.794   4.990   3.761
 8674TIP3    H125965   2.745   4.976   3.842
 8674TIP3    H225966   2.775   4.912   3.708
 8675TIP3   OH225967   6.870   7.314   5.117
 8675TIP3    H125968   6.964   7.326   5.107
 8675TIP3    H225969   6.854   7.225   5.085
 8676TIP3   OH225970   0.966   2.860   4.595
 8676TIP3    H125971   1.023   2.812   4.534
 8676TIP3    H225972   1.021   2.875   4.672
 8677TIP3   OH225973   1.813   2.712   6.273
 8677TIP3    H125974   1.868   2.640   6.306
 8677TIP3    H225975   1.872   2.766   6.221
 8678TIP3   OH225976   5.294   1.375   4.701
 8678TIP3    H125977   5.380   1.332   4.698
 8678TIP3    H225978   5.233   1.307   4.672
 8679TIP3   OH225979   1.056   0.301   1.348
 8679TIP3    H125980   1.085   0.220   1.389
 8679TIP3    H225981   1.009   0.347   1.418
 8680TIP3   OH225982   1.724   4.406   6.114
 8680TIP3    H125983   1.779   4.440   6.185
 8680TIP3    H225984   1.783   4.398   6.040
 8681TIP3   OH225985   5.546   1.736   0.978
 8681TIP3    H125986   5.471   1.721   1.036
 8681TIP3    H225987   5.572   1.826   0.996
 8682TIP3   OH225988   2.382   7.746   4.977
 8682TIP3    H125989   2.434   7.750   5.057
 8682TIP3    H225990   2.416   7.671   4.929
 8683TIP3   OH225991   0.528   0.191   0.852
 8683TIP3    H125992   0.459   0.136   0.889
 8683TIP3    H225993   0.610   0.147   0.875
 8684TIP3   OH225994   7.819   7.788   3.143
 8684TIP3    H125995   7.881   7.754   3.079
 8684TIP3    H225996   7.734   7.751   3.116
 8685TIP3   OH225997   7.481   2.789   1.555
 8685TIP3    H125998   7.574   2.792   1.580
 8685TIP3    H225999   7.471   2.860   1.491
 8686TIP3   OH226000   5.462   5.743   1.533
 8686TIP3    H126001   5.405   5.820   1.534
 8686TIP3    H226002   5.402   5.670   1.516
 8687TIP3   OH226003   0.761   3.121   0.725
 8687TIP3    H126004   0.775   3.127   0.630
 8687TIP3    H226005   0.731   3.031   0.739
 8688TIP3   OH226006   1.037   3.133   6.228
 8688TIP3    H126007   1.005   3.084   6.152
 8688TIP3    H226008   1.112   3.182   6.195
 8689TIP3   OH226009   1.468   2.455   1.832
 8689TIP3    H126010   1.403   2.389   1.854
 8689TIP3    H226011   1.441   2.532   1.882
 8690TIP3   OH226012   0.628   4.130   3.200
 8690TIP3    H126013   0.680   4.179   3.136
 8690TIP3    H226014   0.690   4.066   3.237
 8691TIP3   OH226015   3.401   1.117   4.563
 8691TIP3    H126016   3.331   1.159   4.513
 8691TIP3    H226017   3.430   1.045   4.508
 8692TIP3   OH226018   1.542   4.700   3.048
 8692TIP3    H126019   1.501   4.780   3.015
 8692TIP3    H226020   1.542   4.710   3.143
 8693TIP3   OH226021   5.160   6.489   6.129
 8693TIP3    H126022   5.233   6.466   6.187
 8693TIP3    H226023   5.146   6.583   6.144
 8694TIP3   OH226024   2.487   1.587   3.712
 8694TIP3    H126025   2.431   1.510   3.708
 8694TIP3    H226026   2.576   1.553   3.716
 8695TIP3   OH226027   1.692   4.281   2.969
 8695TIP3    H126028   1.728   4.326   3.045
 8695TIP3    H226029   1.598   4.295   2.976
 8696TIP3   OH226030   4.495   7.191   6.151
 8696TIP3    H126031   4.583   7.158   6.164
 8696TIP3    H226032   4.474   7.237   6.233
 8697TIP3   OH226033   5.011   3.906   3.527
 8697TIP3    H126034   5.093   3.856   3.530
 8697TIP3    H226035   5.010   3.955   3.609
 8698TIP3   OH226036   5.376   6.643   0.708
 8698TIP3    H126037   5.400   6.702   0.779
 8698TIP3    H226038   5.460   6.621   0.666
 8699TIP3   OH226039   6.318   3.521   2.454
 8699TIP3    H126040   6.248   3.551   2.511
 8699TIP3    H226041   6.294   3.431   2.432
 8700TIP3   OH226042   1.694   2.293   0.809
 8700TIP3    H126043   1.786   2.313   0.823
 8700TIP3    H226044   1.676   2.325   0.720
 8701TIP3   OH226045   6.826   5.653   5.435
 8701TIP3    H126046   6.764   5.665   5.363
 8701TIP3    H226047   6.910   5.636   5.392
 8702TIP3   OH226048   7.795   4.611   1.951
 8702TIP3    H126049   7.883   4.649   1.944
 8702TIP3    H226050   7.810   4.517   1.953
 8703TIP3   OH226051   6.856   5.437   2.525
 8703TIP3    H126052   6.949   5.452   2.504
 8703TIP3    H226053   6.836   5.352   2.486
 8704TIP3   OH226054   5.553   5.917   4.392
 8704TIP3    H126055   5.560   5.970   4.472
 8704TIP3    H226056   5.616   5.956   4.332
 8705TIP3   OH226057   2.823   0.706   1.999
 8705TIP3    H126058   2.784   0.786   1.963
 8705TIP3    H226059   2.852   0.657   1.922
 8706TIP3   OH226060   2.686   6.372   3.534
 8706TIP3    H126061   2.719   6.396   3.447
 8706TIP3    H226062   2.757   6.396   3.594
 8707TIP3   OH226063   7.326   4.327   0.666
 8707TIP3    H126064   7.329   4.239   0.704
 8707TIP3    H226065   7.398   4.328   0.603
 8708TIP3   OH226066   1.703   4.134   5.126
 8708TIP3    H126067   1.745   4.067   5.072
 8708TIP3    H226068   1.628   4.163   5.074
 8709TIP3   OH226069   3.658   4.706   2.447
 8709TIP3    H126070   3.706   4.702   2.364
 8709TIP3    H226071   3.570   4.734   2.421
 8710TIP3   OH226072   2.253   7.776   4.573
 8710TIP3    H126073   2.196   7.775   4.496
 8710TIP3    H226074   2.321   7.711   4.554
 8711TIP3   OH226075   0.149   3.126   2.145
 8711TIP3    H126076   0.097   3.155   2.069
 8711TIP3    H226077   0.104   3.163   2.220
 8712TIP3   OH226078   8.012   7.742   4.619
 8712TIP3    H126079   8.069   7.771   4.690
 8712TIP3    H226080   8.040   7.793   4.543
 8713TIP3   OH226081   4.223   4.120   5.431
 8713TIP3    H126082   4.230   4.216   5.428
 8713TIP3    H226083   4.310   4.090   5.456
 8714TIP3   OH226084   4.422   1.628   4.505
 8714TIP3    H126085   4.337   1.673   4.506
 8714TIP3    H226086   4.427   1.586   4.591
 8715TIP3   OH226087   4.480   3.681   6.089
 8715TIP3    H126088   4.558   3.737   6.093
 8715TIP3    H226089   4.509   3.596   6.122
 8716TIP3   OH226090   3.030   6.313   4.790
 8716TIP3    H126091   3.114   6.280   4.823
 8716TIP3    H226092   2.981   6.234   4.768
 8717TIP3   OH226093   5.315   5.105   0.489
 8717TIP3    H126094   5.239   5.161   0.505
 8717TIP3    H226095   5.360   5.101   0.573
 8718TIP3   OH226096   0.229   1.195   2.970
 8718TIP3    H126097   0.241   1.105   2.940
 8718TIP3    H226098   0.252   1.192   3.063
 8719TIP3   OH226099   2.705   3.374   4.345
 8719TIP3    H126100   2.746   3.344   4.426
 8719TIP3    H226101   2.749   3.324   4.276
 8720TIP3   OH226102   7.858   7.781   4.259
 8720TIP3    H126103   7.848   7.707   4.200
 8720TIP3    H226104   7.823   7.856   4.209
 8721TIP3   OH226105   5.299   6.754   2.760
 8721TIP3    H126106   5.394   6.750   2.771
 8721TIP3    H226107   5.264   6.707   2.836
 8722TIP3   OH226108   6.517   1.666   5.944
 8722TIP3    H126109   6.466   1.647   6.022
 8722TIP3    H226110   6.549   1.581   5.915
 8723TIP3   OH226111   5.698   2.289   2.091
 8723TIP3    H126112   5.771   2.307   2.151
 8723TIP3    H226113   5.652   2.215   2.131
 8724TIP3   OH226114   0.904   6.511   3.099
 8724TIP3    H126115   0.995   6.502   3.128
 8724TIP3    H226116   0.889   6.606   3.096
 8725TIP3   OH226117   2.541   2.541   3.913
 8725TIP3    H126118   2.573   2.476   3.976
 8725TIP3    H226119   2.497   2.488   3.845
 8726TIP3   OH226120   0.167   3.720   3.773
 8726TIP3    H126121   0.189   3.672   3.853
 8726TIP3    H226122   0.250   3.730   3.727
 8727TIP3   OH226123   7.623   5.676   0.325
 8727TIP3    H126124   7.627   5.589   0.365
 8727TIP3    H226125   7.551   5.670   0.263
 8728TIP3   OH226126   4.207   5.094   6.504
 8728TIP3    H126127   4.266   5.019   6.514
 8728TIP3    H226128   4.264   5.170   6.511
 8729TIP3   OH226129   1.659   6.346   3.133
 8729TIP3    H126130   1.584   6.297   3.100
 8729TIP3    H226131   1.620   6.420   3.181
 8730TIP3   OH226132   3.768   3.093   2.728
 8730TIP3    H126133   3.803   3.162   2.786
 8730TIP3    H226134   3.804   3.114   2.642
 8731TIP3   OH226135   1.929   6.334   4.525
 8731TIP3    H126136   2.022   6.343   4.544
 8731TIP3    H226137   1.926   6.313   4.431
 8732TIP3   OH226138   0.707   0.284   3.407
 8732TIP3    H126139   0.653   0.349   3.363
 8732TIP3    H226140   0.745   0.231   3.337
 8733TIP3   OH226141   6.362   2.539   0.443
 8733TIP3    H126142   6.282   2.489   0.461
 8733TIP3    H226143   6.372   2.597   0.519
 8734TIP3   OH226144   5.860   6.598   2.259
 8734TIP3    H126145   5.826   6.511   2.284
 8734TIP3    H226146   5.785   6.656   2.269
 8735TIP3   OH226147   4.972   0.286   3.676
 8735TIP3    H126148   4.991   0.379   3.687
 8735TIP3    H226149   4.890   0.284   3.625
 8736TIP3   OH226150   7.134   7.372   1.026
 8736TIP3    H126151   7.041   7.377   1.046
 8736TIP3    H226152   7.176   7.367   1.112
 8737TIP3   OH226153   6.429   4.923   5.455
 8737TIP3    H126154   6.431   5.008   5.500
 8737TIP3    H226155   6.427   4.945   5.362
 8738TIP3   OH226156   5.230   0.064   2.455
 8738TIP3    H126157   5.200  -0.026   2.457
 8738TIP3    H226158   5.316   0.062   2.498
 8739TIP3   OH226159   6.837   4.117   3.714
 8739TIP3    H126160   6.858   4.050   3.780
 8739TIP3    H226161   6.774   4.073   3.656
 8740TIP3   OH226162   7.471   1.908   4.113
 8740TIP3    H126163   7.511   1.863   4.188
 8740TIP3    H226164   7.397   1.852   4.089
 8741TIP3   OH226165   5.059   5.125   2.529
 8741TIP3    H126166   5.064   5.115   2.624
 8741TIP3    H226167   5.002   5.054   2.501
 8742TIP3   OH226168   4.476   3.313   6.668
 8742TIP3    H126169   4.571   3.300   6.661
 8742TIP3    H226170   4.461   3.328   6.761
 8743TIP3   OH226171   4.529   5.697   4.544
 8743TIP3    H126172   4.501   5.644   4.470
 8743TIP3    H226173   4.490   5.655   4.621
 8744TIP3   OH226174   4.232   5.660   1.736
 8744TIP3    H126175   4.158   5.695   1.784
 8744TIP3    H226176   4.215   5.684   1.645
 8745TIP3   OH226177   1.315   0.904   5.048
 8745TIP3    H126178   1.259   0.978   5.070
 8745TIP3    H226179   1.359   0.882   5.131
 8746TIP3   OH226180   3.781   1.927   2.608
 8746TIP3    H126181   3.697   1.896   2.639
 8746TIP3    H226182   3.784   2.019   2.634
 8747TIP3   OH226183   8.201   7.039   1.815
 8747TIP3    H126184   8.114   7.074   1.835
 8747TIP3    H226185   8.201   7.031   1.719
 8748TIP3   OH226186   6.014   0.147   5.968
 8748TIP3    H126187   5.973   0.123   6.051
 8748TIP3    H226188   5.961   0.103   5.902
 8749TIP3   OH226189   4.776   7.324   0.215
 8749TIP3    H126190   4.729   7.334   0.298
 8749TIP3    H226191   4.829   7.245   0.227
 8750TIP3   OH226192   3.953   2.184   0.203
 8750TIP3    H126193   3.979   2.221   0.288
 8750TIP3    H226194   3.917   2.098   0.225
 8751TIP3   OH226195   1.272   1.619   5.029
 8751TIP3    H126196   1.206   1.632   4.960
 8751TIP3    H226197   1.336   1.561   4.989
 8752TIP3   OH226198   5.049   2.732   1.145
 8752TIP3    H126199   5.014   2.739   1.056
 8752TIP3    H226200   4.988   2.783   1.199
 8753TIP3   OH226201   7.426   5.494   3.061
 8753TIP3    H126202   7.336   5.524   3.051
 8753TIP3    H226203   7.456   5.536   3.142
 8754TIP3   OH226204   4.842   1.869   1.480
 8754TIP3    H126205   4.763   1.921   1.496
 8754TIP3    H226206   4.912   1.933   1.471
 8755TIP3   OH226207   1.049   6.596   6.558
 8755TIP3    H126208   0.972   6.645   6.528
 8755TIP3    H226209   1.024   6.504   6.548
 8756TIP3   OH226210   0.466   7.606   4.794
 8756TIP3    H126211   0.437   7.518   4.817
 8756TIP3    H226212   0.425   7.662   4.859
 8757TIP3   OH226213   4.507   3.849   4.730
 8757TIP3    H126214   4.432   3.887   4.685
 8757TIP3    H226215   4.568   3.923   4.742
 8758TIP3   OH226216   7.910   3.805   4.023
 8758TIP3    H126217   7.997   3.790   4.059
 8758TIP3    H226218   7.852   3.803   4.099
 8759TIP3   OH226219   5.781   3.679   3.426
 8759TIP3    H126220   5.719   3.695   3.497
 8759TIP3    H226221   5.785   3.583   3.419
 8760TIP3   OH226222   1.551   0.808   3.616
 8760TIP3    H126223   1.463   0.846   3.614
 8760TIP3    H226224   1.536   0.715   3.632
 8761TIP3   OH226225   7.440   5.820   2.925
 8761TIP3    H126226   7.434   5.814   3.021
 8761TIP3    H226227   7.349   5.821   2.896
 8762TIP3   OH226228   7.410   7.674   0.236
 8762TIP3    H126229   7.316   7.685   0.220
 8762TIP3    H226230   7.415   7.640   0.325
 8763TIP3   OH226231   0.866   7.003   4.923
 8763TIP3    H126232   0.843   6.978   4.834
 8763TIP3    H226233   0.786   6.988   4.974
 8764TIP3   OH226234   0.073   7.271   4.918
 8764TIP3    H126235   0.089   7.285   5.012
 8764TIP3    H226236   0.101   7.181   4.902
 8765TIP3   OH226237   6.418   1.364   4.526
 8765TIP3    H126238   6.479   1.406   4.466
 8765TIP3    H226239   6.403   1.277   4.489
 8766TIP3   OH226240   6.302   6.234   4.782
 8766TIP3    H126241   6.364   6.283   4.836
 8766TIP3    H226242   6.343   6.149   4.770
 8767TIP3   OH226243   3.011   6.240   3.708
 8767TIP3    H126244   2.951   6.271   3.776
 8767TIP3    H226245   3.012   6.310   3.644
 8768TIP3   OH226246   0.542   6.210   3.817
 8768TIP3    H126247   0.489   6.257   3.753
 8768TIP3    H226248   0.599   6.277   3.854
 8769TIP3   OH226249   5.372   5.010   4.232
 8769TIP3    H126250   5.444   4.978   4.178
 8769TIP3    H226251   5.326   5.072   4.176
 8770TIP3   OH226252   7.517   7.100   3.086
 8770TIP3    H126253   7.575   7.099   3.010
 8770TIP3    H226254   7.571   7.067   3.157
 8771TIP3   OH226255   0.642   2.542   0.337
 8771TIP3    H126256   0.676   2.460   0.373
 8771TIP3    H226257   0.547   2.536   0.350
 8772TIP3   OH226258   4.311   3.482   0.105
 8772TIP3    H126259   4.291   3.558   0.050
 8772TIP3    H226260   4.233   3.470   0.160
 8773TIP3   OH226261   5.850   7.322   4.069
 8773TIP3    H126262   5.758   7.297   4.078
 8773TIP3    H226263   5.879   7.339   4.159
 8774TIP3   OH226264   3.845   5.895   5.165
 8774TIP3    H126265   3.842   5.836   5.240
 8774TIP3    H226266   3.767   5.873   5.114
 8775TIP3   OH226267   4.101   2.293   0.416
 8775TIP3    H126268   4.068   2.288   0.505
 8775TIP3    H226269   4.187   2.334   0.424
 8776TIP3   OH226270   6.001   7.639   2.476
 8776TIP3    H126271   6.076   7.698   2.468
 8776TIP3    H226272   5.970   7.652   2.566
 8777TIP3   OH226273   0.557   3.696   6.284
 8777TIP3    H126274   0.466   3.726   6.279
 8777TIP3    H226275   0.600   3.759   6.342
 8778TIP3   OH226276   2.413   6.432   0.207
 8778TIP3    H126277   2.403   6.387   0.291
 8778TIP3    H226278   2.434   6.363   0.144
 8779TIP3   OH226279   4.130   7.429   2.630
 8779TIP3    H126280   4.037   7.415   2.617
 8779TIP3    H226281   4.171   7.351   2.593
 8780TIP3   OH226282   5.848   6.692   0.682
 8780TIP3    H126283   5.826   6.638   0.758
 8780TIP3    H226284   5.832   6.634   0.607
 8781TIP3   OH226285   1.912   2.920   2.562
 8781TIP3    H126286   1.874   2.845   2.607
 8781TIP3    H226287   2.000   2.928   2.599
 8782TIP3   OH226288   3.311   7.551   6.582
 8782TIP3    H126289   3.299   7.456   6.584
 8782TIP3    H226290   3.239   7.585   6.635
 8783TIP3   OH226291   5.171   6.627   2.537
 8783TIP3    H126292   5.211   6.686   2.600
 8783TIP3    H226293   5.228   6.550   2.536
 8784TIP3   OH226294   5.604   5.019   4.492
 8784TIP3    H126295   5.515   4.995   4.468
 8784TIP3    H226296   5.657   4.991   4.417
 8785TIP3   OH226297   4.087   4.328   6.704
 8785TIP3    H126298   4.004   4.324   6.657
 8785TIP3    H226299   4.112   4.236   6.717
 8786TIP3   OH226300   8.001   2.126   5.286
 8786TIP3    H126301   7.908   2.116   5.306
 8786TIP3    H226302   8.027   2.207   5.330
 8787TIP3   OH226303   5.755   2.619   0.659
 8787TIP3    H126304   5.794   2.638   0.745
 8787TIP3    H226305   5.701   2.695   0.640
 8788TIP3   OH226306   6.927   0.892   2.141
 8788TIP3    H126307   6.892   0.804   2.127
 8788TIP3    H226308   6.852   0.942   2.174
 8789TIP3   OH226309   0.441   0.127   3.860
 8789TIP3    H126310   0.489   0.199   3.820
 8789TIP3    H226311   0.506   0.058   3.872
 8790TIP3   OH226312   4.302   1.740   3.316
 8790TIP3    H126313   4.333   1.827   3.344
 8790TIP3    H226314   4.375   1.703   3.266
 8791TIP3   OH226315   3.669   7.482   3.319
 8791TIP3    H126316   3.691   7.451   3.407
 8791TIP3    H226317   3.646   7.403   3.270
 8792TIP3   OH226318   7.528   5.698   4.116
 8792TIP3    H126319   7.623   5.690   4.123
 8792TIP3    H226320   7.512   5.793   4.113
 8793TIP3   OH226321   8.022   4.475   1.347
 8793TIP3    H126322   8.019   4.563   1.385
 8793TIP3    H226323   7.931   4.446   1.347
 8794TIP3   OH226324   7.810   3.278   5.658
 8794TIP3    H126325   7.858   3.336   5.717
 8794TIP3    H226326   7.866   3.201   5.649
 8795TIP3   OH226327   3.208   1.910   6.414
 8795TIP3    H126328   3.265   1.838   6.441
 8795TIP3    H226329   3.190   1.892   6.321
 8796TIP3   OH226330   0.127   0.353   0.742
 8796TIP3    H126331   0.129   0.328   0.834
 8796TIP3    H226332   0.217   0.341   0.712
 8797TIP3   OH226333   4.842   6.724   4.215
 8797TIP3    H126334   4.924   6.734   4.166
 8797TIP3    H226335   4.805   6.642   4.183
 8798TIP3   OH226336   5.493   6.772   3.129
 8798TIP3    H126337   5.424   6.722   3.174
 8798TIP3    H226338   5.492   6.857   3.172
 8799TIP3   OH226339   0.428   5.008   2.153
 8799TIP3    H126340   0.359   5.071   2.137
 8799TIP3    H226341   0.382   4.926   2.173
 8800TIP3   OH226342   4.399   2.914   2.810
 8800TIP3    H126343   4.425   2.829   2.846
 8800TIP3    H226344   4.313   2.930   2.849
 8801TIP3   OH226345   0.632   3.326   3.728
 8801TIP3    H126346   0.683   3.250   3.756
 8801TIP3    H226347   0.689   3.373   3.668
 8802TIP3   OH226348   7.678   0.165   1.902
 8802TIP3    H126349   7.621   0.088   1.894
 8802TIP3    H226350   7.625   0.229   1.950
 8803TIP3   OH226351   5.834   7.473   5.856
 8803TIP3    H126352   5.849   7.381   5.839
 8803TIP3    H226353   5.751   7.493   5.814
 8804TIP3   OH226354   0.613   5.850   0.277
 8804TIP3    H126355   0.666   5.889   0.347
 8804TIP3    H226356   0.555   5.789   0.322
 8805TIP3   OH226357   2.333   7.611   0.457
 8805TIP3    H126358   2.323   7.702   0.483
 8805TIP3    H226359   2.418   7.585   0.493
 8806TIP3   OH226360   5.716   1.878   2.019
 8806TIP3    H126361   5.674   1.854   2.102
 8806TIP3    H226362   5.642   1.894   1.960
 8807TIP3   OH226363   6.882   1.297   4.141
 8807TIP3    H126364   6.801   1.347   4.131
 8807TIP3    H226365   6.919   1.294   4.052
 8808TIP3   OH226366   2.895   6.299   6.056
 8808TIP3    H126367   2.854   6.267   6.137
 8808TIP3    H226368   2.973   6.346   6.085
 8809TIP3   OH226369   5.404   6.135   0.570
 8809TIP3    H126370   5.355   6.209   0.535
 8809TIP3    H226371   5.344   6.093   0.632
 8810TIP3   OH226372   7.045   5.705   4.385
 8810TIP3    H126373   7.050   5.720   4.480
 8810TIP3    H226374   7.129   5.666   4.363
 8811TIP3   OH226375   8.100   4.455   0.303
 8811TIP3    H126376   8.028   4.471   0.363
 8811TIP3    H226377   8.097   4.528   0.242
 8812TIP3   OH226378   7.901   5.859   6.001
 8812TIP3    H126379   7.861   5.781   6.040
 8812TIP3    H226380   7.912   5.920   6.074
 8813TIP3   OH226381   7.903   0.426   6.274
 8813TIP3    H126382   7.925   0.513   6.243
 8813TIP3    H226383   7.937   0.423   6.363
 8814TIP3   OH226384   6.000   3.402   4.389
 8814TIP3    H126385   6.065   3.459   4.348
 8814TIP3    H226386   6.047   3.319   4.403
 8815TIP3   OH226387   5.136   2.989   5.325
 8815TIP3    H126388   5.195   2.944   5.264
 8815TIP3    H226389   5.068   3.026   5.268
 8816TIP3   OH226390   7.338   5.894   6.055
 8816TIP3    H126391   7.343   5.963   5.989
 8816TIP3    H226392   7.246   5.893   6.082
 8817TIP3   OH226393   2.086   5.643   4.537
 8817TIP3    H126394   1.994   5.621   4.527
 8817TIP3    H226395   2.092   5.734   4.509
 8818TIP3   OH226396   5.431   3.665   0.900
 8818TIP3    H126397   5.489   3.730   0.861
 8818TIP3    H226398   5.480   3.583   0.894
 8819TIP3   OH226399   5.161   2.043   6.501
 8819TIP3    H126400   5.169   2.102   6.576
 8819TIP3    H226401   5.230   2.070   6.441
 8820TIP3   OH226402   7.960   3.616   6.710
 8820TIP3    H126403   8.053   3.608   6.689
 8820TIP3    H226404   7.958   3.635   6.804
 8821TIP3   OH226405   6.186   6.112   5.779
 8821TIP3    H126406   6.229   6.029   5.798
 8821TIP3    H226407   6.093   6.091   5.775
 8822TIP3   OH226408   4.513   2.376   3.372
 8822TIP3    H126409   4.524   2.421   3.288
 8822TIP3    H226410   4.598   2.333   3.387
 8823TIP3   OH226411   6.532   2.787   2.346
 8823TIP3    H126412   6.495   2.712   2.299
 8823TIP3    H226413   6.546   2.755   2.434
 8824TIP3   OH226414   0.284   0.655   0.484
 8824TIP3    H126415   0.287   0.741   0.442
 8824TIP3    H226416   0.356   0.656   0.547
 8825TIP3   OH226417   0.967   5.688   4.665
 8825TIP3    H126418   0.918   5.614   4.629
 8825TIP3    H226419   1.020   5.720   4.592
 8826TIP3   OH226420   4.066   3.904   5.646
 8826TIP3    H126421   4.055   3.962   5.722
 8826TIP3    H226422   4.028   3.952   5.573
 8827TIP3   OH226423   0.064   3.697   4.986
 8827TIP3    H126424  -0.010   3.663   4.934
 8827TIP3    H226425   0.083   3.782   4.947
 8828TIP3   OH226426   1.091   6.306   1.972
 8828TIP3    H126427   1.002   6.318   2.005
 8828TIP3    H226428   1.096   6.213   1.948
 8829TIP3   OH226429   5.972   5.524   0.585
 8829TIP3    H126430   6.036   5.466   0.626
 8829TIP3    H226431   6.023   5.576   0.523
 8830TIP3   OH226432   0.755   7.340   6.336
 8830TIP3    H126433   0.813   7.408   6.301
 8830TIP3    H226434   0.668   7.367   6.310
 8831TIP3   OH226435   6.110   0.620   5.691
 8831TIP3    H126436   6.111   0.531   5.726
 8831TIP3    H226437   6.040   0.619   5.626
 8832TIP3   OH226438   6.356   4.445   5.100
 8832TIP3    H126439   6.429   4.426   5.160
 8832TIP3    H226440   6.372   4.536   5.072
 8833TIP3   OH226441   5.351   4.129   6.042
 8833TIP3    H126442   5.333   4.148   6.134
 8833TIP3    H226443   5.438   4.090   6.043
 8834TIP3   OH226444   8.247   3.132   3.544
 8834TIP3    H126445   8.159   3.122   3.507
 8834TIP3    H226446   8.302   3.156   3.469
 8835TIP3   OH226447   8.080   0.542   3.711
 8835TIP3    H126448   8.037   0.619   3.749
 8835TIP3    H226449   8.008   0.492   3.671
 8836TIP3   OH226450   3.288   6.311   3.858
 8836TIP3    H126451   3.243   6.274   3.782
 8836TIP3    H226452   3.377   6.277   3.852
 8837TIP3   OH226453   3.535   2.517   1.542
 8837TIP3    H126454   3.478   2.594   1.542
 8837TIP3    H226455   3.484   2.450   1.498
 8838TIP3   OH226456   7.023   4.625   5.104
 8838TIP3    H126457   6.930   4.637   5.085
 8838TIP3    H226458   7.067   4.643   5.021
 8839TIP3   OH226459   4.911   5.691   2.969
 8839TIP3    H126460   4.957   5.727   2.893
 8839TIP3    H226461   4.823   5.726   2.963
 8840TIP3   OH226462   3.749   2.819   0.686
 8840TIP3    H126463   3.810   2.837   0.758
 8840TIP3    H226464   3.704   2.902   0.671
 8841TIP3   OH226465   6.403   0.167   1.766
 8841TIP3    H126466   6.390   0.151   1.860
 8841TIP3    H226467   6.315   0.182   1.732
 8842TIP3   OH226468   6.588   0.924   1.934
 8842TIP3    H126469   6.669   0.975   1.927
 8842TIP3    H226470   6.589   0.867   1.857
 8843TIP3   OH226471   7.382   7.481   5.745
 8843TIP3    H126472   7.414   7.436   5.667
 8843TIP3    H226473   7.405   7.423   5.818
 8844TIP3   OH226474   5.650   0.752   5.533
 8844TIP3    H126475   5.563   0.752   5.495
 8844TIP3    H226476   5.651   0.828   5.592
 8845TIP3   OH226477   3.835   2.620   6.353
 8845TIP3    H126478   3.857   2.527   6.353
 8845TIP3    H226479   3.916   2.664   6.381
 8846TIP3   OH226480   2.637   3.320   5.746
 8846TIP3    H126481   2.704   3.253   5.757
 8846TIP3    H226482   2.580   3.310   5.822
 8847TIP3   OH226483   0.608   4.769   6.161
 8847TIP3    H126484   0.595   4.736   6.072
 8847TIP3    H226485   0.680   4.831   6.154
 8848TIP3   OH226486   7.620   3.998   0.763
 8848TIP3    H126487   7.595   3.924   0.707
 8848TIP3    H226488   7.536   4.037   0.789
 8849TIP3   OH226489   3.279   5.108   6.423
 8849TIP3    H126490   3.184   5.106   6.438
 8849TIP3    H226491   3.296   5.026   6.375
 8850TIP3   OH226492   6.910   7.559   5.924
 8850TIP3    H126493   6.856   7.557   5.845
 8850TIP3    H226494   6.944   7.648   5.927
 8851TIP3   OH226495   1.450   4.107   5.485
 8851TIP3    H126496   1.456   4.142   5.573
 8851TIP3    H226497   1.380   4.157   5.443
 8852TIP3   OH226498   1.344   4.990   1.158
 8852TIP3    H126499   1.345   4.900   1.190
 8852TIP3    H226500   1.404   5.037   1.216
 8853TIP3   OH226501   8.104   4.620   1.145
 8853TIP3    H126502   8.057   4.562   1.205
 8853TIP3    H226503   8.197   4.602   1.162
 8854TIP3   OH226504   4.179   2.269   3.966
 8854TIP3    H126505   4.178   2.364   3.975
 8854TIP3    H226506   4.142   2.252   3.879
 8855TIP3   OH226507   2.593   6.395   1.307
 8855TIP3    H126508   2.546   6.312   1.301
 8855TIP3    H226509   2.675   6.374   1.351
 8856TIP3   OH226510   3.013   4.549   1.121
 8856TIP3    H126511   3.017   4.498   1.040
 8856TIP3    H226512   2.939   4.512   1.169
 8857TIP3   OH226513   1.087   7.539   1.236
 8857TIP3    H126514   1.082   7.512   1.144
 8857TIP3    H226515   1.006   7.588   1.252
 8858TIP3   OH226516   3.503   3.528   1.467
 8858TIP3    H126517   3.456   3.499   1.545
 8858TIP3    H226518   3.482   3.621   1.459
 8859TIP3   OH226519   0.929   6.048   6.201
 8859TIP3    H126520   0.938   6.029   6.107
 8859TIP3    H226521   0.835   6.059   6.214
 8860TIP3   OH226522   1.740   1.374   0.870
 8860TIP3    H126523   1.656   1.367   0.824
 8860TIP3    H226524   1.749   1.291   0.918
 8861TIP3   OH226525   3.160   3.847   3.784
 8861TIP3    H126526   3.089   3.895   3.827
 8861TIP3    H226527   3.115   3.784   3.727
 8862TIP3   OH226528   4.040   5.226   1.918
 8862TIP3    H126529   4.090   5.208   1.838
 8862TIP3    H226530   3.951   5.199   1.897
 8863TIP3   OH226531   1.349   5.909   3.162
 8863TIP3    H126532   1.270   5.925   3.110
 8863TIP3    H226533   1.343   5.971   3.235
 8864TIP3   OH226534   7.756   7.580   6.458
 8864TIP3    H126535   7.739   7.662   6.504
 8864TIP3    H226536   7.852   7.575   6.452
 8865TIP3   OH226537   3.937   2.884   2.812
 8865TIP3    H126538   4.008   2.840   2.765
 8865TIP3    H226539   3.902   2.948   2.750
 8866TIP3   OH226540   5.871   4.852   4.742
 8866TIP3    H126541   5.948   4.824   4.693
 8866TIP3    H226542   5.871   4.948   4.735
 8867TIP3   OH226543   1.483   1.069   2.839
 8867TIP3    H126544   1.465   1.160   2.816
 8867TIP3    H226545   1.451   1.060   2.929
 8868TIP3   OH226546   7.280   2.914   2.457
 8868TIP3    H126547   7.218   2.844   2.474
 8868TIP3    H226548   7.227   2.993   2.452
 8869TIP3   OH226549   4.590   3.592   2.876
 8869TIP3    H126550   4.519   3.543   2.919
 8869TIP3    H226551   4.589   3.562   2.785
 8870TIP3   OH226552   2.711   0.553   5.391
 8870TIP3    H126553   2.686   0.523   5.478
 8870TIP3    H226554   2.793   0.507   5.372
 8871TIP3   OH226555   4.985   1.456   5.722
 8871TIP3    H126556   5.042   1.405   5.663
 8871TIP3    H226557   4.925   1.501   5.663
 8872TIP3   OH226558   6.559   3.057   2.444
 8872TIP3    H126559   6.478   3.050   2.394
 8872TIP3    H226560   6.623   3.004   2.396
 8873TIP3   OH226561   4.769   4.028   1.480
 8873TIP3    H126562   4.788   3.940   1.447
 8873TIP3    H226563   4.855   4.066   1.497
 8874TIP3   OH226564   3.912   1.873   6.682
 8874TIP3    H126565   3.830   1.905   6.720
 8874TIP3    H226566   3.978   1.896   6.747
 8875TIP3   OH226567   0.765   5.879   1.565
 8875TIP3    H126568   0.757   5.918   1.652
 8875TIP3    H226569   0.780   5.786   1.582
 8876TIP3   OH226570   1.348   2.224   6.719
 8876TIP3    H126571   1.305   2.258   6.798
 8876TIP3    H226572   1.292   2.152   6.690
 8877TIP3   OH226573   1.486   1.442   6.584
 8877TIP3    H126574   1.496   1.536   6.566
 8877TIP3    H226575   1.407   1.417   6.537
 8878TIP3   OH226576   6.346   2.558   2.141
 8878TIP3    H126577   6.441   2.561   2.133
 8878TIP3    H226578   6.319   2.488   2.082
 8879TIP3   OH226579   7.092   1.055   4.158
 8879TIP3    H126580   7.135   0.984   4.205
 8879TIP3    H226581   6.999   1.031   4.158
 8880TIP3   OH226582   2.362   4.112   6.611
 8880TIP3    H126583   2.357   4.202   6.579
 8880TIP3    H226584   2.421   4.067   6.550
 8881TIP3   OH226585   4.257   6.851   2.709
 8881TIP3    H126586   4.232   6.773   2.660
 8881TIP3    H226587   4.218   6.838   2.795
 8882TIP3   OH226588   5.680   1.803   3.342
 8882TIP3    H126589   5.770   1.791   3.371
 8882TIP3    H226590   5.652   1.885   3.384
 8883TIP3   OH226591   6.618   4.925   1.742
 8883TIP3    H126592   6.583   4.931   1.653
 8883TIP3    H226593   6.616   4.832   1.763
 8884TIP3   OH226594   7.032   2.446   5.163
 8884TIP3    H126595   6.976   2.466   5.087
 8884TIP3    H226596   7.119   2.475   5.137
 8885TIP3   OH226597   0.128   6.925   3.030
 8885TIP3    H126598   0.091   6.865   2.966
 8885TIP3    H226599   0.063   6.929   3.099
 8886TIP3   OH226600   2.982   6.374   2.274
 8886TIP3    H126601   2.950   6.316   2.205
 8886TIP3    H226602   2.905   6.423   2.301
 8887TIP3   OH226603   7.943   7.249   4.805
 8887TIP3    H126604   7.971   7.231   4.716
 8887TIP3    H226605   7.991   7.329   4.829
 8888TIP3   OH226606   3.968   6.123   5.067
 8888TIP3    H126607   3.923   6.039   5.056
 8888TIP3    H226608   3.919   6.184   5.013
 8889TIP3   OH226609   6.164   4.468   5.642
 8889TIP3    H126610   6.181   4.562   5.654
 8889TIP3    H226611   6.199   4.448   5.555
 8890TIP3   OH226612   0.020   4.631   3.201
 8890TIP3    H126613   0.081   4.558   3.207
 8890TIP3    H226614   0.028   4.676   3.286
 8891TIP3   OH226615   5.115   2.640   3.967
 8891TIP3    H126616   5.114   2.627   3.872
 8891TIP3    H226617   5.161   2.723   3.980
 8892TIP3   OH226618   6.559   0.823   3.160
 8892TIP3    H126619   6.594   0.787   3.241
 8892TIP3    H226620   6.621   0.794   3.093
 8893TIP3   OH226621   5.500   6.370   3.334
 8893TIP3    H126622   5.542   6.292   3.298
 8893TIP3    H226623   5.560   6.398   3.404
 8894TIP3   OH226624   7.036   0.047   4.760
 8894TIP3    H126625   7.106   0.034   4.824
 8894TIP3    H226626   7.049   0.137   4.729
 8895TIP3   OH226627   7.601   5.951   5.247
 8895TIP3    H126628   7.570   5.911   5.328
 8895TIP3    H226629   7.549   5.910   5.178
 8896TIP3   OH226630   8.186   1.046   3.444
 8896TIP3    H126631   8.237   1.067   3.366
 8896TIP3    H226632   8.246   0.996   3.500
 8897TIP3   OH226633   1.711   6.789   0.778
 8897TIP3    H126634   1.728   6.713   0.722
 8897TIP3    H226635   1.731   6.865   0.722
 8898TIP3   OH226636   1.480   5.183   1.812
 8898TIP3    H126637   1.472   5.104   1.759
 8898TIP3    H226638   1.500   5.151   1.900
 8899TIP3   OH226639   4.170   2.947   4.915
 8899TIP3    H126640   4.255   2.908   4.935
 8899TIP3    H226641   4.175   2.973   4.823
 8900TIP3   OH226642   3.012   0.893   0.721
 8900TIP3    H126643   2.944   0.958   0.701
 8900TIP3    H226644   3.039   0.859   0.636
 8901TIP3   OH226645   1.258   6.880   4.129
 8901TIP3    H126646   1.261   6.889   4.033
 8901TIP3    H226647   1.315   6.806   4.147
 8902TIP3   OH226648   2.336   1.293   2.865
 8902TIP3    H126649   2.262   1.270   2.921
 8902TIP3    H226650   2.377   1.368   2.909
 8903TIP3   OH226651   1.063   0.225   3.344
 8903TIP3    H126652   0.987   0.182   3.306
 8903TIP3    H226653   1.081   0.177   3.425
 8904TIP3   OH226654   2.483   3.389   3.714
 8904TIP3    H126655   2.434   3.369   3.633
 8904TIP3    H226656   2.573   3.404   3.684
 8905TIP3   OH226657   6.914   0.048   0.799
 8905TIP3    H126658   6.902   0.134   0.838
 8905TIP3    H226659   6.919   0.065   0.705
 8906TIP3   OH226660   0.171   0.165   4.495
 8906TIP3    H126661   0.105   0.221   4.454
 8906TIP3    H226662   0.121   0.108   4.553
 8907TIP3   OH226663   3.316   3.487   5.727
 8907TIP3    H126664   3.256   3.560   5.743
 8907TIP3    H226665   3.400   3.529   5.709
 8908TIP3   OH226666   4.281   0.281   0.559
 8908TIP3    H126667   4.246   0.199   0.592
 8908TIP3    H226668   4.224   0.349   0.595
 8909TIP3   OH226669   6.294   0.300   2.830
 8909TIP3    H126670   6.299   0.349   2.748
 8909TIP3    H226671   6.208   0.259   2.828
 8910TIP3   OH226672   1.322   6.684   4.449
 8910TIP3    H126673   1.355   6.698   4.360
 8910TIP3    H226674   1.336   6.767   4.494
 8911TIP3   OH226675   5.618   3.115   5.834
 8911TIP3    H126676   5.583   3.200   5.804
 8911TIP3    H226677   5.594   3.054   5.764
 8912TIP3   OH226678   0.502   2.509   5.224
 8912TIP3    H126679   0.523   2.418   5.206
 8912TIP3    H226680   0.472   2.510   5.315
 8913TIP3   OH226681   3.532   7.524   2.611
 8913TIP3    H126682   3.463   7.566   2.662
 8913TIP3    H226683   3.607   7.583   2.619
 8914TIP3   OH226684   0.682   4.352   2.729
 8914TIP3    H126685   0.653   4.269   2.768
 8914TIP3    H226686   0.716   4.402   2.803
 8915TIP3   OH226687   2.835   5.773   5.422
 8915TIP3    H126688   2.839   5.711   5.349
 8915TIP3    H226689   2.778   5.843   5.391
 8916TIP3   OH226690   6.480   6.521   0.958
 8916TIP3    H126691   6.524   6.482   0.883
 8916TIP3    H226692   6.478   6.452   1.024
 8917TIP3   OH226693   6.496   5.622   6.248
 8917TIP3    H126694   6.450   5.705   6.241
 8917TIP3    H226695   6.436   5.564   6.296
 8918TIP3   OH226696   6.992   4.146   5.246
 8918TIP3    H126697   6.901   4.169   5.227
 8918TIP3    H226698   6.993   4.133   5.341
 8919TIP3   OH226699   0.215   5.791   2.812
 8919TIP3    H126700   0.280   5.782   2.881
 8919TIP3    H226701   0.135   5.752   2.849
 8920TIP3   OH226702   1.024   2.429   3.705
 8920TIP3    H126703   0.938   2.410   3.666
 8920TIP3    H226704   1.085   2.424   3.631
 8921TIP3   OH226705   5.099   2.139   5.675
 8921TIP3    H126706   5.142   2.058   5.703
 8921TIP3    H226707   5.038   2.160   5.745
 8922TIP3   OH226708   2.650   7.022   4.577
 8922TIP3    H126709   2.707   7.075   4.521
 8922TIP3    H226710   2.701   7.011   4.657
 8923TIP3   OH226711   0.851   6.785   3.103
 8923TIP3    H126712   0.783   6.743   3.050
 8923TIP3    H226713   0.922   6.802   3.042
 8924TIP3   OH226714   3.359   7.556   2.830
 8924TIP3    H126715   3.372   7.613   2.905
 8924TIP3    H226716   3.407   7.476   2.852
 8925TIP3   OH226717   0.068   2.073   1.712
 8925TIP3    H126718   0.123   2.078   1.634
 8925TIP3    H226719   0.108   2.136   1.773
 8926TIP3   OH226720   6.036   2.923   6.052
 8926TIP3    H126721   5.959   2.880   6.090
 8926TIP3    H226722   6.110   2.870   6.080
 8927TIP3   OH226723   0.098   7.609   6.451
 8927TIP3    H126724   0.168   7.674   6.446
 8927TIP3    H226725   0.119   7.558   6.530
 8928TIP3   OH226726   2.560   3.868   1.644
 8928TIP3    H126727   2.646   3.864   1.602
 8928TIP3    H226728   2.570   3.932   1.713
 8929TIP3   OH226729   6.311   2.575   3.847
 8929TIP3    H126730   6.284   2.658   3.809
 8929TIP3    H226731   6.228   2.529   3.866
 8930TIP3   OH226732   1.248   4.549   0.855
 8930TIP3    H126733   1.176   4.505   0.809
 8930TIP3    H226734   1.293   4.599   0.787
 8931TIP3   OH226735   4.502   3.783   5.022
 8931TIP3    H126736   4.537   3.867   5.051
 8931TIP3    H226737   4.502   3.790   4.926
 8932TIP3   OH226738   7.433   5.789   6.710
 8932TIP3    H126739   7.453   5.722   6.645
 8932TIP3    H226740   7.516   5.835   6.724
 8933TIP3   OH226741   5.419   4.372   4.562
 8933TIP3    H126742   5.482   4.442   4.575
 8933TIP3    H226743   5.343   4.398   4.614
 8934TIP3   OH226744   6.653   3.755   1.001
 8934TIP3    H126745   6.685   3.665   0.987
 8934TIP3    H226746   6.726   3.811   0.975
 8935TIP3   OH226747   7.642   3.999   1.863
 8935TIP3    H126748   7.590   4.027   1.938
 8935TIP3    H226749   7.634   3.903   1.864
 8936TIP3   OH226750   1.006   2.509   0.186
 8936TIP3    H126751   0.929   2.457   0.211
 8936TIP3    H226752   1.058   2.450   0.131
 8937TIP3   OH226753   8.290   6.650   5.046
 8937TIP3    H126754   8.266   6.643   5.139
 8937TIP3    H226755   8.212   6.622   4.999
 8938TIP3   OH226756   3.915   7.769   1.121
 8938TIP3    H126757   3.986   7.789   1.182
 8938TIP3    H226758   3.902   7.850   1.071
 8939TIP3   OH226759   5.900   3.108   0.967
 8939TIP3    H126760   5.844   3.163   0.912
 8939TIP3    H226761   5.851   3.027   0.979
 8940TIP3   OH226762   0.625   3.018   5.398
 8940TIP3    H126763   0.647   2.929   5.370
 8940TIP3    H226764   0.547   3.008   5.453
 8941TIP3   OH226765   2.713   1.874   6.218
 8941TIP3    H126766   2.785   1.864   6.281
 8941TIP3    H226767   2.674   1.787   6.213
 8942TIP3   OH226768   3.100   1.900   2.055
 8942TIP3    H126769   3.054   1.969   2.103
 8942TIP3    H226770   3.140   1.946   1.981
 8943TIP3   OH226771   1.893   6.461   5.367
 8943TIP3    H126772   1.834   6.524   5.325
 8943TIP3    H226773   1.956   6.515   5.415
 8944TIP3   OH226774   3.626   4.092   1.341
 8944TIP3    H126775   3.591   4.070   1.427
 8944TIP3    H226776   3.717   4.061   1.344
 8945TIP3   OH226777   3.437   1.758   5.966
 8945TIP3    H126778   3.500   1.735   5.897
 8945TIP3    H226779   3.369   1.808   5.922
 8946TIP3   OH226780   5.581   1.535   6.466
 8946TIP3    H126781   5.642   1.559   6.536
 8946TIP3    H226782   5.635   1.535   6.387
 8947TIP3   OH226783   6.601   4.504   1.470
 8947TIP3    H126784   6.586   4.519   1.376
 8947TIP3    H226785   6.696   4.507   1.480
 8948TIP3   OH226786   2.289   3.394   4.582
 8948TIP3    H126787   2.286   3.484   4.548
 8948TIP3    H226788   2.198   3.374   4.605
 8949TIP3   OH226789   5.779   1.286   1.720
 8949TIP3    H126790   5.804   1.229   1.793
 8949TIP3    H226791   5.842   1.266   1.651
 8950TIP3   OH226792   7.231   0.615   3.327
 8950TIP3    H126793   7.273   0.593   3.410
 8950TIP3    H226794   7.211   0.530   3.287
 8951TIP3   OH226795   6.973   0.466   3.398
 8951TIP3    H126796   6.974   0.402   3.469
 8951TIP3    H226797   7.049   0.444   3.345
 8952TIP3   OH226798   6.068   2.623   1.420
 8952TIP3    H126799   5.994   2.684   1.419
 8952TIP3    H226800   6.133   2.664   1.477
 8953TIP3   OH226801   0.081   2.263   3.624
 8953TIP3    H126802   0.021   2.273   3.698
 8953TIP3    H226803   0.055   2.332   3.563
 8954TIP3   OH226804   1.935   5.725   3.266
 8954TIP3    H126805   2.004   5.738   3.331
 8954TIP3    H226806   1.941   5.633   3.243
 8955TIP3   OH226807   7.928   4.994   2.771
 8955TIP3    H126808   7.849   5.047   2.778
 8955TIP3    H226809   7.945   4.964   2.860
 8956TIP3   OH226810   0.579   7.051   2.040
 8956TIP3    H126811   0.612   7.038   1.952
 8956TIP3    H226812   0.653   7.032   2.097
 8957TIP3   OH226813   0.565   7.131   6.479
 8957TIP3    H126814   0.572   7.079   6.399
 8957TIP3    H226815   0.559   7.222   6.449
 8958TIP3   OH226816   2.861   0.489   0.362
 8958TIP3    H126817   2.877   0.505   0.269
 8958TIP3    H226818   2.789   0.426   0.363
 8959TIP3   OH226819   6.072   5.510   1.192
 8959TIP3    H126820   6.043   5.435   1.245
 8959TIP3    H226821   6.129   5.560   1.250
 8960TIP3   OH226822   3.991   2.242   0.674
 8960TIP3    H126823   4.004   2.297   0.751
 8960TIP3    H226824   3.915   2.189   0.695
 8961TIP3   OH226825   4.274   4.106   1.732
 8961TIP3    H126826   4.243   4.019   1.755
 8961TIP3    H226827   4.367   4.106   1.757
 8962TIP3   OH226828   4.396   2.872   0.793
 8962TIP3    H126829   4.385   2.953   0.744
 8962TIP3    H226830   4.377   2.897   0.884
 8963TIP3   OH226831   7.001   1.400   6.057
 8963TIP3    H126832   7.041   1.317   6.033
 8963TIP3    H226833   7.069   1.466   6.040
 8964TIP3   OH226834   2.187   4.860   2.692
 8964TIP3    H126835   2.159   4.945   2.658
 8964TIP3    H226836   2.241   4.881   2.768
 8965TIP3   OH226837   0.928   7.834   0.900
 8965TIP3    H126838   1.008   7.806   0.855
 8965TIP3    H226839   0.897   7.754   0.943
 8966TIP3   OH226840   1.533   4.604   3.627
 8966TIP3    H126841   1.564   4.647   3.707
 8966TIP3    H226842   1.547   4.511   3.643
 8967TIP3   OH226843   4.816   1.648   5.463
 8967TIP3    H126844   4.726   1.655   5.432
 8967TIP3    H226845   4.827   1.719   5.525
 8968TIP3   OH226846   6.540   7.365   3.257
 8968TIP3    H126847   6.571   7.275   3.272
 8968TIP3    H226848   6.455   7.354   3.215
 8969TIP3   OH226849   6.725   1.893   5.350
 8969TIP3    H126850   6.677   1.974   5.332
 8969TIP3    H226851   6.790   1.889   5.279
 8970TIP3   OH226852   5.942   5.470   3.674
 8970TIP3    H126853   5.977   5.381   3.671
 8970TIP3    H226854   6.008   5.523   3.629
 8971TIP3   OH226855   0.131   6.703   3.662
 8971TIP3    H126856   0.056   6.761   3.651
 8971TIP3    H226857   0.206   6.762   3.674
 8972TIP3   OH226858   6.046   5.309   4.339
 8972TIP3    H126859   6.108   5.270   4.278
 8972TIP3    H226860   6.039   5.401   4.311
 8973TIP3   OH226861   5.772   2.214   5.859
 8973TIP3    H126862   5.809   2.196   5.946
 8973TIP3    H226863   5.792   2.136   5.808
 8974TIP3   OH226864   4.682   4.746   3.570
 8974TIP3    H126865   4.620   4.719   3.502
 8974TIP3    H226866   4.635   4.815   3.618
 8975TIP3   OH226867   1.041   1.646   3.093
 8975TIP3    H126868   1.003   1.558   3.086
 8975TIP3    H226869   1.109   1.648   3.026
 8976TIP3   OH226870   3.707   2.457   0.662
 8976TIP3    H126871   3.669   2.521   0.601
 8976TIP3    H226872   3.668   2.373   0.637
 8977TIP3   OH226873   7.909   4.965   3.960
 8977TIP3    H126874   7.946   4.986   4.045
 8977TIP3    H226875   7.959   5.019   3.898
 8978TIP3   OH226876   2.626   1.318   2.531
 8978TIP3    H126877   2.530   1.316   2.527
 8978TIP3    H226878   2.646   1.403   2.568
 8979TIP3   OH226879   6.413   0.082   2.051
 8979TIP3    H126880   6.349   0.103   2.119
 8979TIP3    H226881   6.498   0.106   2.089
 8980TIP3   OH226882   1.861   2.621   0.430
 8980TIP3    H126883   1.806   2.650   0.503
 8980TIP3    H226884   1.938   2.582   0.473
 8981TIP3   OH226885   5.851   0.912   1.335
 8981TIP3    H126886   5.786   0.856   1.291
 8981TIP3    H226887   5.869   0.867   1.418
 8982TIP3   OH226888   5.530   2.070   6.495
 8982TIP3    H126889   5.608   2.021   6.524
 8982TIP3    H226890   5.485   2.094   6.576
 8983TIP3   OH226891   7.411   0.804   4.267
 8983TIP3    H126892   7.419   0.869   4.197
 8983TIP3    H226893   7.335   0.833   4.317
 8984TIP3   OH226894   0.504   3.372   0.504
 8984TIP3    H126895   0.507   3.342   0.413
 8984TIP3    H226896   0.594   3.370   0.533
 8985TIP3   OH226897   7.568   0.648   0.060
 8985TIP3    H126898   7.532   0.653  -0.028
 8985TIP3    H226899   7.597   0.557   0.069
 8986TIP3   OH226900   7.145   5.642   6.364
 8986TIP3    H126901   7.191   5.723   6.385
 8986TIP3    H226902   7.077   5.635   6.431
 8987TIP3   OH226903   7.101   3.865   6.651
 8987TIP3    H126904   7.117   3.937   6.589
 8987TIP3    H226905   7.119   3.786   6.600
 8988TIP3   OH226906   7.517   4.242   3.894
 8988TIP3    H126907   7.487   4.329   3.922
 8988TIP3    H226908   7.608   4.255   3.870
 8989TIP3   OH226909   3.380   2.270   6.676
 8989TIP3    H126910   3.363   2.260   6.582
 8989TIP3    H226911   3.435   2.348   6.682
 8990TIP3   OH226912   4.570   2.039   5.181
 8990TIP3    H126913   4.618   2.113   5.218
 8990TIP3    H226914   4.636   1.971   5.169
 8991TIP3   OH226915   5.692   5.339   0.619
 8991TIP3    H126916   5.635   5.401   0.573
 8991TIP3    H226917   5.762   5.320   0.557
 8992TIP3   OH226918   1.024   3.895   2.090
 8992TIP3    H126919   1.090   3.898   2.021
 8992TIP3    H226920   0.978   3.979   2.085
 8993TIP3   OH226921   2.414   1.417   3.937
 8993TIP3    H126922   2.379   1.504   3.955
 8993TIP3    H226923   2.509   1.428   3.944
 8994TIP3   OH226924   7.890   7.393   0.248
 8994TIP3    H126925   7.850   7.315   0.210
 8994TIP3    H226926   7.844   7.466   0.207
 8995TIP3   OH226927   0.875   1.410   2.499
 8995TIP3    H126928   0.836   1.441   2.580
 8995TIP3    H226929   0.968   1.401   2.519
 8996TIP3   OH226930   3.207   3.655   6.020
 8996TIP3    H126931   3.244   3.574   6.055
 8996TIP3    H226932   3.247   3.724   6.071
 8997TIP3   OH226933   3.626   5.150   6.474
 8997TIP3    H126934   3.622   5.056   6.456
 8997TIP3    H226935   3.675   5.156   6.556
 8998TIP3   OH226936   0.836   3.005   6.410
 8998TIP3    H126937   0.884   3.061   6.350
 8998TIP3    H226938   0.901   2.976   6.474
 8999TIP3   OH226939   1.441   6.215   0.533
 8999TIP3    H126940   1.523   6.223   0.581
 8999TIP3    H226941   1.434   6.297   0.485
 9000TIP3   OH226942   0.386   1.626   4.868
 9000TIP3    H126943   0.374   1.685   4.794
 9000TIP3    H226944   0.338   1.547   4.844
 9001TIP3   OH226945   7.637   0.754   5.634
 9001TIP3    H126946   7.711   0.802   5.671
 9001TIP3    H226947   7.677   0.680   5.588
 9002TIP3   OH226948   1.058   3.165   4.639
 9002TIP3    H126949   1.099   3.110   4.706
 9002TIP3    H226950   1.083   3.124   4.556
 9003TIP3   OH226951   0.975   4.283   6.701
 9003TIP3    H126952   1.040   4.320   6.762
 9003TIP3    H226953   1.022   4.273   6.619
 9004TIP3   OH226954   1.076   6.652   1.617
 9004TIP3    H126955   1.129   6.705   1.558
 9004TIP3    H226956   1.138   6.589   1.655
 9005TIP3   OH226957   7.699   2.363   0.677
 9005TIP3    H126958   7.615   2.372   0.634
 9005TIP3    H226959   7.753   2.312   0.616
 9006TIP3   OH226960   8.193   0.522   3.449
 9006TIP3    H126961   8.165   0.610   3.476
 9006TIP3    H226962   8.200   0.473   3.531
 9007TIP3   OH226963   5.936   5.511   0.209
 9007TIP3    H126964   5.977   5.582   0.257
 9007TIP3    H226965   5.843   5.533   0.209
 9008TIP3   OH226966   2.010   2.170   6.371
 9008TIP3    H126967   2.057   2.104   6.422
 9008TIP3    H226968   2.072   2.243   6.365
 9009TIP3   OH226969   4.836   4.133   6.714
 9009TIP3    H126970   4.761   4.074   6.710
 9009TIP3    H226971   4.894   4.094   6.779
 9010TIP3   OH226972   6.174   1.625   1.524
 9010TIP3    H126973   6.132   1.586   1.600
 9010TIP3    H226974   6.217   1.552   1.480
 9011TIP3   OH226975   1.610   7.731   2.059
 9011TIP3    H126976   1.618   7.640   2.086
 9011TIP3    H226977   1.694   7.751   2.017
 9012TIP3   OH226978   2.876   6.827   2.719
 9012TIP3    H126979   2.945   6.843   2.655
 9012TIP3    H226980   2.795   6.840   2.671
 9013TIP3   OH226981   3.644   5.429   2.082
 9013TIP3    H126982   3.569   5.393   2.035
 9013TIP3    H226983   3.621   5.521   2.098
 9014TIP3   OH226984   0.657   1.225   3.927
 9014TIP3    H126985   0.568   1.217   3.963
 9014TIP3    H226986   0.700   1.290   3.982
 9015TIP3   OH226987   5.312   1.373   5.827
 9015TIP3    H126988   5.344   1.407   5.744
 9015TIP3    H226989   5.275   1.449   5.872
 9016TIP3   OH226990   0.172   2.855   6.098
 9016TIP3    H126991   0.255   2.895   6.125
 9016TIP3    H226992   0.119   2.857   6.178
 9017TIP3   OH226993   5.168   7.055   1.339
 9017TIP3    H126994   5.201   7.076   1.426
 9017TIP3    H226995   5.096   7.116   1.324
 9018TIP3   OH226996   5.697   6.748   6.056
 9018TIP3    H126997   5.641   6.723   5.982
 9018TIP3    H226998   5.641   6.805   6.110
 9019TIP3   OH226999   5.577   0.484   1.999
 9019TIP3    H127000   5.668   0.501   1.975
 9019TIP3    H227001   5.562   0.539   2.077
 9020TIP3   OH227002   4.211   4.839   1.536
 9020TIP3    H127003   4.124   4.822   1.572
 9020TIP3    H227004   4.204   4.815   1.444
 9021TIP3   OH227005   0.115   4.542   4.380
 9021TIP3    H127006   0.052   4.494   4.326
 9021TIP3    H227007   0.069   4.623   4.403
 9022TIP3   OH227008   3.221   6.465   0.788
 9022TIP3    H127009   3.258   6.518   0.859
 9022TIP3    H227010   3.297   6.441   0.735
 9023TIP3   OH227011   6.568   1.616   3.690
 9023TIP3    H127012   6.538   1.603   3.600
 9023TIP3    H227013   6.637   1.551   3.702
 9024TIP3   OH227014   3.762   6.021   0.979
 9024TIP3    H127015   3.698   6.003   0.910
 9024TIP3    H227016   3.830   5.955   0.967
 9025TIP3   OH227017   2.049   5.567   2.577
 9025TIP3    H127018   2.090   5.636   2.525
 9025TIP3    H227019   2.048   5.601   2.666
 9026TIP3   OH227020   4.494   6.625   3.930
 9026TIP3    H127021   4.445   6.644   4.011
 9026TIP3    H227022   4.581   6.659   3.946
 9027TIP3   OH227023   4.623   1.056   5.162
 9027TIP3    H127024   4.553   1.119   5.175
 9027TIP3    H227025   4.591   0.999   5.092
 9028TIP3   OH227026   6.531   4.179   0.478
 9028TIP3    H127027   6.567   4.260   0.442
 9028TIP3    H227028   6.452   4.207   0.525
 9029TIP3   OH227029   3.558   4.033   0.528
 9029TIP3    H127030   3.480   4.034   0.583
 9029TIP3    H227031   3.527   4.011   0.441
 9030TIP3   OH227032   7.800   2.944   1.810
 9030TIP3    H127033   7.887   2.917   1.839
 9030TIP3    H227034   7.750   2.956   1.891
 9031TIP3   OH227035   1.252   3.826   2.989
 9031TIP3    H127036   1.166   3.855   3.018
 9031TIP3    H227037   1.269   3.876   2.909
 9032TIP3   OH227038   4.205   5.033   4.046
 9032TIP3    H127039   4.282   5.069   4.001
 9032TIP3    H227040   4.162   5.109   4.084
 9033TIP3   OH227041   4.207   1.720   2.638
 9033TIP3    H127042   4.144   1.778   2.680
 9033TIP3    H227043   4.267   1.779   2.592
 9034TIP3   OH227044   3.485   1.839   1.379
 9034TIP3    H127045   3.567   1.879   1.349
 9034TIP3    H227046   3.418   1.906   1.363
 9035TIP3   OH227047   3.029   1.663   4.591
 9035TIP3    H127048   2.964   1.615   4.540
 9035TIP3    H227049   2.979   1.728   4.639
 9036TIP3   OH227050   2.102   1.546   5.149
 9036TIP3    H127051   2.145   1.461   5.159
 9036TIP3    H227052   2.044   1.553   5.225
 9037TIP3   OH227053   0.708   6.740   1.075
 9037TIP3    H127054   0.742   6.770   0.990
 9037TIP3    H227055   0.782   6.748   1.134
 9038TIP3   OH227056   3.936   2.285   5.803
 9038TIP3    H127057   3.902   2.360   5.753
 9038TIP3    H227058   3.879   2.213   5.778
 9039TIP3   OH227059   2.557   1.232   3.168
 9039TIP3    H127060   2.555   1.326   3.186
 9039TIP3    H227061   2.650   1.212   3.157
 9040TIP3   OH227062   6.269   4.731   5.645
 9040TIP3    H127063   6.269   4.763   5.554
 9040TIP3    H227064   6.297   4.807   5.697
 9041TIP3   OH227065   1.800   7.025   6.771
 9041TIP3    H127066   1.827   7.035   6.680
 9041TIP3    H227067   1.849   7.093   6.818
 9042TIP3   OH227068   5.696   5.065   1.571
 9042TIP3    H127069   5.751   5.002   1.525
 9042TIP3    H227070   5.752   5.101   1.639
 9043TIP3   OH227071   6.566   4.358   1.776
 9043TIP3    H127072   6.569   4.284   1.715
 9043TIP3    H227073   6.657   4.372   1.801
 9044TIP3   OH227074   0.705   3.243   1.756
 9044TIP3    H127075   0.672   3.163   1.798
 9044TIP3    H227076   0.791   3.218   1.722
 9045TIP3   OH227077   2.641   6.938   1.254
 9045TIP3    H127078   2.727   6.980   1.248
 9045TIP3    H227079   2.648   6.861   1.197
 9046TIP3   OH227080   4.974   4.835   3.570
 9046TIP3    H127081   4.885   4.824   3.536
 9046TIP3    H227082   5.029   4.842   3.492
 9047TIP3   OH227083   4.514   5.621   6.269
 9047TIP3    H127084   4.579   5.602   6.202
 9047TIP3    H227085   4.449   5.551   6.259
 9048TIP3   OH227086   5.214   1.833   5.158
 9048TIP3    H127087   5.159   1.764   5.196
 9048TIP3    H227088   5.285   1.786   5.115
 9049TIP3   OH227089   4.211   1.229   2.000
 9049TIP3    H127090   4.170   1.289   1.938
 9049TIP3    H227091   4.181   1.142   1.972
 9050TIP3   OH227092   5.534   5.142   5.749
 9050TIP3    H127093   5.497   5.094   5.823
 9050TIP3    H227094   5.459   5.156   5.690
 9051TIP3   OH227095   2.632   4.530   5.892
 9051TIP3    H127096   2.545   4.568   5.910
 9051TIP3    H227097   2.613   4.440   5.867
 9052TIP3   OH227098   7.082   2.437   0.767
 9052TIP3    H127099   7.001   2.488   0.758
 9052TIP3    H227100   7.111   2.423   0.677
 9053TIP3   OH227101   4.593   2.536   0.137
 9053TIP3    H127102   4.587   2.586   0.219
 9053TIP3    H227103   4.684   2.546   0.110
 9054TIP3   OH227104   4.210   0.354   1.047
 9054TIP3    H127105   4.183   0.352   1.139
 9054TIP3    H227106   4.129   0.335   0.999
 9055TIP3   OH227107   4.699   7.651   1.132
 9055TIP3    H127108   4.656   7.657   1.218
 9055TIP3    H227109   4.643   7.702   1.074
 9056TIP3   OH227110   3.567   7.057   6.326
 9056TIP3    H127111   3.653   7.060   6.285
 9056TIP3    H227112   3.506   7.075   6.254
 9057TIP3   OH227113   8.222   0.178   5.161
 9057TIP3    H127114   8.160   0.171   5.089
 9057TIP3    H227115   8.300   0.216   5.122
 9058TIP3   OH227116   6.214   7.797   5.309
 9058TIP3    H127117   6.185   7.763   5.224
 9058TIP3    H227118   6.142   7.776   5.369
 9059TIP3   OH227119   1.137   2.480   6.449
 9059TIP3    H127120   1.132   2.535   6.370
 9059TIP3    H227121   1.199   2.524   6.506
 9060TIP3   OH227122   4.804   5.592   3.257
 9060TIP3    H127123   4.781   5.677   3.296
 9060TIP3    H227124   4.868   5.614   3.189
 9061TIP3   OH227125   4.593   5.991   0.494
 9061TIP3    H127126   4.619   6.080   0.469
 9061TIP3    H227127   4.516   6.003   0.550
 9062TIP3   OH227128   4.504   4.497   0.911
 9062TIP3    H127129   4.560   4.551   0.855
 9062TIP3    H227130   4.491   4.416   0.861
 9063TIP3   OH227131   1.813   5.460   3.268
 9063TIP3    H127132   1.721   5.432   3.271
 9063TIP3    H227133   1.857   5.403   3.331
 9064TIP3   OH227134   0.397   6.118   2.233
 9064TIP3    H127135   0.353   6.199   2.209
 9064TIP3    H227136   0.335   6.073   2.291
 9065TIP3   OH227137   6.039   5.246   0.228
 9065TIP3    H127138   6.029   5.338   0.253
 9065TIP3    H227139   6.130   5.239   0.199
 9066TIP3   OH227140   7.577   2.035   6.722
 9066TIP3    H127141   7.492   2.078   6.717
 9066TIP3    H227142   7.640   2.106   6.710
 9067TIP3   OH227143   8.298   2.425   0.018
 9067TIP3    H127144   8.300   2.346   0.071
 9067TIP3    H227145   8.237   2.483   0.063
 9068TIP3   OH227146   1.476   0.097   4.828
 9068TIP3    H127147   1.388   0.064   4.846
 9068TIP3    H227148   1.463   0.188   4.802
 9069TIP3   OH227149   4.542   3.500   3.820
 9069TIP3    H127150   4.454   3.494   3.781
 9069TIP3    H227151   4.530   3.557   3.896
 9070TIP3   OH227152   2.720   2.370   2.392
 9070TIP3    H127153   2.684   2.457   2.407
 9070TIP3    H227154   2.713   2.357   2.298
 9071TIP3   OH227155   7.297   3.823   4.533
 9071TIP3    H127156   7.365   3.756   4.531
 9071TIP3    H227157   7.326   3.889   4.470
 9072TIP3   OH227158   1.871   2.168   5.770
 9072TIP3    H127159   1.840   2.249   5.811
 9072TIP3    H227160   1.966   2.177   5.766
 9073TIP3   OH227161   5.403   1.320   3.278
 9073TIP3    H127162   5.416   1.366   3.361
 9073TIP3    H227163   5.480   1.341   3.226
 9074TIP3   OH227164   6.751   2.660   5.226
 9074TIP3    H127165   6.680   2.613   5.181
 9074TIP3    H227166   6.831   2.631   5.181
 9075TIP3   OH227167   0.414   3.407   5.310
 9075TIP3    H127168   0.345   3.472   5.297
 9075TIP3    H227169   0.370   3.334   5.353
 9076TIP3   OH227170   1.367   5.452   0.631
 9076TIP3    H127171   1.298   5.497   0.679
 9076TIP3    H227172   1.448   5.486   0.670
 9077TIP3   OH227173   3.379   5.570   0.240
 9077TIP3    H127174   3.354   5.622   0.317
 9077TIP3    H227175   3.474   5.569   0.242
 9078TIP3   OH227176   5.109   3.533   3.174
 9078TIP3    H127177   5.153   3.616   3.193
 9078TIP3    H227178   5.145   3.506   3.090
 9079TIP3   OH227179   0.699   5.473   3.458
 9079TIP3    H127180   0.748   5.396   3.428
 9079TIP3    H227181   0.727   5.485   3.548
 9080TIP3   OH227182   4.074   3.449   6.446
 9080TIP3    H127183   4.062   3.539   6.476
 9080TIP3    H227184   4.168   3.436   6.445
 9081TIP3   OH227185   7.964   6.837   5.119
 9081TIP3    H127186   8.004   6.870   5.038
 9081TIP3    H227187   7.916   6.912   5.154
 9082TIP3   OH227188   1.869   4.663   3.258
 9082TIP3    H127189   1.781   4.676   3.295
 9082TIP3    H227190   1.927   4.706   3.321
 9083TIP3   OH227191   6.681   1.142   6.279
 9083TIP3    H127192   6.733   1.192   6.343
 9083TIP3    H227193   6.591   1.148   6.310
 9084TIP3   OH227194   6.126   1.320   1.015
 9084TIP3    H127195   6.037   1.311   1.050
 9084TIP3    H227196   6.136   1.245   0.956
 9085TIP3   OH227197   3.011   0.685   2.776
 9085TIP3    H127198   3.065   0.624   2.726
 9085TIP3    H227199   3.067   0.713   2.849
 9086TIP3   OH227200   0.878   4.707   0.972
 9086TIP3    H127201   0.866   4.682   1.063
 9086TIP3    H227202   0.833   4.639   0.922
 9087TIP3   OH227203   0.369   6.696   5.679
 9087TIP3    H127204   0.366   6.607   5.643
 9087TIP3    H227205   0.463   6.717   5.682
 9088TIP3   OH227206   8.049   1.025   0.734
 9088TIP3    H127207   8.122   1.015   0.794
 9088TIP3    H227208   7.988   0.955   0.758
 9089TIP3   OH227209   3.218   7.570   4.234
 9089TIP3    H127210   3.288   7.513   4.264
 9089TIP3    H227211   3.144   7.510   4.218
 9090TIP3   OH227212   8.218   0.926   2.904
 9090TIP3    H127213   8.313   0.921   2.908
 9090TIP3    H227214   8.201   0.980   2.827
 9091TIP3   OH227215   2.314   3.975   3.158
 9091TIP3    H127216   2.326   4.026   3.238
 9091TIP3    H227217   2.386   4.003   3.100
 9092TIP3   OH227218   3.721   6.661   0.152
 9092TIP3    H127219   3.665   6.737   0.165
 9092TIP3    H227220   3.667   6.600   0.102
 9093TIP3   OH227221   6.703   5.137   6.177
 9093TIP3    H127222   6.701   5.177   6.264
 9093TIP3    H227223   6.680   5.045   6.192
 9094TIP3   OH227224   0.066   0.896   5.043
 9094TIP3    H127225   0.159   0.911   5.023
 9094TIP3    H227226   0.051   0.805   5.020
 9095TIP3   OH227227   5.612   5.396   2.072
 9095TIP3    H127228   5.571   5.368   1.990
 9095TIP3    H227229   5.695   5.350   2.075
 9096TIP3   OH227230   4.224   1.260   3.474
 9096TIP3    H127231   4.137   1.219   3.474
 9096TIP3    H227232   4.230   1.303   3.560
 9097TIP3   OH227233   5.176   7.635   2.478
 9097TIP3    H127234   5.160   7.579   2.402
 9097TIP3    H227235   5.088   7.660   2.508
 9098TIP3   OH227236   4.971   5.067   1.179
 9098TIP3    H127237   4.980   4.971   1.181
 9098TIP3    H227238   4.925   5.085   1.097
 9099TIP3   OH227239   7.818   3.072   5.241
 9099TIP3    H127240   7.769   3.005   5.193
 9099TIP3    H227241   7.752   3.134   5.271
 9100TIP3   OH227242   2.470   7.069   2.570
 9100TIP3    H127243   2.398   7.040   2.514
 9100TIP3    H227244   2.466   7.012   2.647
 9101TIP3   OH227245   1.933   1.983   1.846
 9101TIP3    H127246   1.941   2.072   1.811
 9101TIP3    H227247   1.943   1.926   1.769
 9102TIP3   OH227248   1.294   7.069   0.182
 9102TIP3    H127249   1.251   7.150   0.210
 9102TIP3    H227250   1.247   7.044   0.102
 9103TIP3   OH227251   7.910   0.648   2.444
 9103TIP3    H127252   7.894   0.573   2.386
 9103TIP3    H227253   7.927   0.608   2.530
 9104TIP3   OH227254   0.819   5.965   3.598
 9104TIP3    H127255   0.892   6.020   3.569
 9104TIP3    H227256   0.741   6.008   3.562
 9105TIP3   OH227257   4.120   4.439   4.453
 9105TIP3    H127258   4.066   4.393   4.517
 9105TIP3    H227259   4.191   4.377   4.433
 9106TIP3   OH227260   0.807   4.276   4.210
 9106TIP3    H127261   0.719   4.272   4.247
 9106TIP3    H227262   0.824   4.370   4.198
 9107TIP3   OH227263   4.148   1.858   5.558
 9107TIP3    H127264   4.136   1.770   5.524
 9107TIP3    H227265   4.152   1.914   5.481
 9108TIP3   OH227266   0.878   6.447   0.613
 9108TIP3    H127267   0.841   6.380   0.670
 9108TIP3    H227268   0.818   6.521   0.620
 9109TIP3   OH227269   3.291   7.360   1.689
 9109TIP3    H127270   3.320   7.451   1.686
 9109TIP3    H227271   3.339   7.322   1.763
 9110TIP3   OH227272   2.435   7.476   5.241
 9110TIP3    H127273   2.382   7.551   5.268
 9110TIP3    H227274   2.376   7.421   5.190
 9111TIP3   OH227275   1.485   7.405   6.374
 9111TIP3    H127276   1.529   7.446   6.299
 9111TIP3    H227277   1.396   7.389   6.343
 9112TIP3   OH227278   1.836   2.674   3.842
 9112TIP3    H127279   1.762   2.709   3.792
 9112TIP3    H227280   1.833   2.721   3.925
 9113TIP3   OH227281   1.825   7.583   5.942
 9113TIP3    H127282   1.871   7.658   5.979
 9113TIP3    H227283   1.836   7.513   6.006
 9114TIP3   OH227284   5.226   1.077   3.006
 9114TIP3    H127285   5.156   1.012   3.004
 9114TIP3    H227286   5.253   1.081   3.097
 9115TIP3   OH227287   3.773   2.252   1.069
 9115TIP3    H127288   3.856   2.208   1.083
 9115TIP3    H227289   3.735   2.260   1.157
 9116TIP3   OH227290   7.384   0.034   2.277
 9116TIP3    H127291   7.369  -0.048   2.325
 9116TIP3    H227292   7.320   0.095   2.313
 9117TIP3   OH227293   5.974   0.033   1.022
 9117TIP3    H127294   6.014  -0.016   0.950
 9117TIP3    H227295   6.044   0.090   1.054
 9118TIP3   OH227296   2.197   1.593   3.616
 9118TIP3    H127297   2.221   1.506   3.646
 9118TIP3    H227298   2.128   1.579   3.551
 9119TIP3   OH227299   0.013   5.694   5.431
 9119TIP3    H127300   0.045   5.694   5.341
 9119TIP3    H227301  -0.026   5.607   5.443
 9120TIP3   OH227302   8.134   5.264   4.097
 9120TIP3    H127303   8.104   5.174   4.107
 9120TIP3    H227304   8.054   5.317   4.108
 9121TIP3   OH227305   8.211   2.079   5.066
 9121TIP3    H127306   8.176   2.130   5.139
 9121TIP3    H227307   8.231   2.143   4.998
 9122TIP3   OH227308   2.355   0.632   1.479
 9122TIP3    H127309   2.405   0.593   1.408
 9122TIP3    H227310   2.332   0.719   1.447
 9123TIP3   OH227311   6.592   2.381   0.370
 9123TIP3    H127312   6.535   2.433   0.313
 9123TIP3    H227313   6.619   2.306   0.316
 9124TIP3   OH227314   1.850   1.315   3.623
 9124TIP3    H127315   1.796   1.301   3.701
 9124TIP3    H227316   1.892   1.230   3.609
 9125TIP3   OH227317   7.466   7.379   3.097
 9125TIP3    H127318   7.473   7.284   3.092
 9125TIP3    H227319   7.552   7.411   3.070
 9126TIP3   OH227320   0.146   6.528   5.325
 9126TIP3    H127321   0.218   6.581   5.294
 9126TIP3    H227322   0.068   6.582   5.313
 9127TIP3   OH227323   0.381   2.021   5.001
 9127TIP3    H127324   0.330   2.059   4.929
 9127TIP3    H227325   0.421   2.097   5.044
 9128TIP3   OH227326   0.254   4.730   3.532
 9128TIP3    H127327   0.258   4.759   3.441
 9128TIP3    H227328   0.164   4.750   3.559
 9129TIP3   OH227329   7.693   3.680   4.692
 9129TIP3    H127330   7.713   3.755   4.748
 9129TIP3    H227331   7.611   3.645   4.726
 9130TIP3   OH227332   0.440   2.710   5.923
 9130TIP3    H127333   0.347   2.687   5.926
 9130TIP3    H227334   0.484   2.636   5.964
 9131TIP3   OH227335   5.155   2.441  -0.017
 9131TIP3    H127336   5.145   2.434   0.078
 9131TIP3    H227337   5.079   2.396  -0.053
 9132TIP3   OH227338   4.564   0.512   5.690
 9132TIP3    H127339   4.474   0.538   5.709
 9132TIP3    H227340   4.555   0.430   5.641
 9133TIP3   OH227341   1.793   0.590   5.924
 9133TIP3    H127342   1.735   0.519   5.895
 9133TIP3    H227343   1.822   0.563   6.011
 9134TIP3   OH227344   1.188   4.098   6.279
 9134TIP3    H127345   1.160   4.106   6.188
 9134TIP3    H227346   1.119   4.046   6.320
 9135TIP3   OH227347   4.278   6.533   5.276
 9135TIP3    H127348   4.300   6.442   5.256
 9135TIP3    H227349   4.363   6.574   5.294
 9136TIP3   OH227350   8.222   6.936   5.416
 9136TIP3    H127351   8.234   6.851   5.374
 9136TIP3    H227352   8.232   6.919   5.509
 9137TIP3   OH227353   6.986   2.952   3.722
 9137TIP3    H127354   6.924   2.899   3.673
 9137TIP3    H227355   6.935   3.026   3.755
 9138TIP3   OH227356   1.498   4.903   4.024
 9138TIP3    H127357   1.434   4.836   3.999
 9138TIP3    H227358   1.530   4.874   4.110
 9139TIP3   OH227359   4.738   0.327   3.522
 9139TIP3    H127360   4.698   0.410   3.547
 9139TIP3    H227361   4.684   0.295   3.450
 9140TIP3   OH227362   0.227   6.166   1.990
 9140TIP3    H127363   0.297   6.116   2.032
 9140TIP3    H227364   0.170   6.100   1.950
 9141TIP3   OH227365   7.402   3.803   2.622
 9141TIP3    H127366   7.347   3.870   2.581
 9141TIP3    H227367   7.345   3.763   2.688
 9142TIP3   OH227368   6.952   2.343   1.726
 9142TIP3    H127369   7.038   2.386   1.728
 9142TIP3    H227370   6.917   2.362   1.639
 9143TIP3   OH227371   0.173   2.929   2.736
 9143TIP3    H127372   0.230   3.005   2.722
 9143TIP3    H227373   0.088   2.957   2.702
 9144TIP3   OH227374   0.412   5.619   1.509
 9144TIP3    H127375   0.356   5.549   1.474
 9144TIP3    H227376   0.499   5.578   1.517
 9145TIP3   OH227377   7.385   1.324   2.087
 9145TIP3    H127378   7.471   1.288   2.108
 9145TIP3    H227379   7.371   1.394   2.151
 9146TIP3   OH227380   7.074   7.793   0.734
 9146TIP3    H127381   7.091   7.810   0.642
 9146TIP3    H227382   7.085   7.698   0.743
 9147TIP3   OH227383   5.054   4.764   1.707
 9147TIP3    H127384   5.107   4.763   1.787
 9147TIP3    H227385   4.965   4.777   1.738
 9148TIP3   OH227386   0.691   0.331   0.514
 9148TIP3    H127387   0.722   0.243   0.492
 9148TIP3    H227388   0.645   0.321   0.597
 9149TIP3   OH227389   3.553   3.904   3.934
 9149TIP3    H127390   3.566   3.999   3.938
 9149TIP3    H227391   3.631   3.867   3.977
 9150TIP3   OH227392   1.119   2.583   5.331
 9150TIP3    H127393   1.155   2.663   5.293
 9150TIP3    H227394   1.120   2.520   5.260
 9151TIP3   OH227395   6.067   3.527   0.736
 9151TIP3    H127396   6.158   3.515   0.764
 9151TIP3    H227397   6.073   3.583   0.659
 9152TIP3   OH227398   1.267   5.048   4.526
 9152TIP3    H127399   1.255   5.109   4.598
 9152TIP3    H227400   1.178   5.030   4.495
 9153TIP3   OH227401   5.082   4.193   0.557
 9153TIP3    H127402   5.087   4.244   0.638
 9153TIP3    H227403   5.109   4.105   0.584
 9154TIP3   OH227404   6.931   4.258   2.397
 9154TIP3    H127405   7.017   4.257   2.440
 9154TIP3    H227406   6.870   4.272   2.469
 9155TIP3   OH227407   0.834   0.054   0.173
 9155TIP3    H127408   0.815   0.077   0.263
 9155TIP3    H227409   0.758   0.083   0.123
 9156TIP3   OH227410   7.404   5.538   4.978
 9156TIP3    H127411   7.413   5.450   4.942
 9156TIP3    H227412   7.471   5.543   5.046
 9157TIP3   OH227413   4.937   7.192   4.696
 9157TIP3    H127414   4.923   7.278   4.735
 9157TIP3    H227415   4.888   7.195   4.613
 9158TIP3   OH227416   2.504   4.856   0.313
 9158TIP3    H127417   2.444   4.781   0.316
 9158TIP3    H227418   2.551   4.853   0.396
 9159TIP3   OH227419   7.576   3.715   0.624
 9159TIP3    H127420   7.555   3.684   0.712
 9159TIP3    H227421   7.492   3.718   0.579
 9160TIP3   OH227422   4.124   3.508   3.939
 9160TIP3    H127423   4.063   3.581   3.931
 9160TIP3    H227424   4.185   3.535   4.008
 9161TIP3   OH227425   5.462   3.133   2.697
 9161TIP3    H127426   5.536   3.134   2.758
 9161TIP3    H227427   5.489   3.074   2.627
 9162TIP3   OH227428   2.817   7.652   5.304
 9162TIP3    H127429   2.797   7.737   5.343
 9162TIP3    H227430   2.912   7.648   5.301
 9163TIP3   OH227431   0.772   6.675   6.529
 9163TIP3    H127432   0.722   6.611   6.578
 9163TIP3    H227433   0.732   6.675   6.442
 9164TIP3   OH227434   7.963   0.302   2.778
 9164TIP3    H127435   7.951   0.226   2.721
 9164TIP3    H227436   8.044   0.284   2.825
 9165TIP3   OH227437   1.924   0.960   0.901
 9165TIP3    H127438   1.992   0.996   0.957
 9165TIP3    H227439   1.876   0.898   0.957
 9166TIP3   OH227440   1.256   5.166   0.953
 9166TIP3    H127441   1.271   5.104   1.025
 9166TIP3    H227442   1.256   5.252   0.995
 9167TIP3   OH227443   7.814   5.770   5.307
 9167TIP3    H127444   7.811   5.701   5.241
 9167TIP3    H227445   7.778   5.847   5.262
 9168TIP3   OH227446   3.004   1.338   5.215
 9168TIP3    H127447   2.973   1.259   5.259
 9168TIP3    H227448   2.934   1.402   5.228
 9169TIP3   OH227449   0.100   6.882   4.500
 9169TIP3    H127450   0.183   6.930   4.496
 9169TIP3    H227451   0.081   6.861   4.409
 9170TIP3   OH227452   1.913   1.165   2.347
 9170TIP3    H127453   1.909   1.200   2.258
 9170TIP3    H227454   1.936   1.073   2.337
 9171TIP3   OH227455   2.200   2.030   1.285
 9171TIP3    H127456   2.115   2.060   1.318
 9171TIP3    H227457   2.216   1.948   1.333
 9172TIP3   OH227458   6.947   4.754   0.692
 9172TIP3    H127459   6.886   4.820   0.725
 9172TIP3    H227460   7.004   4.802   0.632
 9173TIP3   OH227461   6.146   1.892   0.398
 9173TIP3    H127462   6.178   1.802   0.400
 9173TIP3    H227463   6.194   1.932   0.325
 9174TIP3   OH227464   0.391   0.688   5.152
 9174TIP3    H127465   0.351   0.605   5.178
 9174TIP3    H227466   0.484   0.678   5.171
 9175TIP3   OH227467   2.414   2.799   6.117
 9175TIP3    H127468   2.483   2.862   6.136
 9175TIP3    H227469   2.366   2.837   6.043
 9176TIP3   OH227470   4.920   6.873   5.664
 9176TIP3    H127471   4.964   6.788   5.673
 9176TIP3    H227472   4.966   6.915   5.591
 9177TIP3   OH227473   0.910   7.170   5.130
 9177TIP3    H127474   0.818   7.190   5.144
 9177TIP3    H227475   0.913   7.136   5.040
 9178TIP3   OH227476   0.144   1.709   0.082
 9178TIP3    H127477   0.094   1.684   0.004
 9178TIP3    H227478   0.209   1.640   0.092
 9179TIP3   OH227479   1.481   5.008   6.563
 9179TIP3    H127480   1.400   4.975   6.522
 9179TIP3    H227481   1.548   4.945   6.536
 9180TIP3   OH227482   3.544   2.276   2.259
 9180TIP3    H127483   3.622   2.223   2.244
 9180TIP3    H227484   3.554   2.311   2.348
 9181TIP3   OH227485   5.513   6.714   4.056
 9181TIP3    H127486   5.462   6.635   4.072
 9181TIP3    H227487   5.483   6.745   3.970
 9182TIP3   OH227488   4.750   5.441   1.055
 9182TIP3    H127489   4.682   5.379   1.080
 9182TIP3    H227490   4.704   5.509   1.006
 9183TIP3   OH227491   6.478   5.187   3.030
 9183TIP3    H127492   6.568   5.158   3.021
 9183TIP3    H227493   6.484   5.282   3.045
 9184TIP3   OH227494   6.200   6.464   6.387
 9184TIP3    H127495   6.249   6.393   6.347
 9184TIP3    H227496   6.184   6.526   6.315
 9185TIP3   OH227497   3.442   3.081   4.218
 9185TIP3    H127498   3.361   3.132   4.213
 9185TIP3    H227499   3.512   3.144   4.204
 9186TIP3   OH227500   7.315   6.707   1.481
 9186TIP3    H127501   7.285   6.616   1.472
 9186TIP3    H227502   7.365   6.707   1.562
 9187TIP3   OH227503   6.928   5.205   5.663
 9187TIP3    H127504   6.936   5.113   5.639
 9187TIP3    H227505   6.834   5.219   5.675
 9188TIP3   OH227506   5.699   6.944   1.008
 9188TIP3    H127507   5.762   6.994   0.955
 9188TIP3    H227508   5.730   6.854   1.003
 9189TIP3   OH227509   3.229   1.545   6.383
 9189TIP3    H127510   3.244   1.452   6.363
 9189TIP3    H227511   3.134   1.556   6.377
 9190TIP3   OH227512   4.129   7.252   5.977
 9190TIP3    H127513   4.152   7.176   6.029
 9190TIP3    H227514   4.205   7.267   5.921
 9191TIP3   OH227515   4.658   5.735   0.491
 9191TIP3    H127516   4.643   5.829   0.487
 9191TIP3    H227517   4.672   5.708   0.401
 9192TIP3   OH227518   3.128   3.056   4.308
 9192TIP3    H127519   3.197   2.989   4.310
 9192TIP3    H227520   3.147   3.107   4.229
 9193TIP3   OH227521   6.908   5.581   2.231
 9193TIP3    H127522   6.846   5.624   2.289
 9193TIP3    H227523   6.977   5.645   2.217
 9194TIP3   OH227524   6.745   7.018   5.280
 9194TIP3    H127525   6.729   7.033   5.186
 9194TIP3    H227526   6.704   6.933   5.297
 9195TIP3   OH227527   2.724   3.395   3.622
 9195TIP3    H127528   2.778   3.453   3.568
 9195TIP3    H227529   2.774   3.386   3.704
 9196TIP3   OH227530   6.288   5.681   6.006
 9196TIP3    H127531   6.361   5.668   6.066
 9196TIP3    H227532   6.295   5.609   5.943
 9197TIP3   OH227533   6.099   5.990   2.819
 9197TIP3    H127534   6.191   5.962   2.815
 9197TIP3    H227535   6.053   5.915   2.855
 9198TIP3   OH227536   3.095   7.546   4.909
 9198TIP3    H127537   3.181   7.586   4.922
 9198TIP3    H227538   3.114   7.457   4.882
 9199TIP3   OH227539   1.421   1.398   1.989
 9199TIP3    H127540   1.378   1.444   2.061
 9199TIP3    H227541   1.412   1.305   2.012
 9200TIP3   OH227542   1.669   0.949   5.182
 9200TIP3    H127543   1.650   0.976   5.272
 9200TIP3    H227544   1.589   0.905   5.153
 9201TIP3   OH227545   1.725   7.629   0.102
 9201TIP3    H127546   1.819   7.642   0.114
 9201TIP3    H227547   1.706   7.669   0.017
 9202TIP3   OH227548   7.916   6.500   4.278
 9202TIP3    H127549   7.936   6.593   4.277
 9202TIP3    H227550   7.887   6.482   4.367
 9203TIP3   OH227551   1.452   0.534   5.370
 9203TIP3    H127552   1.371   0.536   5.420
 9203TIP3    H227553   1.486   0.445   5.382
 9204TIP3   OH227554   3.194   4.975   1.139
 9204TIP3    H127555   3.274   4.926   1.157
 9204TIP3    H227556   3.150   4.981   1.224
 9205TIP3   OH227557   3.706   4.549   4.375
 9205TIP3    H127558   3.623   4.570   4.332
 9205TIP3    H227559   3.719   4.456   4.357
 9206TIP3   OH227560   1.939   3.699   0.842
 9206TIP3    H127561   1.914   3.669   0.755
 9206TIP3    H227562   1.973   3.787   0.829
 9207TIP3   OH227563   8.180   2.739   3.471
 9207TIP3    H127564   8.153   2.825   3.439
 9207TIP3    H227565   8.247   2.710   3.409
 9208TIP3   OH227566   7.994   5.862   4.104
 9208TIP3    H127567   7.973   5.941   4.155
 9208TIP3    H227568   8.085   5.875   4.077
 9209TIP3   OH227569   5.202   5.432   3.521
 9209TIP3    H127570   5.110   5.455   3.512
 9209TIP3    H227571   5.249   5.499   3.470
 9210TIP3   OH227572   6.670   3.694   3.943
 9210TIP3    H127573   6.682   3.630   3.873
 9210TIP3    H227574   6.753   3.694   3.991
 9211TIP3   OH227575   6.113   5.647   3.504
 9211TIP3    H127576   6.202   5.623   3.479
 9211TIP3    H227577   6.124   5.725   3.558
 9212TIP3   OH227578   7.594   0.940   1.418
 9212TIP3    H127579   7.650   0.866   1.392
 9212TIP3    H227580   7.627   1.014   1.366
 9213TIP3   OH227581   5.567   3.677   1.479
 9213TIP3    H127582   5.554   3.744   1.411
 9213TIP3    H227583   5.593   3.599   1.430
 9214TIP3   OH227584   5.858   1.891   2.664
 9214TIP3    H127585   5.935   1.855   2.708
 9214TIP3    H227586   5.893   1.961   2.609
 9215TIP3   OH227587   7.696   0.152   0.427
 9215TIP3    H127588   7.608   0.136   0.393
 9215TIP3    H227589   7.754   0.134   0.353
 9216TIP3   OH227590   4.835   0.655   2.691
 9216TIP3    H127591   4.895   0.655   2.617
 9216TIP3    H227592   4.810   0.746   2.702
 9217TIP3   OH227593   1.437   2.350   1.233
 9217TIP3    H127594   1.472   2.407   1.165
 9217TIP3    H227595   1.363   2.306   1.192
 9218TIP3   OH227596   1.846   2.098   0.477
 9218TIP3    H127597   1.850   2.136   0.564
 9218TIP3    H227598   1.848   2.004   0.491
 9219TIP3   OH227599   6.264   1.152   6.092
 9219TIP3    H127600   6.268   1.207   6.170
 9219TIP3    H227601   6.210   1.077   6.118
 9220TIP3   OH227602   1.251   0.870   5.877
 9220TIP3    H127603   1.278   0.949   5.923
 9220TIP3    H227604   1.196   0.823   5.939
 9221TIP3   OH227605   1.690   5.695   6.663
 9221TIP3    H127606   1.749   5.634   6.620
 9221TIP3    H227607   1.696   5.775   6.610
 9222TIP3   OH227608   4.002   1.148   5.824
 9222TIP3    H127609   4.058   1.128   5.750
 9222TIP3    H227610   3.916   1.165   5.785
 9223TIP3   OH227611   0.993   1.243   4.998
 9223TIP3    H127612   0.910   1.272   5.037
 9223TIP3    H227613   0.972   1.227   4.907
 9224TIP3   OH227614   0.953   4.987   4.490
 9224TIP3    H127615   0.865   4.983   4.452
 9224TIP3    H227616   0.949   4.928   4.566
 9225TIP3   OH227617   6.664   2.541   1.170
 9225TIP3    H127618   6.740   2.484   1.179
 9225TIP3    H227619   6.597   2.486   1.131
 9226TIP3   OH227620   2.418   3.918   4.353
 9226TIP3    H127621   2.420   3.833   4.398
 9226TIP3    H227622   2.508   3.933   4.326
 9227TIP3   OH227623   1.229   2.188   1.120
 9227TIP3    H127624   1.180   2.109   1.142
 9227TIP3    H227625   1.162   2.255   1.106
 9228TIP3   OH227626   2.772   4.677   0.262
 9228TIP3    H127627   2.803   4.601   0.212
 9228TIP3    H227628   2.734   4.735   0.197
 9229TIP3   OH227629   0.236   1.427   1.586
 9229TIP3    H127630   0.236   1.503   1.528
 9229TIP3    H227631   0.198   1.357   1.534
 9230TIP3   OH227632   3.720   1.813   5.417
 9230TIP3    H127633   3.756   1.776   5.498
 9230TIP3    H227634   3.795   1.820   5.359
 9231TIP3   OH227635   6.918   2.479   5.667
 9231TIP3    H127636   6.900   2.417   5.596
 9231TIP3    H227637   7.013   2.483   5.672
 9232TIP3   OH227638   7.580   7.352   5.197
 9232TIP3    H127639   7.595   7.344   5.291
 9232TIP3    H227640   7.667   7.365   5.160
 9233TIP3   OH227641   3.918   4.325   1.564
 9233TIP3    H127642   3.967   4.357   1.488
 9233TIP3    H227643   3.833   4.371   1.559
 9234TIP3   OH227644   4.171   0.048   1.075
 9234TIP3    H127645   4.230   0.106   1.121
 9234TIP3    H227646   4.149   0.095   0.994
 9235TIP3   OH227647   7.488   4.740   1.996
 9235TIP3    H127648   7.503   4.654   1.958
 9235TIP3    H227649   7.494   4.801   1.922
 9236TIP3   OH227650   1.615   3.417   5.525
 9236TIP3    H127651   1.540   3.437   5.580
 9236TIP3    H227652   1.687   3.404   5.587
 9237TIP3   OH227653   7.246   3.164   0.658
 9237TIP3    H127654   7.252   3.257   0.680
 9237TIP3    H227655   7.164   3.136   0.699
 9238TIP3   OH227656   3.169   1.217   3.488
 9238TIP3    H127657   3.165   1.307   3.520
 9238TIP3    H227658   3.259   1.190   3.506
 9239TIP3   OH227659   0.513   6.299   0.702
 9239TIP3    H127660   0.476   6.349   0.775
 9239TIP3    H227661   0.606   6.290   0.723
 9240TIP3   OH227662   7.841   2.092   3.562
 9240TIP3    H127663   7.777   2.083   3.633
 9240TIP3    H227664   7.924   2.063   3.601
 9241TIP3   OH227665   1.471   3.184   3.182
 9241TIP3    H127666   1.564   3.208   3.176
 9241TIP3    H227667   1.439   3.191   3.092
 9242TIP3   OH227668   1.607   4.065   0.595
 9242TIP3    H127669   1.648   4.121   0.530
 9242TIP3    H227670   1.531   4.114   0.626
 9243TIP3   OH227671   0.418   4.780   5.736
 9243TIP3    H127672   0.443   4.872   5.726
 9243TIP3    H227673   0.364   4.761   5.660
 9244TIP3   OH227674   2.780   6.508   2.796
 9244TIP3    H127675   2.696   6.464   2.815
 9244TIP3    H227676   2.755   6.590   2.753
 9245TIP3   OH227677   7.584   3.110   5.066
 9245TIP3    H127678   7.583   3.164   5.145
 9245TIP3    H227679   7.633   3.161   5.002
 9246TIP3   OH227680   4.092   5.463   3.518
 9246TIP3    H127681   4.179   5.457   3.478
 9246TIP3    H227682   4.064   5.553   3.502
 9247TIP3   OH227683   0.046   2.219   0.742
 9247TIP3    H127684   0.042   2.166   0.823
 9247TIP3    H227685  -0.033   2.195   0.694
 9248TIP3   OH227686   1.005   4.272   0.251
 9248TIP3    H127687   1.032   4.289   0.160
 9248TIP3    H227688   1.027   4.181   0.266
 9249TIP3   OH227689   7.761   7.163   6.076
 9249TIP3    H127690   7.764   7.091   6.138
 9249TIP3    H227691   7.720   7.235   6.125
 9250TIP3   OH227692   4.737   1.835   5.215
 9250TIP3    H127693   4.817   1.789   5.189
 9250TIP3    H227694   4.701   1.782   5.286
 9251TIP3   OH227695   0.147   6.115   5.959
 9251TIP3    H127696   0.217   6.072   6.008
 9251TIP3    H227697   0.067   6.075   5.992
 9252TIP3   OH227698   1.437   6.225   3.003
 9252TIP3    H127699   1.417   6.300   2.947
 9252TIP3    H227700   1.351   6.188   3.025
 9253TIP3   OH227701   3.741   5.165   5.671
 9253TIP3    H127702   3.745   5.096   5.605
 9253TIP3    H227703   3.652   5.162   5.704
 9254TIP3   OH227704   5.167   7.766   0.559
 9254TIP3    H127705   5.132   7.682   0.590
 9254TIP3    H227706   5.092   7.814   0.526
 9255TIP3   OH227707   0.544   3.807   0.163
 9255TIP3    H127708   0.588   3.892   0.170
 9255TIP3    H227709   0.457   3.829   0.128
 9256TIP3   OH227710   5.535   1.471   2.556
 9256TIP3    H127711   5.598   1.543   2.548
 9256TIP3    H227712   5.530   1.454   2.650
 9257TIP3   OH227713   4.527   5.339   2.894
 9257TIP3    H127714   4.596   5.380   2.947
 9257TIP3    H227715   4.497   5.410   2.837
 9258TIP3   OH227716   3.922   0.268   0.146
 9258TIP3    H127717   3.961   0.235   0.065
 9258TIP3    H227718   3.995   0.271   0.208
 9259TIP3   OH227719   6.826   7.684   2.288
 9259TIP3    H127720   6.834   7.764   2.340
 9259TIP3    H227721   6.735   7.657   2.301
 9260TIP3   OH227722   4.613   3.582   5.810
 9260TIP3    H127723   4.521   3.600   5.829
 9260TIP3    H227724   4.657   3.590   5.895
 9261TIP3   OH227725   1.585   4.428   5.043
 9261TIP3    H127726   1.656   4.487   5.070
 9261TIP3    H227727   1.629   4.359   4.993
 9262TIP3   OH227728   1.804   0.673   0.040
 9262TIP3    H127729   1.791   0.762   0.009
 9262TIP3    H227730   1.716   0.634   0.038
 9263TIP3   OH227731   1.197   3.744   2.548
 9263TIP3    H127732   1.200   3.650   2.535
 9263TIP3    H227733   1.287   3.768   2.571
 9264TIP3   OH227734   7.946   2.813   6.775
 9264TIP3    H127735   7.978   2.868   6.704
 9264TIP3    H227736   8.001   2.734   6.771
 9265TIP3   OH227737   8.197   6.514   2.386
 9265TIP3    H127738   8.249   6.465   2.321
 9265TIP3    H227739   8.262   6.552   2.445
 9266TIP3   OH227740   7.946   2.030   0.345
 9266TIP3    H127741   8.007   1.989   0.284
 9266TIP3    H227742   7.951   2.123   0.325
 9267TIP3   OH227743   2.510   2.584   5.820
 9267TIP3    H127744   2.420   2.553   5.815
 9267TIP3    H227745   2.552   2.548   5.741
 9268TIP3   OH227746   2.128   1.446   0.530
 9268TIP3    H127747   2.146   1.454   0.624
 9268TIP3    H227748   2.039   1.413   0.526
 9269TIP3   OH227749   7.236   1.424   6.615
 9269TIP3    H127750   7.292   1.398   6.689
 9269TIP3    H227751   7.158   1.461   6.656
 9270TIP3   OH227752   5.247   2.931   4.426
 9270TIP3    H127753   5.214   2.988   4.495
 9270TIP3    H227754   5.196   2.955   4.348
 9271TIP3   OH227755   6.875   5.825   1.130
 9271TIP3    H127756   6.948   5.794   1.182
 9271TIP3    H227757   6.817   5.869   1.192
 9272TIP3   OH227758   3.009   0.374   1.072
 9272TIP3    H127759   3.078   0.423   1.029
 9272TIP3    H227760   3.054   0.324   1.141
 9273TIP3   OH227761   7.250   0.355   0.865
 9273TIP3    H127762   7.212   0.443   0.858
 9273TIP3    H227763   7.240   0.318   0.777
 9274TIP3   OH227764   0.574   5.485   4.895
 9274TIP3    H127765   0.595   5.418   4.830
 9274TIP3    H227766   0.652   5.488   4.952
 9275TIP3   OH227767   5.159   7.479   3.814
 9275TIP3    H127768   5.166   7.562   3.766
 9275TIP3    H227769   5.066   7.457   3.809
 9276TIP3   OH227770   2.844   1.596   1.094
 9276TIP3    H127771   2.934   1.629   1.103
 9276TIP3    H227772   2.798   1.629   1.171
 9277TIP3   OH227773   1.712   5.487   5.034
 9277TIP3    H127774   1.681   5.403   5.067
 9277TIP3    H227775   1.807   5.480   5.037
 9278TIP3   OH227776   5.957   3.240   2.452
 9278TIP3    H127777   6.005   3.232   2.534
 9278TIP3    H227778   5.976   3.329   2.422
 9279TIP3   OH227779   4.126   3.982   0.695
 9279TIP3    H127780   4.042   3.991   0.650
 9279TIP3    H227781   4.167   4.069   0.687
 9280TIP3   OH227782   0.527   1.049   4.192
 9280TIP3    H127783   0.474   1.126   4.168
 9280TIP3    H227784   0.527   0.994   4.114
 9281TIP3   OH227785   3.243   6.899   5.972
 9281TIP3    H127786   3.245   6.838   6.045
 9281TIP3    H227787   3.191   6.855   5.905
 9282TIP3   OH227788   0.355   0.318   4.665
 9282TIP3    H127789   0.400   0.377   4.605
 9282TIP3    H227790   0.323   0.247   4.610
 9283TIP3   OH227791   6.307   3.860   4.777
 9283TIP3    H127792   6.373   3.832   4.840
 9283TIP3    H227793   6.254   3.782   4.761
 9284TIP3   OH227794   2.671   6.112   0.830
 9284TIP3    H127795   2.727   6.035   0.836
 9284TIP3    H227796   2.582   6.077   0.822
 9285TIP3   OH227797   0.833   0.116   6.717
 9285TIP3    H127798   0.816   0.065   6.638
 9285TIP3    H227799   0.758   0.176   6.723
 9286TIP3   OH227800   7.021   7.496   2.296
 9286TIP3    H127801   7.003   7.460   2.209
 9286TIP3    H227802   6.955   7.564   2.308
 9287TIP3   OH227803   4.874   1.874   3.987
 9287TIP3    H127804   4.969   1.880   3.978
 9287TIP3    H227805   4.861   1.803   4.050
 9288TIP3   OH227806   3.341   5.947   0.703
 9288TIP3    H127807   3.273   5.957   0.771
 9288TIP3    H227808   3.299   5.979   0.623
 9289TIP3   OH227809   0.242   0.154   6.367
 9289TIP3    H127810   0.188   0.130   6.442
 9289TIP3    H227811   0.280   0.071   6.337
 9290TIP3   OH227812   0.704   7.381   5.294
 9290TIP3    H127813   0.722   7.395   5.201
 9290TIP3    H227814   0.777   7.329   5.325
 9291TIP3   OH227815   4.029   7.695   0.278
 9291TIP3    H127816   3.962   7.636   0.313
 9291TIP3    H227817   4.056   7.653   0.195
 9292TIP3   OH227818   0.375   0.981   3.459
 9292TIP3    H127819   0.440   1.037   3.502
 9292TIP3    H227820   0.426   0.910   3.421
 9293TIP3   OH227821   2.523   7.750   2.739
 9293TIP3    H127822   2.532   7.789   2.826
 9293TIP3    H227823   2.450   7.797   2.699
 9294TIP3   OH227824   4.581   2.534   1.869
 9294TIP3    H127825   4.605   2.592   1.941
 9294TIP3    H227826   4.622   2.451   1.891
 9295TIP3   OH227827   1.515   1.311   4.026
 9295TIP3    H127828   1.502   1.397   3.986
 9295TIP3    H227829   1.513   1.327   4.120
 9296TIP3   OH227830   1.868   7.261   6.370
 9296TIP3    H127831   1.800   7.311   6.325
 9296TIP3    H227832   1.948   7.279   6.321
 9297TIP3   OH227833   5.237   5.455   2.294
 9297TIP3    H127834   5.172   5.519   2.324
 9297TIP3    H227835   5.196   5.370   2.309
 9298TIP3   OH227836   5.659   7.760   6.158
 9298TIP3    H127837   5.587   7.792   6.213
 9298TIP3    H227838   5.720   7.834   6.152
 9299TIP3   OH227839   2.187   1.954   5.157
 9299TIP3    H127840   2.118   2.020   5.143
 9299TIP3    H227841   2.146   1.889   5.214
 9300TIP3   OH227842   0.412   5.811   6.347
 9300TIP3    H127843   0.445   5.848   6.265
 9300TIP3    H227844   0.358   5.737   6.320
 9301TIP3   OH227845   8.029   1.839   3.960
 9301TIP3    H127846   8.040   1.850   4.054
 9301TIP3    H227847   7.993   1.751   3.950
 9302TIP3   OH227848   1.398   7.557   0.404
 9302TIP3    H127849   1.354   7.539   0.321
 9302TIP3    H227850   1.327   7.566   0.468
 9303TIP3   OH227851   4.736   2.800   4.006
 9303TIP3    H127852   4.788   2.878   4.026
 9303TIP3    H227853   4.646   2.827   4.025
 9304TIP3   OH227854   7.365   4.020   1.529
 9304TIP3    H127855   7.328   3.931   1.526
 9304TIP3    H227856   7.292   4.076   1.552
 9305TIP3   OH227857   4.146  -0.009   5.602
 9305TIP3    H127858   4.224  -0.023   5.657
 9305TIP3    H227859   4.151   0.084   5.578
 9306TIP3   OH227860   1.211   5.196   0.669
 9306TIP3    H127861   1.230   5.200   0.763
 9306TIP3    H227862   1.227   5.284   0.637
 9307TIP3   OH227863   0.193   7.576   2.501
 9307TIP3    H127864   0.282   7.560   2.533
 9307TIP3    H227865   0.147   7.493   2.514
 9308TIP3   OH227866   1.065   7.001   5.286
 9308TIP3    H127867   1.087   7.053   5.364
 9308TIP3    H227868   0.984   7.041   5.253
 9309TIP3   OH227869   2.579   3.624   4.333
 9309TIP3    H127870   2.627   3.541   4.330
 9309TIP3    H227871   2.622   3.674   4.402
 9310TIP3   OH227872   4.872   0.088   4.327
 9310TIP3    H127873   4.905   0.013   4.279
 9310TIP3    H227874   4.918   0.163   4.289
 9311TIP3   OH227875   6.218   4.663   3.501
 9311TIP3    H127876   6.283   4.683   3.434
 9311TIP3    H227877   6.145   4.624   3.454
 9312TIP3   OH227878   1.688   2.113   4.080
 9312TIP3    H127879   1.601   2.144   4.106
 9312TIP3    H227880   1.717   2.058   4.153
 9313TIP3   OH227881   8.192   6.050   6.112
 9313TIP3    H127882   8.122   6.093   6.063
 9313TIP3    H227883   8.178   6.077   6.203
 9314TIP3   OH227884   7.798   1.004   0.408
 9314TIP3    H127885   7.709   1.023   0.379
 9314TIP3    H227886   7.798   1.027   0.501
 9315TIP3   OH227887   6.273   0.233   5.094
 9315TIP3    H127888   6.271   0.187   5.178
 9315TIP3    H227889   6.226   0.315   5.111
 9316TIP3   OH227890   2.544   6.857   0.222
 9316TIP3    H127891   2.493   6.844   0.142
 9316TIP3    H227892   2.564   6.768   0.253
 9317TIP3   OH227893   4.060   4.100   4.358
 9317TIP3    H127894   4.144   4.111   4.314
 9317TIP3    H227895   4.082   4.053   4.439
 9318TIP3   OH227896   6.348   5.507   3.443
 9318TIP3    H127897   6.339   5.423   3.488
 9318TIP3    H227898   6.323   5.489   3.353
 9319TIP3   OH227899   6.055   2.833   5.054
 9319TIP3    H127900   6.043   2.741   5.078
 9319TIP3    H227901   6.068   2.878   5.137
 9320TIP3   OH227902   0.800   1.260   3.144
 9320TIP3    H127903   0.804   1.309   3.227
 9320TIP3    H227904   0.795   1.327   3.077
 9321TIP3   OH227905   3.404   0.306   0.948
 9321TIP3    H127906   3.328   0.363   0.956
 9321TIP3    H227907   3.478   0.361   0.971
 9322TIP3   OH227908   4.823   1.205   4.742
 9322TIP3    H127909   4.780   1.272   4.795
 9322TIP3    H227910   4.819   1.125   4.795
 9323TIP3   OH227911   6.510   7.672   3.246
 9323TIP3    H127912   6.509   7.699   3.154
 9323TIP3    H227913   6.452   7.596   3.250
 9324TIP3   OH227914   6.668   6.832   6.260
 9324TIP3    H127915   6.713   6.910   6.228
 9324TIP3    H227916   6.594   6.866   6.310
 9325TIP3   OH227917   6.627   1.415   4.341
 9325TIP3    H127918   6.678   1.494   4.363
 9325TIP3    H227919   6.595   1.432   4.252
 9326TIP3   OH227920   7.950   2.631   4.512
 9326TIP3    H127921   7.977   2.678   4.434
 9326TIP3    H227922   7.891   2.562   4.480
 9327TIP3   OH227923   4.302   0.446   2.029
 9327TIP3    H127924   4.234   0.410   2.086
 9327TIP3    H227925   4.332   0.524   2.075
 9328TIP3   OH227926   1.843   7.401   4.747
 9328TIP3    H127927   1.887   7.321   4.720
 9328TIP3    H227928   1.753   7.390   4.719
 9329TIP3   OH227929   7.933   0.776   3.765
 9329TIP3    H127930   7.892   0.862   3.769
 9329TIP3    H227931   7.861   0.715   3.750
 9330TIP3   OH227932   0.108   7.706   0.882
 9330TIP3    H127933   0.112   7.739   0.971
 9330TIP3    H227934   0.141   7.778   0.828
 9331TIP3   OH227935   4.104   0.243   4.680
 9331TIP3    H127936   4.069   0.264   4.594
 9331TIP3    H227937   4.180   0.301   4.691
 9332TIP3   OH227938   4.043   1.844   3.922
 9332TIP3    H127939   4.028   1.922   3.870
 9332TIP3    H227940   4.138   1.846   3.940
 9333TIP3   OH227941   1.807   3.497   6.730
 9333TIP3    H127942   1.866   3.507   6.805
 9333TIP3    H227943   1.831   3.412   6.693
 9334TIP3   OH227944   6.846   1.088   1.007
 9334TIP3    H127945   6.764   1.114   0.965
 9334TIP3    H227946   6.861   1.155   1.074
 9335TIP3   OH227947   3.337   2.168   6.414
 9335TIP3    H127948   3.314   2.076   6.421
 9335TIP3    H227949   3.416   2.169   6.359
 9336TIP3   OH227950   6.966   6.716   1.864
 9336TIP3    H127951   6.974   6.626   1.830
 9336TIP3    H227952   7.010   6.713   1.949
 9337TIP3   OH227953   7.187   5.353   0.660
 9337TIP3    H127954   7.151   5.269   0.633
 9337TIP3    H227955   7.110   5.409   0.672
 9338TIP3   OH227956   1.131   4.275   4.644
 9338TIP3    H127957   1.171   4.199   4.601
 9338TIP3    H227958   1.111   4.336   4.573
 9339TIP3   OH227959   2.192   7.568   6.169
 9339TIP3    H127960   2.224   7.640   6.224
 9339TIP3    H227961   2.218   7.592   6.081
 9340TIP3   OH227962   3.238   7.088   5.471
 9340TIP3    H127963   3.150   7.049   5.465
 9340TIP3    H227964   3.276   7.076   5.385
 9341TIP3   OH227965   4.197   2.569   4.279
 9341TIP3    H127966   4.110   2.608   4.287
 9341TIP3    H227967   4.207   2.554   4.185
 9342TIP3   OH227968   6.696   0.244   1.920
 9342TIP3    H127969   6.687   0.149   1.910
 9342TIP3    H227970   6.704   0.257   2.015
 9343TIP3   OH227971   7.672   5.599   4.444
 9343TIP3    H127972   7.725   5.606   4.365
 9343TIP3    H227973   7.661   5.505   4.458
 9344TIP3   OH227974   6.670   2.864   6.171
 9344TIP3    H127975   6.677   2.800   6.100
 9344TIP3    H227976   6.737   2.930   6.151
 9345TIP3   OH227977   2.513   3.818   6.529
 9345TIP3    H127978   2.507   3.909   6.498
 9345TIP3    H227979   2.544   3.769   6.453
 9346TIP3   OH227980   5.252   1.241   3.595
 9346TIP3    H127981   5.193   1.314   3.576
 9346TIP3    H227982   5.197   1.174   3.634
 9347TIP3   OH227983   5.545   7.722   3.265
 9347TIP3    H127984   5.523   7.763   3.349
 9347TIP3    H227985   5.639   7.733   3.257
 9348TIP3   OH227986   7.688   7.765   2.122
 9348TIP3    H127987   7.709   7.857   2.139
 9348TIP3    H227988   7.728   7.718   2.195
 9349TIP3   OH227989   4.564   5.627   6.740
 9349TIP3    H127990   4.483   5.579   6.757
 9349TIP3    H227991   4.547   5.715   6.774
 9350TIP3   OH227992   6.136   4.913   1.966
 9350TIP3    H127993   6.111   4.909   2.059
 9350TIP3    H227994   6.139   5.006   1.946
 9351TIP3   OH227995   1.119   6.868   3.851
 9351TIP3    H127996   1.108   6.829   3.765
 9351TIP3    H227997   1.167   6.948   3.835
 9352TIP3   OH227998   6.205   0.534   3.365
 9352TIP3    H127999   6.185   0.609   3.309
 9352TIP3    H228000   6.183   0.458   3.312
 9353TIP3   OH228001   5.300   3.321   6.426
 9353TIP3    H128002   5.268   3.238   6.393
 9353TIP3    H228003   5.228   3.383   6.409
 9354TIP3   OH228004   3.473   0.540   6.638
 9354TIP3    H128005   3.558   0.562   6.600
 9354TIP3    H228006   3.412   0.545   6.564
 9355TIP3   OH228007   6.405   7.360   4.547
 9355TIP3    H128008   6.378   7.329   4.460
 9355TIP3    H228009   6.356   7.441   4.560
 9356TIP3   OH228010   4.717   6.901   6.392
 9356TIP3    H128011   4.704   6.811   6.363
 9356TIP3    H228012   4.776   6.894   6.467
 9357TIP3   OH228013   2.891   5.019   2.652
 9357TIP3    H128014   2.823   4.970   2.607
 9357TIP3    H228015   2.848   5.100   2.680
 9358TIP3   OH228016   7.313   4.094   3.463
 9358TIP3    H128017   7.392   4.134   3.429
 9358TIP3    H228018   7.334   4.070   3.553
 9359TIP3   OH228019   3.842   2.041   5.687
 9359TIP3    H128020   3.830   2.071   5.597
 9359TIP3    H228021   3.793   1.959   5.692
 9360TIP3   OH228022   3.556   2.928   1.822
 9360TIP3    H128023   3.531   2.841   1.793
 9360TIP3    H228024   3.646   2.918   1.855
 9361TIP3   OH228025   8.055   4.306   6.541
 9361TIP3    H128026   7.995   4.263   6.603
 9361TIP3    H228027   7.998   4.339   6.471
 9362TIP3   OH228028   6.124   3.854   1.351
 9362TIP3    H128029   6.191   3.794   1.319
 9362TIP3    H228030   6.173   3.923   1.396
 9363TIP3   OH228031   3.047   2.859   1.701
 9363TIP3    H128032   3.000   2.868   1.784
 9363TIP3    H228033   3.099   2.779   1.712
 9364TIP3   OH228034   2.855   2.985   3.665
 9364TIP3    H128035   2.873   2.898   3.628
 9364TIP3    H228036   2.765   3.004   3.637
 9365TIP3   OH228037   4.539   5.263   0.778
 9365TIP3    H128038   4.484   5.318   0.834
 9365TIP3    H228039   4.580   5.325   0.717
 9366TIP3   OH228040   0.755   1.543   6.366
 9366TIP3    H128041   0.699   1.521   6.440
 9366TIP3    H228042   0.695   1.568   6.296
 9367TIP3   OH228043   5.188   3.877   2.918
 9367TIP3    H128044   5.181   3.787   2.888
 9367TIP3    H228045   5.227   3.924   2.844
 9368TIP3   OH228046   4.345   1.607   1.881
 9368TIP3    H128047   4.417   1.670   1.877
 9368TIP3    H228048   4.388   1.522   1.876
 9369TIP3   OH228049   4.702   7.111   0.773
 9369TIP3    H128050   4.749   7.154   0.702
 9369TIP3    H228051   4.628   7.170   0.792
 9370TIP3   OH228052   2.163   6.193   5.063
 9370TIP3    H128053   2.142   6.255   5.133
 9370TIP3    H228054   2.080   6.150   5.043
 9371TIP3   OH228055   4.863   0.950   4.870
 9371TIP3    H128056   4.887   0.991   4.953
 9371TIP3    H228057   4.923   0.876   4.862
 9372TIP3   OH228058   0.728   1.689   4.322
 9372TIP3    H128059   0.703   1.640   4.400
 9372TIP3    H228060   0.822   1.671   4.312
 9373TIP3   OH228061   0.484   4.709   2.240
 9373TIP3    H128062   0.574   4.735   2.221
 9373TIP3    H228063   0.485   4.689   2.334
 9374TIP3   OH228064   1.708   4.860   4.522
 9374TIP3    H128065   1.754   4.777   4.536
 9374TIP3    H228066   1.617   4.840   4.544
 9375TIP3   OH228067   3.858   5.773   3.917
 9375TIP3    H128068   3.860   5.866   3.939
 9375TIP3    H228069   3.887   5.769   3.826
 9376TIP3   OH228070   3.903   6.386   5.477
 9376TIP3    H128071   3.888   6.317   5.413
 9376TIP3    H228072   3.853   6.358   5.554
 9377TIP3   OH228073   3.002   5.893   2.065
 9377TIP3    H128074   3.096   5.878   2.051
 9377TIP3    H228075   2.993   5.897   2.160
 9378TIP3   OH228076   1.818   4.976   2.618
 9378TIP3    H128077   1.831   4.935   2.532
 9378TIP3    H228078   1.821   4.903   2.680
 9379TIP3   OH228079   7.403   4.373   3.091
 9379TIP3    H128080   7.365   4.445   3.040
 9379TIP3    H228081   7.450   4.320   3.027
 9380TIP3   OH228082   4.195   4.164   3.332
 9380TIP3    H128083   4.144   4.085   3.314
 9380TIP3    H228084   4.261   4.167   3.263
 9381TIP3   OH228085   7.456   2.057   2.582
 9381TIP3    H128086   7.455   1.962   2.566
 9381TIP3    H228087   7.385   2.091   2.527
 9382TIP3   OH228088   5.404   3.620   5.138
 9382TIP3    H128089   5.312   3.599   5.123
 9382TIP3    H228090   5.403   3.679   5.214
 9383TIP3   OH228091   2.771   1.272   2.783
 9383TIP3    H128092   2.735   1.211   2.848
 9383TIP3    H228093   2.752   1.230   2.699
 9384TIP3   OH228094   1.154   4.927   5.812
 9384TIP3    H128095   1.186   4.946   5.724
 9384TIP3    H228096   1.068   4.888   5.799
 9385TIP3   OH228097   7.128   0.635   5.049
 9385TIP3    H128098   7.091   0.667   5.132
 9385TIP3    H228099   7.197   0.574   5.076
 9386TIP3   OH228100   4.937  -0.009   3.651
 9386TIP3    H128101   4.923   0.077   3.689
 9386TIP3    H228102   4.859  -0.025   3.598
 9387TIP3   OH228103   1.315   2.819   2.799
 9387TIP3    H128104   1.277   2.888   2.854
 9387TIP3    H228105   1.312   2.854   2.710
 9388TIP3   OH228106   6.486   0.382   0.637
 9388TIP3    H128107   6.438   0.392   0.719
 9388TIP3    H228108   6.473   0.466   0.591
 9389TIP3   OH228109   0.292   2.748   0.372
 9389TIP3    H128110   0.240   2.686   0.321
 9389TIP3    H228111   0.311   2.819   0.310
 9390TIP3   OH228112   2.851   1.102   3.161
 9390TIP3    H128113   2.887   1.190   3.171
 9390TIP3    H228114   2.924   1.043   3.180
 9391TIP3   OH228115   2.303   2.526   4.536
 9391TIP3    H128116   2.261   2.460   4.591
 9391TIP3    H228117   2.382   2.483   4.503
 9392TIP3   OH228118   6.431   0.849   4.799
 9392TIP3    H128119   6.420   0.901   4.719
 9392TIP3    H228120   6.525   0.831   4.804
 9393TIP3   OH228121   6.650   6.489   5.800
 9393TIP3    H128122   6.639   6.516   5.891
 9393TIP3    H228123   6.729   6.434   5.800
 9394TIP3   OH228124   3.044   3.283   3.586
 9394TIP3    H128125   3.034   3.249   3.675
 9394TIP3    H228126   2.969   3.247   3.538
 9395TIP3   OH228127   7.804   6.136   3.246
 9395TIP3    H128128   7.884   6.099   3.283
 9395TIP3    H228129   7.751   6.060   3.222
 9396TIP3   OH228130   6.050   2.613   0.632
 9396TIP3    H128131   5.985   2.546   0.610
 9396TIP3    H228132   6.058   2.667   0.553
 9397TIP3   OH228133   4.413   4.831   3.880
 9397TIP3    H128134   4.403   4.925   3.898
 9397TIP3    H228135   4.379   4.819   3.791
 9398TIP3   OH228136   3.095   5.395   0.787
 9398TIP3    H128137   3.127   5.322   0.841
 9398TIP3    H228138   3.042   5.448   0.847
 9399TIP3   OH228139   5.273   2.889   3.939
 9399TIP3    H128140   5.336   2.911   3.870
 9399TIP3    H228141   5.323   2.840   4.003
 9400TIP3   OH228142   1.641   7.115   1.079
 9400TIP3    H128143   1.566   7.172   1.098
 9400TIP3    H228144   1.673   7.088   1.166
 9401TIP3   OH228145   5.346   0.459   4.556
 9401TIP3    H128146   5.366   0.400   4.483
 9401TIP3    H228147   5.432   0.481   4.593
 9402TIP3   OH228148   0.339   7.353   4.786
 9402TIP3    H128149   0.334   7.309   4.871
 9402TIP3    H228150   0.345   7.281   4.723
 9403TIP3   OH228151   3.663   4.842   0.661
 9403TIP3    H128152   3.676   4.782   0.588
 9403TIP3    H228153   3.590   4.805   0.710
 9404TIP3   OH228154   4.850   1.923   3.286
 9404TIP3    H128155   4.834   1.944   3.378
 9404TIP3    H228156   4.904   1.843   3.289
 9405TIP3   OH228157   5.031   4.570   4.826
 9405TIP3    H128158   5.002   4.639   4.886
 9405TIP3    H228159   4.967   4.572   4.754
 9406TIP3   OH228160   1.079   1.517   0.082
 9406TIP3    H128161   1.162   1.554   0.053
 9406TIP3    H228162   1.099   1.477   0.167
 9407TIP3   OH228163   1.947   0.887   2.389
 9407TIP3    H128164   1.909   0.898   2.476
 9407TIP3    H228165   2.041   0.902   2.403
 9408TIP3   OH228166   1.975   6.700   3.976
 9408TIP3    H128167   1.901   6.740   4.021
 9408TIP3    H228168   2.051   6.753   4.000
 9409TIP3   OH228169   8.246   4.271   3.931
 9409TIP3    H128170   8.315   4.282   3.996
 9409TIP3    H228171   8.165   4.276   3.981
 9410TIP3   OH228172   5.819   6.676   4.546
 9410TIP3    H128173   5.767   6.689   4.467
 9410TIP3    H228174   5.755   6.683   4.618
 9411TIP3   OH228175   4.884   1.599   5.086
 9411TIP3    H128176   4.900   1.556   5.002
 9411TIP3    H228177   4.844   1.531   5.141
 9412TIP3   OH228178   5.588   1.730   5.591
 9412TIP3    H128179   5.544   1.807   5.558
 9412TIP3    H228180   5.556   1.720   5.681
 9413TIP3   OH228181   0.274   3.611   1.525
 9413TIP3    H128182   0.182   3.627   1.507
 9413TIP3    H228183   0.296   3.533   1.474
 9414TIP3   OH228184   4.957   4.843   0.051
 9414TIP3    H128185   5.029   4.896   0.085
 9414TIP3    H228186   4.938   4.781   0.122
 9415TIP3   OH228187   1.141   0.855   0.894
 9415TIP3    H128188   1.193   0.931   0.866
 9415TIP3    H228189   1.053   0.873   0.860
 9416TIP3   OH228190   3.681   6.714   6.448
 9416TIP3    H128191   3.721   6.627   6.437
 9416TIP3    H228192   3.620   6.703   6.521
 9417TIP3   OH228193   2.509   0.696   3.468
 9417TIP3    H128194   2.431   0.751   3.477
 9417TIP3    H228195   2.532   0.701   3.376
 9418TIP3   OH228196   1.358   7.060   2.532
 9418TIP3    H128197   1.362   7.054   2.437
 9418TIP3    H228198   1.394   6.978   2.564
 9419TIP3   OH228199   0.825   0.233   6.349
 9419TIP3    H128200   0.828   0.317   6.394
 9419TIP3    H228201   0.901   0.235   6.291
 9420TIP3   OH228202   6.376   0.837   1.406
 9420TIP3    H128203   6.444   0.770   1.400
 9420TIP3    H228204   6.371   0.858   1.499
 9421TIP3   OH228205   4.832   2.120   5.047
 9421TIP3    H128206   4.860   2.048   4.990
 9421TIP3    H228207   4.892   2.116   5.121
 9422TIP3   OH228208   8.131   2.228   0.533
 9422TIP3    H128209   8.214   2.229   0.485
 9422TIP3    H228210   8.130   2.310   0.581
 9423TIP3   OH228211   5.446   4.570   3.296
 9423TIP3    H128212   5.423   4.509   3.367
 9423TIP3    H228213   5.374   4.563   3.234
 9424TIP3   OH228214   2.888   4.544   2.658
 9424TIP3    H128215   2.885   4.488   2.735
 9424TIP3    H228216   2.861   4.486   2.586
 9425TIP3   OH228217   1.222   0.562   1.340
 9425TIP3    H128218   1.299   0.535   1.391
 9425TIP3    H228219   1.187   0.481   1.303
 9426TIP3   OH228220   7.813   6.636   3.102
 9426TIP3    H128221   7.747   6.617   3.169
 9426TIP3    H228222   7.855   6.552   3.085
 9427TIP3   OH228223   8.256   4.151   1.701
 9427TIP3    H128224   8.240   4.179   1.611
 9427TIP3    H228225   8.189   4.196   1.752
 9428TIP3   OH228226   6.439   2.246   3.661
 9428TIP3    H128227   6.375   2.190   3.704
 9428TIP3    H228228   6.449   2.208   3.573
 9429TIP3   OH228229   4.019   5.859   0.330
 9429TIP3    H128230   4.058   5.884   0.415
 9429TIP3    H228231   3.998   5.766   0.340
 9430TIP3   OH228232   0.638   6.583   0.649
 9430TIP3    H128233   0.552   6.540   0.649
 9430TIP3    H228234   0.621   6.671   0.683
 9431TIP3   OH228235   1.495   3.247   1.894
 9431TIP3    H128236   1.521   3.272   1.983
 9431TIP3    H228237   1.555   3.176   1.871
 9432TIP3   OH228238   0.897   3.242   0.941
 9432TIP3    H128239   0.841   3.197   0.877
 9432TIP3    H228240   0.877   3.335   0.929
 9433TIP3   OH228241   5.327   6.930   5.881
 9433TIP3    H128242   5.243   6.888   5.900
 9433TIP3    H228243   5.372   6.933   5.966
 9434TIP3   OH228244   6.849   3.983   6.414
 9434TIP3    H128245   6.826   3.892   6.394
 9434TIP3    H228246   6.945   3.986   6.409
 9435TIP3   OH228247   5.952   6.125   5.926
 9435TIP3    H128248   5.998   6.197   5.970
 9435TIP3    H228249   5.984   6.046   5.970
 9436TIP3   OH228250   2.586   4.163   0.250
 9436TIP3    H128251   2.492   4.153   0.267
 9436TIP3    H228252   2.597   4.134   0.160
 9437TIP3   OH228253   3.635   1.127   0.796
 9437TIP3    H128254   3.689   1.132   0.717
 9437TIP3    H228255   3.584   1.208   0.795
 9438TIP3   OH228256   7.512   4.375   1.133
 9438TIP3    H128257   7.454   4.313   1.176
 9438TIP3    H228258   7.517   4.449   1.194
 9439TIP3   OH228259   5.992   2.776   2.581
 9439TIP3    H128260   6.068   2.828   2.557
 9439TIP3    H228261   6.018   2.732   2.662
 9440TIP3   OH228262   0.728   2.133   4.874
 9440TIP3    H128263   0.814   2.168   4.853
 9440TIP3    H228264   0.734   2.104   4.965
 9441TIP3   OH228265   2.571   6.989   0.628
 9441TIP3    H128266   2.533   7.051   0.566
 9441TIP3    H228267   2.662   7.016   0.636
 9442TIP3   OH228268   2.040   5.312   5.317
 9442TIP3    H128269   2.121   5.294   5.365
 9442TIP3    H228270   1.971   5.286   5.378
 9443TIP3   OH228271   0.725   7.428   4.257
 9443TIP3    H128272   0.753   7.442   4.347
 9443TIP3    H228273   0.797   7.381   4.216
 9444TIP3   OH228274   3.335   1.800   4.903
 9444TIP3    H128275   3.384   1.792   4.821
 9444TIP3    H228276   3.299   1.712   4.918
 9445TIP3   OH228277   3.996   3.396   4.879
 9445TIP3    H128278   4.090   3.396   4.898
 9445TIP3    H228279   3.980   3.313   4.834
 9446TIP3   OH228280   3.815   6.893   5.345
 9446TIP3    H128281   3.815   6.950   5.422
 9446TIP3    H228282   3.790   6.807   5.380
 9447TIP3   OH228283   0.128   7.525   6.171
 9447TIP3    H128284   0.093   7.610   6.144
 9447TIP3    H228285   0.124   7.527   6.266
 9448TIP3   OH228286   2.462   1.910   4.309
 9448TIP3    H128287   2.408   1.988   4.296
 9448TIP3    H228288   2.399   1.838   4.311
 9449TIP3   OH228289   7.822   0.196   6.132
 9449TIP3    H128290   7.872   0.261   6.182
 9449TIP3    H228291   7.886   0.152   6.077
 9450TIP3   OH228292   0.747   1.176   1.830
 9450TIP3    H128293   0.708   1.258   1.860
 9450TIP3    H228294   0.813   1.155   1.896
 9451TIP3   OH228295   1.501   4.962   1.644
 9451TIP3    H128296   1.463   4.883   1.605
 9451TIP3    H228297   1.588   4.968   1.607
 9452TIP3   OH228298   1.077   5.840   0.351
 9452TIP3    H128299   1.129   5.760   0.346
 9452TIP3    H228300   1.047   5.842   0.442
 9453TIP3   OH228301   6.469   4.077   2.855
 9453TIP3    H128302   6.506   4.027   2.927
 9453TIP3    H228303   6.483   4.169   2.879
 9454TIP3   OH228304   6.454   1.523   3.084
 9454TIP3    H128305   6.377   1.579   3.071
 9454TIP3    H228306   6.428   1.463   3.154
 9455TIP3   OH228307   2.442   1.012   2.614
 9455TIP3    H128308   2.412   1.094   2.574
 9455TIP3    H228309   2.468   1.038   2.703
 9456TIP3   OH228310   7.487   4.072   5.140
 9456TIP3    H128311   7.521   4.144   5.193
 9456TIP3    H228312   7.564   4.034   5.098
 9457TIP3   OH228313   3.403   5.849   4.461
 9457TIP3    H128314   3.329   5.907   4.447
 9457TIP3    H228315   3.460   5.896   4.522
 9458TIP3   OH228316   3.653   6.178   2.027
 9458TIP3    H128317   3.596   6.193   1.952
 9458TIP3    H228318   3.594   6.152   2.097
 9459TIP3   OH228319   4.050   0.944   2.853
 9459TIP3    H128320   3.975   0.936   2.911
 9459TIP3    H228321   4.077   1.035   2.860
 9460TIP3   OH228322   1.055   5.787   3.321
 9460TIP3    H128323   0.962   5.771   3.339
 9460TIP3    H228324   1.066   5.881   3.332
 9461TIP3   OH228325   7.561   3.629   2.495
 9461TIP3    H128326   7.509   3.573   2.437
 9461TIP3    H228327   7.498   3.692   2.530
 9462TIP3   OH228328   5.756   1.853   4.422
 9462TIP3    H128329   5.735   1.936   4.466
 9462TIP3    H228330   5.792   1.798   4.491
 9463TIP3   OH228331   3.505   1.433   2.306
 9463TIP3    H128332   3.458   1.401   2.382
 9463TIP3    H228333   3.596   1.440   2.335
 9464TIP3   OH228334   3.302   2.961   6.530
 9464TIP3    H128335   3.351   3.042   6.518
 9464TIP3    H228336   3.227   2.969   6.472
 9465TIP3   OH228337   3.776   2.087   0.735
 9465TIP3    H128338   3.687   2.107   0.765
 9465TIP3    H228339   3.809   2.024   0.799
 9466TIP3   OH228340   0.396   4.521   0.350
 9466TIP3    H128341   0.334   4.556   0.415
 9466TIP3    H228342   0.387   4.580   0.275
 9467TIP3   OH228343   0.043   5.887   2.156
 9467TIP3    H128344   0.109   5.883   2.086
 9467TIP3    H228345  -0.041   5.891   2.109
 9468TIP3   OH228346   5.000   7.734   2.773
 9468TIP3    H128347   5.059   7.768   2.841
 9468TIP3    H228348   4.943   7.673   2.820
 9469TIP3   OH228349   1.672   1.593   2.781
 9469TIP3    H128350   1.740   1.600   2.714
 9469TIP3    H228351   1.714   1.626   2.861
 9470TIP3   OH228352   5.821   0.967   1.686
 9470TIP3    H128353   5.727   0.973   1.700
 9470TIP3    H228354   5.859   1.024   1.752
 9471TIP3   OH228355   3.717   7.637   5.931
 9471TIP3    H128356   3.781   7.567   5.945
 9471TIP3    H228357   3.635   7.590   5.911
 9472TIP3   OH228358   2.432   5.883   3.441
 9472TIP3    H128359   2.371   5.915   3.507
 9472TIP3    H228360   2.419   5.940   3.366
 9473TIP3   OH228361   7.861   7.785   5.062
 9473TIP3    H128362   7.809   7.718   5.018
 9473TIP3    H228363   7.952   7.755   5.053
 9474TIP3   OH228364   7.479   3.445   2.310
 9474TIP3    H128365   7.548   3.415   2.251
 9474TIP3    H228366   7.487   3.390   2.388
 9475TIP3   OH228367   0.897   3.114   1.983
 9475TIP3    H128368   0.845   3.181   2.027
 9475TIP3    H228369   0.987   3.147   1.986
 9476TIP3   OH228370   7.945   7.077   5.391
 9476TIP3    H128371   8.008   7.005   5.395
 9476TIP3    H228372   7.903   7.066   5.305
 9477TIP3   OH228373   4.075   1.645   5.401
 9477TIP3    H128374   4.042   1.716   5.346
 9477TIP3    H228375   4.030   1.567   5.369
 9478TIP3   OH228376   8.170   7.333   6.223
 9478TIP3    H128377   8.224   7.412   6.223
 9478TIP3    H228378   8.212   7.274   6.161
 9479TIP3   OH228379   2.866   6.350   3.913
 9479TIP3    H128380   2.836   6.416   3.976
 9479TIP3    H228381   2.805   6.277   3.924
 9480TIP3   OH228382   6.965   3.964   2.969
 9480TIP3    H128383   6.964   3.898   3.039
 9480TIP3    H228384   7.052   3.956   2.930
 9481TIP3   OH228385   1.119   6.221   6.701
 9481TIP3    H128386   1.082   6.202   6.787
 9481TIP3    H228387   1.196   6.275   6.720
 9482TIP3   OH228388   4.158   5.952   4.740
 9482TIP3    H128389   4.173   5.905   4.822
 9482TIP3    H228390   4.195   5.896   4.672
 9483TIP3   OH228391   0.605   0.872   6.568
 9483TIP3    H128392   0.576   0.937   6.632
 9483TIP3    H228393   0.696   0.856   6.590
 9484TIP3   OH228394   0.158   3.931   5.379
 9484TIP3    H128395   0.106   3.993   5.328
 9484TIP3    H228396   0.149   3.848   5.333
 9485TIP3   OH228397   6.150   7.462   2.306
 9485TIP3    H128398   6.222   7.419   2.352
 9485TIP3    H228399   6.135   7.543   2.355
 9486TIP3   OH228400   3.499   5.251   3.541
 9486TIP3    H128401   3.499   5.200   3.621
 9486TIP3    H228402   3.591   5.255   3.515
 9487TIP3   OH228403   2.779   4.071   6.643
 9487TIP3    H128404   2.770   4.028   6.728
 9487TIP3    H228405   2.859   4.123   6.651
 9488TIP3   OH228406   6.053   4.406   6.261
 9488TIP3    H128407   5.999   4.467   6.311
 9488TIP3    H228408   6.137   4.450   6.253
 9489TIP3   OH228409   3.849   2.916   5.753
 9489TIP3    H128410   3.778   2.919   5.689
 9489TIP3    H228411   3.805   2.908   5.838
 9490TIP3   OH228412   0.070   0.319   5.629
 9490TIP3    H128413   0.054   0.276   5.713
 9490TIP3    H228414   0.047   0.253   5.564
 9491TIP3   OH228415   1.288   4.397   2.134
 9491TIP3    H128416   1.221   4.412   2.067
 9491TIP3    H228417   1.277   4.305   2.158
 9492TIP3   OH228418   0.235   4.680   2.538
 9492TIP3    H128419   0.303   4.664   2.602
 9492TIP3    H228420   0.219   4.774   2.541
 9493TIP3   OH228421   4.631   7.407   1.011
 9493TIP3    H128422   4.556   7.399   1.071
 9493TIP3    H228423   4.675   7.487   1.038
 9494TIP3   OH228424   1.324   3.393   0.759
 9494TIP3    H128425   1.417   3.403   0.740
 9494TIP3    H228426   1.287   3.480   0.746
 9495TIP3   OH228427   5.554   5.194   3.247
 9495TIP3    H128428   5.570   5.127   3.180
 9495TIP3    H228429   5.614   5.171   3.318
 9496TIP3   OH228430   5.898   0.618   0.420
 9496TIP3    H128431   5.812   0.596   0.456
 9496TIP3    H228432   5.944   0.534   0.413
 9497TIP3   OH228433   5.966   6.329   1.308
 9497TIP3    H128434   5.907   6.395   1.272
 9497TIP3    H228435   5.937   6.317   1.398
 9498TIP3   OH228436   1.713   0.950   4.340
 9498TIP3    H128437   1.740   1.025   4.287
 9498TIP3    H228438   1.691   0.987   4.425
 9499TIP3   OH228439   5.738   6.643   1.731
 9499TIP3    H128440   5.793   6.604   1.799
 9499TIP3    H228441   5.763   6.597   1.650
 9500TIP3   OH228442   0.574   1.704   1.168
 9500TIP3    H128443   0.588   1.758   1.089
 9500TIP3    H228444   0.560   1.768   1.238
 9501TIP3   OH228445   1.923   6.853   4.343
 9501TIP3    H128446   1.852   6.892   4.396
 9501TIP3    H228447   1.883   6.839   4.257
 9502TIP3   OH228448   5.527   3.120   4.743
 9502TIP3    H128449   5.529   3.196   4.685
 9502TIP3    H228450   5.546   3.046   4.685
 9503TIP3   OH228451   2.437   4.898   6.670
 9503TIP3    H128452   2.490   4.872   6.594
 9503TIP3    H228453   2.355   4.929   6.632
 9504TIP3   OH228454   3.418   5.971   3.856
 9504TIP3    H128455   3.344   6.015   3.813
 9504TIP3    H228456   3.379   5.893   3.896
 9505TIP3   OH228457   4.909   2.055   0.960
 9505TIP3    H128458   4.897   1.964   0.990
 9505TIP3    H228459   4.877   2.108   1.034
 9506TIP3   OH228460   6.097   3.993   5.556
 9506TIP3    H128461   6.191   3.984   5.567
 9506TIP3    H228462   6.085   4.084   5.527
 9507TIP3   OH228463   2.328   3.412   6.271
 9507TIP3    H128464   2.294   3.428   6.183
 9507TIP3    H228465   2.260   3.447   6.329
 9508TIP3   OH228466   6.588   5.949   5.345
 9508TIP3    H128467   6.524   5.920   5.280
 9508TIP3    H228468   6.545   5.935   5.430
 9509TIP3   OH228469   0.982   1.458   4.404
 9509TIP3    H128470   0.996   1.387   4.341
 9509TIP3    H228471   0.948   1.414   4.482
 9510TIP3   OH228472   5.412   7.598   0.658
 9510TIP3    H128473   5.492   7.647   0.639
 9510TIP3    H228474   5.342   7.662   0.645
 9511TIP3   OH228475   8.213   6.896   0.321
 9511TIP3    H128476   8.262   6.964   0.276
 9511TIP3    H228477   8.150   6.865   0.255
 9512TIP3   OH228478   1.149   5.894   6.254
 9512TIP3    H128479   1.173   5.936   6.337
 9512TIP3    H228480   1.075   5.946   6.222
 9513TIP3   OH228481   6.757   1.083   5.311
 9513TIP3    H128482   6.662   1.073   5.309
 9513TIP3    H228483   6.778   1.124   5.227
 9514TIP3   OH228484   3.520   1.800   1.789
 9514TIP3    H128485   3.530   1.712   1.754
 9514TIP3    H228486   3.427   1.822   1.775
 9515TIP3   OH228487   0.006   6.295   2.621
 9515TIP3    H128488   0.058   6.215   2.615
 9515TIP3    H228489  -0.047   6.296   2.542
 9516TIP3   OH228490   4.964   4.587   0.206
 9516TIP3    H128491   4.979   4.509   0.259
 9516TIP3    H228492   4.936   4.554   0.121
 9517TIP3   OH228493   4.493   1.786   6.017
 9517TIP3    H128494   4.582   1.815   5.997
 9517TIP3    H228495   4.446   1.867   6.036
 9518TIP3   OH228496   0.732   7.506   2.943
 9518TIP3    H128497   0.812   7.522   2.994
 9518TIP3    H228498   0.713   7.414   2.957
 9519TIP3   OH228499   4.235   0.821   4.519
 9519TIP3    H128500   4.312   0.830   4.462
 9519TIP3    H228501   4.208   0.911   4.538
 9520TIP3   OH228502   7.263   7.020   6.496
 9520TIP3    H128503   7.301   7.019   6.408
 9520TIP3    H228504   7.249   7.113   6.515
 9521TIP3   OH228505   4.490   6.830   4.784
 9521TIP3    H128506   4.504   6.920   4.755
 9521TIP3    H228507   4.492   6.835   4.880
 9522TIP3   OH228508   8.168   6.324   3.756
 9522TIP3    H128509   8.176   6.259   3.686
 9522TIP3    H228510   8.255   6.363   3.763
 9523TIP3   OH228511   7.754   2.739   1.624
 9523TIP3    H128512   7.762   2.651   1.661
 9523TIP3    H228513   7.789   2.797   1.692
 9524TIP3   OH228514   1.726   6.650   6.696
 9524TIP3    H128515   1.688   6.573   6.653
 9524TIP3    H228516   1.685   6.724   6.652
 9525TIP3   OH228517   2.422   6.935   3.572
 9525TIP3    H128518   2.413   6.974   3.659
 9525TIP3    H228519   2.339   6.955   3.528
 9526TIP3   OH228520   5.059   5.965   1.309
 9526TIP3    H128521   5.064   6.038   1.247
 9526TIP3    H228522   4.977   5.921   1.288
 9527TIP3   OH228523   6.880   3.038   6.110
 9527TIP3    H128524   6.966   3.008   6.138
 9527TIP3    H228525   6.882   3.133   6.124
 9528TIP3   OH228526   4.219   5.522   2.955
 9528TIP3    H128527   4.185   5.445   3.001
 9528TIP3    H228528   4.272   5.568   3.020
 9529TIP3   OH228529   1.697   3.323   4.701
 9529TIP3    H128530   1.751   3.336   4.623
 9529TIP3    H228531   1.751   3.357   4.772
 9530TIP3   OH228532   1.295   3.196   4.432
 9530TIP3    H128533   1.225   3.130   4.431
 9530TIP3    H228534   1.250   3.279   4.415
 9531TIP3   OH228535   7.401   3.855   6.499
 9531TIP3    H128536   7.457   3.859   6.422
 9531TIP3    H228537   7.385   3.946   6.523
 9532TIP3   OH228538   5.004   6.513   5.492
 9532TIP3    H128539   4.995   6.480   5.403
 9532TIP3    H228540   4.919   6.494   5.533
 9533TIP3   OH228541   6.117   4.055   1.134
 9533TIP3    H128542   6.079   3.972   1.164
 9533TIP3    H228543   6.053   4.121   1.159
 9534TIP3   OH228544   3.773   1.614   2.758
 9534TIP3    H128545   3.840   1.675   2.728
 9534TIP3    H228546   3.709   1.611   2.687
 9535TIP3   OH228547   0.927   2.038   0.734
 9535TIP3    H128548   0.953   2.090   0.810
 9535TIP3    H228549   0.969   1.953   0.748
 9536TIP3   OH228550   7.649   4.065   4.749
 9536TIP3    H128551   7.653   4.147   4.699
 9536TIP3    H228552   7.555   4.051   4.764
 9537TIP3   OH228553   3.681   0.356   3.135
 9537TIP3    H128554   3.710   0.411   3.063
 9537TIP3    H228555   3.735   0.382   3.209
 9538TIP3   OH228556   6.609   0.935   0.381
 9538TIP3    H128557   6.583   0.893   0.463
 9538TIP3    H228558   6.669   0.872   0.340
 9539TIP3   OH228559   4.972   0.986   1.492
 9539TIP3    H128560   4.905   0.940   1.442
 9539TIP3    H228561   5.004   0.921   1.555
 9540TIP3   OH228562   4.932   1.870   4.924
 9540TIP3    H128563   4.930   1.783   4.964
 9540TIP3    H228564   5.014   1.873   4.876
 9541TIP3   OH228565   1.455   7.029   4.888
 9541TIP3    H128566   1.366   6.996   4.897
 9541TIP3    H228567   1.498   7.005   4.970
 9542TIP3   OH228568   5.107   6.771   3.129
 9542TIP3    H128569   5.020   6.798   3.160
 9542TIP3    H228570   5.131   6.838   3.066
 9543TIP3   OH228571   5.142   6.840   4.268
 9543TIP3    H128572   5.230   6.843   4.230
 9543TIP3    H228573   5.137   6.918   4.324
 9544TIP3   OH228574   5.415   6.847   2.431
 9544TIP3    H128575   5.354   6.811   2.366
 9544TIP3    H228576   5.369   6.923   2.467
 9545TIP3   OH228577   2.076   0.118   3.842
 9545TIP3    H128578   2.127   0.037   3.845
 9545TIP3    H228579   1.985   0.090   3.852
 9546TIP3   OH228580   3.110   4.644   2.127
 9546TIP3    H128581   3.144   4.577   2.067
 9546TIP3    H228582   3.173   4.715   2.121
 9547TIP3   OH228583   6.805   6.171   5.453
 9547TIP3    H128584   6.816   6.095   5.396
 9547TIP3    H228585   6.767   6.135   5.534
 9548TIP3   OH228586   0.980   4.789   3.944
 9548TIP3    H128587   1.003   4.882   3.937
 9548TIP3    H228588   0.893   4.789   3.983
 9549TIP3   OH228589   1.664   5.423   6.416
 9549TIP3    H128590   1.589   5.473   6.386
 9549TIP3    H228591   1.711   5.400   6.336
 9550TIP3   OH228592   1.435   2.629   4.472
 9550TIP3    H128593   1.430   2.538   4.503
 9550TIP3    H228594   1.517   2.662   4.508
 9551TIP3   OH228595   0.320   2.016   4.241
 9551TIP3    H128596   0.253   2.042   4.178
 9551TIP3    H228597   0.384   2.086   4.240
 9552TIP3   OH228598   4.927   0.072   5.125
 9552TIP3    H128599   4.985   0.015   5.075
 9552TIP3    H228600   4.863   0.013   5.163
 9553TIP3   OH228601   2.745   3.860   2.903
 9553TIP3    H128602   2.814   3.860   2.969
 9553TIP3    H228603   2.678   3.800   2.938
 9554TIP3   OH228604   4.723   5.832   4.769
 9554TIP3    H128605   4.747   5.898   4.704
 9554TIP3    H228606   4.656   5.779   4.727
 9555TIP3   OH228607   6.529   4.489   1.206
 9555TIP3    H128608   6.437   4.514   1.210
 9555TIP3    H228609   6.545   4.471   1.114
 9556TIP3   OH228610   1.256   2.271   5.550
 9556TIP3    H128611   1.272   2.177   5.543
 9556TIP3    H228612   1.161   2.279   5.553
 9557TIP3   OH228613   1.075   4.518   4.130
 9557TIP3    H128614   1.117   4.585   4.076
 9557TIP3    H228615   0.994   4.559   4.160
 9558TIP3   OH228616   1.151   7.401   6.565
 9558TIP3    H128617   1.116   7.366   6.484
 9558TIP3    H228618   1.195   7.327   6.607
 9559TIP3   OH228619   7.695   5.756   1.058
 9559TIP3    H128620   7.631   5.699   1.100
 9559TIP3    H228621   7.643   5.826   1.019
 9560TIP3   OH228622   0.099   6.905   0.724
 9560TIP3    H128623   0.011   6.930   0.753
 9560TIP3    H228624   0.150   6.986   0.732
 9561TIP3   OH228625   3.250   5.415   1.412
 9561TIP3    H128626   3.327   5.363   1.433
 9561TIP3    H228627   3.251   5.423   1.317
 9562TIP3   OH228628   5.206   7.059   5.054
 9562TIP3    H128629   5.214   7.152   5.033
 9562TIP3    H228630   5.120   7.051   5.096
 9563TIP3   OH228631   5.361   3.001   6.534
 9563TIP3    H128632   5.314   2.918   6.535
 9563TIP3    H228633   5.390   3.010   6.443
 9564TIP3   OH228634   4.797   0.577   2.359
 9564TIP3    H128635   4.802   0.602   2.267
 9564TIP3    H228636   4.879   0.607   2.397
 9565TIP3   OH228637   0.775   3.661   4.539
 9565TIP3    H128638   0.851   3.629   4.491
 9565TIP3    H228639   0.704   3.660   4.475
 9566TIP3   OH228640   0.117   5.801   6.106
 9566TIP3    H128641   0.123   5.894   6.126
 9566TIP3    H228642   0.024   5.780   6.117
 9567TIP3   OH228643   4.423   5.987   2.219
 9567TIP3    H128644   4.462   6.051   2.160
 9567TIP3    H228645   4.396   5.915   2.162
 9568TIP3   OH228646   2.128   1.229   5.793
 9568TIP3    H128647   2.076   1.157   5.758
 9568TIP3    H228648   2.219   1.200   5.782
 9569TIP3   OH228649   7.017   2.206   2.218
 9569TIP3    H128650   7.011   2.260   2.139
 9569TIP3    H228651   7.066   2.259   2.280
 9570TIP3   OH228652   6.555   0.175   0.960
 9570TIP3    H128653   6.595   0.226   1.030
 9570TIP3    H228654   6.479   0.226   0.933
 9571TIP3   OH228655   7.460   1.315   6.459
 9571TIP3    H128656   7.523   1.330   6.530
 9571TIP3    H228657   7.375   1.336   6.497
 9572TIP3   OH228658   1.806   3.485   3.844
 9572TIP3    H128659   1.825   3.541   3.769
 9572TIP3    H228660   1.712   3.470   3.839
 9573TIP3   OH228661   4.241   2.949   5.213
 9573TIP3    H128662   4.299   3.020   5.187
 9573TIP3    H228663   4.217   2.970   5.304
 9574TIP3   OH228664   7.736   1.894   0.125
 9574TIP3    H128665   7.707   1.984   0.142
 9574TIP3    H228666   7.673   1.840   0.172
 9575TIP3   OH228667   0.755   4.731   5.033
 9575TIP3    H128668   0.759   4.823   5.061
 9575TIP3    H228669   0.662   4.708   5.041
 9576TIP3   OH228670   6.082   0.776   3.199
 9576TIP3    H128671   6.093   0.752   3.107
 9576TIP3    H228672   5.996   0.741   3.223
 9577TIP3   OH228673   0.454   1.908   2.349
 9577TIP3    H128674   0.461   1.959   2.429
 9577TIP3    H228675   0.365   1.924   2.318
 9578TIP3   OH228676   7.662   3.453   5.870
 9578TIP3    H128677   7.616   3.394   5.811
 9578TIP3    H228678   7.614   3.445   5.953
 9579TIP3   OH228679   0.552   1.871   1.386
 9579TIP3    H128680   0.521   1.933   1.321
 9579TIP3    H228681   0.540   1.915   1.470
 9580TIP3   OH228682   4.817   4.627   6.085
 9580TIP3    H128683   4.827   4.638   5.991
 9580TIP3    H228684   4.736   4.575   6.094
 9581TIP3   OH228685   2.948   7.464   1.292
 9581TIP3    H128686   2.984   7.493   1.209
 9581TIP3    H228687   2.881   7.400   1.268
 9582TIP3   OH228688   0.795   7.083   1.130
 9582TIP3    H128689   0.728   7.051   1.070
 9582TIP3    H228690   0.878   7.051   1.094
 9583TIP3   OH228691   7.329   5.649   5.911
 9583TIP3    H128692   7.317   5.601   5.993
 9583TIP3    H228693   7.364   5.734   5.937
 9584TIP3   OH228694   5.595   4.845   4.740
 9584TIP3    H128695   5.690   4.845   4.745
 9584TIP3    H228696   5.574   4.915   4.677
 9585TIP3   OH228697   5.692   7.480   4.596
 9585TIP3    H128698   5.749   7.416   4.639
 9585TIP3    H228699   5.752   7.537   4.547
 9586TIP3   OH228700   3.141   3.539   1.457
 9586TIP3    H128701   3.191   3.593   1.518
 9586TIP3    H228702   3.122   3.458   1.506
 9587TIP3   OH228703   3.423   3.779   0.129
 9587TIP3    H128704   3.367   3.765   0.205
 9587TIP3    H228705   3.361   3.795   0.057
 9588TIP3   OH228706   2.932   3.148   3.867
 9588TIP3    H128707   2.840   3.163   3.884
 9588TIP3    H228708   2.934   3.087   3.793
 9589TIP3   OH228709   2.893   3.820   2.291
 9589TIP3    H128710   2.822   3.757   2.305
 9589TIP3    H228711   2.920   3.846   2.379
 9590TIP3   OH228712   2.673   4.297   2.899
 9590TIP3    H128713   2.659   4.246   2.819
 9590TIP3    H228714   2.759   4.337   2.887
 9591TIP3   OH228715   7.118   2.306   3.266
 9591TIP3    H128716   7.045   2.249   3.290
 9591TIP3    H228717   7.089   2.394   3.290
 9592TIP3   OH228718   0.575   5.922   3.458
 9592TIP3    H128719   0.558   6.010   3.426
 9592TIP3    H228720   0.489   5.881   3.464
 9593TIP3   OH228721   4.586   6.234   5.351
 9593TIP3    H128722   4.525   6.228   5.278
 9593TIP3    H228723   4.535   6.276   5.421
 9594TIP3   OH228724   4.666   3.891   0.348
 9594TIP3    H128725   4.737   3.882   0.284
 9594TIP3    H228726   4.651   3.802   0.379
 9595TIP3   OH228727   1.654   6.488   3.404
 9595TIP3    H128728   1.601   6.566   3.388
 9595TIP3    H228729   1.744   6.517   3.390
 9596TIP3   OH228730   4.706   5.129   2.882
 9596TIP3    H128731   4.632   5.190   2.878
 9596TIP3    H228732   4.709   5.090   2.794
 9597TIP3   OH228733   2.534   0.253   5.196
 9597TIP3    H128734   2.559   0.255   5.289
 9597TIP3    H228735   2.453   0.202   5.195
 9598TIP3   OH228736   3.732   1.412   3.917
 9598TIP3    H128737   3.800   1.405   3.849
 9598TIP3    H228738   3.781   1.427   3.998
 9599TIP3   OH228739   6.273   6.882   2.159
 9599TIP3    H128740   6.316   6.959   2.122
 9599TIP3    H228741   6.345   6.825   2.185
 9600TIP3   OH228742   7.325   0.248   2.004
 9600TIP3    H128743   7.331   0.207   2.090
 9600TIP3    H228744   7.239   0.290   2.004
 9601TIP3   OH228745   6.296   3.728   4.052
 9601TIP3    H128746   6.282   3.695   3.963
 9601TIP3    H228747   6.299   3.823   4.041
 9602TIP3   OH228748   4.390   7.523   4.925
 9602TIP3    H128749   4.345   7.546   5.007
 9602TIP3    H228750   4.450   7.596   4.909
 9603TIP3   OH228751   4.057   0.211   0.884
 9603TIP3    H128752   4.058   0.276   0.814
 9603TIP3    H228753   3.967   0.212   0.917
 9604TIP3   OH228754   6.929   5.114   4.077
 9604TIP3    H128755   7.011   5.164   4.076
 9604TIP3    H228756   6.891   5.132   4.163
 9605TIP3   OH228757   8.128   6.351   1.036
 9605TIP3    H128758   8.129   6.344   0.940
 9605TIP3    H228759   8.038   6.374   1.058
 9606TIP3   OH228760   2.201   1.919   1.042
 9606TIP3    H128761   2.285   1.898   1.084
 9606TIP3    H228762   2.152   1.965   1.109
 9607TIP3   OH228763   4.043   4.937   1.802
 9607TIP3    H128764   4.088   4.954   1.884
 9607TIP3    H228765   4.073   5.008   1.744
 9608TIP3   OH228766   0.315   0.628   4.602
 9608TIP3    H128767   0.343   0.600   4.515
 9608TIP3    H228768   0.391   0.673   4.639
 9609TIP3   OH228769   4.342   1.863   1.335
 9609TIP3    H128770   4.365   1.953   1.360
 9609TIP3    H228771   4.333   1.817   1.418
 9610TIP3   OH228772   8.096   0.450   5.266
 9610TIP3    H128773   8.137   0.365   5.248
 9610TIP3    H228774   8.046   0.469   5.187
 9611TIP3   OH228775   7.563   2.269   1.877
 9611TIP3    H128776   7.503   2.205   1.917
 9611TIP3    H228777   7.518   2.296   1.797
 9612TIP3   OH228778   4.959   0.682   4.536
 9612TIP3    H128779   4.963   0.593   4.500
 9612TIP3    H228780   5.044   0.694   4.577
 9613TIP3   OH228781   4.458   5.927   5.171
 9613TIP3    H128782   4.481   5.868   5.243
 9613TIP3    H228783   4.362   5.925   5.168
 9614TIP3   OH228784   1.242   5.137   5.216
 9614TIP3    H128785   1.181   5.173   5.282
 9614TIP3    H228786   1.259   5.048   5.245
 9615TIP3   OH228787   6.483   6.706   3.966
 9615TIP3    H128788   6.417   6.639   3.951
 9615TIP3    H228789   6.447   6.759   4.037
 9616TIP3   OH228790   0.452   7.408   6.307
 9616TIP3    H128791   0.367   7.367   6.288
 9616TIP3    H228792   0.463   7.473   6.237
 9617TIP3   OH228793   8.131   3.539   2.648
 9617TIP3    H128794   8.203   3.478   2.631
 9617TIP3    H228795   8.103   3.567   2.561
 9618TIP3   OH228796   7.938   4.194   2.725
 9618TIP3    H128797   8.016   4.247   2.742
 9618TIP3    H228798   7.904   4.228   2.642
 9619TIP3   OH228799   0.321   4.682   6.744
 9619TIP3    H128800   0.338   4.775   6.730
 9619TIP3    H228801   0.394   4.653   6.799
 9620TIP3   OH228802   6.128   0.241   1.734
 9620TIP3    H128803   6.088   0.163   1.694
 9620TIP3    H228804   6.078   0.314   1.699
 9621TIP3   OH228805   1.830   6.278   6.692
 9621TIP3    H128806   1.870   6.292   6.607
 9621TIP3    H228807   1.884   6.328   6.753
 9622TIP3   OH228808   4.777   1.372   1.716
 9622TIP3    H128809   4.833   1.310   1.763
 9622TIP3    H228810   4.834   1.448   1.700
 9623TIP3   OH228811   1.765   3.273   2.805
 9623TIP3    H128812   1.720   3.344   2.851
 9623TIP3    H228813   1.834   3.317   2.755
 9624TIP3   OH228814   3.842   4.097   3.975
 9624TIP3    H128815   3.913   4.060   4.027
 9624TIP3    H228816   3.867   4.189   3.963
 9625TIP3   OH228817   2.247   7.198   4.081
 9625TIP3    H128818   2.214   7.179   4.169
 9625TIP3    H228819   2.335   7.231   4.096
 9626TIP3   OH228820   7.345   3.810   3.695
 9626TIP3    H128821   7.317   3.767   3.776
 9626TIP3    H228822   7.349   3.903   3.718
 9627TIP3   OH228823   6.604   2.160   6.015
 9627TIP3    H128824   6.606   2.071   5.979
 9627TIP3    H228825   6.682   2.202   5.977
 9628TIP3   OH228826   4.216   4.431   3.475
 9628TIP3    H128827   4.236   4.501   3.413
 9628TIP3    H228828   4.208   4.352   3.421
 9629TIP3   OH228829   7.018   0.998   2.756
 9629TIP3    H128830   7.100   1.009   2.805
 9629TIP3    H228831   6.982   0.915   2.787
 9630TIP3   OH228832   3.872   5.583   6.452
 9630TIP3    H128833   3.853   5.496   6.418
 9630TIP3    H228834   3.938   5.569   6.520
 9631TIP3   OH228835   7.515   2.681   0.579
 9631TIP3    H128836   7.487   2.642   0.496
 9631TIP3    H228837   7.449   2.747   0.597
 9632TIP3   OH228838   0.497   6.113   5.165
 9632TIP3    H128839   0.513   6.048   5.097
 9632TIP3    H228840   0.549   6.083   5.240
 9633TIP3   OH228841   1.123   3.530   4.132
 9633TIP3    H128842   1.202   3.519   4.185
 9633TIP3    H228843   1.153   3.528   4.042
 9634TIP3   OH228844   7.561   1.659   0.292
 9634TIP3    H128845   7.647   1.640   0.256
 9634TIP3    H228846   7.501   1.652   0.218
 9635TIP3   OH228847   2.208   0.075   3.532
 9635TIP3    H128848   2.155   0.037   3.462
 9635TIP3    H228849   2.291   0.026   3.528
 9636TIP3   OH228850   1.266  -0.011   6.597
 9636TIP3    H128851   1.227   0.071   6.567
 9636TIP3    H228852   1.347   0.016   6.642
 9637TIP3   OH228853   2.894   3.976   3.808
 9637TIP3    H128854   2.823   3.955   3.747
 9637TIP3    H228855   2.876   4.066   3.836
 9638TIP3   OH228856   3.803   7.511   0.909
 9638TIP3    H128857   3.770   7.486   0.823
 9638TIP3    H228858   3.823   7.428   0.952
 9639TIP3   OH228859   3.748   4.707   5.374
 9639TIP3    H128860   3.723   4.615   5.390
 9639TIP3    H228861   3.697   4.732   5.297
 9640TIP3   OH228862   5.864   2.578   3.117
 9640TIP3    H128863   5.915   2.498   3.106
 9640TIP3    H228864   5.929   2.648   3.116
 9641TIP3   OH228865   1.885   4.665   5.581
 9641TIP3    H128866   1.802   4.625   5.608
 9641TIP3    H228867   1.867   4.698   5.493
 9642TIP3   OH228868   5.613   6.741   0.544
 9642TIP3    H128869   5.604   6.768   0.453
 9642TIP3    H228870   5.602   6.821   0.595
 9643TIP3   OH228871   0.160   6.421   2.292
 9643TIP3    H128872   0.189   6.484   2.226
 9643TIP3    H228873   0.125   6.347   2.241
 9644TIP3   OH228874   2.679   5.282   2.000
 9644TIP3    H128875   2.731   5.266   2.078
 9644TIP3    H228876   2.740   5.268   1.927
 9645TIP3   OH228877   4.090   2.881   0.582
 9645TIP3    H128878   4.055   2.911   0.666
 9645TIP3    H228879   4.033   2.921   0.516
 9646TIP3   OH228880   4.179   7.217   4.123
 9646TIP3    H128881   4.150   7.261   4.042
 9646TIP3    H228882   4.217   7.135   4.093
 9647TIP3   OH228883   8.021   1.657   2.882
 9647TIP3    H128884   8.025   1.626   2.972
 9647TIP3    H228885   7.950   1.606   2.843
 9648TIP3   OH228886   1.352   6.073   5.650
 9648TIP3    H128887   1.274   6.025   5.622
 9648TIP3    H228888   1.319   6.159   5.676
 9649TIP3   OH228889   6.868   3.045   4.548
 9649TIP3    H128890   6.879   3.121   4.489
 9649TIP3    H228891   6.849   2.972   4.489
 9650TIP3   OH228892   3.848   2.164   2.011
 9650TIP3    H128893   3.785   2.100   1.978
 9650TIP3    H228894   3.923   2.112   2.040
 9651TIP3   OH228895   1.477   2.315   5.270
 9651TIP3    H128896   1.382   2.309   5.271
 9651TIP3    H228897   1.500   2.352   5.355
 9652TIP3   OH228898   0.298   2.814   2.149
 9652TIP3    H128899   0.362   2.755   2.189
 9652TIP3    H228900   0.255   2.857   2.223
 9653TIP3   OH228901   5.146   1.677   1.541
 9653TIP3    H128902   5.227   1.696   1.589
 9653TIP3    H228903   5.171   1.615   1.473
 9654TIP3   OH228904   2.628   3.811   4.569
 9654TIP3    H128905   2.684   3.871   4.519
 9654TIP3    H228906   2.570   3.868   4.619
 9655TIP3   OH228907   1.396   4.552   2.862
 9655TIP3    H128908   1.450   4.589   2.932
 9655TIP3    H228909   1.310   4.594   2.874
 9656TIP3   OH228910   2.936   0.521   0.097
 9656TIP3    H128911   2.933   0.489   0.007
 9656TIP3    H228912   2.972   0.610   0.090
 9657TIP3   OH228913   6.722   0.144   1.463
 9657TIP3    H128914   6.654   0.078   1.446
 9657TIP3    H228915   6.782   0.135   1.389
 9658TIP3   OH228916   2.146   7.725   5.642
 9658TIP3    H128917   2.175   7.724   5.550
 9658TIP3    H228918   2.134   7.633   5.665
 9659TIP3   OH228919   3.195   6.046   3.709
 9659TIP3    H128920   3.203   6.005   3.623
 9659TIP3    H228921   3.120   6.105   3.700
 9660TIP3   OH228922   4.955   6.744   3.679
 9660TIP3    H128923   5.050   6.733   3.685
 9660TIP3    H228924   4.920   6.656   3.694
 9661TIP3   OH228925   0.268   6.159   1.327
 9661TIP3    H128926   0.309   6.078   1.355
 9661TIP3    H228927   0.340   6.212   1.293
 9662TIP3   OH228928   6.109   6.625   4.676
 9662TIP3    H128929   6.071   6.616   4.763
 9662TIP3    H228930   6.150   6.712   4.677
 9663TIP3   OH228931   5.500   7.095   0.317
 9663TIP3    H128932   5.536   7.133   0.397
 9663TIP3    H228933   5.524   7.002   0.321
 9664TIP3   OH228934   4.199   2.893   1.542
 9664TIP3    H128935   4.203   2.985   1.565
 9664TIP3    H228936   4.135   2.889   1.471
 9665TIP3   OH228937   0.625   6.984   2.862
 9665TIP3    H128938   0.616   6.897   2.899
 9665TIP3    H228939   0.550   6.994   2.804
 9666TIP3   OH228940   0.588   4.725   1.063
 9666TIP3    H128941   0.589   4.629   1.061
 9666TIP3    H228942   0.496   4.748   1.073
 9667TIP3   OH228943   0.411   2.072   3.846
 9667TIP3    H128944   0.343   2.082   3.912
 9667TIP3    H228945   0.488   2.040   3.894
 9668TIP3   OH228946   0.303   2.419   4.824
 9668TIP3    H128947   0.309   2.487   4.890
 9668TIP3    H228948   0.277   2.465   4.744
 9669TIP3   OH228949   1.619   2.082   5.972
 9669TIP3    H128950   1.644   2.159   5.922
 9669TIP3    H228951   1.582   2.117   6.053
 9670TIP3   OH228952   0.890   1.367   3.399
 9670TIP3    H128953   0.960   1.346   3.337
 9670TIP3    H228954   0.935   1.403   3.475
 9671TIP3   OH228955   5.120   3.380   5.285
 9671TIP3    H128956   5.101   3.469   5.257
 9671TIP3    H228957   5.084   3.374   5.374
 9672TIP3   OH228958   7.169   1.666   2.113
 9672TIP3    H128959   7.149   1.587   2.062
 9672TIP3    H228960   7.139   1.645   2.202
 9673TIP3   OH228961   7.111   1.463   0.937
 9673TIP3    H128962   7.129   1.374   0.967
 9673TIP3    H228963   7.020   1.460   0.908
 9674TIP3   OH228964   0.717   5.608   2.766
 9674TIP3    H128965   0.628   5.627   2.736
 9674TIP3    H228966   0.774   5.647   2.699
 9675TIP3   OH228967   6.019   6.461   3.872
 9675TIP3    H128968   6.037   6.371   3.901
 9675TIP3    H228969   5.936   6.483   3.913
 9676TIP3   OH228970   2.549   2.371   4.122
 9676TIP3    H128971   2.587   2.290   4.157
 9676TIP3    H228972   2.501   2.408   4.195
 9677TIP3   OH228973   0.713   2.758   1.486
 9677TIP3    H128974   0.714   2.711   1.569
 9677TIP3    H228975   0.789   2.816   1.489
 9678TIP3   OH228976   6.492   2.443   6.630
 9678TIP3    H128977   6.551   2.509   6.667
 9678TIP3    H228978   6.467   2.478   6.545
 9679TIP3   OH228979   4.033   3.486   2.539
 9679TIP3    H128980   4.040   3.575   2.504
 9679TIP3    H228981   3.939   3.469   2.545
 9680TIP3   OH228982   3.866   6.555   5.173
 9680TIP3    H128983   3.943   6.560   5.229
 9680TIP3    H228984   3.857   6.462   5.152
 9681TIP3   OH228985   3.807   0.039   5.112
 9681TIP3    H128986   3.760  -0.033   5.155
 9681TIP3    H228987   3.738   0.093   5.074
 9682TIP3   OH228988   6.960   1.091   4.816
 9682TIP3    H128989   6.986   1.086   4.724
 9682TIP3    H228990   6.932   1.002   4.838
 9683TIP3   OH228991   0.916   5.988   0.849
 9683TIP3    H128992   0.942   6.080   0.859
 9683TIP3    H228993   0.821   5.989   0.860
 9684TIP3   OH228994   7.861   4.653   6.368
 9684TIP3    H128995   7.881   4.636   6.275
 9684TIP3    H228996   7.795   4.588   6.390
 9685TIP3   OH228997   6.853   5.980   4.122
 9685TIP3    H128998   6.834   5.956   4.212
 9685TIP3    H228999   6.821   6.070   4.114
 9686TIP3   OH229000   0.300   4.001   4.500
 9686TIP3    H129001   0.217   4.046   4.519
 9686TIP3    H229002   0.366   4.050   4.548
 9687TIP3   OH229003   7.480   6.757   4.084
 9687TIP3    H129004   7.539   6.744   4.010
 9687TIP3    H229005   7.538   6.774   4.158
 9688TIP3   OH229006   4.671   7.333   4.080
 9688TIP3    H129007   4.661   7.265   4.012
 9688TIP3    H229008   4.628   7.296   4.157
 9689TIP3   OH229009   4.915   2.092   4.290
 9689TIP3    H129010   4.843   2.091   4.227
 9689TIP3    H229011   4.907   2.177   4.335
 9690TIP3   OH229012   1.230   5.780   5.836
 9690TIP3    H129013   1.321   5.800   5.856
 9690TIP3    H229014   1.180   5.850   5.878
 9691TIP3   OH229015   8.073   7.566   2.340
 9691TIP3    H129016   8.060   7.472   2.341
 9691TIP3    H229017   8.152   7.580   2.392
 9692TIP3   OH229018   6.537   4.568   5.553
 9692TIP3    H129019   6.614   4.621   5.534
 9692TIP3    H229020   6.469   4.633   5.572
 9693TIP3   OH229021   2.784   5.781   1.925
 9693TIP3    H129022   2.856   5.817   1.977
 9693TIP3    H229023   2.727   5.856   1.907
 9694TIP3   OH229024   4.266   7.430   4.692
 9694TIP3    H129025   4.296   7.478   4.770
 9694TIP3    H229026   4.171   7.436   4.696
 9695TIP3   OH229027   1.554   2.835   5.657
 9695TIP3    H129028   1.528   2.903   5.720
 9695TIP3    H229029   1.531   2.753   5.699
 9696TIP3   OH229030   2.506   6.786   5.761
 9696TIP3    H129031   2.568   6.715   5.779
 9696TIP3    H229032   2.530   6.818   5.674
 9697TIP3   OH229033   1.433   0.722   4.330
 9697TIP3    H129034   1.518   0.759   4.307
 9697TIP3    H229035   1.386   0.793   4.373
 9698TIP3   OH229036   2.795   5.595   5.187
 9698TIP3    H129037   2.716   5.568   5.141
 9698TIP3    H229038   2.864   5.539   5.152
 9699TIP3   OH229039   2.141   2.282   3.824
 9699TIP3    H129040   2.047   2.283   3.839
 9699TIP3    H229041   2.180   2.310   3.907
 9700TIP3   OH229042   1.032   4.251   3.233
 9700TIP3    H129043   1.009   4.333   3.189
 9700TIP3    H229044   1.083   4.278   3.309
 9701TIP3   OH229045   3.970   7.634   3.105
 9701TIP3    H129046   4.019   7.624   3.187
 9701TIP3    H229047   3.891   7.683   3.129
 9702TIP3   OH229048   5.583   7.241   4.102
 9702TIP3    H129049   5.511   7.301   4.084
 9702TIP3    H229050   5.539   7.163   4.137
 9703TIP3   OH229051   4.965   1.411   6.494
 9703TIP3    H129052   4.924   1.480   6.547
 9703TIP3    H229053   5.057   1.412   6.520
 9704TIP3   OH229054   2.429   3.255   6.461
 9704TIP3    H129055   2.413   3.330   6.519
 9704TIP3    H229056   2.419   3.290   6.372
 9705TIP3   OH229057   5.184   5.626   5.306
 9705TIP3    H129058   5.271   5.660   5.284
 9705TIP3    H229059   5.124   5.679   5.254
 9706TIP3   OH229060   0.744   6.238   5.606
 9706TIP3    H129061   0.747   6.326   5.570
 9706TIP3    H229062   0.708   6.184   5.535
 9707TIP3   OH229063   0.255   6.968   2.092
 9707TIP3    H129064   0.252   6.950   2.186
 9707TIP3    H229065   0.342   7.008   2.079
 9708TIP3   OH229066   4.834   3.794   0.139
 9708TIP3    H129067   4.876   3.800   0.053
 9708TIP3    H229068   4.897   3.748   0.194
 9709TIP3   OH229069   8.282   4.037   3.775
 9709TIP3    H129070   8.275   4.113   3.832
 9709TIP3    H229071   8.212   4.048   3.711
 9710TIP3   OH229072   4.075   1.618   5.872
 9710TIP3    H129073   4.009   1.579   5.814
 9710TIP3    H229074   4.031   1.692   5.912
 9711TIP3   OH229075   7.457   2.160   3.330
 9711TIP3    H129076   7.514   2.095   3.288
 9711TIP3    H229077   7.369   2.124   3.322
 9712TIP3   OH229078   6.294   7.133   1.797
 9712TIP3    H129079   6.316   7.075   1.870
 9712TIP3    H229080   6.216   7.180   1.826
 9713TIP3   OH229081   0.711   6.697   2.031
 9713TIP3    H129082   0.759   6.696   1.948
 9713TIP3    H229083   0.729   6.783   2.068
 9714TIP3   OH229084   0.519   3.112   1.263
 9714TIP3    H129085   0.556   3.099   1.175
 9714TIP3    H229086   0.590   3.156   1.311
 9715TIP3   OH229087   4.903   1.031   5.114
 9715TIP3    H129088   4.816   1.020   5.152
 9715TIP3    H229089   4.963   1.002   5.182
 9716TIP3   OH229090   0.838   1.338   0.603
 9716TIP3    H129091   0.909   1.332   0.668
 9716TIP3    H229092   0.760   1.310   0.651
 9717TIP3   OH229093   2.047   5.076   3.996
 9717TIP3    H129094   2.008   5.088   4.083
 9717TIP3    H229095   1.979   5.033   3.944
 9718TIP3   OH229096   2.885   1.646   3.893
 9718TIP3    H129097   2.835   1.672   3.816
 9718TIP3    H229098   2.952   1.586   3.859
 9719TIP3   OH229099   0.796   0.907   1.040
 9719TIP3    H129100   0.720   0.965   1.045
 9719TIP3    H229101   0.830   0.920   0.951
 9720TIP3   OH229102   0.333   1.059   3.858
 9720TIP3    H129103   0.385   1.092   3.785
 9720TIP3    H229104   0.357   1.114   3.932
 9721TIP3   OH229105   4.784   2.353   6.381
 9721TIP3    H129106   4.780   2.404   6.300
 9721TIP3    H229107   4.855   2.393   6.432
 9722TIP3   OH229108   5.735   5.663   3.724
 9722TIP3    H129109   5.810   5.612   3.692
 9722TIP3    H229110   5.685   5.600   3.776
 9723TIP3   OH229111   7.193   6.407   3.286
 9723TIP3    H129112   7.150   6.333   3.329
 9723TIP3    H229113   7.272   6.422   3.339
 9724TIP3   OH229114   5.349   2.866   5.131
 9724TIP3    H129115   5.328   2.815   5.054
 9724TIP3    H229116   5.382   2.803   5.194
 9725TIP3   OH229117   3.847   1.503   1.166
 9725TIP3    H129118   3.768   1.549   1.137
 9725TIP3    H229119   3.918   1.566   1.154
 9726TIP3   OH229120   5.306   5.524   1.531
 9726TIP3    H129121   5.259   5.482   1.602
 9726TIP3    H229122   5.255   5.502   1.452
 9727TIP3   OH229123   2.259   1.870   3.308
 9727TIP3    H129124   2.239   1.892   3.218
 9727TIP3    H229125   2.315   1.941   3.339
 9728TIP3   OH229126   0.156   4.549   2.909
 9728TIP3    H129127   0.092   4.478   2.914
 9728TIP3    H229128   0.158   4.585   2.998
 9729TIP3   OH229129   4.414   1.354   2.123
 9729TIP3    H129130   4.361   1.423   2.164
 9729TIP3    H229131   4.350   1.290   2.093
 9730TIP3   OH229132   1.273   2.689   1.694
 9730TIP3    H129133   1.317   2.612   1.731
 9730TIP3    H229134   1.201   2.706   1.755
 9731TIP3   OH229135   5.376   2.122   0.432
 9731TIP3    H129136   5.376   2.075   0.348
 9731TIP3    H229137   5.438   2.073   0.486
 9732TIP3   OH229138   0.831   3.553   5.398
 9732TIP3    H129139   0.881   3.534   5.477
 9732TIP3    H229140   0.796   3.467   5.371
 9733TIP3   OH229141   1.844   5.487   1.335
 9733TIP3    H129142   1.782   5.556   1.360
 9733TIP3    H229143   1.808   5.408   1.373
 9734TIP3   OH229144   2.069   1.700   0.466
 9734TIP3    H129145   2.080   1.605   0.467
 9734TIP3    H229146   2.032   1.721   0.552
 9735TIP3   OH229147   1.076   3.601   1.071
 9735TIP3    H129148   1.149   3.661   1.058
 9735TIP3    H229149   1.116   3.515   1.083
 9736TIP3   OH229150   0.537   5.928   6.579
 9736TIP3    H129151   0.597   5.854   6.567
 9736TIP3    H229152   0.487   5.932   6.498
 9737TIP3   OH229153   5.944   0.814   2.299
 9737TIP3    H129154   5.865   0.831   2.350
 9737TIP3    H229155   5.921   0.738   2.245
 9738TIP3   OH229156   6.052   0.188   2.830
 9738TIP3    H129157   6.027   0.173   2.739
 9738TIP3    H229158   6.020   0.110   2.877
 9739TIP3   OH229159   8.096   6.138   4.906
 9739TIP3    H129160   8.100   6.081   4.829
 9739TIP3    H229161   8.005   6.168   4.909
 9740TIP3   OH229162   5.416   0.676   1.746
 9740TIP3    H129163   5.396   0.620   1.820
 9740TIP3    H229164   5.479   0.626   1.694
 9741TIP3   OH229165   3.296   1.244   1.868
 9741TIP3    H129166   3.376   1.239   1.921
 9741TIP3    H229167   3.260   1.331   1.888
 9742TIP3   OH229168   7.801   0.506   0.668
 9742TIP3    H129169   7.896   0.494   0.673
 9742TIP3    H229170   7.789   0.568   0.595
 9743TIP3   OH229171   0.592   0.024   1.434
 9743TIP3    H129172   0.560   0.114   1.434
 9743TIP3    H229173   0.677   0.029   1.389
 9744TIP3   OH229174   1.619   7.305   5.298
 9744TIP3    H129175   1.647   7.229   5.348
 9744TIP3    H229176   1.575   7.361   5.362
 9745TIP3   OH229177   8.232   0.166   4.797
 9745TIP3    H129178   8.315   0.172   4.845
 9745TIP3    H229179   8.165   0.172   4.866
 9746TIP3   OH229180   0.694   0.884   2.141
 9746TIP3    H129181   0.672   0.836   2.221
 9746TIP3    H229182   0.788   0.903   2.149
 9747TIP3   OH229183   3.477   5.052   5.472
 9747TIP3    H129184   3.434   4.968   5.490
 9747TIP3    H229185   3.570   5.030   5.460
 9748TIP3   OH229186   7.091   3.424   3.098
 9748TIP3    H129187   7.082   3.451   3.006
 9748TIP3    H229188   7.172   3.467   3.127
 9749TIP3   OH229189   4.251   0.757   2.911
 9749TIP3    H129190   4.192   0.832   2.905
 9749TIP3    H229191   4.329   0.784   2.864
 9750TIP3   OH229192   2.627   3.428   0.999
 9750TIP3    H129193   2.711   3.395   1.031
 9750TIP3    H229194   2.637   3.524   1.000
 9751TIP3   OH229195   0.672   6.321   1.881
 9751TIP3    H129196   0.679   6.297   1.973
 9751TIP3    H229197   0.606   6.390   1.878
 9752TIP3   OH229198   4.576   3.180   4.722
 9752TIP3    H129199   4.600   3.104   4.775
 9752TIP3    H229200   4.519   3.146   4.654
 9753TIP3   OH229201   2.793   6.042   6.548
 9753TIP3    H129202   2.783   6.119   6.605
 9753TIP3    H229203   2.731   5.978   6.583
 9754TIP3   OH229204   2.767   5.577   6.577
 9754TIP3    H129205   2.784   5.593   6.484
 9754TIP3    H229206   2.679   5.538   6.579
 9755TIP3   OH229207   2.125   1.618   5.549
 9755TIP3    H129208   2.034   1.618   5.580
 9755TIP3    H229209   2.173   1.567   5.614
 9756TIP3   OH229210   1.273   2.521   3.608
 9756TIP3    H129211   1.337   2.575   3.560
 9756TIP3    H229212   1.309   2.514   3.696
 9757TIP3   OH229213   5.161   4.362   4.293
 9757TIP3    H129214   5.092   4.296   4.296
 9757TIP3    H229215   5.152   4.408   4.377
 9758TIP3   OH229216   0.312   4.217   0.323
 9758TIP3    H129217   0.340   4.247   0.237
 9758TIP3    H229218   0.335   4.290   0.382
 9759TIP3   OH229219   3.114   5.421   6.188
 9759TIP3    H129220   3.038   5.422   6.247
 9759TIP3    H229221   3.078   5.442   6.102
 9760TIP3   OH229222   1.659   0.121   1.734
 9760TIP3    H129223   1.604   0.186   1.779
 9760TIP3    H229224   1.613   0.105   1.652
 9761TIP3   OH229225   3.079   3.216   0.936
 9761TIP3    H129226   3.156   3.223   0.880
 9761TIP3    H229227   3.113   3.184   1.020
 9762TIP3   OH229228   7.482   6.163   1.512
 9762TIP3    H129229   7.497   6.107   1.436
 9762TIP3    H229230   7.387   6.170   1.519
 9763TIP3   OH229231   1.037   4.611   6.700
 9763TIP3    H129232   0.946   4.588   6.682
 9763TIP3    H229233   1.085   4.528   6.690
 9764TIP3   OH229234   4.168   0.252   5.579
 9764TIP3    H129235   4.223   0.322   5.543
 9764TIP3    H229236   4.085   0.294   5.599
 9765TIP3   OH229237   5.551   5.097   1.113
 9765TIP3    H129238   5.555   5.164   1.045
 9765TIP3    H229239   5.572   5.143   1.194
 9766TIP3   OH229240   6.442   2.667   1.391
 9766TIP3    H129241   6.442   2.760   1.413
 9766TIP3    H229242   6.533   2.648   1.369
 9767TIP3   OH229243   5.277   0.659   3.803
 9767TIP3    H129244   5.200   0.606   3.823
 9767TIP3    H229245   5.265   0.739   3.855
 9768TIP3   OH229246   4.857   2.764   4.434
 9768TIP3    H129247   4.774   2.770   4.388
 9768TIP3    H229248   4.834   2.727   4.520
 9769TIP3   OH229249   4.015   6.218   0.494
 9769TIP3    H129250   4.103   6.216   0.456
 9769TIP3    H229251   4.010   6.303   0.538
 9770TIP3   OH229252   4.859   1.534   3.694
 9770TIP3    H129253   4.769   1.525   3.660
 9770TIP3    H229254   4.904   1.456   3.661
 9771TIP3   OH229255   4.556   7.263   5.710
 9771TIP3    H129256   4.536   7.297   5.622
 9771TIP3    H229257   4.634   7.208   5.697
 9772TIP3   OH229258   2.631   3.163   4.623
 9772TIP3    H129259   2.585   3.184   4.704
 9772TIP3    H229260   2.694   3.234   4.611
 9773TIP3   OH229261   4.888   0.034   1.978
 9773TIP3    H129262   4.845   0.027   2.064
 9773TIP3    H229263   4.859   0.119   1.944
 9774TIP3   OH229264   4.383   6.751   0.843
 9774TIP3    H129265   4.365   6.845   0.838
 9774TIP3    H229266   4.424   6.739   0.929
 9775TIP3   OH229267   1.871   7.215   0.579
 9775TIP3    H129268   1.868   7.195   0.673
 9775TIP3    H229269   1.914   7.140   0.539
 9776TIP3   OH229270   7.466   5.952   2.634
 9776TIP3    H129271   7.473   5.931   2.727
 9776TIP3    H229272   7.556   5.968   2.607
 9777TIP3   OH229273   0.627   0.585   4.994
 9777TIP3    H129274   0.539   0.548   4.984
 9777TIP3    H229275   0.669   0.568   4.909
 9778TIP3   OH229276   2.767   2.693   4.103
 9778TIP3    H129277   2.675   2.673   4.121
 9778TIP3    H229278   2.790   2.634   4.032
 9779TIP3   OH229279   7.771   0.607   2.131
 9779TIP3    H129280   7.765   0.662   2.053
 9779TIP3    H229281   7.723   0.656   2.198
 9780TIP3   OH229282   5.001   5.084   2.059
 9780TIP3    H129283   5.007   5.084   1.964
 9780TIP3    H229284   4.985   4.993   2.083
 9781TIP3   OH229285   6.548   6.147   3.076
 9781TIP3    H129286   6.546   6.116   2.985
 9781TIP3    H229287   6.597   6.229   3.072
 9782TIP3   OH229288   0.324   6.035   6.146
 9782TIP3    H129289   0.374   6.109   6.179
 9782TIP3    H229290   0.302   5.983   6.224
 9783TIP3   OH229291   2.431   7.141   1.750
 9783TIP3    H129292   2.490   7.213   1.773
 9783TIP3    H229293   2.373   7.178   1.683
 9784TIP3   OH229294   1.368   3.246   1.409
 9784TIP3    H129295   1.306   3.173   1.402
 9784TIP3    H229296   1.335   3.311   1.346
 9785TIP3   OH229297   4.203   3.175   4.715
 9785TIP3    H129298   4.263   3.199   4.644
 9785TIP3    H229299   4.117   3.170   4.672
 9786TIP3   OH229300   0.625   5.841   6.062
 9786TIP3    H129301   0.644   5.927   6.100
 9786TIP3    H229302   0.595   5.861   5.973
 9787TIP3   OH229303   2.729   1.819   1.932
 9787TIP3    H129304   2.638   1.790   1.937
 9787TIP3    H229305   2.724   1.915   1.923
 9788TIP3   OH229306   3.751   6.944   6.606
 9788TIP3    H129307   3.708   6.924   6.688
 9788TIP3    H229308   3.733   6.869   6.549
 9789TIP3   OH229309   1.928   0.104   1.710
 9789TIP3    H129310   1.833   0.110   1.720
 9789TIP3    H229311   1.956   0.044   1.779
 9790TIP3   OH229312   1.327   5.361   6.091
 9790TIP3    H129313   1.322   5.454   6.115
 9790TIP3    H229314   1.420   5.340   6.095
 9791TIP3   OH229315   6.772   7.090   6.177
 9791TIP3    H129316   6.829   7.146   6.123
 9791TIP3    H229317   6.818   7.083   6.261
 9792TIP3   OH229318   4.081   2.959   3.303
 9792TIP3    H129319   4.169   2.962   3.341
 9792TIP3    H229320   4.035   2.894   3.356
 9793TIP3   OH229321   1.180   3.643   1.870
 9793TIP3    H129322   1.092   3.617   1.845
 9793TIP3    H229323   1.215   3.567   1.916
 9794TIP3   OH229324   6.261   6.480   3.544
 9794TIP3    H129325   6.194   6.521   3.489
 9794TIP3    H229326   6.318   6.433   3.482
 9795TIP3   OH229327   0.319   4.631   4.104
 9795TIP3    H129328   0.347   4.567   4.170
 9795TIP3    H229329   0.285   4.577   4.032
 9796TIP3   OH229330   4.256   0.060   2.281
 9796TIP3    H129331   4.326   0.116   2.315
 9796TIP3    H229332   4.302  -0.017   2.246
 9797TIP3   OH229333   1.239   6.171   4.111
 9797TIP3    H129334   1.293   6.160   4.034
 9797TIP3    H229335   1.159   6.212   4.079
 9798TIP3   OH229336   5.645   1.562   6.733
 9798TIP3    H129337   5.586   1.637   6.727
 9798TIP3    H229338   5.732   1.601   6.746
 9799TIP3   OH229339   4.696   5.457   0.650
 9799TIP3    H129340   4.726   5.486   0.564
 9799TIP3    H229341   4.771   5.472   0.708
 9800TIP3   OH229342   0.791   2.264   4.600
 9800TIP3    H129343   0.833   2.330   4.655
 9800TIP3    H229344   0.703   2.254   4.637
 9801TIP3   OH229345   4.451   4.893   1.368
 9801TIP3    H129346   4.508   4.855   1.301
 9801TIP3    H229347   4.410   4.818   1.410
 9802TIP3   OH229348   4.820   4.071   5.527
 9802TIP3    H129349   4.778   4.100   5.608
 9802TIP3    H229350   4.907   4.044   5.554
 9803TIP3   OH229351   5.605   0.948   2.930
 9803TIP3    H129352   5.561   0.952   3.014
 9803TIP3    H229353   5.603   0.855   2.905
 9804TIP3   OH229354   1.624   0.165   5.063
 9804TIP3    H129355   1.674   0.102   5.115
 9804TIP3    H229356   1.595   0.116   4.986
 9805TIP3   OH229357   6.337   0.174   1.336
 9805TIP3    H129358   6.398   0.234   1.380
 9805TIP3    H229359   6.381   0.089   1.340
 9806TIP3   OH229360   3.271   0.802   2.506
 9806TIP3    H129361   3.241   0.737   2.570
 9806TIP3    H229362   3.210   0.793   2.433
 9807TIP3   OH229363   4.669   1.880   6.636
 9807TIP3    H129364   4.611   1.885   6.560
 9807TIP3    H229365   4.725   1.957   6.628
 9808TIP3   OH229366   1.942   5.029   3.242
 9808TIP3    H129367   1.898   4.980   3.172
 9808TIP3    H229368   2.018   4.975   3.264
 9809TIP3   OH229369   6.304   2.263   1.848
 9809TIP3    H129370   6.344   2.348   1.829
 9809TIP3    H229371   6.267   2.235   1.764
 9810TIP3   OH229372   2.289   1.919   2.733
 9810TIP3    H129373   2.363   1.860   2.748
 9810TIP3    H229374   2.212   1.866   2.750
 9811TIP3   OH229375   7.483   0.275   3.536
 9811TIP3    H129376   7.404   0.262   3.484
 9811TIP3    H229377   7.488   0.198   3.593
 9812TIP3   OH229378   6.452   3.359   5.018
 9812TIP3    H129379   6.453   3.312   5.101
 9812TIP3    H229380   6.487   3.446   5.039
 9813TIP3   OH229381   7.220   0.042   4.193
 9813TIP3    H129382   7.138   0.081   4.224
 9813TIP3    H229383   7.192  -0.032   4.139
 9814TIP3   OH229384   3.812   7.002   2.506
 9814TIP3    H129385   3.795   6.916   2.543
 9814TIP3    H229386   3.832   7.057   2.582
 9815TIP3   OH229387   6.793   6.893   3.797
 9815TIP3    H129388   6.736   6.904   3.721
 9815TIP3    H229389   6.769   6.807   3.833
 9816TIP3   OH229390   2.058   1.704   3.143
 9816TIP3    H129391   2.104   1.781   3.108
 9816TIP3    H229392   2.006   1.739   3.215
 9817TIP3   OH229393   7.924   5.804   2.697
 9817TIP3    H129394   7.838   5.775   2.727
 9817TIP3    H229395   7.949   5.740   2.630
 9818TIP3   OH229396   2.313   4.761   4.148
 9818TIP3    H129397   2.374   4.833   4.133
 9818TIP3    H229398   2.368   4.692   4.186
 9819TIP3   OH229399   4.395   5.778   2.015
 9819TIP3    H129400   4.340   5.785   1.937
 9819TIP3    H229401   4.335   5.756   2.085
 9820TIP3   OH229402   4.421   7.700   1.807
 9820TIP3    H129403   4.332   7.665   1.810
 9820TIP3    H229404   4.440   7.727   1.897
 9821TIP3   OH229405   5.230   2.743   1.480
 9821TIP3    H129406   5.190   2.787   1.555
 9821TIP3    H229407   5.197   2.653   1.485
 9822TIP3   OH229408   7.400   0.270   4.513
 9822TIP3    H129409   7.482   0.244   4.471
 9822TIP3    H229410   7.341   0.293   4.441
 9823TIP3   OH229411   5.964   0.367   1.207
 9823TIP3    H129412   6.004   0.402   1.128
 9823TIP3    H229413   6.033   0.372   1.273
 9824TIP3   OH229414   5.190   1.600   6.740
 9824TIP3    H129415   5.141   1.589   6.822
 9824TIP3    H229416   5.124   1.629   6.677
 9825TIP3   OH229417   5.028   3.522   5.854
 9825TIP3    H129418   5.029   3.617   5.856
 9825TIP3    H229419   5.115   3.497   5.824
 9826TIP3   OH229420   3.604   6.419   6.663
 9826TIP3    H129421   3.687   6.384   6.631
 9826TIP3    H229422   3.540   6.351   6.643
 9827TIP3   OH229423   0.243   2.385   0.646
 9827TIP3    H129424   0.245   2.450   0.716
 9827TIP3    H229425   0.179   2.320   0.675
 9828TIP3   OH229426   2.116   3.944   1.114
 9828TIP3    H129427   2.051   4.011   1.096
 9828TIP3    H229428   2.153   3.969   1.199
 9829TIP3   OH229429   8.011   3.257   6.130
 9829TIP3    H129430   7.972   3.224   6.211
 9829TIP3    H229431   8.099   3.284   6.154
 9830TIP3   OH229432   0.095   3.464   0.498
 9830TIP3    H129433   0.138   3.455   0.413
 9830TIP3    H229434   0.156   3.424   0.561
 9831TIP3   OH229435   3.016   5.802   1.428
 9831TIP3    H129436   2.987   5.747   1.355
 9831TIP3    H229437   3.006   5.746   1.505
 9832TIP3   OH229438   7.860   4.919   6.530
 9832TIP3    H129439   7.910   4.880   6.458
 9832TIP3    H229440   7.886   5.011   6.530
 9833TIP3   OH229441   1.479   6.833   3.637
 9833TIP3    H129442   1.454   6.852   3.728
 9833TIP3    H229443   1.490   6.919   3.597
 9834TIP3   OH229444   1.328   4.421   4.215
 9834TIP3    H129445   1.324   4.331   4.248
 9834TIP3    H229446   1.238   4.439   4.186
 9835TIP3   OH229447   0.611   6.366   4.942
 9835TIP3    H129448   0.527   6.325   4.962
 9835TIP3    H229449   0.642   6.320   4.863
 9836TIP3   OH229450   2.097   7.744   2.476
 9836TIP3    H129451   2.065   7.765   2.563
 9836TIP3    H229452   2.187   7.716   2.490
 9837TIP3   OH229453   6.618   0.587   2.998
 9837TIP3    H129454   6.563   0.662   2.973
 9837TIP3    H229455   6.566   0.541   3.064
 9838TIP3   OH229456   4.269   0.155   4.251
 9838TIP3    H129457   4.358   0.171   4.282
 9838TIP3    H229458   4.258   0.060   4.259
 9839TIP3   OH229459   5.180   4.914   3.357
 9839TIP3    H129460   5.269   4.903   3.324
 9839TIP3    H229461   5.178   5.003   3.393
 9840TIP3   OH229462   1.799   6.439   4.989
 9840TIP3    H129463   1.882   6.482   5.008
 9840TIP3    H229464   1.801   6.424   4.894
 9841TIP3   OH229465   6.161   1.565   1.121
 9841TIP3    H129466   6.256   1.578   1.127
 9841TIP3    H229467   6.151   1.491   1.061
 9842TIP3   OH229468   8.114   2.493   0.630
 9842TIP3    H129469   8.053   2.562   0.604
 9842TIP3    H229470   8.165   2.532   0.701
 9843TIP3   OH229471   5.135   6.205   3.282
 9843TIP3    H129472   5.042   6.230   3.285
 9843TIP3    H229473   5.161   6.197   3.373
 9844TIP3   OH229474   0.138   0.994   0.579
 9844TIP3    H129475   0.092   0.917   0.547
 9844TIP3    H229476   0.222   0.993   0.535
 9845TIP3   OH229477   4.377   2.331   6.281
 9845TIP3    H129478   4.431   2.329   6.360
 9845TIP3    H229479   4.342   2.420   6.279
 9846TIP3   OH229480   5.759   4.654   1.731
 9846TIP3    H129481   5.699   4.580   1.741
 9846TIP3    H229482   5.773   4.685   1.821
 9847TIP3   OH229483   8.161   4.456  -0.006
 9847TIP3    H129484   8.069   4.480   0.000
 9847TIP3    H229485   8.203   4.505   0.065
 9848TIP3   OH229486   2.569   0.742   6.599
 9848TIP3    H129487   2.649   0.716   6.555
 9848TIP3    H229488   2.593   0.750   6.691
 9849TIP3   OH229489   2.912   3.981   0.818
 9849TIP3    H129490   2.832   4.010   0.775
 9849TIP3    H229491   2.911   4.026   0.903
 9850TIP3   OH229492   0.284   1.133   6.654
 9850TIP3    H129493   0.334   1.062   6.695
 9850TIP3    H229494   0.351   1.186   6.609
 9851TIP3   OH229495   4.312   3.002   5.773
 9851TIP3    H129496   4.245   2.938   5.751
 9851TIP3    H229497   4.364   3.010   5.693
 9852TIP3   OH229498   3.963   3.250   4.605
 9852TIP3    H129499   3.933   3.180   4.547
 9852TIP3    H229500   3.975   3.325   4.548
 9853TIP3   OH229501   3.508   4.269   0.832
 9853TIP3    H129502   3.520   4.268   0.927
 9853TIP3    H229503   3.593   4.240   0.798
 9854TIP3   OH229504   3.718   4.039   4.491
 9854TIP3    H129505   3.761   3.956   4.471
 9854TIP3    H229506   3.685   4.070   4.406
 9855TIP3   OH229507   2.132   6.306   3.212
 9855TIP3    H129508   2.094   6.365   3.148
 9855TIP3    H229509   2.057   6.264   3.254
 9856TIP3   OH229510   1.211   7.331   3.043
 9856TIP3    H129511   1.268   7.380   3.103
 9856TIP3    H229512   1.247   7.350   2.956
 9857TIP3   OH229513   5.195   2.079   3.260
 9857TIP3    H129514   5.175   2.164   3.299
 9857TIP3    H229515   5.111   2.032   3.261
 9858TIP3   OH229516   5.181   3.035   2.460
 9858TIP3    H129517   5.272   3.004   2.467
 9858TIP3    H229518   5.153   3.008   2.373
 9859TIP3   OH229519   4.586   2.755   6.108
 9859TIP3    H129520   4.589   2.844   6.074
 9859TIP3    H229521   4.506   2.718   6.072
 9860TIP3   OH229522   3.343   6.562   2.086
 9860TIP3    H129523   3.307   6.647   2.110
 9860TIP3    H229524   3.329   6.507   2.164
 9861TIP3   OH229525   3.529   2.281   2.556
 9861TIP3    H129526   3.469   2.290   2.631
 9861TIP3    H229527   3.616   2.293   2.593
 9862TIP3   OH229528   3.070   0.546   5.146
 9862TIP3    H129529   3.129   0.547   5.221
 9862TIP3    H229530   3.063   0.453   5.122
 9863TIP3   OH229531   3.036   2.617   3.520
 9863TIP3    H129532   2.975   2.676   3.565
 9863TIP3    H229533   3.087   2.578   3.591
 9864TIP3   OH229534   0.866   3.493   0.852
 9864TIP3    H129535   0.853   3.491   0.757
 9864TIP3    H229536   0.937   3.556   0.865
 9865TIP3   OH229537   5.967   7.667   1.297
 9865TIP3    H129538   6.002   7.582   1.322
 9865TIP3    H229539   6.013   7.730   1.353
 9866TIP3   OH229540   6.468   5.450   0.618
 9866TIP3    H129541   6.423   5.528   0.589
 9866TIP3    H229542   6.528   5.428   0.547
 9867TIP3   OH229543   8.012   2.195   2.521
 9867TIP3    H129544   7.976   2.107   2.520
 9867TIP3    H229545   8.102   2.183   2.551
 9868TIP3   OH229546   3.272   2.948   2.370
 9868TIP3    H129547   3.329   2.948   2.447
 9868TIP3    H229548   3.196   2.896   2.397
 9869TIP3   OH229549   2.434   0.956   0.396
 9869TIP3    H129550   2.397   1.043   0.408
 9869TIP3    H229551   2.401   0.905   0.470
 9870TIP3   OH229552   0.560   4.351   5.992
 9870TIP3    H129553   0.594   4.337   6.081
 9870TIP3    H229554   0.545   4.446   5.987
 9871TIP3   OH229555   7.140   0.018   6.034
 9871TIP3    H129556   7.139   0.114   6.028
 9871TIP3    H229557   7.055  -0.009   6.001
 9872TIP3   OH229558   6.634   3.131   6.735
 9872TIP3    H129559   6.586   3.093   6.662
 9872TIP3    H229560   6.571   3.189   6.778
 9873TIP3   OH229561   8.117   0.611   4.651
 9873TIP3    H129562   8.152   0.521   4.653
 9873TIP3    H229563   8.124   0.637   4.559
 9874TIP3   OH229564   8.040   0.540   4.213
 9874TIP3    H129565   7.983   0.611   4.184
 9874TIP3    H229566   8.108   0.534   4.146
 9875TIP3   OH229567   6.272   5.637   1.301
 9875TIP3    H129568   6.352   5.652   1.351
 9875TIP3    H229569   6.265   5.715   1.245
 9876TIP3   OH229570   4.782   2.705   2.908
 9876TIP3    H129571   4.844   2.742   2.970
 9876TIP3    H229572   4.696   2.727   2.944
 9877TIP3   OH229573   6.139   2.392   1.036
 9877TIP3    H129574   6.187   2.354   1.110
 9877TIP3    H229575   6.106   2.476   1.069
 9878TIP3   OH229576   7.516   5.171   5.793
 9878TIP3    H129577   7.559   5.171   5.878
 9878TIP3    H229578   7.516   5.262   5.766
 9879TIP3   OH229579   3.875   3.435   0.024
 9879TIP3    H129580   3.911   3.462   0.109
 9879TIP3    H229581   3.920   3.492  -0.040
 9880TIP3   OH229582   7.928   1.470   4.403
 9880TIP3    H129583   8.000   1.531   4.422
 9880TIP3    H229584   7.937   1.401   4.468
 9881TIP3   OH229585   6.609   5.591   1.179
 9881TIP3    H129586   6.677   5.550   1.125
 9881TIP3    H229587   6.530   5.585   1.127
 9882TIP3   OH229588   4.656   3.924   3.764
 9882TIP3    H129589   4.578   3.880   3.797
 9882TIP3    H229590   4.627   4.012   3.741
 9883TIP3   OH229591   3.000   5.958   2.335
 9883TIP3    H129592   3.030   6.043   2.370
 9883TIP3    H229593   2.983   5.905   2.413
 9884TIP3   OH229594   0.566   7.052   0.884
 9884TIP3    H129595   0.606   7.069   0.799
 9884TIP3    H229596   0.534   7.137   0.913
 9885TIP3   OH229597   6.325   5.202   6.548
 9885TIP3    H129598   6.391   5.154   6.598
 9885TIP3    H229599   6.250   5.208   6.606
 9886TIP3   OH229600   1.779   4.402   3.185
 9886TIP3    H129601   1.845   4.337   3.209
 9886TIP3    H229602   1.823   4.486   3.195
 9887TIP3   OH229603   1.012   6.212   1.261
 9887TIP3    H129604   1.073   6.255   1.321
 9887TIP3    H229605   1.007   6.122   1.293
 9888TIP3   OH229606   6.808   1.135   5.893
 9888TIP3    H129607   6.849   1.103   5.973
 9888TIP3    H229608   6.881   1.169   5.840
 9889TIP3   OH229609   5.716   1.235   2.481
 9889TIP3    H129610   5.804   1.247   2.519
 9889TIP3    H229611   5.671   1.318   2.499
 9890TIP3   OH229612   2.601   2.626   2.468
 9890TIP3    H129613   2.560   2.672   2.395
 9890TIP3    H229614   2.536   2.561   2.494
 9891TIP3   OH229615   7.805   1.897   4.559
 9891TIP3    H129616   7.775   1.820   4.607
 9891TIP3    H229617   7.872   1.936   4.616
 9892TIP3   OH229618   6.616   7.697   4.490
 9892TIP3    H129619   6.556   7.739   4.428
 9892TIP3    H229620   6.596   7.603   4.482
 9893TIP3   OH229621   3.017   0.244   0.243
 9893TIP3    H129622   3.037   0.337   0.231
 9893TIP3    H229623   2.986   0.238   0.334
 9894TIP3   OH229624   3.269   0.626   3.745
 9894TIP3    H129625   3.292   0.718   3.757
 9894TIP3    H229626   3.236   0.597   3.830
 9895TIP3   OH229627   4.106   5.315   0.099
 9895TIP3    H129628   4.115   5.387   0.037
 9895TIP3    H229629   4.074   5.241   0.048
 9896TIP3   OH229630   1.232   1.478   4.166
 9896TIP3    H129631   1.166   1.449   4.103
 9896TIP3    H229632   1.301   1.518   4.112
 9897TIP3   OH229633   4.024   7.129   4.535
 9897TIP3    H129634   4.014   7.223   4.520
 9897TIP3    H229635   4.117   7.118   4.557
 9898TIP3   OH229636   8.043   2.141   4.150
 9898TIP3    H129637   7.989   2.211   4.188
 9898TIP3    H229638   8.015   2.136   4.059
 9899TIP3   OH229639   6.631   3.421   1.091
 9899TIP3    H129640   6.711   3.383   1.129
 9899TIP3    H229641   6.604   3.358   1.025
 9900TIP3   OH229642   6.558   0.531   5.174
 9900TIP3    H129643   6.504   0.607   5.195
 9900TIP3    H229644   6.629   0.566   5.119
 9901TIP3   OH229645   5.482   1.426   1.243
 9901TIP3    H129646   5.503   1.351   1.299
 9901TIP3    H229647   5.567   1.460   1.216
 9902TIP3   OH229648   0.630   7.746   0.718
 9902TIP3    H129649   0.550   7.793   0.742
 9902TIP3    H229650   0.651   7.693   0.795
 9903TIP3   OH229651   2.171   5.649   5.437
 9903TIP3    H129652   2.220   5.568   5.454
 9903TIP3    H229653   2.151   5.646   5.344
 9904TIP3   OH229654   4.554   2.539   4.983
 9904TIP3    H129655   4.629   2.500   5.027
 9904TIP3    H229656   4.501   2.465   4.955
 9905TIP3   OH229657   2.410   7.680   1.347
 9905TIP3    H129658   2.366   7.730   1.416
 9905TIP3    H229659   2.503   7.686   1.369
 9906TIP3   OH229660   7.125   1.806   5.235
 9906TIP3    H129661   7.068   1.865   5.186
 9906TIP3    H229662   7.130   1.844   5.323
 9907TIP3   OH229663   3.703   6.105   2.477
 9907TIP3    H129664   3.721   6.015   2.448
 9907TIP3    H229665   3.694   6.155   2.396
 9908TIP3   OH229666   6.331   2.807   1.912
 9908TIP3    H129667   6.242   2.772   1.901
 9908TIP3    H229668   6.334   2.884   1.855
 9909TIP3   OH229669   4.994   0.680   1.954
 9909TIP3    H129670   4.967   0.745   2.019
 9909TIP3    H229671   5.009   0.600   2.005
 9910TIP3   OH229672   3.651   4.777   3.798
 9910TIP3    H129673   3.570   4.788   3.848
 9910TIP3    H229674   3.695   4.861   3.805
 9911TIP3   OH229675   4.099   0.321   6.398
 9911TIP3    H129676   4.100   0.376   6.476
 9911TIP3    H229677   4.150   0.371   6.334
 9912TIP3   OH229678   7.094   0.870   1.710
 9912TIP3    H129679   7.164   0.879   1.644
 9912TIP3    H229680   7.118   0.792   1.760
 9913TIP3   OH229681   5.197   6.657   1.512
 9913TIP3    H129682   5.290   6.636   1.522
 9913TIP3    H229683   5.184   6.734   1.567
 9914TIP3   OH229684   4.056   2.999   5.484
 9914TIP3    H129685   4.089   3.077   5.528
 9914TIP3    H229686   4.058   2.931   5.552
 9915TIP3   OH229687   4.533   0.610   1.627
 9915TIP3    H129688   4.586   0.644   1.700
 9915TIP3    H229689   4.459   0.568   1.670
 9916TIP3   OH229690   1.037   3.439   5.582
 9916TIP3    H129691   1.130   3.436   5.563
 9916TIP3    H229692   1.029   3.498   5.657
 9917TIP3   OH229693   6.158   0.609   6.104
 9917TIP3    H129694   6.250   0.585   6.094
 9917TIP3    H229695   6.111   0.555   6.040
 9918TIP3   OH229696   7.686   7.166   0.706
 9918TIP3    H129697   7.594   7.162   0.679
 9918TIP3    H229698   7.731   7.105   0.648
 9919TIP3   OH229699   3.291   6.070   4.798
 9919TIP3    H129700   3.307   6.154   4.842
 9919TIP3    H229701   3.378   6.036   4.778
 9920TIP3   OH229702   2.371   0.186   4.797
 9920TIP3    H129703   2.455   0.156   4.832
 9920TIP3    H229704   2.371   0.158   4.706
 9921TIP3   OH229705   2.164   2.285   0.975
 9921TIP3    H129706   2.095   2.313   1.035
 9921TIP3    H229707   2.214   2.220   1.025
 9922TIP3   OH229708   4.830   3.584   5.283
 9922TIP3    H129709   4.742   3.621   5.276
 9922TIP3    H229710   4.889   3.659   5.282
 9923TIP3   OH229711   4.665   1.273   2.659
 9923TIP3    H129712   4.719   1.221   2.719
 9923TIP3    H229713   4.663   1.221   2.578
 9924TIP3   OH229714   3.374   7.575   0.169
 9924TIP3    H129715   3.404   7.643   0.230
 9924TIP3    H229716   3.283   7.560   0.192
 9925TIP3   OH229717   0.983   3.209   1.677
 9925TIP3    H129718   1.004   3.272   1.609
 9925TIP3    H229719   1.068   3.174   1.705
 9926TIP3   OH229720   7.747   3.982   2.635
 9926TIP3    H129721   7.786   4.069   2.643
 9926TIP3    H229722   7.653   3.998   2.628
 9927TIP3   OH229723   1.767   6.347   4.738
 9927TIP3    H129724   1.827   6.341   4.664
 9927TIP3    H229725   1.684   6.376   4.701
 9928TIP3   OH229726   1.886   6.679   6.462
 9928TIP3    H129727   1.901   6.710   6.552
 9928TIP3    H229728   1.951   6.610   6.449
 9929TIP3   OH229729   3.773   0.053   4.406
 9929TIP3    H129730   3.810  -0.026   4.446
 9929TIP3    H229731   3.726   0.096   4.477
 9930TIP3   OH229732   2.356   4.235   4.374
 9930TIP3    H129733   2.269   4.270   4.355
 9930TIP3    H229734   2.344   4.140   4.370
 9931TIP3   OH229735   7.727   4.914   4.718
 9931TIP3    H129736   7.687   4.844   4.667
 9931TIP3    H229737   7.783   4.868   4.781
 9932TIP3   OH229738   6.577   2.610   4.535
 9932TIP3    H129739   6.585   2.696   4.493
 9932TIP3    H229740   6.523   2.559   4.475
 9933TIP3   OH229741   3.000   4.901   4.716
 9933TIP3    H129742   2.958   4.915   4.631
 9933TIP3    H229743   3.008   4.989   4.753
 9934TIP3   OH229744   7.270   3.903   1.076
 9934TIP3    H129745   7.356   3.889   1.115
 9934TIP3    H229746   7.273   3.993   1.043
 9935TIP3   OH229747   0.093   5.933   1.825
 9935TIP3    H129748   0.153   5.862   1.803
 9935TIP3    H229749   0.104   5.997   1.755
 9936TIP3   OH229750   3.500   1.879   4.701
 9936TIP3    H129751   3.498   1.891   4.606
 9936TIP3    H229752   3.482   1.967   4.736
 9937TIP3   OH229753   7.182   6.415   0.471
 9937TIP3    H129754   7.192   6.495   0.522
 9937TIP3    H229755   7.094   6.384   0.493
 9938TIP3   OH229756   0.521   7.064   3.924
 9938TIP3    H129757   0.439   7.014   3.926
 9938TIP3    H229758   0.492   7.156   3.927
 9939TIP3   OH229759   3.074   3.338   4.411
 9939TIP3    H129760   3.044   3.417   4.366
 9939TIP3    H229761   3.135   3.297   4.350
 9940TIP3   OH229762   2.191   5.291   1.352
 9940TIP3    H129763   2.196   5.383   1.378
 9940TIP3    H229764   2.098   5.270   1.353
 9941TIP3   OH229765   0.694   3.832   2.818
 9941TIP3    H129766   0.752   3.812   2.745
 9941TIP3    H229767   0.628   3.763   2.816
 9942TIP3   OH229768   0.328   5.765   1.733
 9942TIP3    H129769   0.352   5.858   1.732
 9942TIP3    H229770   0.389   5.724   1.672
 9943TIP3   OH229771   5.844   1.182   1.394
 9943TIP3    H129772   5.895   1.182   1.475
 9943TIP3    H229773   5.857   1.094   1.358
 9944TIP3   OH229774   7.859   4.387   4.263
 9944TIP3    H129775   7.889   4.440   4.337
 9944TIP3    H229776   7.863   4.297   4.294
 9945TIP3   OH229777   3.022   7.200   0.459
 9945TIP3    H129778   2.930   7.208   0.437
 9945TIP3    H229779   3.049   7.116   0.421
 9946TIP3   OH229780   4.823   1.937   2.182
 9946TIP3    H129781   4.861   1.861   2.226
 9946TIP3    H229782   4.780   1.986   2.252
 9947TIP3   OH229783   7.594   2.160   2.243
 9947TIP3    H129784   7.655   2.153   2.316
 9947TIP3    H229785   7.565   2.252   2.246
 9948TIP3   OH229786   6.840   7.278   1.816
 9948TIP3    H129787   6.789   7.319   1.747
 9948TIP3    H229788   6.831   7.184   1.800
 9949TIP3   OH229789   1.276   5.082   2.925
 9949TIP3    H129790   1.362   5.042   2.909
 9949TIP3    H229791   1.214   5.010   2.922
 9950TIP3   OH229792   4.516   5.892   2.452
 9950TIP3    H129793   4.506   5.948   2.375
 9950TIP3    H229794   4.573   5.820   2.423
 9951TIP3   OH229795   5.483   5.800   5.631
 9951TIP3    H129796   5.428   5.800   5.709
 9951TIP3    H229797   5.523   5.887   5.629
 9952TIP3   OH229798   2.810   2.208   2.591
 9952TIP3    H129799   2.735   2.211   2.650
 9952TIP3    H229800   2.777   2.242   2.508
 9953TIP3   OH229801   6.293   4.510   5.394
 9953TIP3    H129802   6.231   4.541   5.327
 9953TIP3    H229803   6.375   4.498   5.347
 9954TIP3   OH229804   5.849   1.962   5.758
 9954TIP3    H129805   5.843   1.882   5.810
 9954TIP3    H229806   5.938   1.960   5.722
 9955TIP3   OH229807   3.912   2.950   5.246
 9955TIP3    H129808   3.942   2.888   5.179
 9955TIP3    H229809   3.976   2.942   5.317
 9956TIP3   OH229810   4.757   3.134   1.353
 9956TIP3    H129811   4.765   3.184   1.434
 9956TIP3    H229812   4.781   3.196   1.284
 9957TIP3   OH229813   7.385   2.342   3.132
 9957TIP3    H129814   7.395   2.249   3.114
 9957TIP3    H229815   7.307   2.347   3.188
 9958TIP3   OH229816   7.236   2.121   3.543
 9958TIP3    H129817   7.294   2.084   3.610
 9958TIP3    H229818   7.250   2.066   3.466
 9959TIP3   OH229819   4.605   3.457   2.355
 9959TIP3    H129820   4.554   3.528   2.317
 9959TIP3    H229821   4.559   3.434   2.436
 9960TIP3   OH229822   3.982   1.185   4.740
 9960TIP3    H129823   3.935   1.154   4.818
 9960TIP3    H229824   4.061   1.226   4.775
 9961TIP3   OH229825   6.679   0.031   5.387
 9961TIP3    H129826   6.743  -0.016   5.334
 9961TIP3    H229827   6.728   0.058   5.465
 9962TIP3   OH229828   4.371   4.873   1.751
 9962TIP3    H129829   4.332   4.838   1.831
 9962TIP3    H229830   4.313   4.843   1.681
 9963TIP3   OH229831   6.609   3.604   2.480
 9963TIP3    H129832   6.535   3.555   2.443
 9963TIP3    H229833   6.650   3.646   2.404
 9964TIP3   OH229834   7.661   0.248   4.372
 9964TIP3    H129835   7.617   0.179   4.322
 9964TIP3    H229836   7.724   0.286   4.310
 9965TIP3   OH229837   5.852   7.340   0.641
 9965TIP3    H129838   5.877   7.430   0.661
 9965TIP3    H229839   5.924   7.287   0.674
 9966TIP3   OH229840   6.202   4.049   2.538
 9966TIP3    H129841   6.151   4.006   2.607
 9966TIP3    H229842   6.154   4.130   2.520
 9967TIP3   OH229843   7.850   3.921   4.614
 9967TIP3    H129844   7.813   3.995   4.661
 9967TIP3    H229845   7.788   3.903   4.543
 9968TIP3   OH229846   3.063   7.408   2.192
 9968TIP3    H129847   3.071   7.434   2.283
 9968TIP3    H229848   3.138   7.351   2.176
 9969TIP3   OH229849   4.323   2.372   5.675
 9969TIP3    H129850   4.318   2.326   5.591
 9969TIP3    H229851   4.373   2.313   5.731
 9970TIP3   OH229852   6.551   0.009   3.183
 9970TIP3    H129853   6.518   0.073   3.120
 9970TIP3    H229854   6.536   0.050   3.268
 9971TIP3   OH229855   1.197   0.665   6.363
 9971TIP3    H129856   1.262   0.706   6.306
 9971TIP3    H229857   1.158   0.596   6.309
 9972TIP3   OH229858   6.565   5.640   3.913
 9972TIP3    H129859   6.535   5.722   3.873
 9972TIP3    H229860   6.502   5.575   3.883
 9973TIP3   OH229861   3.964   2.436   6.574
 9973TIP3    H129862   4.045   2.487   6.571
 9973TIP3    H229863   3.973   2.371   6.505
 9974TIP3   OH229864   7.668   5.348   4.057
 9974TIP3    H129865   7.575   5.361   4.042
 9974TIP3    H229866   7.709   5.362   3.971
 9975TIP3   OH229867   2.744   1.581   2.565
 9975TIP3    H129868   2.728   1.556   2.474
 9975TIP3    H229869   2.825   1.633   2.561
 9976TIP3   OH229870   4.471   3.234   4.297
 9976TIP3    H129871   4.508   3.321   4.289
 9976TIP3    H229872   4.469   3.200   4.207
 9977TIP3   OH229873   6.428   0.983   1.646
 9977TIP3    H129874   6.511   1.018   1.613
 9977TIP3    H229875   6.429   1.003   1.739
 9978TIP3   OH229876   3.350   5.276   6.219
 9978TIP3    H129877   3.331   5.216   6.291
 9978TIP3    H229878   3.265   5.313   6.195
 9979TIP3   OH229879   5.770   5.579   5.473
 9979TIP3    H129880   5.686   5.591   5.516
 9979TIP3    H229881   5.793   5.487   5.488
 9980TIP3   OH229882   6.178   5.522   5.150
 9980TIP3    H129883   6.181   5.450   5.088
 9980TIP3    H229884   6.175   5.479   5.236
 9981TIP3   OH229885   2.608   3.810   0.716
 9981TIP3    H129886   2.660   3.737   0.683
 9981TIP3    H229887   2.660   3.887   0.696
 9982TIP3   OH229888   6.069   3.521   5.912
 9982TIP3    H129889   6.020   3.601   5.934
 9982TIP3    H229890   6.147   3.524   5.967
 9983TIP3   OH229891   1.833   5.024   6.216
 9983TIP3    H129892   1.853   5.075   6.294
 9983TIP3    H229893   1.742   5.045   6.195
 9984TIP3   OH229894   0.850   0.810   4.229
 9984TIP3    H129895   0.923   0.751   4.247
 9984TIP3    H229896   0.778   0.752   4.202
 9985TIP3   OH229897   6.607   3.149   4.916
 9985TIP3    H129898   6.604   3.091   4.992
 9985TIP3    H229899   6.557   3.226   4.943
 9986TIP3   OH229900   5.268   2.504   4.653
 9986TIP3    H129901   5.247   2.568   4.585
 9986TIP3    H229902   5.198   2.439   4.647
 9987TIP3   OH229903   3.548   0.423   1.368
 9987TIP3    H129904   3.584   0.365   1.434
 9987TIP3    H229905   3.453   0.407   1.370
 9988TIP3   OH229906   5.016   2.871   6.687
 9988TIP3    H129907   5.033   2.865   6.781
 9988TIP3    H229908   4.933   2.826   6.674
 9989TIP3   OH229909   2.393   5.851   6.300
 9989TIP3    H129910   2.402   5.764   6.338
 9989TIP3    H229911   2.378   5.835   6.206
 9990TIP3   OH229912   2.078   5.678   5.837
 9990TIP3    H129913   2.005   5.641   5.786
 9990TIP3    H229914   2.139   5.711   5.771
 9991TIP3   OH229915   2.395   4.108   3.920
 9991TIP3    H129916   2.358   4.193   3.945
 9991TIP3    H229917   2.399   4.059   4.002
 9992TIP3   OH229918   7.527   7.043   2.054
 9992TIP3    H129919   7.620   7.069   2.052
 9992TIP3    H229920   7.527   6.955   2.091
 9993TIP3   OH229921   3.174   4.502   2.992
 9993TIP3    H129922   3.246   4.564   2.980
 9993TIP3    H229923   3.210   4.418   2.962
 9994TIP3   OH229924   1.924   5.289   0.071
 9994TIP3    H129925   1.947   5.381   0.061
 9994TIP3    H229926   1.995   5.242   0.026
 9995TIP3   OH229927   3.942   1.367   3.723
 9995TIP3    H129928   4.022   1.330   3.761
 9995TIP3    H229929   3.963   1.460   3.709
 9996TIP3   OH229930   7.631   3.574   3.943
 9996TIP3    H129931   7.681   3.507   3.988
 9996TIP3    H229932   7.540   3.558   3.968
 9997TIP3   OH229933   5.737   7.727   3.908
 9997TIP3    H129934   5.796   7.664   3.867
 9997TIP3    H229935   5.736   7.801   3.847
 9998TIP3   OH229936   7.545   2.309   1.156
 9998TIP3    H129937   7.587   2.273   1.078
 9998TIP3    H229938   7.547   2.404   1.143
 9999TIP3   OH229939   4.595   6.845   5.037
 9999TIP3    H129940   4.643   6.808   4.964
 9999TIP3    H229941   4.661   6.859   5.105
10000TIP3   OH229942   1.854   6.710   4.689
10000TIP3    H129943   1.886   6.740   4.604
10000TIP3    H229944   1.765   6.680   4.671
10001TIP3   OH229945   8.095   6.757   1.822
10001TIP3    H129946   8.062   6.836   1.865
10001TIP3    H229947   8.081   6.688   1.887
10002TIP3   OH229948   5.714   7.589   1.236
10002TIP3    H129949   5.805   7.620   1.234
10002TIP3    H229950   5.722   7.495   1.256
10003TIP3   OH229951   2.228   0.922   2.434
10003TIP3    H129952   2.221   0.981   2.358
10003TIP3    H229953   2.257   0.979   2.506
10004TIP3   OH229954   7.148   3.326   6.374
10004TIP3    H129955   7.131   3.277   6.294
10004TIP3    H229956   7.067   3.376   6.388
10005TIP3   OH229957   0.026   5.321   2.136
10005TIP3    H129958  -0.003   5.360   2.218
10005TIP3    H229959   0.023   5.392   2.073
10006TIP3   OH229960   7.399   5.343   2.004
10006TIP3    H129961   7.315   5.309   1.973
10006TIP3    H229962   7.377   5.423   2.051
10007TIP3   OH229963   5.025   1.691   2.072
10007TIP3    H129964   5.114   1.656   2.081
10007TIP3    H229965   4.996   1.708   2.161
10008TIP3   OH229966   8.029   7.180   5.948
10008TIP3    H129967   8.051   7.208   5.860
10008TIP3    H229968   7.945   7.222   5.966
10009TIP3   OH229969   8.227   7.062   1.490
10009TIP3    H129970   8.314   7.098   1.508
10009TIP3    H229971   8.237   6.968   1.501
10010TIP3   OH229972   0.073   1.197   0.253
10010TIP3    H129973   0.010   1.266   0.275
10010TIP3    H229974   0.043   1.163   0.170
10011TIP3   OH229975   0.384   0.145   2.315
10011TIP3    H129976   0.409   0.237   2.312
10011TIP3    H229977   0.448   0.101   2.259
10012TIP3   OH229978   7.730   7.151   3.583
10012TIP3    H129979   7.669   7.168   3.655
10012TIP3    H229980   7.810   7.121   3.626
10013TIP3   OH229981   7.383   3.396   5.595
10013TIP3    H129982   7.431   3.328   5.643
10013TIP3    H229983   7.448   3.436   5.537
10014TIP3   OH229984   5.978   1.283   4.110
10014TIP3    H129985   5.988   1.300   4.203
10014TIP3    H229986   6.003   1.191   4.100
10015TIP3   OH229987   6.402   7.096   1.555
10015TIP3    H129988   6.431   7.013   1.592
10015TIP3    H229989   6.350   7.137   1.624
10016TIP3   OH229990   6.655   6.138   5.732
10016TIP3    H129991   6.650   6.055   5.778
10016TIP3    H229992   6.725   6.186   5.777
10017TIP3   OH229993   3.943   3.930   2.669
10017TIP3    H129994   3.957   3.998   2.603
10017TIP3    H229995   3.865   3.958   2.716
10018TIP3   OH229996   1.104   4.722   5.548
10018TIP3    H129997   1.196   4.734   5.574
10018TIP3    H229998   1.054   4.758   5.621
10019TIP3   OH229999   7.630   0.461   0.876
10019TIP3    H130000   7.721   0.448   0.847
10019TIP3    H230001   7.587   0.505   0.803
10020TIP3   OH230002   2.300   7.138   4.848
10020TIP3    H130003   2.382   7.155   4.894
10020TIP3    H230004   2.258   7.224   4.841
10021TIP3   OH230005   1.652   3.298   2.145
10021TIP3    H130006   1.567   3.332   2.174
10021TIP3    H230007   1.711   3.373   2.155
10022TIP3   OH230008   3.265   5.737   0.019
10022TIP3    H130009   3.298   5.823   0.044
10022TIP3    H230010   3.294   5.679   0.089
10023TIP3   OH230011   6.940   0.737   2.799
10023TIP3    H130012   6.893   0.688   2.732
10023TIP3    H230013   6.950   0.674   2.871
10024TIP3   OH230014   5.465   6.192   3.611
10024TIP3    H130015   5.549   6.207   3.567
10024TIP3    H230016   5.421   6.277   3.610
10025TIP3   OH230017   1.835   3.774   3.042
10025TIP3    H130018   1.778   3.800   3.114
10025TIP3    H230019   1.809   3.832   2.970
10026TIP3   OH230020   0.930   7.594   0.590
10026TIP3    H130021   0.884   7.519   0.627
10026TIP3    H230022   0.882   7.670   0.624
10027TIP3   OH230023   6.190   2.672   5.432
10027TIP3    H130024   6.151   2.723   5.360
10027TIP3    H230025   6.215   2.738   5.497
10028TIP3   OH230026   0.753   2.503   6.314
10028TIP3    H130027   0.809   2.521   6.389
10028TIP3    H230028   0.672   2.550   6.333
10029TIP3   OH230029   6.100   4.329   1.429
10029TIP3    H130030   6.170   4.389   1.455
10029TIP3    H230031   6.021   4.366   1.471
10030TIP3   OH230032   6.537   1.378   0.688
10030TIP3    H130033   6.590   1.416   0.757
10030TIP3    H230034   6.447   1.384   0.721
10031TIP3   OH230035   7.794   3.259   1.913
10031TIP3    H130036   7.758   3.182   1.957
10031TIP3    H230037   7.887   3.238   1.900
10032TIP3   OH230038   7.648   1.601   6.287
10032TIP3    H130039   7.711   1.606   6.215
10032TIP3    H230040   7.627   1.692   6.308
10033TIP3   OH230041   6.069   2.851   0.460
10033TIP3    H130042   6.015   2.907   0.515
10033TIP3    H230043   6.142   2.907   0.433
10034TIP3   OH230044   1.031   6.930   1.076
10034TIP3    H130045   1.099   6.996   1.064
10034TIP3    H230046   1.055   6.887   1.159
10035TIP3   OH230047   0.572   1.517   6.563
10035TIP3    H130048   0.486   1.555   6.546
10035TIP3    H230049   0.576   1.507   6.658
10036TIP3   OH230050   8.177   4.713   0.752
10036TIP3    H130051   8.094   4.695   0.708
10036TIP3    H230052   8.235   4.746   0.683
10037TIP3   OH230053   4.872   6.333   1.608
10037TIP3    H130054   4.967   6.336   1.622
10037TIP3    H230055   4.857   6.248   1.567
10038TIP3   OH230056   0.632   7.261   2.408
10038TIP3    H130057   0.542   7.290   2.396
10038TIP3    H230058   0.676   7.335   2.450
10039TIP3   OH230059   1.063   6.056   5.527
10039TIP3    H130060   1.038   6.135   5.576
10039TIP3    H230061   1.019   6.065   5.443
10040TIP3   OH230062   2.557   6.749   4.491
10040TIP3    H130063   2.478   6.736   4.544
10040TIP3    H230064   2.586   6.838   4.514
10041TIP3   OH230065   0.132   2.727   4.141
10041TIP3    H130066   0.097   2.793   4.201
10041TIP3    H230067   0.188   2.776   4.081
10042TIP3   OH230068   4.408   1.771   2.963
10042TIP3    H130069   4.499   1.777   2.994
10042TIP3    H230070   4.392   1.677   2.957
10043TIP3   OH230071   0.615   0.216   6.559
10043TIP3    H130072   0.671   0.236   6.484
10043TIP3    H230073   0.538   0.272   6.547
10044TIP3   OH230074   7.221   4.888   6.528
10044TIP3    H130075   7.187   4.934   6.605
10044TIP3    H230076   7.145   4.882   6.470
10045TIP3   OH230077   0.301   4.079   1.097
10045TIP3    H130078   0.351   4.146   1.049
10045TIP3    H230079   0.293   4.115   1.186
10046TIP3   OH230080   6.215   4.068   6.037
10046TIP3    H130081   6.188   4.154   6.004
10046TIP3    H230082   6.152   4.049   6.107
10047TIP3   OH230083   2.870   0.915   2.954
10047TIP3    H130084   2.797   0.859   2.980
10047TIP3    H230085   2.845   1.003   2.980
10048TIP3   OH230086   1.827   2.946   0.717
10048TIP3    H130087   1.861   2.932   0.806
10048TIP3    H230088   1.906   2.955   0.663
10049TIP3   OH230089   6.534   3.634   5.610
10049TIP3    H130090   6.538   3.539   5.620
10049TIP3    H230091   6.498   3.665   5.693
10050TIP3   OH230092   4.011   4.529   1.065
10050TIP3    H130093   3.938   4.469   1.081
10050TIP3    H230094   4.076   4.507   1.132
10051TIP3   OH230095   7.629   4.649   2.952
10051TIP3    H130096   7.681   4.616   2.879
10051TIP3    H230097   7.667   4.607   3.029
10052TIP3   OH230098   7.950   1.499   2.301
10052TIP3    H130099   7.993   1.454   2.374
10052TIP3    H230100   7.902   1.571   2.342
10053TIP3   OH230101   0.723   3.044   2.204
10053TIP3    H130102   0.795   2.981   2.210
10053TIP3    H230103   0.767   3.129   2.197
10054TIP3   OH230104   6.482   5.746   2.113
10054TIP3    H130105   6.407   5.753   2.055
10054TIP3    H230106   6.530   5.670   2.080
10055TIP3   OH230107   2.004   6.564   0.889
10055TIP3    H130108   1.987   6.645   0.935
10055TIP3    H230109   1.929   6.508   0.910
10056TIP3   OH230110   2.694   4.847   1.725
10056TIP3    H130111   2.644   4.929   1.731
10056TIP3    H230112   2.652   4.789   1.789
10057TIP3   OH230113   5.065   6.957   6.374
10057TIP3    H130114   5.127   6.949   6.446
10057TIP3    H230115   4.998   7.017   6.406
10058TIP3   OH230116   3.725   5.830   3.357
10058TIP3    H130117   3.742   5.856   3.448
10058TIP3    H230118   3.800   5.864   3.308
10059TIP3   OH230119   4.159   7.121   3.148
10059TIP3    H130120   4.247   7.130   3.113
10059TIP3    H230121   4.147   7.199   3.203
10060TIP3   OH230122   6.885   5.275   0.390
10060TIP3    H130123   6.978   5.295   0.377
10060TIP3    H230124   6.877   5.182   0.369
10061TIP3   OH230125   1.295   7.476   0.116
10061TIP3    H130126   1.308   7.560   0.071
10061TIP3    H230127   1.305   7.410   0.047
10062TIP3   OH230128   1.732   5.221   2.316
10062TIP3    H130129   1.701   5.305   2.281
10062TIP3    H230130   1.684   5.210   2.398
10063TIP3   OH230131   6.210   6.626   6.152
10063TIP3    H130132   6.217   6.705   6.205
10063TIP3    H230133   6.278   6.635   6.086
10064TIP3   OH230134   4.803   3.364   5.140
10064TIP3    H130135   4.805   3.364   5.044
10064TIP3    H230136   4.800   3.457   5.163
10065TIP3   OH230137   1.233   6.115   0.038
10065TIP3    H130138   1.248   6.187   0.099
10065TIP3    H230139   1.237   6.036   0.092
10066TIP3   OH230140   1.174   2.428   5.900
10066TIP3    H130141   1.099   2.475   5.865
10066TIP3    H230142   1.149   2.336   5.898
10067TIP3   OH230143   5.456   6.485   3.603
10067TIP3    H130144   5.477   6.567   3.558
10067TIP3    H230145   5.374   6.503   3.649
10068TIP3   OH230146   7.704   4.808   4.403
10068TIP3    H130147   7.717   4.744   4.473
10068TIP3    H230148   7.623   4.781   4.360
10069TIP3   OH230149   4.071   1.942   0.012
10069TIP3    H130150   4.104   1.906   0.094
10069TIP3    H230151   4.047   2.032   0.033
10070TIP3   OH230152   5.948   2.478   1.738
10070TIP3    H130153   5.987   2.463   1.652
10070TIP3    H230154   5.888   2.405   1.750
10071TIP3   OH230155   2.396   4.507   5.580
10071TIP3    H130156   2.344   4.517   5.659
10071TIP3    H230157   2.405   4.413   5.569
10072TIP3   OH230158   7.542   7.000   0.101
10072TIP3    H130159   7.489   6.987   0.023
10072TIP3    H230160   7.492   6.959   0.172
10073TIP3   OH230161   7.125   1.910   5.933
10073TIP3    H130162   7.047   1.963   5.948
10073TIP3    H230163   7.194   1.974   5.917
10074TIP3   OH230164   1.940   3.238   5.081
10074TIP3    H130165   1.912   3.150   5.106
10074TIP3    H230166   1.952   3.284   5.164
10075TIP3   OH230167   1.798   6.390   2.362
10075TIP3    H130168   1.728   6.444   2.397
10075TIP3    H230169   1.777   6.301   2.390
10076TIP3   OH230170   8.044   7.244   0.406
10076TIP3    H130171   8.001   7.304   0.345
10076TIP3    H230172   7.973   7.195   0.446
10077TIP3   OH230173   2.327   7.011   0.984
10077TIP3    H130174   2.284   6.931   1.016
10077TIP3    H230175   2.288   7.026   0.898
10078TIP3   OH230176   1.406   5.759   4.292
10078TIP3    H130177   1.463   5.710   4.350
10078TIP3    H230178   1.366   5.826   4.349
10079TIP3   OH230179   7.212   3.175   5.717
10079TIP3    H130180   7.187   3.219   5.636
10079TIP3    H230181   7.279   3.112   5.690
10080TIP3   OH230182   2.894   0.176   3.774
10080TIP3    H130183   2.937   0.093   3.797
10080TIP3    H230184   2.965   0.240   3.771
10081TIP3   OH230185   1.144   3.836   5.440
10081TIP3    H130186   1.209   3.773   5.472
10081TIP3    H230187   1.172   3.857   5.351
10082TIP3   OH230188   4.190   4.472   2.559
10082TIP3    H130189   4.141   4.450   2.479
10082TIP3    H230190   4.146   4.549   2.594
10083TIP3   OH230191   1.305   7.421   2.795
10083TIP3    H130192   1.379   7.374   2.757
10083TIP3    H230193   1.258   7.457   2.719
10084TIP3   OH230194   4.889   6.565   5.980
10084TIP3    H130195   4.943   6.629   6.026
10084TIP3    H230196   4.950   6.496   5.954
10085TIP3   OH230197   5.952   2.584   5.556
10085TIP3    H130198   5.956   2.493   5.584
10085TIP3    H230199   6.043   2.610   5.547
10086TIP3   OH230200   0.221   3.883   1.510
10086TIP3    H130201   0.276   3.830   1.568
10086TIP3    H230202   0.237   3.847   1.423
10087TIP3   OH230203   7.106   0.452   4.050
10087TIP3    H130204   7.051   0.530   4.059
10087TIP3    H230205   7.044   0.379   4.049
10088TIP3   OH230206   4.500   3.569   5.280
10088TIP3    H130207   4.527   3.566   5.371
10088TIP3    H230208   4.457   3.485   5.264
10089TIP3   OH230209   6.201   1.348   1.746
10089TIP3    H130210   6.291   1.338   1.776
10089TIP3    H230211   6.159   1.403   1.812
10090TIP3   OH230212   6.959   5.888   5.901
10090TIP3    H130213   6.948   5.874   5.807
10090TIP3    H230214   6.998   5.975   5.908
10091TIP3   OH230215   0.539   0.635   5.692
10091TIP3    H130216   0.533   0.541   5.708
10091TIP3    H230217   0.483   0.650   5.616
10092TIP3   OH230218   3.665   4.965   1.971
10092TIP3    H130219   3.751   4.923   1.976
10092TIP3    H230220   3.622   4.923   1.896
10093TIP3   OH230221   2.249   1.513   5.773
10093TIP3    H130222   2.197   1.458   5.831
10093TIP3    H230223   2.301   1.567   5.832
10094TIP3   OH230224   3.471   6.400   1.458
10094TIP3    H130225   3.413   6.326   1.479
10094TIP3    H230226   3.422   6.450   1.392
10095TIP3   OH230227   7.510   0.060   4.265
10095TIP3    H130228   7.559  -0.014   4.228
10095TIP3    H230229   7.422   0.050   4.230
10096TIP3   OH230230   0.442   3.437   5.748
10096TIP3    H130231   0.425   3.370   5.815
10096TIP3    H230232   0.532   3.418   5.719
10097TIP3   OH230233   4.925   2.670   0.859
10097TIP3    H130234   4.874   2.610   0.805
10097TIP3    H230235   4.889   2.757   0.839
10098TIP3   OH230236   3.021   6.903   5.583
10098TIP3    H130237   2.958   6.971   5.608
10098TIP3    H230238   2.967   6.825   5.568
10099TIP3   OH230239   1.671   3.085   5.537
10099TIP3    H130240   1.671   3.089   5.633
10099TIP3    H230241   1.578   3.086   5.513
10100TIP3   OH230242   2.875   3.275   4.148
10100TIP3    H130243   2.872   3.180   4.156
10100TIP3    H230244   2.849   3.293   4.057
10101TIP3   OH230245   3.111   1.800   6.176
10101TIP3    H130246   3.169   1.781   6.102
10101TIP3    H230247   3.074   1.716   6.201
10102TIP3   OH230248   0.867   5.255   2.510
10102TIP3    H130249   0.929   5.316   2.551
10102TIP3    H230250   0.793   5.253   2.571
10103TIP3   OH230251   6.240   5.408   6.155
10103TIP3    H130252   6.160   5.459   6.144
10103TIP3    H230253   6.253   5.364   6.072
10104TIP3   OH230254   3.876   0.260   3.539
10104TIP3    H130255   3.859   0.168   3.558
10104TIP3    H230256   3.860   0.305   3.622
10105TIP3   OH230257   2.824   6.392   4.947
10105TIP3    H130258   2.892   6.363   4.886
10105TIP3    H230259   2.820   6.323   5.014
10106TIP3   OH230260   5.715   0.257   0.317
10106TIP3    H130261   5.789   0.221   0.365
10106TIP3    H230262   5.638   0.222   0.361
10107TIP3   OH230263   0.485   0.054   6.278
10107TIP3    H130264   0.513  -0.033   6.250
10107TIP3    H230265   0.562   0.109   6.266
10108TIP3   OH230266   1.302   2.160   3.450
10108TIP3    H130267   1.360   2.103   3.400
10108TIP3    H230268   1.358   2.199   3.517
10109TIP3   OH230269   0.411   1.835   4.400
10109TIP3    H130270   0.359   1.887   4.339
10109TIP3    H230271   0.386   1.744   4.383
10110TIP3   OH230272   7.646   4.072   5.461
10110TIP3    H130273   7.614   3.986   5.488
10110TIP3    H230274   7.740   4.068   5.476
10111TIP3   OH230275   6.925   0.874   5.133
10111TIP3    H130276   6.877   0.855   5.052
10111TIP3    H230277   6.868   0.933   5.181
10112TIP3   OH230278   3.077   3.472   1.173
10112TIP3    H130279   3.166   3.449   1.148
10112TIP3    H230280   3.085   3.509   1.261
10113TIP3   OH230281   7.093   2.173   4.971
10113TIP3    H130282   7.158   2.232   4.932
10113TIP3    H230283   7.011   2.223   4.968
10114TIP3   OH230284   4.547   0.652   0.447
10114TIP3    H130285   4.510   0.584   0.389
10114TIP3    H230286   4.641   0.644   0.436
10115TIP3   OH230287   1.719   0.021   4.426
10115TIP3    H130288   1.693   0.071   4.349
10115TIP3    H230289   1.787  -0.039   4.394
10116TIP3   OH230290   6.142   1.986   5.849
10116TIP3    H130291   6.190   1.904   5.847
10116TIP3    H230292   6.173   2.034   5.772
10117TIP3   OH230293   3.622   0.380   0.471
10117TIP3    H130294   3.642   0.402   0.380
10117TIP3    H230295   3.565   0.304   0.466
10118TIP3   OH230296   5.537   1.090   6.021
10118TIP3    H130297   5.516   0.997   6.030
10118TIP3    H230298   5.580   1.097   5.936
10119TIP3   OH230299   3.621   3.771   2.842
10119TIP3    H130300   3.682   3.821   2.897
10119TIP3    H230301   3.553   3.834   2.819
10120TIP3   OH230302   8.181   2.326   6.153
10120TIP3    H130303   8.259   2.304   6.102
10120TIP3    H230304   8.150   2.242   6.188
10121TIP3   OH230305   0.243   0.029   5.360
10121TIP3    H130306   0.159   0.057   5.397
10121TIP3    H230307   0.234   0.044   5.266
10122TIP3   OH230308   3.659   3.113   2.068
10122TIP3    H130309   3.674   3.028   2.026
10122TIP3    H230310   3.577   3.103   2.116
10123TIP3   OH230311   5.112   2.700   4.498
10123TIP3    H130312   5.174   2.769   4.474
10123TIP3    H230313   5.032   2.722   4.450
10124TIP3   OH230314   3.765   5.721   4.291
10124TIP3    H130315   3.766   5.652   4.225
10124TIP3    H230316   3.818   5.791   4.253
10125TIP3   OH230317   3.301   2.957   5.440
10125TIP3    H130318   3.207   2.949   5.459
10125TIP3    H230319   3.334   3.017   5.508
10126TIP3   OH230320   0.162   2.011   6.552
10126TIP3    H130321   0.086   2.003   6.610
10126TIP3    H230322   0.133   1.974   6.469
10127TIP3   OH230323   6.206   4.424   2.575
10127TIP3    H130324   6.254   4.347   2.607
10127TIP3    H230325   6.269   4.496   2.580
10128TIP3   OH230326   3.234   2.675   0.280
10128TIP3    H130327   3.293   2.600   0.274
10128TIP3    H230328   3.198   2.685   0.192
10129TIP3   OH230329   2.798   2.124   4.805
10129TIP3    H130330   2.822   2.096   4.893
10129TIP3    H230331   2.839   2.210   4.795
10130TIP3   OH230332   1.140   4.614   0.037
10130TIP3    H130333   1.112   4.578   0.121
10130TIP3    H230334   1.061   4.610  -0.018
10131TIP3   OH230335   5.588   0.526   0.331
10131TIP3    H130336   5.647   0.456   0.304
10131TIP3    H230337   5.514   0.521   0.270
10132TIP3   OH230338   0.278   5.517   1.065
10132TIP3    H130339   0.209   5.565   1.019
10132TIP3    H230340   0.338   5.585   1.095
10133TIP3   OH230341   4.824   3.341   2.520
10133TIP3    H130342   4.762   3.330   2.448
10133TIP3    H230343   4.909   3.351   2.477
10134TIP3   OH230344   6.726   6.175   6.657
10134TIP3    H130345   6.733   6.268   6.636
10134TIP3    H230346   6.802   6.155   6.711
10135TIP3   OH230347   6.342   6.523   4.727
10135TIP3    H130348   6.334   6.429   4.745
10135TIP3    H230349   6.255   6.550   4.700
10136TIP3   OH230350   1.495   6.710   3.397
10136TIP3    H130351   1.510   6.730   3.490
10136TIP3    H230352   1.445   6.785   3.365
10137TIP3   OH230353   1.323   3.675   4.938
10137TIP3    H130354   1.364   3.666   4.852
10137TIP3    H230355   1.289   3.588   4.957
10138TIP3   OH230356   0.839   3.926   5.974
10138TIP3    H130357   0.803   3.929   5.885
10138TIP3    H230358   0.827   3.835   6.002
10139TIP3   OH230359   5.382   5.929   6.271
10139TIP3    H130360   5.297   5.884   6.277
10139TIP3    H230361   5.423   5.891   6.194
10140TIP3   OH230362   6.503   6.914   3.227
10140TIP3    H130363   6.567   6.853   3.264
10140TIP3    H230364   6.556   6.990   3.201
10141TIP3   OH230365   7.081   1.103   3.444
10141TIP3    H130366   7.096   1.092   3.350
10141TIP3    H230367   7.001   1.156   3.449
10142TIP3   OH230368   5.375   3.749   1.923
10142TIP3    H130369   5.283   3.747   1.897
10142TIP3    H230370   5.414   3.674   1.880
10143TIP3   OH230371   3.354   4.389   5.255
10143TIP3    H130372   3.311   4.305   5.240
10143TIP3    H230373   3.308   4.426   5.331
10144TIP3   OH230374   7.427   2.836   2.732
10144TIP3    H130375   7.519   2.824   2.709
10144TIP3    H230376   7.385   2.858   2.649
10145TIP3   OH230377   3.950   0.536   3.977
10145TIP3    H130378   3.950   0.485   4.058
10145TIP3    H230379   3.860   0.571   3.971
10146TIP3   OH230380   6.336   5.080   1.743
10146TIP3    H130381   6.383   5.120   1.670
10146TIP3    H230382   6.382   4.998   1.759
10147TIP3   OH230383   6.511   3.539   1.704
10147TIP3    H130384   6.504   3.450   1.670
10147TIP3    H230385   6.483   3.533   1.795
10148TIP3   OH230386   6.611   3.109   5.436
10148TIP3    H130387   6.579   3.031   5.482
10148TIP3    H230388   6.700   3.121   5.469
10149TIP3   OH230389   0.548   1.492   5.008
10149TIP3    H130390   0.496   1.554   4.956
10149TIP3    H230391   0.487   1.421   5.029
10150TIP3   OH230392   2.302   2.890   5.884
10150TIP3    H130393   2.286   2.977   5.849
10150TIP3    H230394   2.241   2.833   5.837
10151TIP3   OH230395   7.628   5.196   1.480
10151TIP3    H130396   7.565   5.193   1.553
10151TIP3    H230397   7.712   5.214   1.522
10152TIP3   OH230398   1.978   5.450   3.653
10152TIP3    H130399   2.070   5.450   3.625
10152TIP3    H230400   1.939   5.521   3.602
10153TIP3   OH230401   6.301   3.733   2.118
10153TIP3    H130402   6.282   3.774   2.202
10153TIP3    H230403   6.382   3.685   2.133
10154TIP3   OH230404   2.831   3.980   2.652
10154TIP3    H130405   2.794   3.939   2.730
10154TIP3    H230406   2.904   3.922   2.627
10155TIP3   OH230407   2.934  -0.035   4.119
10155TIP3    H130408   2.982   0.019   4.180
10155TIP3    H230409   2.856   0.017   4.096
10156TIP3   OH230410   3.455   1.148   5.198
10156TIP3    H130411   3.518   1.129   5.129
10156TIP3    H230412   3.389   1.079   5.191
10157TIP3   OH230413   7.819   5.431   0.202
10157TIP3    H130414   7.828   5.379   0.282
10157TIP3    H230415   7.736   5.401   0.164
10158TIP3   OH230416   2.265   5.403   0.061
10158TIP3    H130417   2.224   5.490   0.063
10158TIP3    H230418   2.245   5.365   0.147
10159TIP3   OH230419   5.763   2.687   1.775
10159TIP3    H130420   5.830   2.619   1.778
10159TIP3    H230421   5.683   2.641   1.749
10160TIP3   OH230422   6.178   0.365   3.158
10160TIP3    H130423   6.164   0.275   3.187
10160TIP3    H230424   6.122   0.375   3.081
10161TIP3   OH230425   7.885   3.131   3.041
10161TIP3    H130426   7.852   3.220   3.030
10161TIP3    H230427   7.820   3.076   2.998
10162TIP3   OH230428   3.354   0.148   0.331
10162TIP3    H130429   3.340   0.212   0.401
10162TIP3    H230430   3.416   0.085   0.367
10163TIP3   OH230431   2.101   5.052   1.031
10163TIP3    H130432   2.082   5.076   1.122
10163TIP3    H230433   2.137   4.964   1.037
10164TIP3   OH230434   5.452   5.282   1.899
10164TIP3    H130435   5.357   5.279   1.887
10164TIP3    H230436   5.486   5.310   1.814
10165TIP3   OH230437   4.039   7.642   6.729
10165TIP3    H130438   4.027   7.558   6.684
10165TIP3    H230439   3.957   7.690   6.711
10166TIP3   OH230440   2.969   2.865   2.447
10166TIP3    H130441   2.982   2.959   2.435
10166TIP3    H230442   2.879   2.857   2.478
10167TIP3   OH230443   4.662   1.797   3.070
10167TIP3    H130444   4.726   1.792   2.999
10167TIP3    H230445   4.701   1.858   3.133
10168TIP3   OH230446   7.812   7.806   6.146
10168TIP3    H130447   7.722   7.800   6.116
10168TIP3    H230448   7.824   7.730   6.202
10169TIP3   OH230449   5.003   4.747   3.266
10169TIP3    H130450   4.956   4.795   3.198
10169TIP3    H230451   5.076   4.804   3.290
10170TIP3   OH230452   5.615   2.901   4.221
10170TIP3    H130453   5.577   2.959   4.288
10170TIP3    H230454   5.659   2.832   4.270
10171TIP3   OH230455   3.801   3.755   4.942
10171TIP3    H130456   3.720   3.717   4.974
10171TIP3    H230457   3.857   3.759   5.019
10172TIP3   OH230458   3.543   2.123   0.856
10172TIP3    H130459   3.556   2.210   0.894
10172TIP3    H230460   3.452   2.123   0.827
10173TIP3   OH230461   7.936  -0.024   4.366
10173TIP3    H130462   7.907   0.022   4.445
10173TIP3    H230463   8.017   0.020   4.341
10174TIP3   OH230464   8.203   0.497   0.603
10174TIP3    H130465   8.266   0.439   0.646
10174TIP3    H230466   8.149   0.531   0.674
10175TIP3   OH230467   3.557   3.102   3.420
10175TIP3    H130468   3.644   3.126   3.454
10175TIP3    H230469   3.563   3.008   3.403
10176TIP3   OH230470   0.352   5.314   2.215
10176TIP3    H130471   0.328   5.309   2.123
10176TIP3    H230472   0.431   5.368   2.217
10177TIP3   OH230473   1.842   1.706   1.605
10177TIP3    H130474   1.754   1.733   1.579
10177TIP3    H230475   1.828   1.645   1.677
10178TIP3   OH230476   3.446   2.715   3.917
10178TIP3    H130477   3.428   2.808   3.901
10178TIP3    H230478   3.380   2.689   3.981
10179TIP3   OH230479   3.750   3.291   6.613
10179TIP3    H130480   3.731   3.378   6.578
10179TIP3    H230481   3.665   3.257   6.641
10180TIP3   OH230482   4.116   5.132   3.333
10180TIP3    H130483   4.043   5.161   3.278
10180TIP3    H230484   4.077   5.069   3.393
10181TIP3   OH230485   0.486   4.879   1.552
10181TIP3    H130486   0.516   4.937   1.622
10181TIP3    H230487   0.416   4.928   1.509
10182TIP3   OH230488   4.806   7.582   2.909
10182TIP3    H130489   4.735   7.644   2.928
10182TIP3    H230490   4.764   7.512   2.859
10183TIP3   OH230491   4.722   1.392   5.847
10183TIP3    H130492   4.637   1.386   5.804
10183TIP3    H230493   4.703   1.385   5.940
10184TIP3   OH230494   7.331   0.002   0.970
10184TIP3    H130495   7.332   0.094   0.943
10184TIP3    H230496   7.270  -0.040   0.910
10185TIP3   OH230497   4.902   0.577   3.378
10185TIP3    H130498   4.853   0.595   3.459
10185TIP3    H230499   4.850   0.619   3.309
10186TIP3   OH230500   2.356   4.630   5.877
10186TIP3    H130501   2.357   4.726   5.872
10186TIP3    H230502   2.264   4.607   5.864
10187TIP3   OH230503   1.758   2.511   1.063
10187TIP3    H130504   1.703   2.572   1.014
10187TIP3    H230505   1.846   2.522   1.026
10188TIP3   OH230506   3.092   5.511   5.326
10188TIP3    H130507   3.132   5.595   5.304
10188TIP3    H230508   3.166   5.456   5.353
10189TIP3   OH230509   7.159   2.221   6.525
10189TIP3    H130510   7.154   2.291   6.460
10189TIP3    H230511   7.144   2.141   6.475
10190TIP3   OH230512   4.437   4.167   3.962
10190TIP3    H130513   4.492   4.129   4.030
10190TIP3    H230514   4.465   4.123   3.881
10191TIP3   OH230515   7.800   4.251   1.330
10191TIP3    H130516   7.731   4.283   1.387
10191TIP3    H230517   7.759   4.181   1.279
10192TIP3   OH230518   5.467   0.156   4.017
10192TIP3    H130519   5.382   0.145   4.061
10192TIP3    H230520   5.445   0.160   3.924
10193TIP3   OH230521   6.927   3.708   3.670
10193TIP3    H130522   6.843   3.668   3.649
10193TIP3    H230523   6.989   3.666   3.611
10194TIP3   OH230524   5.728   4.575   3.299
10194TIP3    H130525   5.732   4.521   3.220
10194TIP3    H230526   5.634   4.589   3.313
10195TIP3   OH230527   4.884   2.960   0.521
10195TIP3    H130528   4.906   2.872   0.489
10195TIP3    H230529   4.969   3.003   0.530
10196TIP3   OH230530   7.119   4.077   3.248
10196TIP3    H130531   7.181   4.110   3.313
10196TIP3    H230532   7.043   4.049   3.299
10197TIP3   OH230533   3.151   0.478   2.077
10197TIP3    H130534   3.209   0.409   2.045
10197TIP3    H230535   3.155   0.545   2.008
10198TIP3   OH230536   0.492   5.960   0.044
10198TIP3    H130537   0.537   5.947   0.127
10198TIP3    H230538   0.551   5.922  -0.022
10199TIP3   OH230539   0.036   1.192   4.618
10199TIP3    H130540   0.111   1.221   4.565
10199TIP3    H230541   0.065   1.111   4.659
10200TIP3   OH230542   7.085   5.007   2.276
10200TIP3    H130543   7.092   4.937   2.340
10200TIP3    H230544   7.175   5.033   2.257
10201TIP3   OH230545   7.436   4.156   6.392
10201TIP3    H130546   7.354   4.157   6.442
10201TIP3    H230547   7.504   4.149   6.459
10202TIP3   OH230548   2.794   4.044   3.156
10202TIP3    H130549   2.812   4.138   3.164
10202TIP3    H230550   2.877   4.007   3.128
10203TIP3   OH230551   7.899   5.268   1.425
10203TIP3    H130552   7.983   5.295   1.387
10203TIP3    H230553   7.899   5.306   1.513
10204TIP3   OH230554   8.170   2.295   4.731
10204TIP3    H130555   8.204   2.278   4.819
10204TIP3    H230556   8.204   2.381   4.708
10205TIP3   OH230557   3.557   0.027   4.980
10205TIP3    H130558   3.506  -0.004   4.905
10205TIP3    H230559   3.491   0.063   5.040
10206TIP3   OH230560   6.213   5.968   5.135
10206TIP3    H130561   6.117   5.974   5.134
10206TIP3    H230562   6.241   6.041   5.190
10207TIP3   OH230563   1.221   2.486   4.083
10207TIP3    H130564   1.212   2.405   4.033
10207TIP3    H230565   1.294   2.469   4.143
10208TIP3   OH230566   4.689   0.593   1.861
10208TIP3    H130567   4.733   0.530   1.918
10208TIP3    H230568   4.632   0.643   1.919
10209TIP3   OH230569   2.780   6.093   1.384
10209TIP3    H130570   2.873   6.116   1.378
10209TIP3    H230571   2.735   6.160   1.333
10210TIP3   OH230572   0.400   4.595   4.607
10210TIP3    H130573   0.323   4.630   4.651
10210TIP3    H230574   0.470   4.604   4.672
10211TIP3   OH230575   1.672   2.527   3.446
10211TIP3    H130576   1.677   2.455   3.509
10211TIP3    H230577   1.761   2.564   3.445
10212TIP3   OH230578   4.657   5.790   2.899
10212TIP3    H130579   4.662   5.862   2.836
10212TIP3    H230580   4.583   5.737   2.869
10213TIP3   OH230581   2.989   3.940   0.041
10213TIP3    H130582   3.081   3.920   0.027
10213TIP3    H230583   2.980   3.948   0.136
10214TIP3   OH230584   1.218   3.696   6.435
10214TIP3    H130585   1.245   3.711   6.344
10214TIP3    H230586   1.267   3.761   6.485
10215TIP3   OH230587   6.639   1.178   3.294
10215TIP3    H130588   6.679   1.092   3.283
10215TIP3    H230589   6.545   1.160   3.301
10216TIP3   OH230590   2.322   1.338   3.690
10216TIP3    H130591   2.370   1.275   3.636
10216TIP3    H230592   2.357   1.324   3.778
10217TIP3   OH230593   5.644   4.235   0.337
10217TIP3    H130594   5.731   4.235   0.377
10217TIP3    H230595   5.587   4.200   0.405
10218TIP3   OH230596   4.352   2.258   4.607
10218TIP3    H130597   4.396   2.236   4.525
10218TIP3    H230598   4.308   2.341   4.590
10219TIP3   OH230599   0.639   1.995   0.703
10219TIP3    H130600   0.687   2.078   0.704
10219TIP3    H230601   0.548   2.020   0.686
10220TIP3   OH230602   0.770   6.369   0.061
10220TIP3    H130603   0.727   6.287   0.035
10220TIP3    H230604   0.838   6.382  -0.006
10221TIP3   OH230605   1.144   1.283   0.234
10221TIP3    H130606   1.222   1.252   0.188
10221TIP3    H230607   1.111   1.206   0.281
10222TIP3   OH230608   3.887   1.695   0.869
10222TIP3    H130609   3.891   1.725   0.778
10222TIP3    H230610   3.866   1.602   0.863
10223TIP3   OH230611   3.280   4.775   0.505
10223TIP3    H130612   3.204   4.755   0.559
10223TIP3    H230613   3.332   4.694   0.506
10224TIP3   OH230614   4.858   2.566   4.062
10224TIP3    H130615   4.948   2.596   4.047
10224TIP3    H230616   4.804   2.644   4.052
10225TIP3   OH230617   8.146   6.498   5.480
10225TIP3    H130618   8.176   6.512   5.570
10225TIP3    H230619   8.178   6.411   5.457
10226TIP3   OH230620   6.413   4.345   4.067
10226TIP3    H130621   6.453   4.303   3.991
10226TIP3    H230622   6.484   4.395   4.108
10227TIP3   OH230623   2.390   3.811   6.052
10227TIP3    H130624   2.325   3.818   6.122
10227TIP3    H230625   2.470   3.846   6.090
10228TIP3   OH230626   4.494   4.140   3.647
10228TIP3    H130627   4.539   4.123   3.564
10228TIP3    H230628   4.530   4.224   3.677
10229TIP3   OH230629   4.779   2.377   2.418
10229TIP3    H130630   4.717   2.411   2.481
10229TIP3    H230631   4.838   2.451   2.400
10230TIP3   OH230632   4.843   1.817   1.044
10230TIP3    H130633   4.875   1.740   0.997
10230TIP3    H230634   4.802   1.782   1.123
10231TIP3   OH230635   5.796   5.923   0.754
10231TIP3    H130636   5.767   5.894   0.841
10231TIP3    H230637   5.879   5.969   0.771
10232TIP3   OH230638   0.850   6.726   1.362
10232TIP3    H130639   0.921   6.669   1.332
10232TIP3    H230640   0.796   6.670   1.418
10233TIP3   OH230641   5.589   6.677   4.309
10233TIP3    H130642   5.562   6.701   4.220
10233TIP3    H230643   5.606   6.583   4.304
10234TIP3   OH230644   6.633   4.868   6.168
10234TIP3    H130645   6.638   4.776   6.145
10234TIP3    H230646   6.640   4.870   6.264
10235TIP3   OH230647   2.658   4.322   0.574
10235TIP3    H130648   2.718   4.375   0.627
10235TIP3    H230649   2.626   4.382   0.507
10236TIP3   OH230650   5.732   7.763   3.597
10236TIP3    H130651   5.758   7.845   3.554
10236TIP3    H230652   5.802   7.702   3.575
10237TIP3   OH230653   6.348   0.501   4.413
10237TIP3    H130654   6.416   0.556   4.453
10237TIP3    H230655   6.316   0.552   4.339
10238TIP3   OH230656   3.736   3.037   0.946
10238TIP3    H130657   3.796   3.038   0.871
10238TIP3    H230658   3.747   3.124   0.986
10239TIP3   OH230659   4.645   5.237   0.087
10239TIP3    H130660   4.649   5.145   0.060
10239TIP3    H230661   4.583   5.277   0.025
10240TIP3   OH230662   0.858   3.321   2.728
10240TIP3    H130663   0.799   3.385   2.768
10240TIP3    H230664   0.806   3.241   2.721
10241TIP3   OH230665   2.465   3.750   2.529
10241TIP3    H130666   2.470   3.814   2.601
10241TIP3    H230667   2.372   3.732   2.519
10242TIP3   OH230668   3.293   0.192   3.117
10242TIP3    H130669   3.322   0.235   3.197
10242TIP3    H230670   3.275   0.263   3.056
10243TIP3   OH230671   0.668   7.605   0.067
10243TIP3    H130672   0.687   7.520   0.106
10243TIP3    H230673   0.572   7.606   0.058
10244TIP3   OH230674   3.619   2.333   3.482
10244TIP3    H130675   3.628   2.288   3.397
10244TIP3    H230676   3.525   2.347   3.492
10245TIP3   OH230677   0.535   0.540   1.806
10245TIP3    H130678   0.487   0.594   1.744
10245TIP3    H230679   0.582   0.602   1.861
10246TIP3   OH230680   0.160   0.265   3.842
10246TIP3    H130681   0.151   0.247   3.748
10246TIP3    H230682   0.226   0.203   3.872
10247TIP3   OH230683   6.080   1.209   3.484
10247TIP3    H130684   6.064   1.115   3.489
10247TIP3    H230685   6.004   1.244   3.438
10248TIP3   OH230686   6.768   6.642   0.448
10248TIP3    H130687   6.819   6.717   0.417
10248TIP3    H230688   6.683   6.652   0.407
10249TIP3   OH230689   7.948   0.534   5.066
10249TIP3    H130690   7.904   0.594   5.126
10249TIP3    H230691   7.899   0.543   4.984
10250TIP3   OH230692   1.824   0.472   5.443
10250TIP3    H130693   1.883   0.501   5.512
10250TIP3    H230694   1.737   0.473   5.482
10251TIP3   OH230695   7.529   7.284   0.961
10251TIP3    H130696   7.514   7.191   0.978
10251TIP3    H230697   7.622   7.290   0.940
10252TIP3   OH230698  -0.025   0.578   5.693
10252TIP3    H130699   0.028   0.594   5.772
10252TIP3    H230700   0.004   0.492   5.662
10253TIP3   OH230701   2.991   4.596   6.549
10253TIP3    H130702   2.982   4.644   6.467
10253TIP3    H230703   2.901   4.581   6.579
10254TIP3   OH230704   6.397   5.401   6.382
10254TIP3    H130705   6.339   5.404   6.306
10254TIP3    H230706   6.353   5.343   6.444
10255TIP3   OH230707   3.779   4.179   2.382
10255TIP3    H130708   3.848   4.162   2.446
10255TIP3    H230709   3.718   4.106   2.392
10256TIP3   OH230710   1.587   1.230   6.058
10256TIP3    H130711   1.579   1.315   6.101
10256TIP3    H230712   1.641   1.178   6.118
10257TIP3   OH230713   2.450   4.572  -0.014
10257TIP3    H130714   2.374   4.550   0.041
10257TIP3    H230715   2.526   4.552   0.041
10258TIP3   OH230716   5.128   5.738   0.791
10258TIP3    H130717   5.179   5.697   0.860
10258TIP3    H230718   5.158   5.697   0.710
10259TIP3   OH230719   7.771   1.837   0.462
10259TIP3    H130720   7.796   1.744   0.459
10259TIP3    H230721   7.844   1.882   0.420
10260TIP3   OH230722   3.689   5.712   3.021
10260TIP3    H130723   3.722   5.724   3.110
10260TIP3    H230724   3.768   5.693   2.969
10261TIP3   OH230725   5.558   2.307   1.710
10261TIP3    H130726   5.481   2.258   1.682
10261TIP3    H230727   5.528   2.398   1.717
10262TIP3   OH230728   5.143   2.826   3.359
10262TIP3    H130729   5.212   2.890   3.340
10262TIP3    H230730   5.162   2.752   3.301
10263TIP3   OH230731   0.540   4.461   0.998
10263TIP3    H130732   0.556   4.366   1.003
10263TIP3    H230733   0.445   4.469   1.003
10264TIP3   OH230734   1.423   2.899   4.937
10264TIP3    H130735   1.446   2.957   4.865
10264TIP3    H230736   1.348   2.942   4.979
10265TIP3   OH230737   7.408   1.302   3.441
10265TIP3    H130738   7.471   1.242   3.482
10265TIP3    H230739   7.387   1.261   3.357
10266TIP3   OH230740   7.081   1.513   4.285
10266TIP3    H130741   7.049   1.545   4.201
10266TIP3    H230742   7.163   1.560   4.299
10267TIP3   OH230743   7.290   5.830   0.952
10267TIP3    H130744   7.310   5.847   0.860
10267TIP3    H230745   7.342   5.894   1.001
10268TIP3   OH230746   7.137   3.603   5.952
10268TIP3    H130747   7.227   3.592   5.922
10268TIP3    H230748   7.092   3.525   5.921
10269TIP3   OH230749   1.004   2.000   4.363
10269TIP3    H130750   0.945   1.955   4.303
10269TIP3    H230751   1.083   1.945   4.364
10270TIP3   OH230752   4.381   5.738   3.685
10270TIP3    H130753   4.374   5.669   3.620
10270TIP3    H230754   4.447   5.798   3.650
10271TIP3   OH230755   0.819   4.138   0.783
10271TIP3    H130756   0.912   4.118   0.797
10271TIP3    H230757   0.774   4.093   0.855
10272TIP3   OH230758   3.436   3.108   1.627
10272TIP3    H130759   3.463   3.066   1.709
10272TIP3    H230760   3.501   3.082   1.563
10273TIP3   OH230761   7.812   7.457   2.766
10273TIP3    H130762   7.751   7.527   2.742
10273TIP3    H230763   7.794   7.440   2.858
10274TIP3   OH230764   4.857   7.082   2.742
10274TIP3    H130765   4.939   7.131   2.752
10274TIP3    H230766   4.814   7.122   2.666
10275TIP3   OH230767   1.729   0.072   0.931
10275TIP3    H130768   1.666   0.077   0.859
10275TIP3    H230769   1.681   0.028   1.001
10276TIP3   OH230770   4.294   4.162   4.237
10276TIP3    H130771   4.251   4.243   4.212
10276TIP3    H230772   4.374   4.190   4.281
10277TIP3   OH230773   6.247   5.385   0.976
10277TIP3    H130774   6.193   5.414   1.049
10277TIP3    H230775   6.255   5.290   0.988
10278TIP3   OH230776   6.493   1.738   1.432
10278TIP3    H130777   6.420   1.787   1.470
10278TIP3    H230778   6.535   1.695   1.506
10279TIP3   OH230779   3.755   4.092   0.260
10279TIP3    H130780   3.845   4.110   0.287
10279TIP3    H230781   3.701   4.148   0.316
10280TIP3   OH230782   3.602   6.365   4.895
10280TIP3    H130783   3.565   6.447   4.862
10280TIP3    H230784   3.535   6.299   4.875
10281TIP3   OH230785   1.262   4.765   6.681
10281TIP3    H130786   1.180   4.729   6.715
10281TIP3    H230787   1.268   4.852   6.721
10282TIP3   OH230788   3.081   0.866   3.871
10282TIP3    H130789   3.012   0.900   3.814
10282TIP3    H230790   3.040   0.792   3.917
10283TIP3   OH230791   7.217   0.251   6.290
10283TIP3    H130792   7.304   0.256   6.252
10283TIP3    H230793   7.157   0.268   6.217
10284TIP3   OH230794   5.108   1.561   1.016
10284TIP3    H130795   5.077   1.581   0.927
10284TIP3    H230796   5.054   1.487   1.044
10285TIP3   OH230797   3.768   4.248   0.681
10285TIP3    H130798   3.771   4.181   0.750
10285TIP3    H230799   3.845   4.229   0.627
10286TIP3   OH230800   6.899   1.041   6.562
10286TIP3    H130801   6.989   1.048   6.530
10286TIP3    H230802   6.905   0.982   6.637
10287TIP3   OH230803   0.707   4.589   1.729
10287TIP3    H130804   0.728   4.552   1.815
10287TIP3    H230805   0.683   4.513   1.676
10288TIP3   OH230806   2.307   1.832   0.388
10288TIP3    H130807   2.289   1.920   0.355
10288TIP3    H230808   2.222   1.801   0.420
10289TIP3   OH230809   1.529   6.236   4.319
10289TIP3    H130810   1.558   6.328   4.318
10289TIP3    H230811   1.436   6.241   4.339
10290TIP3   OH230812   1.865   2.019   0.002
10290TIP3    H130813   1.949   2.027  -0.043
10290TIP3    H230814   1.887   2.027   0.095
10291TIP3   OH230815   4.678   1.495   0.176
10291TIP3    H130816   4.695   1.412   0.220
10291TIP3    H230817   4.606   1.477   0.117
10292TIP3   OH230818   1.971   7.483   3.985
10292TIP3    H130819   1.945   7.392   3.971
10292TIP3    H230820   2.047   7.495   3.928
10293TIP3   OH230821   5.268   1.528   4.323
10293TIP3    H130822   5.329   1.601   4.321
10293TIP3    H230823   5.246   1.519   4.416
10294TIP3   OH230824   8.124   1.694   5.555
10294TIP3    H130825   8.152   1.687   5.463
10294TIP3    H230826   8.029   1.687   5.552
10295TIP3   OH230827   0.572   3.588   0.848
10295TIP3    H130828   0.565   3.638   0.767
10295TIP3    H230829   0.665   3.572   0.859
10296TIP3   OH230830   4.886   4.330   6.143
10296TIP3    H130831   4.914   4.339   6.052
10296TIP3    H230832   4.864   4.419   6.171
10297TIP3   OH230833   5.458   3.310   0.421
10297TIP3    H130834   5.440   3.243   0.356
10297TIP3    H230835   5.553   3.309   0.431
10298TIP3   OH230836   1.201   4.246   5.466
10298TIP3    H130837   1.199   4.301   5.544
10298TIP3    H230838   1.138   4.177   5.484
10299TIP3   OH230839   6.916   5.319   3.066
10299TIP3    H130840   6.860   5.244   3.087
10299TIP3    H230841   7.003   5.282   3.058
10300TIP3   OH230842   1.003   2.387   5.477
10300TIP3    H130843   1.047   2.452   5.423
10300TIP3    H230844   0.948   2.338   5.416
10301TIP3   OH230845   3.075   6.047   5.091
10301TIP3    H130846   3.024   6.126   5.113
10301TIP3    H230847   3.024   6.004   5.022
10302TIP3   OH230848   1.117   0.259   2.623
10302TIP3    H130849   1.155   0.341   2.591
10302TIP3    H230850   1.153   0.192   2.565
10303TIP3   OH230851   1.848   6.171   5.055
10303TIP3    H130852   1.795   6.249   5.043
10303TIP3    H230853   1.817   6.133   5.138
10304TIP3   OH230854   5.380   4.312   5.098
10304TIP3    H130855   5.305   4.367   5.118
10304TIP3    H230856   5.415   4.287   5.184
10305TIP3   OH230857   2.012   5.239   2.898
10305TIP3    H130858   2.095   5.240   2.849
10305TIP3    H230859   1.947   5.210   2.834
10306TIP3   OH230860   0.892   6.813   0.874
10306TIP3    H130861   0.968   6.836   0.928
10306TIP3    H230862   0.916   6.839   0.786
10307TIP3   OH230863   2.705   1.375   5.502
10307TIP3    H130864   2.699   1.282   5.524
10307TIP3    H230865   2.626   1.414   5.539
10308TIP3   OH230866   4.424   0.276   2.292
10308TIP3    H130867   4.486   0.235   2.352
10308TIP3    H230868   4.452   0.247   2.205
10309TIP3   OH230869   0.100   5.081   0.618
10309TIP3    H130870   0.131   5.050   0.532
10309TIP3    H230871   0.024   5.026   0.637
10310TIP3   OH230872   3.562   6.089   5.339
10310TIP3    H130873   3.526   6.154   5.400
10310TIP3    H230874   3.654   6.112   5.331
10311TIP3   OH230875   1.779   7.016   5.900
10311TIP3    H130876   1.839   6.948   5.867
10311TIP3    H230877   1.696   6.970   5.914
10312TIP3   OH230878   7.020   1.083   4.544
10312TIP3    H130879   7.060   1.153   4.494
10312TIP3    H230880   6.929   1.081   4.514
10313TIP3   OH230881   2.534   6.697   2.908
10313TIP3    H130882   2.476   6.625   2.934
10313TIP3    H230883   2.596   6.706   2.980
10314TIP3   OH230884   4.244   7.342   3.716
10314TIP3    H130885   4.335   7.316   3.731
10314TIP3    H230886   4.204   7.339   3.803
10315TIP3   OH230887   1.735   0.302   1.126
10315TIP3    H130888   1.724   0.221   1.177
10315TIP3    H230889   1.814   0.286   1.074
10316TIP3   OH230890   2.118   2.928   4.692
10316TIP3    H130891   2.048   2.886   4.642
10316TIP3    H230892   2.154   2.858   4.746
10317TIP3   OH230893   3.409   3.109   2.204
10317TIP3    H130894   3.451   3.171   2.265
10317TIP3    H230895   3.351   3.057   2.259
10318TIP3   OH230896   4.084   0.537   3.083
10318TIP3    H130897   4.137   0.583   3.018
10318TIP3    H230898   3.999   0.580   3.080
10319TIP3   OH230899   0.747   4.509   0.844
10319TIP3    H130900   0.735   4.435   0.785
10319TIP3    H230901   0.674   4.503   0.906
10320TIP3   OH230902   5.357   1.527   3.638
10320TIP3    H130903   5.384   1.562   3.722
10320TIP3    H230904   5.427   1.552   3.577
10321TIP3   OH230905   5.941   6.010   5.177
10321TIP3    H130906   5.917   5.939   5.237
10321TIP3    H230907   5.881   6.081   5.199
10322TIP3   OH230908   2.101   2.057   2.500
10322TIP3    H130909   2.182   2.051   2.449
10322TIP3    H230910   2.035   2.087   2.438
10323TIP3   OH230911   0.338   6.765   1.788
10323TIP3    H130912   0.346   6.852   1.748
10323TIP3    H230913   0.255   6.768   1.836
10324TIP3   OH230914   1.910   6.908   1.390
10324TIP3    H130915   1.974   6.868   1.331
10324TIP3    H230916   1.851   6.957   1.333
10325TIP3   OH230917   0.416   5.811   5.807
10325TIP3    H130918   0.508   5.817   5.782
10325TIP3    H230919   0.370   5.862   5.741
10326TIP3   OH230920   1.615   1.013   1.916
10326TIP3    H130921   1.642   0.952   1.847
10326TIP3    H230922   1.588   0.957   1.989
10327TIP3   OH230923   2.037   6.905   2.766
10327TIP3    H130924   2.060   6.975   2.827
10327TIP3    H230925   1.952   6.931   2.730
10328TIP3   OH230926   7.633   3.443   4.313
10328TIP3    H130927   7.576   3.403   4.247
10328TIP3    H230928   7.710   3.387   4.316
10329TIP3   OH230929   7.860   4.312   4.685
10329TIP3    H130930   7.875   4.406   4.696
10329TIP3    H230931   7.770   4.306   4.653
10330TIP3   OH230932   4.591   6.370   4.704
10330TIP3    H130933   4.523   6.333   4.760
10330TIP3    H230934   4.649   6.416   4.764
10331TIP3   OH230935   3.484   4.220   1.113
10331TIP3    H130936   3.435   4.269   1.179
10331TIP3    H230937   3.555   4.179   1.161
10332TIP3   OH230938   0.245   3.573   2.218
10332TIP3    H130939   0.212   3.486   2.194
10332TIP3    H230940   0.207   3.590   2.304
10333TIP3   OH230941   6.190   4.074   1.523
10333TIP3    H130942   6.139   4.140   1.477
10333TIP3    H230943   6.246   4.124   1.583
10334TIP3   OH230944   0.417   3.882   3.801
10334TIP3    H130945   0.508   3.899   3.825
10334TIP3    H230946   0.420   3.803   3.747
10335TIP3   OH230947   0.038   7.275   0.579
10335TIP3    H130948  -0.031   7.214   0.552
10335TIP3    H230949   0.051   7.331   0.503
10336TIP3   OH230950   4.724   2.941   4.786
10336TIP3    H130951   4.785   2.991   4.841
10336TIP3    H230952   4.751   2.850   4.797
10337TIP3   OH230953   0.573   2.811   1.262
10337TIP3    H130954   0.634   2.877   1.230
10337TIP3    H230955   0.605   2.790   1.350
10338TIP3   OH230956   5.986   6.257   2.124
10338TIP3    H130957   6.028   6.275   2.207
10338TIP3    H230958   6.054   6.275   2.058
10339TIP3   OH230959   8.065   4.717   1.924
10339TIP3    H130960   8.109   4.718   2.009
10339TIP3    H230961   8.103   4.643   1.877
10340TIP3   OH230962   7.696   7.660   4.620
10340TIP3    H130963   7.691   7.569   4.592
10340TIP3    H230964   7.790   7.676   4.631
10341TIP3   OH230965   4.484   0.790   4.385
10341TIP3    H130966   4.511   0.698   4.388
10341TIP3    H230967   4.564   0.838   4.408
10342TIP3   OH230968   5.719   4.895   6.277
10342TIP3    H130969   5.634   4.851   6.278
10342TIP3    H230970   5.736   4.917   6.368
10343TIP3   OH230971   5.191   6.504   3.670
10343TIP3    H130972   5.159   6.471   3.754
10343TIP3    H230973   5.127   6.472   3.606
10344TIP3   OH230974   2.392   4.044   1.879
10344TIP3    H130975   2.482   4.055   1.910
10344TIP3    H230976   2.338   4.076   1.951
10345TIP3   OH230977   1.536   3.001   5.184
10345TIP3    H130978   1.480   2.967   5.115
10345TIP3    H230979   1.495   3.084   5.210
10346TIP3   OH230980   7.159   2.860   1.311
10346TIP3    H130981   7.143   2.780   1.362
10346TIP3    H230982   7.170   2.828   1.221
10347TIP3   OH230983   5.391   4.222   3.117
10347TIP3    H130984   5.448   4.169   3.172
10347TIP3    H230985   5.451   4.277   3.066
10348TIP3   OH230986   7.019   5.643   0.235
10348TIP3    H130987   7.098   5.693   0.214
10348TIP3    H230988   6.948   5.695   0.198
10349TIP3   OH230989   0.488   1.741   2.743
10349TIP3    H130990   0.570   1.698   2.718
10349TIP3    H230991   0.472   1.712   2.833
10350TIP3   OH230992   1.613   5.238   5.686
10350TIP3    H130993   1.614   5.167   5.750
10350TIP3    H230994   1.550   5.302   5.721
10351TIP3   OH230995   5.534   1.259   3.610
10351TIP3    H130996   5.551   1.224   3.523
10351TIP3    H230997   5.441   1.278   3.610
10352TIP3   OH230998   5.108   4.387   3.548
10352TIP3    H130999   5.140   4.361   3.461
10352TIP3    H231000   5.034   4.329   3.564
10353TIP3   OH231001   3.223   5.562   4.970
10353TIP3    H131002   3.244   5.619   5.044
10353TIP3    H231003   3.194   5.622   4.901
10354TIP3   OH231004   4.061   4.914   4.328
10354TIP3    H131005   4.020   4.830   4.348
10354TIP3    H231006   4.133   4.891   4.268
10355TIP3   OH231007   6.105   7.600   6.265
10355TIP3    H131008   6.086   7.514   6.228
10355TIP3    H231009   6.195   7.618   6.239
10356TIP3   OH231010   7.694   1.092   5.937
10356TIP3    H131011   7.758   1.149   5.979
10356TIP3    H231012   7.674   1.026   6.003
10357TIP3   OH231013   2.170   3.976   5.412
10357TIP3    H131014   2.090   3.949   5.366
10357TIP3    H231015   2.238   3.916   5.380
10358TIP3   OH231016   8.044   4.056   0.914
10358TIP3    H131017   8.129   4.019   0.937
10358TIP3    H231018   7.987   3.980   0.903
10359TIP3   OH231019   3.797   0.274   0.894
10359TIP3    H131020   3.761   0.187   0.913
10359TIP3    H231021   3.761   0.330   0.963
10360TIP3   OH231022   6.370   3.253   3.248
10360TIP3    H131023   6.449   3.285   3.205
10360TIP3    H231024   6.335   3.188   3.188
10361TIP3   OH231025   7.629   5.374   4.608
10361TIP3    H131026   7.540   5.350   4.583
10361TIP3    H231027   7.622   5.399   4.700
10362TIP3   OH231028   8.085   4.192   0.383
10362TIP3    H131029   8.160   4.180   0.441
10362TIP3    H231030   8.096   4.280   0.346
10363TIP3   OH231031   7.471   2.443   6.488
10363TIP3    H131032   7.381   2.473   6.505
10363TIP3    H231033   7.489   2.381   6.558
10364TIP3   OH231034   8.179   5.052   2.673
10364TIP3    H131035   8.207   4.993   2.743
10364TIP3    H231036   8.086   5.068   2.692
10365TIP3   OH231037   0.144   4.357   4.581
10365TIP3    H131038   0.238   4.348   4.593
10365TIP3    H231039   0.134   4.434   4.525
10366TIP3   OH231040   8.191   6.845   3.622
10366TIP3    H131041   8.127   6.779   3.596
10366TIP3    H231042   8.153   6.886   3.700
10367TIP3   OH231043   2.772   6.862   2.988
10367TIP3    H131044   2.813   6.839   2.905
10367TIP3    H231045   2.770   6.958   2.988
10368TIP3   OH231046   7.156   5.244   1.942
10368TIP3    H131047   7.126   5.302   1.873
10368TIP3    H231048   7.085   5.245   2.007
10369TIP3   OH231049   2.214   7.464   1.079
10369TIP3    H131050   2.219   7.510   0.996
10369TIP3    H231051   2.160   7.520   1.135
10370TIP3   OH231052   3.490   6.723   1.344
10370TIP3    H131053   3.558   6.721   1.277
10370TIP3    H231054   3.436   6.646   1.325
10371TIP3   OH231055   1.900   7.570   6.239
10371TIP3    H131056   1.893   7.651   6.189
10371TIP3    H231057   1.995   7.554   6.245
10372TIP3   OH231058   5.302   3.966   6.632
10372TIP3    H131059   5.279   3.873   6.625
10372TIP3    H231060   5.389   3.971   6.593
10373TIP3   OH231061   0.568   3.392   6.330
10373TIP3    H131062   0.560   3.486   6.311
10373TIP3    H231063   0.658   3.370   6.307
10374TIP3   OH231064   6.735   0.624   3.383
10374TIP3    H131065   6.663   0.569   3.413
10374TIP3    H231066   6.811   0.566   3.382
10375TIP3   OH231067   0.242   1.800   3.472
10375TIP3    H131068   0.330   1.791   3.509
10375TIP3    H231069   0.191   1.729   3.512
10376TIP3   OH231070   0.280   4.340   0.780
10376TIP3    H131071   0.268   4.328   0.874
10376TIP3    H231072   0.333   4.266   0.753
10377TIP3   OH231073   4.191   0.361   3.247
10377TIP3    H131074   4.168   0.434   3.189
10377TIP3    H231075   4.106   0.326   3.275
10378TIP3   OH231076   3.015   7.400   3.505
10378TIP3    H131077   3.033   7.493   3.497
10378TIP3    H231078   2.933   7.396   3.555
10379TIP3   OH231079   3.407   5.129   0.547
10379TIP3    H131080   3.436   5.220   0.542
10379TIP3    H231081   3.333   5.124   0.487
10380TIP3   OH231082   5.106   7.034   1.628
10380TIP3    H131083   5.030   7.005   1.578
10380TIP3    H231084   5.135   6.955   1.674
10381TIP3   OH231085   0.585   5.933   1.158
10381TIP3    H131086   0.553   6.011   1.203
10381TIP3    H231087   0.673   5.920   1.192
10382TIP3   OH231088   1.953   4.230   5.217
10382TIP3    H131089   1.866   4.209   5.183
10382TIP3    H231090   1.991   4.144   5.238
10383TIP3   OH231091   5.616   2.715   2.522
10383TIP3    H131092   5.700   2.717   2.476
10383TIP3    H231093   5.568   2.642   2.482
10384TIP3   OH231094   4.478   2.323   0.345
10384TIP3    H131095   4.469   2.404   0.296
10384TIP3    H231096   4.442   2.342   0.431
10385TIP3   OH231097   5.834   5.728   4.690
10385TIP3    H131098   5.873   5.687   4.613
10385TIP3    H231099   5.839   5.661   4.758
10386TIP3   OH231100   2.312   6.681   6.409
10386TIP3    H131101   2.229   6.638   6.388
10386TIP3    H231102   2.363   6.677   6.328
10387TIP3   OH231103   7.952   4.596   5.152
10387TIP3    H131104   7.928   4.504   5.140
10387TIP3    H231105   8.008   4.617   5.078
10388TIP3   OH231106   3.643   3.796   0.380
10388TIP3    H131107   3.633   3.819   0.473
10388TIP3    H231108   3.600   3.711   0.372
10389TIP3   OH231109   0.777   7.731   4.361
10389TIP3    H131110   0.871   7.749   4.371
10389TIP3    H231111   0.773   7.665   4.291
10390TIP3   OH231112   0.763   1.287   2.736
10390TIP3    H131113   0.671   1.268   2.753
10390TIP3    H231114   0.779   1.255   2.648
10391TIP3   OH231115   6.847   4.546   0.565
10391TIP3    H131116   6.868   4.616   0.628
10391TIP3    H231117   6.932   4.519   0.531
10392TIP3   OH231118   0.576   3.776   1.094
10392TIP3    H131119   0.612   3.688   1.105
10392TIP3    H231120   0.644   3.834   1.127
10393TIP3   OH231121   3.048   5.735   4.500
10393TIP3    H131122   2.961   5.697   4.512
10393TIP3    H231123   3.036   5.828   4.521
10394TIP3   OH231124   7.689   3.641   0.199
10394TIP3    H131125   7.667   3.682   0.283
10394TIP3    H231126   7.752   3.573   0.221
10395TIP3   OH231127   7.458   7.236   1.434
10395TIP3    H131128   7.512   7.235   1.513
10395TIP3    H231129   7.409   7.154   1.437
10396TIP3   OH231130   5.885   0.591   2.589
10396TIP3    H131131   5.850   0.674   2.621
10396TIP3    H231132   5.830   0.570   2.513
10397TIP3   OH231133   2.649   2.769   0.385
10397TIP3    H131134   2.727   2.816   0.357
10397TIP3    H231135   2.642   2.789   0.479
10398TIP3   OH231136   7.599   6.657   2.540
10398TIP3    H131137   7.667   6.664   2.607
10398TIP3    H231138   7.523   6.620   2.586
10399TIP3   OH231139   7.164   4.476   2.199
10399TIP3    H131140   7.106   4.502   2.271
10399TIP3    H231141   7.214   4.556   2.179
10400TIP3   OH231142   6.127   4.143   1.920
10400TIP3    H131143   6.041   4.102   1.910
10400TIP3    H231144   6.142   4.188   1.837
10401TIP3   OH231145   3.071   3.948   2.098
10401TIP3    H131146   3.034   3.938   2.186
10401TIP3    H231147   3.042   3.870   2.050
10402TIP3   OH231148   2.100   4.277   4.652
10402TIP3    H131149   2.125   4.274   4.745
10402TIP3    H231150   2.135   4.196   4.616
10403TIP3   OH231151   2.847   1.153   6.074
10403TIP3    H131152   2.896   1.194   6.145
10403TIP3    H231153   2.761   1.195   6.076
10404TIP3   OH231154   6.340   6.281   4.294
10404TIP3    H131155   6.406   6.222   4.258
10404TIP3    H231156   6.261   6.227   4.300
10405TIP3   OH231157   3.185   5.050   3.460
10405TIP3    H131158   3.157   4.964   3.493
10405TIP3    H231159   3.138   5.113   3.514
10406TIP3   OH231160   2.901   4.507   0.066
10406TIP3    H131161   2.954   4.560   0.007
10406TIP3    H231162   2.923   4.416   0.043
10407TIP3   OH231163   0.621   2.612   1.951
10407TIP3    H131164   0.610   2.696   1.997
10407TIP3    H231165   0.565   2.551   1.999
10408TIP3   OH231166   7.172   1.319   5.537
10408TIP3    H131167   7.196   1.234   5.499
10408TIP3    H231168   7.159   1.376   5.461
10409TIP3   OH231169   1.324   7.708   1.462
10409TIP3    H131170   1.342   7.704   1.556
10409TIP3    H231171   1.262   7.780   1.453
10410TIP3   OH231172   7.420   0.786   3.894
10410TIP3    H131173   7.401   0.851   3.962
10410TIP3    H231174   7.337   0.741   3.880
10411TIP3   OH231175   6.268   1.618   5.464
10411TIP3    H131176   6.273   1.576   5.550
10411TIP3    H231177   6.200   1.569   5.418
10412TIP3   OH231178   8.269   3.815   2.229
10412TIP3    H131179   8.230   3.753   2.167
10412TIP3    H231180   8.247   3.901   2.193
10413TIP3   OH231181   0.237   1.324   4.465
10413TIP3    H131182   0.224   1.256   4.399
10413TIP3    H231183   0.323   1.307   4.502
10414TIP3   OH231184   2.848   1.394   3.527
10414TIP3    H131185   2.818   1.461   3.466
10414TIP3    H231186   2.936   1.423   3.553
10415TIP3   OH231187   5.350   2.633   5.278
10415TIP3    H131188   5.391   2.585   5.350
10415TIP3    H231189   5.319   2.565   5.218
10416TIP3   OH231190   1.077   0.982   6.504
10416TIP3    H131191   1.012   1.001   6.571
10416TIP3    H231192   1.158   0.968   6.552
10417TIP3   OH231193   1.002   2.727   1.822
10417TIP3    H131194   1.015   2.726   1.917
10417TIP3    H231195   0.922   2.778   1.810
10418TIP3   OH231196   6.181   1.321   6.656
10418TIP3    H131197   6.120   1.288   6.590
10418TIP3    H231198   6.249   1.253   6.662
10419TIP3   OH231199   2.653   4.303   1.572
10419TIP3    H131200   2.697   4.299   1.656
10419TIP3    H231201   2.719   4.340   1.512
10420TIP3   OH231202   5.957   4.612   0.831
10420TIP3    H131203   5.901   4.599   0.755
10420TIP3    H231204   5.990   4.702   0.823
10421TIP3   OH231205   5.364   0.493   0.187
10421TIP3    H131206   5.327   0.561   0.243
10421TIP3    H231207   5.289   0.440   0.161
10422TIP3   OH231208   8.029   7.318   4.226
10422TIP3    H131209   8.077   7.260   4.286
10422TIP3    H231210   7.998   7.390   4.281
10423TIP3   OH231211   2.147   2.435   2.191
10423TIP3    H131212   2.070   2.421   2.248
10423TIP3    H231213   2.177   2.523   2.214
10424TIP3   OH231214   6.133   0.776   4.215
10424TIP3    H131215   6.208   0.788   4.272
10424TIP3    H231216   6.122   0.861   4.171
10425TIP3   OH231217   2.017   0.426   4.932
10425TIP3    H131218   1.998   0.376   5.011
10425TIP3    H231219   1.935   0.425   4.882
10426TIP3   OH231220   2.997   2.363   3.990
10426TIP3    H131221   2.978   2.276   3.955
10426TIP3    H231222   3.047   2.345   4.069
10427TIP3   OH231223   2.161   5.512   0.986
10427TIP3    H131224   2.240   5.479   1.029
10427TIP3    H231225   2.195   5.562   0.911
10428TIP3   OH231226   1.643   7.104   2.853
10428TIP3    H131227   1.582   7.149   2.794
10428TIP3    H231228   1.713   7.167   2.869
10429TIP3   OH231229   4.867   4.257   3.971
10429TIP3    H131230   4.883   4.176   4.020
10429TIP3    H231231   4.925   4.321   4.012
10430TIP3   OH231232   0.107   1.356   5.172
10430TIP3    H131233   0.066   1.326   5.091
10430TIP3    H231234   0.164   1.284   5.199
10431TIP3   OH231235   0.720   4.653   0.301
10431TIP3    H131236   0.671   4.683   0.378
10431TIP3    H231237   0.733   4.560   0.315
10432TIP3   OH231238   2.110   4.047   3.691
10432TIP3    H131239   2.200   4.073   3.671
10432TIP3    H231240   2.061   4.130   3.694
10433TIP3   OH231241   1.129   7.640   0.853
10433TIP3    H131242   1.077   7.564   0.875
10433TIP3    H231243   1.206   7.634   0.910
10434TIP3   OH231244   6.888   6.395   0.491
10434TIP3    H131245   6.850   6.348   0.565
10434TIP3    H231246   6.825   6.465   0.472
10435TIP3   OH231247   2.199   7.400   2.666
10435TIP3    H131248   2.123   7.350   2.637
10435TIP3    H231249   2.262   7.391   2.595
10436TIP3   OH231250   0.527   2.241   1.241
10436TIP3    H131251   0.519   2.295   1.320
10436TIP3    H231252   0.485   2.293   1.172
10437TIP3   OH231253   4.053   1.813   0.512
10437TIP3    H131254   4.100   1.733   0.535
10437TIP3    H231255   3.970   1.806   0.560
10438TIP3   OH231256   4.129   0.585   4.615
10438TIP3    H131257   4.138   0.677   4.590
10438TIP3    H231258   4.146   0.536   4.535
10439TIP3   OH231259   3.189   4.972   2.974
10439TIP3    H131260   3.244   4.894   2.967
10439TIP3    H231261   3.109   4.949   2.927
10440TIP3   OH231262   0.560   7.336   5.719
10440TIP3    H131263   0.513   7.385   5.652
10440TIP3    H231264   0.492   7.302   5.777
10441TIP3   OH231265   0.089   4.791   1.736
10441TIP3    H131266   0.109   4.771   1.644
10441TIP3    H231267   0.049   4.710   1.770
10442TIP3   OH231268   7.215   4.807   4.618
10442TIP3    H131269   7.210   4.876   4.551
10442TIP3    H231270   7.198   4.726   4.570
10443TIP3   OH231271   0.578   5.009   5.611
10443TIP3    H131272   0.630   5.089   5.606
10443TIP3    H231273   0.631   4.942   5.566
10444TIP3   OH231274   2.449   3.717   0.518
10444TIP3    H131275   2.516   3.707   0.451
10444TIP3    H231276   2.492   3.764   0.589
10445TIP3   OH231277   0.279   2.616   3.861
10445TIP3    H131278   0.197   2.626   3.813
10445TIP3    H231279   0.347   2.647   3.801
10446TIP3   OH231280   7.656   5.209   6.028
10446TIP3    H131281   7.741   5.174   6.002
10446TIP3    H231282   7.646   5.181   6.119
10447TIP3   OH231283   3.050   6.355   2.947
10447TIP3    H131284   3.121   6.326   2.889
10447TIP3    H231285   2.973   6.361   2.889
10448TIP3   OH231286   6.471   5.582   2.359
10448TIP3    H131287   6.418   5.648   2.314
10448TIP3    H231288   6.558   5.589   2.318
10449TIP3   OH231289   4.397   7.346   4.211
10449TIP3    H131290   4.451   7.270   4.231
10449TIP3    H231291   4.307   7.312   4.210
10450TIP3   OH231292   6.055   2.326   5.259
10450TIP3    H131293   6.063   2.275   5.178
10450TIP3    H231294   6.011   2.266   5.320
10451TIP3   OH231295   2.907   3.717   1.076
10451TIP3    H131296   2.922   3.703   1.169
10451TIP3    H231297   2.978   3.776   1.049
10452TIP3   OH231298   6.399   6.517   5.667
10452TIP3    H131299   6.367   6.487   5.582
10452TIP3    H231300   6.492   6.495   5.668
10453TIP3   OH231301   3.975   5.298   4.668
10453TIP3    H131302   3.911   5.227   4.669
10453TIP3    H231303   4.055   5.258   4.703
10454TIP3   OH231304   4.245   4.743   5.651
10454TIP3    H131305   4.334   4.738   5.616
10454TIP3    H231306   4.201   4.807   5.596
10455TIP3   OH231307   6.149   4.315   0.267
10455TIP3    H131308   6.145   4.254   0.193
10455TIP3    H231309   6.100   4.392   0.237
10456TIP3   OH231310   3.020   5.220   6.492
10456TIP3    H131311   3.059   5.288   6.547
10456TIP3    H231312   2.952   5.266   6.443
10457TIP3   OH231313   8.303   4.142   5.309
10457TIP3    H131314   8.218   4.145   5.265
10457TIP3    H231315   8.320   4.232   5.335
10458TIP3   OH231316   2.853   1.327   1.640
10458TIP3    H131317   2.874   1.243   1.680
10458TIP3    H231318   2.771   1.311   1.593
10459TIP3   OH231319   2.051   6.193   0.415
10459TIP3    H131320   1.965   6.225   0.387
10459TIP3    H231321   2.072   6.244   0.493
10460TIP3   OH231322   1.275   6.452   2.668
10460TIP3    H131323   1.259   6.359   2.657
10460TIP3    H231324   1.244   6.491   2.586
10461TIP3   OH231325   3.209   1.073   0.785
10461TIP3    H131326   3.156   1.105   0.712
10461TIP3    H231327   3.158   1.000   0.820
10462TIP3   OH231328   3.730   2.670   5.163
10462TIP3    H131329   3.679   2.697   5.239
10462TIP3    H231330   3.773   2.589   5.191
10463TIP3   OH231331   6.936   3.363   6.706
10463TIP3    H131332   6.921   3.273   6.736
10463TIP3    H231333   7.009   3.394   6.761
10464TIP3   OH231334   6.893   6.712   0.688
10464TIP3    H131335   6.819   6.720   0.749
10464TIP3    H231336   6.855   6.671   0.610
10465TIP3   OH231337   8.059   6.573   3.718
10465TIP3    H131338   8.080   6.579   3.811
10465TIP3    H231339   8.085   6.484   3.694
10466TIP3   OH231340   5.760   4.039   6.721
10466TIP3    H131341   5.726   4.087   6.797
10466TIP3    H231342   5.786   4.107   6.659
10467TIP3   OH231343   7.551   6.515   4.577
10467TIP3    H131344   7.467   6.471   4.560
10467TIP3    H231345   7.534   6.607   4.557
10468TIP3   OH231346   0.390   7.713   2.062
10468TIP3    H131347   0.410   7.718   1.969
10468TIP3    H231348   0.375   7.620   2.079
10469TIP3   OH231349   2.657   5.028   2.939
10469TIP3    H131350   2.745   5.066   2.942
10469TIP3    H231351   2.599   5.103   2.951
10470TIP3   OH231352   4.203   4.617   2.185
10470TIP3    H131353   4.114   4.591   2.209
10470TIP3    H231354   4.259   4.550   2.223
10471TIP3   OH231355   0.643   4.987   6.441
10471TIP3    H131356   0.583   4.999   6.367
10471TIP3    H231357   0.694   5.068   6.444
10472TIP3   OH231358   3.400   6.503   4.573
10472TIP3    H131359   3.457   6.554   4.630
10472TIP3    H231360   3.436   6.513   4.485
10473TIP3   OH231361   6.624   4.414   4.913
10473TIP3    H131362   6.553   4.429   4.975
10473TIP3    H231363   6.593   4.343   4.857
10474TIP3   OH231364   0.128   5.276   5.540
10474TIP3    H131365   0.142   5.210   5.472
10474TIP3    H231366   0.211   5.278   5.588
10475TIP3   OH231367   5.252   0.862   3.980
10475TIP3    H131368   5.223   0.876   4.071
10475TIP3    H231369   5.336   0.908   3.975
10476TIP3   OH231370   3.724   6.819   1.893
10476TIP3    H131371   3.667   6.820   1.816
10476TIP3    H231372   3.664   6.826   1.967
10477TIP3   OH231373   6.132   4.718   2.242
10477TIP3    H131374   6.109   4.811   2.241
10477TIP3    H231375   6.048   4.672   2.230
10478TIP3   OH231376   1.572   6.006   2.639
10478TIP3    H131377   1.604   6.004   2.729
10478TIP3    H231378   1.625   5.941   2.594
10479TIP3   OH231379   0.661   6.105   6.123
10479TIP3    H131380   0.681   6.142   6.037
10479TIP3    H231381   0.573   6.138   6.143
10480TIP3   OH231382   4.996   6.161   5.945
10480TIP3    H131383   5.078   6.124   5.977
10480TIP3    H231384   4.928   6.110   5.989
10481TIP3   OH231385   7.273   1.191   1.132
10481TIP3    H131386   7.331   1.172   1.059
10481TIP3    H231387   7.295   1.281   1.158
10482TIP3   OH231388   2.721   2.184   4.274
10482TIP3    H131389   2.785   2.216   4.210
10482TIP3    H231390   2.714   2.255   4.338
10483TIP3   OH231391   7.168   5.786   2.521
10483TIP3    H131392   7.080   5.773   2.556
10483TIP3    H231393   7.226   5.780   2.598
10484TIP3   OH231394   6.752   0.897   3.341
10484TIP3    H131395   6.778   0.807   3.361
10484TIP3    H231396   6.778   0.948   3.418
10485TIP3   OH231397   7.827   2.177   6.602
10485TIP3    H131398   7.893   2.221   6.547
10485TIP3    H231399   7.863   2.182   6.691
10486TIP3   OH231400   0.049   3.820   4.584
10486TIP3    H131401   0.135   3.809   4.543
10486TIP3    H231402   0.023   3.909   4.560
10487TIP3   OH231403   1.567   0.366   6.665
10487TIP3    H131404   1.481   0.404   6.682
10487TIP3    H231405   1.549   0.276   6.638
10488TIP3   OH231406   5.139   5.592   2.728
10488TIP3    H131407   5.095   5.514   2.695
10488TIP3    H231408   5.119   5.594   2.821
10489TIP3   OH231409   2.950   1.383   0.674
10489TIP3    H131410   2.869   1.428   0.697
10489TIP3    H231411   2.942   1.365   0.581
10490TIP3   OH231412   6.565   2.037   2.821
10490TIP3    H131413   6.561   2.083   2.738
10490TIP3    H231414   6.476   2.045   2.857
10491TIP3   OH231415   8.049   7.749   2.156
10491TIP3    H131416   8.058   7.686   2.227
10491TIP3    H231417   8.105   7.822   2.182
10492TIP3   OH231418   2.571   1.341   1.541
10492TIP3    H131419   2.571   1.250   1.511
10492TIP3    H231420   2.484   1.374   1.521
10493TIP3   OH231421   7.052   1.024   1.928
10493TIP3    H131422   7.062   0.972   1.849
10493TIP3    H231423   7.027   0.961   1.996
10494TIP3   OH231424   1.263   4.536   6.347
10494TIP3    H131425   1.329   4.480   6.306
10494TIP3    H231426   1.312   4.587   6.412
10495TIP3   OH231427   8.177   1.612   1.228
10495TIP3    H131428   8.245   1.564   1.276
10495TIP3    H231429   8.216   1.697   1.211
10496TIP3   OH231430   3.227   5.587   4.020
10496TIP3    H131431   3.298   5.555   4.076
10496TIP3    H231432   3.266   5.593   3.933
10497TIP3   OH231433   7.835   2.005   0.798
10497TIP3    H131434   7.756   2.040   0.839
10497TIP3    H231435   7.851   2.063   0.723
10498TIP3   OH231436   0.938   1.847   6.291
10498TIP3    H131437   0.869   1.793   6.251
10498TIP3    H231438   0.944   1.923   6.234
10499TIP3   OH231439   5.783   0.487   2.352
10499TIP3    H131440   5.843   0.504   2.279
10499TIP3    H231441   5.749   0.399   2.334
10500TIP3   OH231442   7.210   2.384   3.538
10500TIP3    H131443   7.238   2.293   3.525
10500TIP3    H231444   7.245   2.431   3.463
10501TIP3   OH231445   7.280   5.776   0.196
10501TIP3    H131446   7.246   5.839   0.133
10501TIP3    H231447   7.329   5.712   0.143
10502TIP3   OH231448   4.274   2.692   0.490
10502TIP3    H131449   4.333   2.694   0.566
10502TIP3    H231450   4.207   2.757   0.510
10503TIP3   OH231451   1.195   4.953   2.336
10503TIP3    H131452   1.124   5.017   2.334
10503TIP3    H231453   1.166   4.882   2.278
10504TIP3   OH231454   5.962   3.157   6.477
10504TIP3    H131455   5.924   3.214   6.411
10504TIP3    H231456   5.914   3.177   6.557
10505TIP3   OH231457   0.518   2.292   2.738
10505TIP3    H131458   0.440   2.237   2.744
10505TIP3    H231459   0.552   2.275   2.650
10506TIP3   OH231460   1.677   5.359   0.234
10506TIP3    H131461   1.636   5.274   0.221
10506TIP3    H231462   1.754   5.359   0.177
10507TIP3   OH231463   4.579   4.633   1.918
10507TIP3    H131464   4.528   4.561   1.954
10507TIP3    H231465   4.537   4.712   1.953
10508TIP3   OH231466   4.461   4.910   0.791
10508TIP3    H131467   4.409   4.975   0.839
10508TIP3    H231468   4.454   4.830   0.842
10509TIP3   OH231469   7.924   3.760   3.758
10509TIP3    H131470   7.897   3.838   3.710
10509TIP3    H231471   7.903   3.779   3.849
10510TIP3   OH231472   3.870   4.279   4.283
10510TIP3    H131473   3.905   4.194   4.310
10510TIP3    H231474   3.935   4.314   4.222
10511TIP3   OH231475   4.301   6.345   4.098
10511TIP3    H131476   4.370   6.308   4.152
10511TIP3    H231477   4.338   6.349   4.010
10512TIP3   OH231478   2.221   7.412   4.806
10512TIP3    H131479   2.143   7.460   4.833
10512TIP3    H231480   2.212   7.403   4.711
10513TIP3   OH231481   5.607   1.235   4.251
10513TIP3    H131482   5.519   1.247   4.288
10513TIP3    H231483   5.631   1.146   4.275
10514TIP3   OH231484   3.613   2.876   1.123
10514TIP3    H131485   3.681   2.819   1.160
10514TIP3    H231486   3.656   2.921   1.050
10515TIP3   OH231487   1.060   4.588   1.622
10515TIP3    H131488   1.058   4.604   1.716
10515TIP3    H231489   1.051   4.493   1.614
10516TIP3   OH231490   6.550   7.481   4.220
10516TIP3    H131491   6.627   7.536   4.215
10516TIP3    H231492   6.491   7.514   4.152
10517TIP3   OH231493   2.886   2.045   2.826
10517TIP3    H131494   2.951   1.975   2.828
10517TIP3    H231495   2.887   2.076   2.735
10518TIP3   OH231496   0.087   3.026   4.717
10518TIP3    H131497   0.134   3.109   4.716
10518TIP3    H231498   0.087   2.996   4.626
10519TIP3   OH231499   7.842   6.898   0.802
10519TIP3    H131500   7.845   6.875   0.895
10519TIP3    H231501   7.923   6.946   0.787
10520TIP3   OH231502   6.988   0.476   1.694
10520TIP3    H131503   6.962   0.496   1.784
10520TIP3    H231504   6.960   0.386   1.680
10521TIP3   OH231505   5.277   4.648   4.818
10521TIP3    H131506   5.295   4.713   4.750
10521TIP3    H231507   5.184   4.628   4.809
10522TIP3   OH231508   2.004   0.323   5.812
10522TIP3    H131509   1.995   0.325   5.907
10522TIP3    H231510   1.960   0.242   5.785
10523TIP3   OH231511   7.249   7.334   6.460
10523TIP3    H131512   7.166   7.301   6.495
10523TIP3    H231513   7.244   7.317   6.366
10524TIP3   OH231514   7.430   1.129   5.033
10524TIP3    H131515   7.436   1.071   4.957
10524TIP3    H231516   7.403   1.213   4.996
10525TIP3   OH231517   0.219   2.992   5.335
10525TIP3    H131518   0.162   2.918   5.353
10525TIP3    H231519   0.169   3.068   5.364
10526TIP3   OH231520   3.725   6.128   6.186
10526TIP3    H131521   3.661   6.069   6.227
10526TIP3    H231522   3.809   6.102   6.223
10527TIP3   OH231523   5.438   6.919   1.483
10527TIP3    H131524   5.454   6.932   1.390
10527TIP3    H231525   5.434   7.008   1.520
10528TIP3   OH231526   4.730   2.369   5.092
10528TIP3    H131527   4.814   2.407   5.119
10528TIP3    H231528   4.754   2.282   5.057
10529TIP3   OH231529   6.194   1.420   2.505
10529TIP3    H131530   6.217   1.436   2.597
10529TIP3    H231531   6.277   1.393   2.464
10530TIP3   OH231532   2.851   0.490   1.815
10530TIP3    H131533   2.868   0.402   1.847
10530TIP3    H231534   2.847   0.481   1.720
10531TIP3   OH231535   1.859   3.379   6.164
10531TIP3    H131536   1.806   3.382   6.243
10531TIP3    H231537   1.879   3.470   6.145
10532TIP3   OH231538   1.686   2.153   6.789
10532TIP3    H131539   1.729   2.202   6.720
10532TIP3    H231540   1.637   2.085   6.743
10533TIP3   OH231541   7.196   1.194   6.228
10533TIP3    H131542   7.220   1.102   6.218
10533TIP3    H231543   7.231   1.238   6.151
10534TIP3   OH231544   2.303   3.459   1.523
10534TIP3    H131545   2.247   3.469   1.447
10534TIP3    H231546   2.263   3.387   1.573
10535TIP3   OH231547   5.271   2.388   4.324
10535TIP3    H131548   5.189   2.378   4.373
10535TIP3    H231549   5.244   2.381   4.232
10536TIP3   OH231550   2.498   0.375   6.048
10536TIP3    H131551   2.406   0.361   6.024
10536TIP3    H231552   2.497   0.389   6.142
10537TIP3   OH231553   6.047   4.619   4.408
10537TIP3    H131554   6.095   4.682   4.462
10537TIP3    H231555   6.115   4.567   4.365
10538TIP3   OH231556   6.772   1.313   0.533
10538TIP3    H131557   6.702   1.334   0.596
10538TIP3    H231558   6.853   1.324   0.583
10539TIP3   OH231559   5.009   6.334   4.738
10539TIP3    H131560   4.999   6.281   4.659
10539TIP3    H231561   5.074   6.401   4.714
10540TIP3   OH231562   0.690   5.834   5.766
10540TIP3    H131563   0.754   5.874   5.707
10540TIP3    H231564   0.732   5.754   5.797
10541TIP3   OH231565   4.652   2.270   1.917
10541TIP3    H131566   4.579   2.229   1.871
10541TIP3    H231567   4.727   2.212   1.901
10542TIP3   OH231568   6.159   7.777   3.197
10542TIP3    H131569   6.194   7.690   3.219
10542TIP3    H231570   6.115   7.764   3.113
10543TIP3   OH231571   3.854   4.731   1.766
10543TIP3    H131572   3.914   4.801   1.790
10543TIP3    H231573   3.906   4.651   1.772
10544TIP3   OH231574   4.564   1.545   4.264
10544TIP3    H131575   4.540   1.616   4.205
10544TIP3    H231576   4.536   1.575   4.350
10545TIP3   OH231577   4.923   5.136   3.415
10545TIP3    H131578   4.890   5.053   3.382
10545TIP3    H231579   4.981   5.168   3.346
10546TIP3   OH231580   4.772   6.793   5.242
10546TIP3    H131581   4.800   6.705   5.217
10546TIP3    H231582   4.771   6.792   5.337
10547TIP3   OH231583   6.872   1.119   3.079
10547TIP3    H131584   6.815   1.056   3.035
10547TIP3    H231585   6.822   1.200   3.083
10548TIP3   OH231586   6.982   0.508   5.738
10548TIP3    H131587   6.987   0.465   5.653
10548TIP3    H231588   7.047   0.578   5.734
10549TIP3   OH231589   8.105   0.688   2.085
10549TIP3    H131590   8.118   0.736   2.167
10549TIP3    H231591   8.044   0.743   2.035
10550TIP3   OH231592   2.474   1.720   2.737
10550TIP3    H131593   2.569   1.733   2.738
10550TIP3    H231594   2.460   1.638   2.784
10551TIP3   OH231595   5.874   1.431   4.746
10551TIP3    H131596   5.967   1.410   4.745
10551TIP3    H231597   5.832   1.355   4.705
10552TIP3   OH231598   2.613   5.375   1.625
10552TIP3    H131599   2.686   5.324   1.589
10552TIP3    H231600   2.599   5.445   1.561
10553TIP3   OH231601   7.446   3.829   5.350
10553TIP3    H131602   7.479   3.822   5.260
10553TIP3    H231603   7.516   3.792   5.404
10554TIP3   OH231604   0.954   7.195   0.864
10554TIP3    H131605   1.018   7.237   0.921
10554TIP3    H231606   0.883   7.258   0.857
10555TIP3   OH231607   0.767   0.498   5.224
10555TIP3    H131608   0.723   0.523   5.143
10555TIP3    H231609   0.776   0.403   5.218
10556TIP3   OH231610   7.942   5.437   5.231
10556TIP3    H131611   7.950   5.345   5.257
10556TIP3    H231612   8.013   5.482   5.277
10557TIP3   OH231613   4.351   4.969   2.275
10557TIP3    H131614   4.413   5.021   2.326
10557TIP3    H231615   4.315   4.906   2.338
10558TIP3   OH231616   6.044   2.987   1.181
10558TIP3    H131617   6.118   2.927   1.177
10558TIP3    H231618   6.016   2.997   1.090
10559TIP3   OH231619   2.136   2.433   5.428
10559TIP3    H131620   2.156   2.512   5.379
10559TIP3    H231621   2.053   2.453   5.473
10560TIP3   OH231622   7.893   6.241   5.808
10560TIP3    H131623   7.938   6.158   5.820
10560TIP3    H231624   7.833   6.226   5.735
10561TIP3   OH231625   5.000   5.178   6.448
10561TIP3    H131626   4.997   5.156   6.355
10561TIP3    H231627   5.013   5.093   6.491
10562TIP3   OH231628   2.980   4.839   2.856
10562TIP3    H131629   3.043   4.796   2.799
10562TIP3    H231630   2.927   4.893   2.797
10563TIP3   OH231631   5.334   2.665   6.204
10563TIP3    H131632   5.266   2.726   6.232
10563TIP3    H231633   5.318   2.652   6.111
10564TIP3   OH231634   4.160   1.748   6.139
10564TIP3    H131635   4.243   1.719   6.103
10564TIP3    H231636   4.184   1.808   6.210
10565TIP3   OH231637   2.465   0.784   0.829
10565TIP3    H131638   2.479   0.689   0.832
10565TIP3    H231639   2.412   0.803   0.906
10566TIP3   OH231640   6.555   6.205   1.594
10566TIP3    H131641   6.464   6.231   1.583
10566TIP3    H231642   6.551   6.122   1.642
10567TIP3   OH231643   6.590   7.807   5.651
10567TIP3    H131644   6.640   7.877   5.693
10567TIP3    H231645   6.635   7.726   5.678
10568TIP3   OH231646   8.088   0.948   5.103
10568TIP3    H131647   8.047   0.919   5.021
10568TIP3    H231648   8.179   0.920   5.096
10569TIP3   OH231649   2.715   0.195   4.571
10569TIP3    H131650   2.669   0.146   4.504
10569TIP3    H231651   2.808   0.182   4.552
10570TIP3   OH231652   4.355   1.051   6.164
10570TIP3    H131653   4.357   1.132   6.113
10570TIP3    H231654   4.263   1.040   6.187
10571TIP3   OH231655   7.817   1.557   0.157
10571TIP3    H131656   7.792   1.486   0.216
10571TIP3    H231657   7.776   1.536   0.074
10572TIP3   OH231658   2.009   1.963   1.553
10572TIP3    H131659   1.961   1.882   1.570
10572TIP3    H231660   1.962   2.004   1.480
10573TIP3   OH231661   2.676   0.156   0.089
10573TIP3    H131662   2.676   0.249   0.067
10573TIP3    H231663   2.629   0.114   0.017
10574TIP3   OH231664   4.042   5.396   5.760
10574TIP3    H131665   4.099   5.409   5.684
10574TIP3    H231666   4.076   5.456   5.826
10575TIP3   OH231667   2.725   0.341   1.558
10575TIP3    H131668   2.656   0.305   1.503
10575TIP3    H231669   2.687   0.420   1.597
10576TIP3   OH231670   5.535   5.379   6.408
10576TIP3    H131671   5.581   5.299   6.433
10576TIP3    H231672   5.483   5.402   6.485
10577TIP3   OH231673   4.335   7.515   6.077
10577TIP3    H131674   4.345   7.473   5.992
10577TIP3    H231675   4.307   7.604   6.056
10578TIP3   OH231676   0.091   3.794   0.424
10578TIP3    H131677   0.133   3.725   0.475
10578TIP3    H231678   0.163   3.851   0.398
10579TIP3   OH231679   8.289   5.867   4.449
10579TIP3    H131680   8.231   5.819   4.507
10579TIP3    H231681   8.315   5.803   4.383
10580TIP3   OH231682   1.026   1.440   2.210
10580TIP3    H131683   1.119   1.452   2.227
10580TIP3    H231684   0.982   1.498   2.272
10581TIP3   OH231685   0.780   5.018   4.865
10581TIP3    H131686   0.833   4.949   4.827
10581TIP3    H231687   0.823   5.040   4.948
10582TIP3   OH231688   7.602   1.677   2.185
10582TIP3    H131689   7.540   1.622   2.232
10582TIP3    H231690   7.557   1.761   2.175
10583TIP3   OH231691   5.151   4.396   1.803
10583TIP3    H131692   5.060   4.416   1.783
10583TIP3    H231693   5.160   4.302   1.789
10584TIP3   OH231694   7.191   4.196   4.610
10584TIP3    H131695   7.228   4.140   4.678
10584TIP3    H231696   7.266   4.241   4.572
10585TIP3   OH231697   6.263   4.551   3.912
10585TIP3    H131698   6.356   4.554   3.892
10585TIP3    H231699   6.258   4.503   3.996
10586TIP3   OH231700   7.005   1.945   2.795
10586TIP3    H131701   6.924   1.995   2.783
10586TIP3    H231702   7.000   1.914   2.886
10587TIP3   OH231703   3.579   6.343   0.862
10587TIP3    H131704   3.552   6.277   0.798
10587TIP3    H231705   3.549   6.426   0.825
10588TIP3   OH231706   7.836   1.441   5.348
10588TIP3    H131707   7.843   1.477   5.259
10588TIP3    H231708   7.871   1.353   5.341
10589TIP3   OH231709   7.141   4.441   6.716
10589TIP3    H131710   7.193   4.484   6.784
10589TIP3    H231711   7.159   4.348   6.728
10590TIP3   OH231712   2.223   1.589   2.641
10590TIP3    H131713   2.275   1.512   2.665
10590TIP3    H231714   2.280   1.664   2.661
10591TIP3   OH231715   7.165   4.292   5.679
10591TIP3    H131716   7.102   4.354   5.716
10591TIP3    H231717   7.248   4.313   5.722
10592TIP3   OH231718   7.683   5.093   2.881
10592TIP3    H131719   7.601   5.052   2.910
10592TIP3    H231720   7.682   5.180   2.923
10593TIP3   OH231721   2.653  -0.011   5.771
10593TIP3    H131722   2.622  -0.001   5.861
10593TIP3    H231723   2.673   0.079   5.743
10594TIP3   OH231724   5.865   3.538   2.741
10594TIP3    H131725   5.854   3.621   2.788
10594TIP3    H231726   5.782   3.524   2.697
10595TIP3   OH231727   2.981   3.024   5.991
10595TIP3    H131728   2.944   2.991   6.073
10595TIP3    H231729   3.072   3.044   6.012
10596TIP3   OH231730   0.263   6.734   4.043
10596TIP3    H131731   0.325   6.678   3.997
10596TIP3    H231732   0.289   6.729   4.135
10597TIP3   OH231733   0.621   4.381   1.574
10597TIP3    H131734   0.658   4.362   1.488
10597TIP3    H231735   0.592   4.296   1.608
10598TIP3   OH231736   5.677   6.191   3.147
10598TIP3    H131737   5.723   6.212   3.066
10598TIP3    H231738   5.610   6.128   3.121
10599TIP3   OH231739   5.703   4.348   4.773
10599TIP3    H131740   5.628   4.407   4.760
10599TIP3    H231741   5.771   4.382   4.715
10600TIP3   OH231742   5.825   0.656   5.172
10600TIP3    H131743   5.918   0.676   5.166
10600TIP3    H231744   5.782   0.718   5.113
10601TIP3   OH231745   6.607   1.566   1.602
10601TIP3    H131746   6.680   1.546   1.543
10601TIP3    H231747   6.557   1.484   1.607
10602TIP3   OH231748   1.094   2.712   1.379
10602TIP3    H131749   1.157   2.748   1.317
10602TIP3    H231750   1.009   2.730   1.340
10603TIP3   OH231751   5.787   1.620   3.147
10603TIP3    H131752   5.780   1.649   3.056
10603TIP3    H231753   5.746   1.690   3.197
10604TIP3   OH231754   1.405   6.262   5.039
10604TIP3    H131755   1.367   6.233   4.956
10604TIP3    H231756   1.431   6.181   5.083
10605TIP3   OH231757   1.114   0.612   6.627
10605TIP3    H131758   1.164   0.626   6.546
10605TIP3    H231759   1.172   0.642   6.697
10606TIP3   OH231760   7.543   0.701   0.352
10606TIP3    H131761   7.616   0.653   0.392
10606TIP3    H231762   7.556   0.690   0.258
10607TIP3   OH231763   2.457   1.549   4.498
10607TIP3    H131764   2.382   1.588   4.454
10607TIP3    H231765   2.518   1.527   4.428
10608TIP3   OH231766   6.450   2.781   2.697
10608TIP3    H131767   6.425   2.726   2.771
10608TIP3    H231768   6.470   2.866   2.736
10609TIP3   OH231769   5.688   0.274   2.175
10609TIP3    H131770   5.639   0.294   2.095
10609TIP3    H231771   5.655   0.189   2.203
10610TIP3   OH231772   7.647   5.894   3.743
10610TIP3    H131773   7.690   5.856   3.667
10610TIP3    H231774   7.683   5.844   3.817
10611TIP3   OH231775   1.622   3.196   3.814
10611TIP3    H131776   1.538   3.239   3.799
10611TIP3    H231777   1.620   3.171   3.907
10612TIP3   OH231778   1.694   3.739   2.803
10612TIP3    H131779   1.673   3.826   2.838
10612TIP3    H231780   1.766   3.755   2.742
10613TIP3   OH231781   6.259   5.041   2.609
10613TIP3    H131782   6.315   5.023   2.684
10613TIP3    H231783   6.247   5.136   2.610
10614TIP3   OH231784   3.078   7.644   3.030
10614TIP3    H131785   3.084   7.552   3.003
10614TIP3    H231786   2.984   7.659   3.042
10615TIP3   OH231787   7.058   6.968   3.500
10615TIP3    H131788   7.111   7.001   3.573
10615TIP3    H231789   7.015   6.891   3.536
10616TIP3   OH231790   6.478   4.976   6.707
10616TIP3    H131791   6.572   4.996   6.701
10616TIP3    H231792   6.450   5.017   6.788
10617TIP3   OH231793   2.563   1.636   0.915
10617TIP3    H131794   2.630   1.695   0.951
10617TIP3    H231795   2.484   1.689   0.912
10618TIP3   OH231796   2.020   3.547   4.716
10618TIP3    H131797   2.026   3.455   4.693
10618TIP3    H231798   1.962   3.549   4.792
10619TIP3   OH231799   2.306   5.035   0.610
10619TIP3    H131800   2.393   5.060   0.580
10619TIP3    H231801   2.257   5.016   0.529
10620TIP3   OH231802   1.542   3.596   2.033
10620TIP3    H131803   1.466   3.539   2.027
10620TIP3    H231804   1.520   3.659   2.102
10621TIP3   OH231805   3.113   4.562   5.292
10621TIP3    H131806   3.074   4.499   5.231
10621TIP3    H231807   3.092   4.528   5.379
10622TIP3   OH231808   3.212   5.956   1.773
10622TIP3    H131809   3.268   5.881   1.754
10622TIP3    H231810   3.235   5.982   1.862
10623TIP3   OH231811   7.731   4.459   3.401
10623TIP3    H131812   7.798   4.394   3.380
10623TIP3    H231813   7.717   4.450   3.495
10624TIP3   OH231814   5.677   7.454   3.382
10624TIP3    H131815   5.716   7.411   3.457
10624TIP3    H231816   5.688   7.548   3.399
10625TIP3   OH231817   2.377   3.113   6.089
10625TIP3    H131818   2.316   3.117   6.016
10625TIP3    H231819   2.330   3.064   6.157
10626TIP3   OH231820   7.810   2.610   3.386
10626TIP3    H131821   7.806   2.594   3.480
10626TIP3    H231822   7.795   2.524   3.347
10627TIP3   OH231823   1.800   5.782   2.597
10627TIP3    H131824   1.844   5.769   2.682
10627TIP3    H231825   1.872   5.794   2.535
10628TIP3   OH231826   7.400   2.024   5.172
10628TIP3    H131827   7.424   1.953   5.231
10628TIP3    H231828   7.459   2.096   5.194
10629TIP3   OH231829   7.023   0.478   2.260
10629TIP3    H131830   7.072   0.531   2.324
10629TIP3    H231831   6.938   0.521   2.254
10630TIP3   OH231832   6.925   0.620   5.984
10630TIP3    H131833   6.948   0.711   5.969
10630TIP3    H231834   6.902   0.586   5.897
10631TIP3   OH231835   3.764   1.157   3.652
10631TIP3    H131836   3.816   1.125   3.578
10631TIP3    H231837   3.814   1.231   3.685
10632TIP3   OH231838   4.690   4.540   1.145
10632TIP3    H131839   4.689   4.467   1.207
10632TIP3    H231840   4.627   4.514   1.077
10633TIP3   OH231841   7.517   5.312   2.595
10633TIP3    H131842   7.566   5.230   2.603
10633TIP3    H231843   7.541   5.345   2.508
10634TIP3   OH231844   5.301   6.877   5.282
10634TIP3    H131845   5.257   6.920   5.209
10634TIP3    H231846   5.388   6.918   5.285
10635TIP3   OH231847   1.283   6.290   5.777
10635TIP3    H131848   1.195   6.296   5.738
10635TIP3    H231849   1.279   6.345   5.855
10636TIP3   OH231850   6.505   0.538   6.464
10636TIP3    H131851   6.480   0.604   6.529
10636TIP3    H231852   6.542   0.588   6.391
10637TIP3   OH231853   0.145   3.613   6.202
10637TIP3    H131854   0.202   3.651   6.136
10637TIP3    H231855   0.179   3.525   6.215
10638TIP3   OH231856   4.485   0.956   1.306
10638TIP3    H131857   4.471   0.867   1.338
10638TIP3    H231858   4.405   0.976   1.256
10639TIP3   OH231859   1.485   4.156   6.584
10639TIP3    H131860   1.416   4.185   6.645
10639TIP3    H231861   1.548   4.110   6.639
10640TIP3   OH231862   3.681   2.623   3.469
10640TIP3    H131863   3.688   2.632   3.564
10640TIP3    H231864   3.674   2.528   3.454
10641TIP3   OH231865   3.075   7.790   2.456
10641TIP3    H131866   3.117   7.828   2.533
10641TIP3    H231867   3.079   7.695   2.471
10642TIP3   OH231868   6.344   4.959   5.829
10642TIP3    H131869   6.420   4.987   5.880
10642TIP3    H231870   6.296   4.901   5.889
10643TIP3   OH231871   3.380   4.305   0.588
10643TIP3    H131872   3.362   4.212   0.580
10643TIP3    H231873   3.425   4.314   0.672
10644TIP3   OH231874   3.522   7.475   3.880
10644TIP3    H131875   3.433   7.444   3.866
10644TIP3    H231876   3.511   7.566   3.909
10645TIP3   OH231877   0.622   2.067   2.592
10645TIP3    H131878   0.617   2.019   2.675
10645TIP3    H231879   0.688   2.020   2.541
10646TIP3   OH231880   2.811   6.818   0.636
10646TIP3    H131881   2.819   6.911   0.657
10646TIP3    H231882   2.722   6.809   0.600
10647TIP3   OH231883   2.214   5.238   4.276
10647TIP3    H131884   2.135   5.274   4.237
10647TIP3    H231885   2.240   5.303   4.342
10648TIP3   OH231886   3.383   2.959   3.632
10648TIP3    H131887   3.348   3.021   3.696
10648TIP3    H231888   3.451   3.007   3.585
10649TIP3   OH231889   2.902   1.519   6.492
10649TIP3    H131890   2.864   1.607   6.497
10649TIP3    H231891   2.836   1.463   6.532
10650TIP3   OH231892   0.759   2.466   1.273
10650TIP3    H131893   0.691   2.450   1.338
10650TIP3    H231894   0.769   2.562   1.272
10651TIP3   OH231895   5.678   3.263   4.557
10651TIP3    H131896   5.707   3.353   4.546
10651TIP3    H231897   5.758   3.214   4.576
10652TIP3   OH231898   8.064   3.691   5.167
10652TIP3    H131899   8.154   3.677   5.139
10652TIP3    H231900   8.023   3.737   5.094
10653TIP3   OH231901   2.625   5.578   1.977
10653TIP3    H131902   2.686   5.642   1.939
10653TIP3    H231903   2.621   5.507   1.913
10654TIP3   OH231904   1.347   2.065   4.694
10654TIP3    H131905   1.270   2.111   4.727
10654TIP3    H231906   1.379   2.015   4.770
10655TIP3   OH231907   2.702   0.183   2.218
10655TIP3    H131908   2.790   0.176   2.254
10655TIP3    H231909   2.714   0.232   2.136
10656TIP3   OH231910   4.165   4.128   3.932
10656TIP3    H131911   4.254   4.134   3.967
10656TIP3    H231912   4.112   4.180   3.993
10657TIP3   OH231913   2.880   3.089   4.437
10657TIP3    H131914   2.898   3.167   4.489
10657TIP3    H231915   2.963   3.070   4.393
10658TIP3   OH231916   4.794   0.799   0.107
10658TIP3    H131917   4.825   0.783   0.018
10658TIP3    H231918   4.782   0.894   0.111
10659TIP3   OH231919   3.617   5.607   3.614
10659TIP3    H131920   3.578   5.550   3.681
10659TIP3    H231921   3.672   5.548   3.563
10660TIP3   OH231922   3.130   0.032   0.717
10660TIP3    H131923   3.082   0.115   0.723
10660TIP3    H231924   3.095  -0.010   0.638
10661TIP3   OH231925   0.719   4.325   2.245
10661TIP3    H131926   0.762   4.334   2.331
10661TIP3    H231927   0.627   4.341   2.264
10662TIP3   OH231928   0.640   2.301   1.665
10662TIP3    H131929   0.691   2.288   1.585
10662TIP3    H231930   0.677   2.379   1.705
10663TIP3   OH231931   2.490   0.618   2.600
10663TIP3    H131932   2.556   0.685   2.586
10663TIP3    H231933   2.443   0.613   2.517
10664TIP3   OH231934   4.176   1.479   4.351
10664TIP3    H131935   4.131   1.532   4.416
10664TIP3    H231936   4.123   1.399   4.344
10665TIP3   OH231937   5.397   7.217   6.260
10665TIP3    H131938   5.334   7.225   6.332
10665TIP3    H231939   5.345   7.185   6.187
10666TIP3   OH231940   2.862   1.136   3.481
10666TIP3    H131941   2.854   1.231   3.489
10666TIP3    H231942   2.956   1.120   3.478
10667TIP3   OH231943   5.408   7.323   3.736
10667TIP3    H131944   5.496   7.360   3.732
10667TIP3    H231945   5.352   7.397   3.757
10668TIP3   OH231946   8.057   1.701   1.708
10668TIP3    H131947   8.064   1.697   1.613
10668TIP3    H231948   8.019   1.616   1.733
10669TIP3   OH231949   7.088   5.801   2.218
10669TIP3    H131950   7.069   5.818   2.310
10669TIP3    H231951   7.181   5.822   2.209
10670TIP3   OH231952   2.029   3.141   3.874
10670TIP3    H131953   2.018   3.165   3.782
10670TIP3    H231954   1.973   3.064   3.885
10671TIP3   OH231955   4.118   5.256   3.043
10671TIP3    H131956   4.103   5.193   2.972
10671TIP3    H231957   4.030   5.287   3.067
10672TIP3   OH231958   5.925   3.893   4.734
10672TIP3    H131959   5.854   3.830   4.728
10672TIP3    H231960   5.896   3.955   4.801
10673TIP3   OH231961   1.576   7.674   2.840
10673TIP3    H131962   1.544   7.697   2.753
10673TIP3    H231963   1.552   7.749   2.895
10674TIP3   OH231964   3.150   0.821   5.529
10674TIP3    H131965   3.068   0.771   5.530
10674TIP3    H231966   3.124   0.908   5.496
10675TIP3   OH231967   5.029   3.796   5.217
10675TIP3    H131968   5.020   3.878   5.169
10675TIP3    H231969   5.043   3.821   5.308
10676TIP3   OH231970   2.031   3.605   1.508
10676TIP3    H131971   1.997   3.583   1.595
10676TIP3    H231972   2.110   3.656   1.524
10677TIP3   OH231973   5.758   0.465   5.949
10677TIP3    H131974   5.692   0.401   5.975
10677TIP3    H231975   5.720   0.511   5.875
10678TIP3   OH231976   5.215   5.650   4.493
10678TIP3    H131977   5.145   5.707   4.463
10678TIP3    H231978   5.281   5.709   4.530
10679TIP3   OH231979   5.418   2.801   4.601
10679TIP3    H131980   5.469   2.733   4.557
10679TIP3    H231981   5.358   2.834   4.535
10680TIP3   OH231982   8.239   4.520   1.846
10680TIP3    H131983   8.298   4.495   1.917
10680TIP3    H231984   8.198   4.437   1.820
10681TIP3   OH231985   3.932   2.637   4.189
10681TIP3    H131986   3.869   2.682   4.245
10681TIP3    H231987   3.889   2.556   4.164
10682TIP3   OH231988   6.304   6.775   5.600
10682TIP3    H131989   6.358   6.698   5.581
10682TIP3    H231990   6.274   6.762   5.690
10683TIP3   OH231991   6.969   3.791   0.594
10683TIP3    H131992   6.996   3.729   0.663
10683TIP3    H231993   6.933   3.736   0.525
10684TIP3   OH231994   1.790   4.995   2.967
10684TIP3    H131995   1.797   5.084   2.932
10684TIP3    H231996   1.879   4.962   2.965
10685TIP3   OH231997   0.819   4.564   4.194
10685TIP3    H131998   0.807   4.655   4.168
10685TIP3    H231999   0.802   4.564   4.288
10686TIP3   OH232000   7.659   3.268   4.845
10686TIP3    H132001   7.715   3.193   4.824
10686TIP3    H232002   7.622   3.293   4.760
10687TIP3   OH232003   5.186   3.678   2.144
10687TIP3    H132004   5.209   3.586   2.155
10687TIP3    H232005   5.222   3.702   2.059
10688TIP3   OH232006   1.599   3.080   4.060
10688TIP3    H132007   1.569   3.131   4.135
10688TIP3    H232008   1.522   3.030   4.032
10689TIP3   OH232009   7.741   0.112   0.083
10689TIP3    H132010   7.816   0.078   0.132
10689TIP3    H232011   7.746   0.070  -0.002
10690TIP3   OH232012   6.241   5.317   5.388
10690TIP3    H132013   6.249   5.263   5.310
10690TIP3    H232014   6.310   5.285   5.446
10691TIP3   OH232015   0.590   3.032   6.295
10691TIP3    H132016   0.668   3.014   6.348
10691TIP3    H232017   0.545   2.947   6.289
10692TIP3   OH232018   2.390   4.575   3.619
10692TIP3    H132019   2.367   4.622   3.699
10692TIP3    H232020   2.453   4.509   3.647
10693TIP3   OH232021   4.899   4.201   3.569
10693TIP3    H132022   4.861   4.141   3.505
10693TIP3    H232023   4.828   4.218   3.632
10694TIP3   OH232024   7.093   7.747   1.982
10694TIP3    H132025   7.145   7.812   1.935
10694TIP3    H232026   7.156   7.700   2.036
10695TIP3   OH232027   2.057   0.898   6.221
10695TIP3    H132028   2.130   0.850   6.183
10695TIP3    H232029   2.060   0.877   6.314
10696TIP3   OH232030   4.033   3.947   4.584
10696TIP3    H132031   3.991   3.984   4.662
10696TIP3    H232032   3.981   3.869   4.565
10697TIP3   OH232033   3.991   6.495   0.556
10697TIP3    H132034   3.914   6.552   0.565
10697TIP3    H232035   4.011   6.496   0.463
10698TIP3   OH232036   5.491   3.952   3.375
10698TIP3    H132037   5.546   4.012   3.425
10698TIP3    H232038   5.416   3.934   3.431
10699TIP3   OH232039   8.151   5.298   2.975
10699TIP3    H132040   8.189   5.327   3.059
10699TIP3    H232041   8.108   5.215   2.996
10700TIP3   OH232042   6.417   6.161   1.017
10700TIP3    H132043   6.398   6.155   1.110
10700TIP3    H232044   6.485   6.095   1.002
10701TIP3   OH232045   1.347   5.869   4.895
10701TIP3    H132046   1.324   5.962   4.886
10701TIP3    H232047   1.269   5.822   4.868
10702TIP3   OH232048   0.930   2.025   3.596
10702TIP3    H132049   0.852   1.990   3.639
10702TIP3    H232050   0.924   2.120   3.610
10703TIP3   OH232051   4.212   6.408   0.748
10703TIP3    H132052   4.137   6.435   0.695
10703TIP3    H232053   4.275   6.374   0.685
10704TIP3   OH232054   8.259   1.870   2.543
10704TIP3    H132055   8.199   1.811   2.496
10704TIP3    H232056   8.306   1.813   2.604
10705TIP3   OH232057   7.185   3.078   0.971
10705TIP3    H132058   7.168   3.131   1.049
10705TIP3    H232059   7.100   3.069   0.929
10706TIP3   OH232060   3.919   4.568   3.414
10706TIP3    H132061   3.913   4.487   3.364
10706TIP3    H232062   3.858   4.557   3.486
10707TIP3   OH232063   0.694   5.359   2.337
10707TIP3    H132064   0.774   5.351   2.389
10707TIP3    H232065   0.650   5.274   2.346
10708TIP3   OH232066   1.893   4.544   4.214
10708TIP3    H132067   1.889   4.495   4.296
10708TIP3    H232068   1.815   4.516   4.166
10709TIP3   OH232069   8.214   1.566   3.066
10709TIP3    H132070   8.307   1.570   3.084
10709TIP3    H232071   8.172   1.558   3.152
10710TIP3   OH232072   4.503   3.712   3.215
10710TIP3    H132073   4.576   3.695   3.155
10710TIP3    H232074   4.515   3.647   3.285
10711TIP3   OH232075   0.328   7.610   5.651
10711TIP3    H132076   0.260   7.570   5.705
10711TIP3    H232077   0.302   7.591   5.561
10712TIP3   OH232078   2.472   4.390   4.164
10712TIP3    H132079   2.492   4.388   4.257
10712TIP3    H232080   2.376   4.387   4.160
10713TIP3   OH232081   4.753   6.746   3.903
10713TIP3    H132082   4.760   6.681   3.833
10713TIP3    H232083   4.826   6.727   3.961
10714TIP3   OH232084   4.219   6.040   3.207
10714TIP3    H132085   4.186   6.111   3.152
10714TIP3    H232086   4.310   6.029   3.178
10715TIP3   OH232087   0.974   7.470   1.857
10715TIP3    H132088   0.957   7.564   1.860
10715TIP3    H232089   1.067   7.464   1.837
10716TIP3   OH232090   0.362   2.164   3.588
10716TIP3    H132091   0.280   2.214   3.586
10716TIP3    H232092   0.371   2.137   3.679
10717TIP3   OH232093   6.992   6.825   3.256
10717TIP3    H132094   7.008   6.885   3.183
10717TIP3    H232095   7.009   6.877   3.334
10718TIP3   OH232096   2.360   1.342   2.589
10718TIP3    H132097   2.270   1.323   2.563
10718TIP3    H232098   2.361   1.330   2.684
10719TIP3   OH232099   5.088   5.945   6.134
10719TIP3    H132100   5.022   5.927   6.067
10719TIP3    H232101   5.056   5.902   6.212
10720TIP3   OH232102   6.051   5.599   1.530
10720TIP3    H132103   6.137   5.628   1.500
10720TIP3    H232104   5.989   5.634   1.465
10721TIP3   OH232105   7.094   1.947   3.970
10721TIP3    H132106   7.110   2.036   4.001
10721TIP3    H232107   7.000   1.934   3.982
10722TIP3   OH232108   0.187   1.412   6.733
10722TIP3    H132109   0.135   1.485   6.698
10722TIP3    H232110   0.180   1.343   6.667
10723TIP3   OH232111   3.304   1.941   5.163
10723TIP3    H132112   3.284   1.914   5.074
10723TIP3    H232113   3.386   1.990   5.156
10724TIP3   OH232114   5.182   2.615   3.176
10724TIP3    H132115   5.175   2.619   3.081
10724TIP3    H232116   5.273   2.587   3.192
10725TIP3   OH232117   6.196   3.155   0.213
10725TIP3    H132118   6.155   3.204   0.141
10725TIP3    H232119   6.271   3.111   0.173
10726TIP3   OH232120   2.272   4.307   5.878
10726TIP3    H132121   2.276   4.228   5.823
10726TIP3    H232122   2.213   4.366   5.831
10727TIP3   OH232123   6.534   3.623   6.635
10727TIP3    H132124   6.536   3.534   6.599
10727TIP3    H232125   6.518   3.611   6.728
10728TIP3   OH232126   2.508   4.881   3.430
10728TIP3    H132127   2.583   4.911   3.377
10728TIP3    H232128   2.507   4.940   3.505
10729TIP3   OH232129   5.186   2.512   1.614
10729TIP3    H132130   5.227   2.524   1.699
10729TIP3    H232131   5.093   2.529   1.630
10730TIP3   OH232132   7.354   3.938   2.243
10730TIP3    H132133   7.273   3.926   2.193
10730TIP3    H232134   7.413   3.870   2.211
10731TIP3   OH232135   3.888   7.008   2.138
10731TIP3    H132136   3.940   7.025   2.216
10731TIP3    H232137   3.831   6.934   2.162
10732TIP3   OH232138   6.657   0.366   2.378
10732TIP3    H132139   6.680   0.442   2.325
10732TIP3    H232140   6.567   0.383   2.406
10733TIP3   OH232141   2.422   2.404   2.485
10733TIP3    H132142   2.413   2.433   2.394
10733TIP3    H232143   2.464   2.318   2.478
10734TIP3   OH232144   1.068   1.288   5.989
10734TIP3    H132145   0.990   1.266   5.939
10734TIP3    H232146   1.035   1.322   6.072
10735TIP3   OH232147   0.428   4.863   0.633
10735TIP3    H132148   0.480   4.782   0.629
10735TIP3    H232149   0.341   4.834   0.659
10736TIP3   OH232150   7.472   7.804   5.764
10736TIP3    H132151   7.505   7.813   5.675
10736TIP3    H232152   7.466   7.709   5.778
10737TIP3   OH232153   2.476   0.412   3.056
10737TIP3    H132154   2.496   0.387   2.966
10737TIP3    H232155   2.546   0.473   3.080
10738TIP3   OH232156   8.046   4.224   1.142
10738TIP3    H132157   7.996   4.188   1.069
10738TIP3    H232158   7.981   4.241   1.210
10739TIP3   OH232159   2.426   5.770   2.034
10739TIP3    H132160   2.474   5.849   2.007
10739TIP3    H232161   2.493   5.702   2.039
10740TIP3   OH232162   4.734   5.056   3.780
10740TIP3    H132163   4.808   5.082   3.726
10740TIP3    H232164   4.774   5.014   3.857
10741TIP3   OH232165   5.384   3.619   1.217
10741TIP3    H132166   5.308   3.622   1.160
10741TIP3    H232167   5.384   3.531   1.254
10742TIP3   OH232168   2.261   6.454   0.656
10742TIP3    H132169   2.168   6.429   0.662
10742TIP3    H232170   2.289   6.464   0.747
10743TIP3   OH232171   1.026   0.129   2.203
10743TIP3    H132172   0.978   0.084   2.133
10743TIP3    H232173   1.032   0.063   2.273
10744TIP3   OH232174   1.396   3.153   5.487
10744TIP3    H132175   1.373   3.228   5.542
10744TIP3    H232176   1.346   3.080   5.524
10745TIP3   OH232177   6.908   2.589   2.250
10745TIP3    H132178   6.897   2.660   2.187
10745TIP3    H232179   6.883   2.510   2.202
10746TIP3   OH232180   1.598   0.987   5.443
10746TIP3    H132181   1.669   1.029   5.492
10746TIP3    H232182   1.518   1.023   5.481
10747TIP3   OH232183   0.207   1.286   3.538
10747TIP3    H132184   0.143   1.356   3.555
10747TIP3    H232185   0.179   1.214   3.595
10748TIP3   OH232186   2.603   5.991   4.879
10748TIP3    H132187   2.532   6.055   4.881
10748TIP3    H232188   2.668   6.025   4.941
10749TIP3   OH232189   5.884   5.819   2.606
10749TIP3    H132190   5.851   5.738   2.569
10749TIP3    H232191   5.903   5.798   2.698
10750TIP3   OH232192   7.301   1.346   0.725
10750TIP3    H132193   7.252   1.394   0.659
10750TIP3    H232194   7.271   1.382   0.808
10751TIP3   OH232195   1.765   6.670   5.686
10751TIP3    H132196   1.831   6.707   5.744
10751TIP3    H232197   1.683   6.679   5.734
10752TIP3   OH232198   1.954   3.808   3.871
10752TIP3    H132199   1.939   3.731   3.816
10752TIP3    H232200   1.985   3.875   3.810
10753TIP3   OH232201   6.467   5.701   3.608
10753TIP3    H132202   6.460   5.634   3.540
10753TIP3    H232203   6.383   5.746   3.607
10754TIP3   OH232204   6.119   4.232   5.345
10754TIP3    H132205   6.210   4.253   5.368
10754TIP3    H232206   6.106   4.273   5.260
10755TIP3   OH232207   7.472   4.728   4.256
10755TIP3    H132208   7.424   4.764   4.181
10755TIP3    H232209   7.435   4.640   4.268
10756TIP3   OH232210   7.239   4.430   0.058
10756TIP3    H132211   7.152   4.425   0.020
10756TIP3    H232212   7.233   4.376   0.138
10757TIP3   OH232213   5.727   7.332   1.396
10757TIP3    H132214   5.716   7.270   1.324
10757TIP3    H232215   5.746   7.278   1.472
10758TIP3   OH232216   3.735   2.705   0.357
10758TIP3    H132217   3.785   2.695   0.276
10758TIP3    H232218   3.703   2.617   0.376
10759TIP3   OH232219   7.753   4.193   2.192
10759TIP3    H132220   7.829   4.135   2.194
10759TIP3    H232221   7.691   4.152   2.253
10760TIP3   OH232222   1.605   3.146   2.612
10760TIP3    H132223   1.528   3.154   2.669
10760TIP3    H232224   1.679   3.160   2.671
10761TIP3   OH232225   2.138   2.354   4.711
10761TIP3    H132226   2.075   2.295   4.669
10761TIP3    H232227   2.085   2.415   4.762
10762TIP3   OH232228   4.080   5.099   6.746
10762TIP3    H132229   4.147   5.059   6.801
10762TIP3    H232230   4.104   5.073   6.657
10763TIP3   OH232231   0.126   1.275   6.335
10763TIP3    H132232   0.135   1.371   6.333
10763TIP3    H232233   0.200   1.243   6.284
10764TIP3   OH232234   0.303   0.815   2.656
10764TIP3    H132235   0.395   0.795   2.676
10764TIP3    H232236   0.304   0.837   2.562
10765TIP3   OH232237   2.805   1.512   2.315
10765TIP3    H132238   2.761   1.587   2.275
10765TIP3    H232239   2.882   1.549   2.357
10766TIP3   OH232240   7.237   5.372   6.720
10766TIP3    H132241   7.193   5.454   6.743
10766TIP3    H232242   7.255   5.379   6.626
10767TIP3   OH232243   5.468   6.060   1.948
10767TIP3    H132244   5.417   6.110   1.884
10767TIP3    H232245   5.557   6.091   1.936
10768TIP3   OH232246   5.680   5.642   5.104
10768TIP3    H132247   5.765   5.654   5.062
10768TIP3    H232248   5.666   5.723   5.153
10769TIP3   OH232249   7.300   1.337   6.012
10769TIP3    H132250   7.336   1.344   5.923
10769TIP3    H232251   7.347   1.403   6.062
10770TIP3   OH232252   7.655   6.980   4.900
10770TIP3    H132253   7.704   6.952   4.823
10770TIP3    H232254   7.607   6.902   4.927
10771TIP3   OH232255   2.411   3.823   5.324
10771TIP3    H132256   2.417   3.750   5.386
10771TIP3    H232257   2.493   3.871   5.335
10772TIP3   OH232258   1.727   0.451   6.427
10772TIP3    H132259   1.728   0.526   6.368
10772TIP3    H232260   1.641   0.456   6.470
10773TIP3   OH232261   4.753   3.409   1.759
10773TIP3    H132262   4.753   3.324   1.803
10773TIP3    H232263   4.786   3.390   1.671
10774TIP3   OH232264   7.504   1.645   4.907
10774TIP3    H132265   7.528   1.596   4.985
10774TIP3    H232266   7.436   1.705   4.936
10775TIP3   OH232267   6.107   5.912   6.097
10775TIP3    H132268   6.082   5.908   6.189
10775TIP3    H232269   6.161   5.834   6.082
10776TIP3   OH232270   3.098   2.001   2.587
10776TIP3    H132271   3.160   2.048   2.642
10776TIP3    H232272   3.109   1.909   2.611
10777TIP3   OH232273   2.887   7.405   1.001
10777TIP3    H132274   2.885   7.310   0.989
10777TIP3    H232275   2.797   7.433   0.989
10778TIP3   OH232276   0.293   1.010   3.191
10778TIP3    H132277   0.215   0.955   3.196
10778TIP3    H232278   0.324   1.016   3.281
10779TIP3   OH232279   1.157   2.133   0.268
10779TIP3    H132280   1.088   2.124   0.203
10779TIP3    H232281   1.125   2.086   0.345
10780TIP3   OH232282   3.107   2.330   4.232
10780TIP3    H132283   3.142   2.259   4.287
10780TIP3    H232284   3.037   2.369   4.285
10781TIP3   OH232285   7.853   3.594   4.493
10781TIP3    H132286   7.815   3.654   4.557
10781TIP3    H232287   7.946   3.593   4.514
10782TIP3   OH232288   3.235   2.064   0.898
10782TIP3    H132289   3.228   2.037   0.807
10782TIP3    H232290   3.235   1.981   0.947
10783TIP3   OH232291   4.680   6.236   1.218
10783TIP3    H132292   4.622   6.309   1.239
10783TIP3    H232293   4.727   6.266   1.140
10784TIP3   OH232294   0.733   0.507   0.306
10784TIP3    H132295   0.645   0.546   0.300
10784TIP3    H232296   0.725   0.440   0.374
10785TIP3   OH232297   5.179   4.807   2.295
10785TIP3    H132298   5.105   4.830   2.350
10785TIP3    H232299   5.162   4.717   2.267
10786TIP3   OH232300   0.668   2.313   6.763
10786TIP3    H132301   0.596   2.356   6.717
10786TIP3    H232302   0.660   2.221   6.739
10787TIP3   OH232303   2.013   1.854   4.481
10787TIP3    H132304   2.083   1.876   4.419
10787TIP3    H232305   2.033   1.765   4.508
10788TIP3   OH232306   7.083   3.489   2.597
10788TIP3    H132307   7.138   3.528   2.528
10788TIP3    H232308   7.083   3.554   2.667
10789TIP3   OH232309   4.122   4.973   5.528
10789TIP3    H132310   4.050   4.993   5.468
10789TIP3    H232311   4.081   4.966   5.614
10790TIP3   OH232312   7.499   2.672   3.740
10790TIP3    H132313   7.487   2.644   3.831
10790TIP3    H232314   7.524   2.592   3.694
10791TIP3   OH232315   1.350   2.354   3.029
10791TIP3    H132316   1.353   2.300   3.107
10791TIP3    H232317   1.441   2.377   3.012
10792TIP3   OH232318   0.637   0.875   0.575
10792TIP3    H132319   0.672   0.790   0.604
10792TIP3    H232320   0.714   0.928   0.557
10793TIP3   OH232321   5.535   5.367   0.271
10793TIP3    H132322   5.517   5.384   0.364
10793TIP3    H232323   5.612   5.311   0.271
10794TIP3   OH232324   4.765   0.007   6.103
10794TIP3    H132325   4.829   0.019   6.032
10794TIP3    H232326   4.771   0.087   6.155
10795TIP3   OH232327   4.741   6.837   2.774
10795TIP3    H132328   4.770   6.797   2.692
10795TIP3    H232329   4.795   6.915   2.783
10796TIP3   OH232330   2.098   7.256   5.973
10796TIP3    H132331   2.170   7.308   5.936
10796TIP3    H232332   2.130   7.165   5.969
10797TIP3   OH232333   3.203   5.621   3.234
10797TIP3    H132334   3.117   5.580   3.227
10797TIP3    H232335   3.259   5.568   3.176
10798TIP3   OH232336   3.027   6.240   5.784
10798TIP3    H132337   2.960   6.230   5.717
10798TIP3    H232338   2.980   6.235   5.867
10799TIP3   OH232339   2.735   3.608   0.600
10799TIP3    H132340   2.659   3.551   0.608
10799TIP3    H232341   2.810   3.548   0.597
10800TIP3   OH232342   1.175   5.245   2.051
10800TIP3    H132343   1.085   5.278   2.054
10800TIP3    H232344   1.208   5.256   2.140
10801TIP3   OH232345   4.599   6.508   2.721
10801TIP3    H132346   4.543   6.535   2.648
10801TIP3    H232347   4.613   6.588   2.771
10802TIP3   OH232348   4.922   7.643   6.080
10802TIP3    H132349   4.917   7.587   6.157
10802TIP3    H232350   4.870   7.720   6.103
10803TIP3   OH232351   5.092   3.489   6.364
10803TIP3    H132352   5.027   3.526   6.424
10803TIP3    H232353   5.079   3.537   6.282
10804TIP3   OH232354   3.603   5.543   0.733
10804TIP3    H132355   3.673   5.525   0.670
10804TIP3    H232356   3.568   5.457   0.755
10805TIP3   OH232357   5.598   3.029   6.755
10805TIP3    H132358   5.502   3.037   6.752
10805TIP3    H232359   5.616   2.946   6.712
10806TIP3   OH232360   4.391   5.056   0.149
10806TIP3    H132361   4.311   5.092   0.188
10806TIP3    H232362   4.460   5.116   0.178
10807TIP3   OH232363   0.260   7.433   5.407
10807TIP3    H132364   0.346   7.392   5.398
10807TIP3    H232365   0.213   7.377   5.468
10808TIP3   OH232366   6.338   3.738   5.837
10808TIP3    H132367   6.248   3.727   5.807
10808TIP3    H232368   6.343   3.689   5.919
10809TIP3   OH232369   1.998   5.444   3.065
10809TIP3    H132370   1.986   5.365   3.012
10809TIP3    H232371   1.943   5.430   3.142
10810TIP3   OH232372   3.565   6.242   4.358
10810TIP3    H132373   3.500   6.211   4.295
10810TIP3    H232374   3.570   6.173   4.423
10811TIP3   OH232375   6.151   5.314   4.587
10811TIP3    H132376   6.239   5.352   4.589
10811TIP3    H232377   6.124   5.320   4.496
10812TIP3   OH232378   6.480   1.579   0.933
10812TIP3    H132379   6.467   1.600   1.025
10812TIP3    H232380   6.556   1.520   0.932
10813TIP3   OH232381   3.952   6.022   0.690
10813TIP3    H132382   3.949   6.072   0.772
10813TIP3    H232383   4.007   6.074   0.632
10814TIP3   OH232384   4.061   4.514   4.823
10814TIP3    H132385   3.996   4.478   4.763
10814TIP3    H232386   4.120   4.441   4.842
10815TIP3   OH232387   2.027   6.265   2.676
10815TIP3    H132388   1.931   6.261   2.673
10815TIP3    H232389   2.048   6.343   2.625
10816TIP3   OH232390   0.634   0.217   1.151
10816TIP3    H132391   0.692   0.294   1.149
10816TIP3    H232392   0.688   0.146   1.118
10817TIP3   OH232393   4.128   1.941   4.215
10817TIP3    H132394   4.071   1.958   4.140
10817TIP3    H232395   4.078   1.971   4.291
10818TIP3   OH232396   0.590   2.877   5.788
10818TIP3    H132397   0.536   2.812   5.833
10818TIP3    H232398   0.575   2.958   5.835
10819TIP3   OH232399   6.501   6.524   0.604
10819TIP3    H132400   6.586   6.559   0.578
10819TIP3    H232401   6.505   6.432   0.577
10820TIP3   OH232402   7.793   1.772   1.556
10820TIP3    H132403   7.721   1.734   1.605
10820TIP3    H232404   7.847   1.698   1.530
10821TIP3   OH232405   1.552   3.155   6.224
10821TIP3    H132406   1.594   3.221   6.169
10821TIP3    H232407   1.559   3.074   6.173
10822TIP3   OH232408   0.941   6.602   6.292
10822TIP3    H132409   1.022   6.630   6.334
10822TIP3    H232410   0.906   6.682   6.251
10823TIP3   OH232411   5.392   6.451   4.110
10823TIP3    H132412   5.389   6.401   4.028
10823TIP3    H232413   5.307   6.433   4.152
10824TIP3   OH232414   0.467   4.465   5.221
10824TIP3    H132415   0.388   4.518   5.211
10824TIP3    H232416   0.471   4.412   5.141
10825TIP3   OH232417   3.375   5.457   5.429
10825TIP3    H132418   3.308   5.437   5.494
10825TIP3    H232419   3.426   5.529   5.468
10826TIP3   OH232420   7.044   3.219   0.029
10826TIP3    H132421   7.016   3.150   0.090
10826TIP3    H232422   7.126   3.186  -0.008
10827TIP3   OH232423   7.830   1.035   3.781
10827TIP3    H132424   7.910   1.086   3.776
10827TIP3    H232425   7.787   1.049   3.696
10828TIP3   OH232426   7.300   6.734   3.299
10828TIP3    H132427   7.235   6.709   3.365
10828TIP3    H232428   7.255   6.801   3.246
10829TIP3   OH232429   1.300   5.219   5.805
10829TIP3    H132430   1.233   5.197   5.870
10829TIP3    H232431   1.320   5.311   5.821
10830TIP3   OH232432   6.486   3.352   5.686
10830TIP3    H132433   6.492   3.272   5.633
10830TIP3    H232434   6.392   3.373   5.686
10831TIP3   OH232435   7.291   2.664   5.369
10831TIP3    H132436   7.305   2.573   5.342
10831TIP3    H232437   7.231   2.699   5.303
10832TIP3   OH232438   6.718   5.066   1.967
10832TIP3    H132439   6.778   5.005   2.011
10832TIP3    H232440   6.691   5.019   1.888
10833TIP3   OH232441   2.534   1.012   2.075
10833TIP3    H132442   2.596   1.052   2.137
10833TIP3    H232443   2.494   1.087   2.031
10834TIP3   OH232444   6.139   0.870   2.594
10834TIP3    H132445   6.071   0.810   2.564
10834TIP3    H232446   6.203   0.871   2.522
10835TIP3   OH232447   5.012   0.731   0.552
10835TIP3    H132448   5.043   0.685   0.630
10835TIP3    H232449   4.987   0.818   0.583
10836TIP3   OH232450   4.373   1.490   3.034
10836TIP3    H132451   4.338   1.448   3.112
10836TIP3    H232452   4.296   1.514   2.983
10837TIP3   OH232453   1.038   6.668   4.503
10837TIP3    H132454   1.119   6.632   4.540
10837TIP3    H232455   0.972   6.656   4.572
10838TIP3   OH232456   3.103   3.768   1.314
10838TIP3    H132457   3.096   3.822   1.393
10838TIP3    H232458   3.127   3.681   1.347
10839TIP3   OH232459   8.220   7.307   5.773
10839TIP3    H132460   8.190   7.325   5.684
10839TIP3    H232461   8.241   7.393   5.809
10840TIP3   OH232462   1.209   3.438   6.503
10840TIP3    H132463   1.222   3.525   6.466
10840TIP3    H232464   1.205   3.453   6.598
10841TIP3   OH232465   1.849   7.230   3.846
10841TIP3    H132466   1.765   7.250   3.887
10841TIP3    H232467   1.853   7.288   3.770
10842TIP3   OH232468   6.819   0.521   4.435
10842TIP3    H132469   6.733   0.563   4.439
10842TIP3    H232470   6.801   0.428   4.442
10843TIP3   OH232471   2.346   3.291   5.274
10843TIP3    H132472   2.382   3.351   5.209
10843TIP3    H232473   2.408   3.293   5.346
10844TIP3   OH232474   0.283   3.324   0.654
10844TIP3    H132475   0.375   3.309   0.629
10844TIP3    H232476   0.288   3.351   0.746
10845TIP3   OH232477   4.602   0.408   5.987
10845TIP3    H132478   4.540   0.409   5.914
10845TIP3    H232479   4.686   0.386   5.947
10846TIP3   OH232480   7.067   6.137   5.988
10846TIP3    H132481   7.053   6.129   6.082
10846TIP3    H232482   7.158   6.167   5.980
10847TIP3   OH232483   5.985   3.592   0.395
10847TIP3    H132484   5.934   3.666   0.430
10847TIP3    H232485   6.036   3.630   0.324
10848TIP3   OH232486   4.689   2.098   5.471
10848TIP3    H132487   4.695   2.005   5.453
10848TIP3    H232488   4.595   2.117   5.473
10849TIP3   OH232489   2.709   7.505   4.113
10849TIP3    H132490   2.768   7.577   4.136
10849TIP3    H232491   2.684   7.467   4.197
10850TIP3   OH232492   7.921   4.162   3.616
10850TIP3    H132493   8.010   4.180   3.585
10850TIP3    H232494   7.875   4.130   3.538
10851TIP3   OH232495   1.978   2.176   3.506
10851TIP3    H132496   2.021   2.258   3.529
10851TIP3    H232497   2.000   2.116   3.577
10852TIP3   OH232498   1.440   3.151   2.885
10852TIP3    H132499   1.512   3.088   2.893
10852TIP3    H232500   1.361   3.099   2.902
10853TIP3   OH232501   1.304   3.749   0.971
10853TIP3    H132502   1.254   3.745   0.890
10853TIP3    H232503   1.296   3.840   1.000
10854TIP3   OH232504   0.517   5.746   0.763
10854TIP3    H132505   0.555   5.686   0.699
10854TIP3    H232506   0.426   5.719   0.770
10855TIP3   OH232507   3.677   5.192   0.548
10855TIP3    H132508   3.731   5.119   0.517
10855TIP3    H232509   3.587   5.162   0.536
10856TIP3   OH232510   7.830   7.072   0.463
10856TIP3    H132511   7.849   7.064   0.370
10856TIP3    H232512   7.772   6.998   0.482
10857TIP3   OH232513   6.238   6.904   5.984
10857TIP3    H132514   6.311   6.941   5.936
10857TIP3    H232515   6.226   6.817   5.946
10858TIP3   OH232516   7.673   0.439   6.543
10858TIP3    H132517   7.767   0.446   6.532
10858TIP3    H232518   7.656   0.345   6.551
10859TIP3   OH232519   3.788   3.815   5.396
10859TIP3    H132520   3.734   3.894   5.389
10859TIP3    H232521   3.819   3.816   5.487
10860TIP3   OH232522   5.933   1.134   3.081
10860TIP3    H132523   5.965   1.047   3.060
10860TIP3    H232524   6.007   1.177   3.124
10861TIP3   OH232525   5.337   1.658   5.399
10861TIP3    H132526   5.384   1.706   5.330
10861TIP3    H232527   5.245   1.660   5.370
10862TIP3   OH232528   4.453   2.304   4.865
10862TIP3    H132529   4.537   2.259   4.854
10862TIP3    H232530   4.401   2.276   4.789
10863TIP3   OH232531   6.641   5.107   1.284
10863TIP3    H132532   6.690   5.056   1.220
10863TIP3    H232533   6.552   5.073   1.280
10864TIP3   OH232534   4.135   6.256   1.455
10864TIP3    H132535   4.052   6.299   1.432
10864TIP3    H232536   4.196   6.328   1.469
10865TIP3   OH232537   1.391   3.354   4.818
10865TIP3    H132538   1.481   3.359   4.788
10865TIP3    H232539   1.397   3.341   4.913
10866TIP3   OH232540   0.762   4.849   5.461
10866TIP3    H132541   0.819   4.896   5.401
10866TIP3    H232542   0.711   4.790   5.405
10867TIP3   OH232543   2.174   5.050   3.425
10867TIP3    H132544   2.234   4.997   3.372
10867TIP3    H232545   2.216   5.135   3.432
10868TIP3   OH232546   5.940   7.726   0.915
10868TIP3    H132547   5.854   7.761   0.894
10868TIP3    H232548   5.922   7.639   0.951
10869TIP3   OH232549   4.745   5.709   5.184
10869TIP3    H132550   4.818   5.688   5.126
10869TIP3    H232551   4.667   5.681   5.136
10870TIP3   OH232552   6.029   6.581   4.953
10870TIP3    H132553   6.034   6.486   4.964
10870TIP3    H232554   5.972   6.611   5.024
10871TIP3   OH232555   1.373   2.949   0.812
10871TIP3    H132556   1.302   3.011   0.792
10871TIP3    H232557   1.453   2.998   0.793
10872TIP3   OH232558   1.093   1.831   3.612
10872TIP3    H132559   1.027   1.900   3.614
10872TIP3    H232560   1.110   1.817   3.519
10873TIP3   OH232561   7.046   6.936   2.511
10873TIP3    H132562   6.965   6.978   2.539
10873TIP3    H232563   7.108   7.009   2.502
10874TIP3   OH232564   2.321   4.990   4.438
10874TIP3    H132565   2.239   4.987   4.488
10874TIP3    H232566   2.306   5.058   4.373
10875TIP3   OH232567   1.429   7.710   4.323
10875TIP3    H132568   1.406   7.710   4.416
10875TIP3    H232569   1.515   7.668   4.320
10876TIP3   OH232570   5.485   5.123   0.679
10876TIP3    H132571   5.492   5.086   0.767
10876TIP3    H232572   5.551   5.192   0.677
10877TIP3   OH232573   8.180   1.519   4.026
10877TIP3    H132574   8.145   1.585   3.965
10877TIP3    H232575   8.112   1.510   4.092
10878TIP3   OH232576   4.825   5.815   2.137
10878TIP3    H132577   4.770   5.856   2.070
10878TIP3    H232578   4.840   5.726   2.105
10879TIP3   OH232579   5.471   5.888   6.023
10879TIP3    H132580   5.488   5.980   6.002
10879TIP3    H232581   5.540   5.840   5.977
10880TIP3   OH232582   3.974   1.996   6.458
10880TIP3    H132583   3.944   1.957   6.540
10880TIP3    H232584   4.059   1.954   6.441
10881TIP3   OH232585   4.735   0.241   6.211
10881TIP3    H132586   4.679   0.269   6.284
10881TIP3    H232587   4.698   0.285   6.134
10882TIP3   OH232588   3.441   0.135   3.483
10882TIP3    H132589   3.462   0.046   3.456
10882TIP3    H232590   3.467   0.140   3.575
10883TIP3   OH232591   0.247   6.749   0.929
10883TIP3    H132592   0.234   6.828   0.980
10883TIP3    H232593   0.175   6.749   0.866
10884TIP3   OH232594   2.065   1.348   1.527
10884TIP3    H132595   2.053   1.298   1.607
10884TIP3    H232596   1.995   1.320   1.469
10885TIP3   OH232597   1.341   7.156   1.836
10885TIP3    H132598   1.313   7.068   1.859
10885TIP3    H232599   1.430   7.146   1.803
10886TIP3   OH232600   1.587   1.426   0.519
10886TIP3    H132601   1.578   1.351   0.460
10886TIP3    H232602   1.563   1.393   0.605
10887TIP3   OH232603   5.741   2.880   0.965
10887TIP3    H132604   5.791   2.800   0.946
10887TIP3    H232605   5.670   2.851   1.023
10888TIP3   OH232606   1.111   5.489   5.415
10888TIP3    H132607   1.154   5.524   5.494
10888TIP3    H232608   1.184   5.470   5.355
10889TIP3   OH232609   1.382   2.644   1.408
10889TIP3    H132610   1.377   2.553   1.436
10889TIP3    H232611   1.308   2.687   1.451
10890TIP3   OH232612   5.191   4.883   3.011
10890TIP3    H132613   5.176   4.974   2.986
10890TIP3    H232614   5.125   4.833   2.964
10891TIP3   OH232615   2.294   6.687   5.202
10891TIP3    H132616   2.312   6.780   5.195
10891TIP3    H232617   2.226   6.671   5.137
10892TIP3   OH232618   2.261   1.311   5.221
10892TIP3    H132619   2.256   1.241   5.285
10892TIP3    H232620   2.316   1.276   5.151
10893TIP3   OH232621   3.385   3.212   4.865
10893TIP3    H132622   3.427   3.218   4.951
10893TIP3    H232623   3.394   3.300   4.828
10894TIP3   OH232624   3.733   5.667   4.884
10894TIP3    H132625   3.783   5.586   4.893
10894TIP3    H232626   3.799   5.736   4.881
10895TIP3   OH232627   0.033   1.097   3.224
10895TIP3    H132628   0.126   1.106   3.241
10895TIP3    H232629   0.014   1.163   3.157
10896TIP3   OH232630   5.656   1.549   1.731
10896TIP3    H132631   5.704   1.467   1.719
10896TIP3    H232632   5.663   1.593   1.646
10897TIP3   OH232633   2.242   4.022   4.187
10897TIP3    H132634   2.308   3.979   4.241
10897TIP3    H232635   2.233   3.965   4.110
10898TIP3   OH232636   2.120   3.415   3.628
10898TIP3    H132637   2.112   3.433   3.721
10898TIP3    H232638   2.032   3.429   3.592
10899TIP3   OH232639   2.510   6.235   3.220
10899TIP3    H132640   2.465   6.306   3.265
10899TIP3    H232641   2.445   6.165   3.216
10900TIP3   OH232642   6.056   0.958   2.910
10900TIP3    H132643   6.035   0.879   2.861
10900TIP3    H232644   6.075   1.024   2.844
10901TIP3   OH232645   0.048   2.459   3.441
10901TIP3    H132646   0.082   2.402   3.372
10901TIP3    H232647   0.001   2.528   3.394
10902TIP3   OH232648   2.815   0.229   6.674
10902TIP3    H132649   2.892   0.177   6.651
10902TIP3    H232650   2.742   0.167   6.668
10903TIP3   OH232651   1.362  -0.012   5.310
10903TIP3    H132652   1.366   0.066   5.365
10903TIP3    H232653   1.286   0.001   5.253
10904TIP3   OH232654   4.815   2.170   0.297
10904TIP3    H132655   4.806   2.186   0.203
10904TIP3    H232656   4.850   2.081   0.303
10905TIP3   OH232657   1.401   0.906   0.976
10905TIP3    H132658   1.320   0.854   0.981
10905TIP3    H232659   1.413   0.939   1.065
10906TIP3   OH232660   1.833   0.596   4.800
10906TIP3    H132661   1.777   0.547   4.861
10906TIP3    H232662   1.800   0.572   4.714
10907TIP3   OH232663   5.986   4.147   6.309
10907TIP3    H132664   6.022   4.236   6.304
10907TIP3    H232665   6.037   4.104   6.376
10908TIP3   OH232666   6.145   4.845   1.119
10908TIP3    H132667   6.126   4.781   1.187
10908TIP3    H232668   6.175   4.793   1.044
10909TIP3   OH232669   4.729   5.710   6.458
10909TIP3    H132670   4.744   5.677   6.546
10909TIP3    H232671   4.654   5.660   6.425
10910TIP3   OH232672   6.137   5.112   4.755
10910TIP3    H132673   6.052   5.097   4.714
10910TIP3    H232674   6.173   5.187   4.709
10911TIP3   OH232675   5.987   1.579   0.539
10911TIP3    H132676   5.976   1.513   0.607
10911TIP3    H232677   6.027   1.532   0.466
10912TIP3   OH232678   4.239   5.692   5.571
10912TIP3    H132679   4.244   5.720   5.479
10912TIP3    H232680   4.249   5.597   5.567
10913TIP3   OH232681   7.480   4.624   5.638
10913TIP3    H132682   7.492   4.716   5.663
10913TIP3    H232683   7.385   4.612   5.634
10914TIP3   OH232684   3.830   6.358   2.355
10914TIP3    H132685   3.903   6.326   2.408
10914TIP3    H232686   3.865   6.360   2.266
10915TIP3   OH232687   3.322   0.191   6.598
10915TIP3    H132688   3.250   0.254   6.599
10915TIP3    H232689   3.321   0.153   6.686
10916TIP3   OH232690   0.560   2.918   2.872
10916TIP3    H132691   0.622   2.855   2.907
10916TIP3    H232692   0.491   2.864   2.833
10917TIP3   OH232693   2.677   5.215   1.001
10917TIP3    H132694   2.766   5.190   1.027
10917TIP3    H232695   2.620   5.154   1.049
10918TIP3   OH232696   7.907   5.124   5.964
10918TIP3    H132697   7.970   5.182   6.005
10918TIP3    H232698   7.893   5.161   5.877
10919TIP3   OH232699   6.967   1.754   0.753
10919TIP3    H132700   6.985   1.770   0.660
10919TIP3    H232701   6.896   1.690   0.753
10920TIP3   OH232702   5.978   7.574   3.053
10920TIP3    H132703   5.894   7.538   3.024
10920TIP3    H232704   6.038   7.554   2.981
10921TIP3   OH232705   7.088   2.152   1.074
10921TIP3    H132706   7.023   2.083   1.061
10921TIP3    H232707   7.038   2.227   1.105
10922TIP3   OH232708   4.311   3.773   0.560
10922TIP3    H132709   4.372   3.814   0.498
10922TIP3    H232710   4.273   3.847   0.608
10923TIP3   OH232711   4.206   5.568   2.681
10923TIP3    H132712   4.218   5.573   2.776
10923TIP3    H232713   4.166   5.483   2.666
10924TIP3   OH232714   1.680   1.112   0.486
10924TIP3    H132715   1.619   1.038   0.483
10924TIP3    H232716   1.762   1.074   0.515
10925TIP3   OH232717   4.016   0.740   3.755
10925TIP3    H132718   4.022   0.654   3.797
10925TIP3    H232719   3.922   0.760   3.753
10926TIP3   OH232720   0.690   7.046   0.627
10926TIP3    H132721   0.663   6.957   0.602
10926TIP3    H232722   0.785   7.040   0.636
10927TIP3   OH232723   2.317   7.375   4.294
10927TIP3    H132724   2.320   7.436   4.220
10927TIP3    H232725   2.408   7.368   4.322
10928TIP3   OH232726   2.486   2.367   0.700
10928TIP3    H132727   2.513   2.280   0.671
10928TIP3    H232728   2.531   2.427   0.640
10929TIP3   OH232729   3.526   3.267   1.279
10929TIP3    H132730   3.597   3.309   1.327
10929TIP3    H232731   3.482   3.212   1.344
10930TIP3   OH232732   2.643   6.314   6.287
10930TIP3    H132733   2.596   6.367   6.351
10930TIP3    H232734   2.641   6.225   6.323
10931TIP3   OH232735   5.713   0.162   4.282
10931TIP3    H132736   5.747   0.252   4.282
10931TIP3    H232737   5.780   0.111   4.327
10932TIP3   OH232738   3.606   5.227   5.166
10932TIP3    H132739   3.513   5.240   5.185
10932TIP3    H232740   3.637   5.313   5.138
10933TIP3   OH232741   5.922   7.737   5.890
10933TIP3    H132742   6.016   7.729   5.871
10933TIP3    H232743   5.891   7.647   5.893
10934TIP3   OH232744   7.486   2.561   3.995
10934TIP3    H132745   7.430   2.504   3.941
10934TIP3    H232746   7.442   2.564   4.080
10935TIP3   OH232747   7.542   5.911   5.514
10935TIP3    H132748   7.604   5.914   5.587
10935TIP3    H232749   7.468   5.963   5.543
10936TIP3   OH232750   6.404   1.945   3.525
10936TIP3    H132751   6.311   1.942   3.500
10936TIP3    H232752   6.406   1.905   3.612
10937TIP3   OH232753   8.117   2.983   1.722
10937TIP3    H132754   8.119   3.070   1.684
10937TIP3    H232755   8.100   2.924   1.648
10938TIP3   OH232756   0.445   5.035   0.890
10938TIP3    H132757   0.499   4.957   0.902
10938TIP3    H232758   0.491   5.086   0.823
10939TIP3   OH232759   4.282   2.511   0.267
10939TIP3    H132760   4.189   2.498   0.250
10939TIP3    H232761   4.286   2.593   0.317
10940TIP3   OH232762   4.042   3.156   5.095
10940TIP3    H132763   4.053   3.111   5.012
10940TIP3    H232764   4.015   3.087   5.156
10941TIP3   OH232765   5.668   2.587   6.052
10941TIP3    H132766   5.601   2.634   6.102
10941TIP3    H232767   5.630   2.576   5.965
10942TIP3   OH232768   2.665   1.621   1.480
10942TIP3    H132769   2.756   1.612   1.452
10942TIP3    H232770   2.646   1.540   1.528
10943TIP3   OH232771   2.548   3.504   2.642
10943TIP3    H132772   2.507   3.583   2.605
10943TIP3    H232773   2.511   3.432   2.591
10944TIP3   OH232774   8.002   2.227   6.410
10944TIP3    H132775   8.005   2.322   6.425
10944TIP3    H232776   8.066   2.212   6.341
10945TIP3   OH232777   4.420   3.089   3.872
10945TIP3    H132778   4.391   3.039   3.796
10945TIP3    H232779   4.500   3.133   3.842
10946TIP3   OH232780   4.543   6.860   3.226
10946TIP3    H132781   4.581   6.797   3.288
10946TIP3    H232782   4.584   6.943   3.248
10947TIP3   OH232783   2.301   0.845   2.812
10947TIP3    H132784   2.348   0.869   2.892
10947TIP3    H232785   2.369   0.840   2.745
10948TIP3   OH232786   7.890   2.682   2.628
10948TIP3    H132787   7.983   2.707   2.635
10948TIP3    H232788   7.892   2.587   2.620
10949TIP3   OH232789   0.467   1.271   4.583
10949TIP3    H132790   0.519   1.340   4.624
10949TIP3    H232791   0.480   1.195   4.639
10950TIP3   OH232792   0.226   5.997   4.965
10950TIP3    H132793   0.287   6.069   4.945
10950TIP3    H232794   0.275   5.941   5.024
10951TIP3   OH232795   7.175   6.147   2.274
10951TIP3    H132796   7.191   6.116   2.363
10951TIP3    H232797   7.081   6.136   2.261
10952TIP3   OH232798   7.430   0.497   2.227
10952TIP3    H132799   7.363   0.450   2.276
10952TIP3    H232800   7.485   0.428   2.189
10953TIP3   OH232801   6.372   4.951   2.288
10953TIP3    H132802   6.396   4.981   2.200
10953TIP3    H232803   6.308   5.014   2.319
10954TIP3   OH232804   5.815   5.560   5.865
10954TIP3    H132805   5.830   5.467   5.884
10954TIP3    H232806   5.727   5.563   5.829
10955TIP3   OH232807   7.365   2.594   0.140
10955TIP3    H132808   7.305   2.628   0.073
10955TIP3    H232809   7.374   2.666   0.202
10956TIP3   OH232810   4.114   7.078   0.144
10956TIP3    H132811   4.054   7.033   0.084
10956TIP3    H232812   4.117   7.021   0.221
10957TIP3   OH232813   0.092   1.197   4.956
10957TIP3    H132814   0.113   1.143   5.032
10957TIP3    H232815   0.036   1.141   4.901
10958TIP3   OH232816   3.930   1.276   1.039
10958TIP3    H132817   3.880   1.348   1.077
10958TIP3    H232818   3.900   1.198   1.087
10959TIP3   OH232819   7.465   1.727   0.049
10959TIP3    H132820   7.464   1.808  -0.002
10959TIP3    H232821   7.425   1.662  -0.009
10960TIP3   OH232822   7.337   7.451   3.773
10960TIP3    H132823   7.324   7.437   3.867
10960TIP3    H232824   7.409   7.393   3.750
10961TIP3   OH232825   0.456   6.409   0.146
10961TIP3    H132826   0.482   6.360   0.224
10961TIP3    H232827   0.495   6.361   0.073
10962TIP3   OH232828   7.921   2.272   4.378
10962TIP3    H132829   7.864   2.332   4.427
10962TIP3    H232830   7.948   2.323   4.302
10963TIP3   OH232831   8.154   4.544   4.665
10963TIP3    H132832   8.220   4.545   4.595
10963TIP3    H232833   8.204   4.540   4.746
10964TIP3   OH232834   6.756   1.581   1.831
10964TIP3    H132835   6.825   1.647   1.820
10964TIP3    H232836   6.723   1.565   1.742
10965TIP3   OH232837   7.930   4.126   3.906
10965TIP3    H132838   7.908   4.117   3.814
10965TIP3    H232839   7.894   4.046   3.947
10966TIP3   OH232840   2.400   0.241   3.257
10966TIP3    H132841   2.420   0.298   3.182
10966TIP3    H232842   2.375   0.158   3.218
10967TIP3   OH232843   0.077   5.660   1.606
10967TIP3    H132844   0.171   5.674   1.614
10967TIP3    H232845   0.069   5.581   1.553
10968TIP3   OH232846   7.826   5.776   3.905
10968TIP3    H132847   7.842   5.775   3.999
10968TIP3    H232848   7.866   5.695   3.873
10969TIP3   OH232849   7.229   0.062   6.491
10969TIP3    H132850   7.155   0.054   6.551
10969TIP3    H232851   7.202   0.130   6.428
10970TIP3   OH232852   0.279   0.511   5.622
10970TIP3    H132853   0.347   0.448   5.642
10970TIP3    H232854   0.198   0.460   5.623
10971TIP3   OH232855   0.108   6.782   1.953
10971TIP3    H132856   0.014   6.799   1.945
10971TIP3    H232857   0.141   6.857   2.002
10972TIP3   OH232858   6.266   6.867   4.661
10972TIP3    H132859   6.306   6.939   4.612
10972TIP3    H232860   6.239   6.907   4.744
10973TIP3   OH232861   5.010   2.401   4.969
10973TIP3    H132862   5.039   2.479   4.922
10973TIP3    H232863   4.972   2.345   4.900
10974TIP3   OH232864   2.344   7.641   4.181
10974TIP3    H132865   2.366   7.690   4.102
10974TIP3    H232866   2.249   7.639   4.183
10975TIP3   OH232867   7.307   7.195   4.389
10975TIP3    H132868   7.298   7.143   4.309
10975TIP3    H232869   7.312   7.285   4.359
10976TIP3   OH232870   6.870   0.807   4.463
10976TIP3    H132871   6.797   0.808   4.524
10976TIP3    H232872   6.926   0.735   4.493
10977TIP3   OH232873   4.898   2.817   6.065
10977TIP3    H132874   4.901   2.750   5.996
10977TIP3    H232875   4.813   2.858   6.054
10978TIP3   OH232876   1.265   5.230   0.135
10978TIP3    H132877   1.288   5.280   0.213
10978TIP3    H232878   1.169   5.235   0.131
10979TIP3   OH232879   6.627   7.148   0.284
10979TIP3    H132880   6.618   7.099   0.202
10979TIP3    H232881   6.643   7.238   0.256
10980TIP3   OH232882   2.564   5.643   4.243
10980TIP3    H132883   2.549   5.566   4.297
10980TIP3    H232884   2.510   5.712   4.282
10981TIP3   OH232885   2.774   2.031   3.067
10981TIP3    H132886   2.826   2.034   2.987
10981TIP3    H232887   2.827   2.076   3.133
10982TIP3   OH232888   3.854   4.690   1.291
10982TIP3    H132889   3.916   4.720   1.225
10982TIP3    H232890   3.776   4.665   1.241
10983TIP3   OH232891   6.083   6.159   4.670
10983TIP3    H132892   6.088   6.063   4.674
10983TIP3    H232893   6.171   6.188   4.693
10984TIP3   OH232894   2.757   3.749   0.373
10984TIP3    H132895   2.832   3.807   0.360
10984TIP3    H232896   2.781   3.693   0.446
10985TIP3   OH232897   4.498   3.900   5.282
10985TIP3    H132898   4.586   3.863   5.292
10985TIP3    H232899   4.489   3.958   5.358
10986TIP3   OH232900   4.039   2.506   2.088
10986TIP3    H132901   4.054   2.522   1.994
10986TIP3    H232902   3.991   2.583   2.117
10987TIP3   OH232903   5.918   0.158   6.250
10987TIP3    H132904   5.836   0.145   6.298
10987TIP3    H232905   5.930   0.253   6.248
10988TIP3   OH232906   2.978   5.431   4.998
10988TIP3    H132907   2.960   5.338   5.013
10988TIP3    H232908   3.073   5.439   5.011
10989TIP3   OH232909   5.451   4.985   6.650
10989TIP3    H132910   5.517   4.973   6.718
10989TIP3    H232911   5.370   4.953   6.689
10990TIP3   OH232912   4.988   0.349   0.308
10990TIP3    H132913   4.936   0.269   0.310
10990TIP3    H232914   5.042   0.342   0.229
10991TIP3   OH232915   6.501   1.185   0.448
10991TIP3    H132916   6.559   1.112   0.427
10991TIP3    H232917   6.551   1.238   0.511
10992TIP3   OH232918   1.654   2.337   5.481
10992TIP3    H132919   1.671   2.243   5.476
10992TIP3    H232920   1.731   2.373   5.525
10993TIP3   OH232921   5.194   3.731   5.632
10993TIP3    H132922   5.219   3.770   5.716
10993TIP3    H232923   5.272   3.739   5.578
10994TIP3   OH232924   4.505   7.463   1.587
10994TIP3    H132925   4.512   7.522   1.662
10994TIP3    H232926   4.428   7.409   1.606
10995TIP3   OH232927   4.023   5.885   1.858
10995TIP3    H132928   4.106   5.932   1.857
10995TIP3    H232929   3.965   5.941   1.910
10996TIP3   OH232930   5.680   3.364   1.436
10996TIP3    H132931   5.622   3.351   1.511
10996TIP3    H232932   5.696   3.276   1.403
10997TIP3   OH232933   7.235   7.705   0.497
10997TIP3    H132934   7.300   7.750   0.550
10997TIP3    H232935   7.267   7.615   0.491
10998TIP3   OH232936   6.542   3.604   5.062
10998TIP3    H132937   6.493   3.687   5.065
10998TIP3    H232938   6.631   3.628   5.088
10999TIP3   OH232939   2.570   2.795   6.450
10999TIP3    H132940   2.505   2.788   6.520
10999TIP3    H232941   2.520   2.780   6.370
11000TIP3   OH232942   8.207   5.174   0.363
11000TIP3    H132943   8.221   5.235   0.290
11000TIP3    H232944   8.275   5.197   0.427
11001TIP3   OH232945   2.901   1.354   1.267
11001TIP3    H132946   2.928   1.401   1.346
11001TIP3    H232947   2.910   1.418   1.196
11002TIP3   OH232948   6.623   3.698   5.905
11002TIP3    H132949   6.676   3.729   5.979
11002TIP3    H232950   6.535   3.731   5.924
11003TIP3   OH232951   1.398   4.293   5.219
11003TIP3    H132952   1.414   4.351   5.293
11003TIP3    H232953   1.457   4.324   5.150
11004TIP3   OH232954   3.242   3.234   6.096
11004TIP3    H132955   3.292   3.192   6.166
11004TIP3    H232956   3.302   3.238   6.022
11005TIP3   OH232957   5.176   6.422   4.270
11005TIP3    H132958   5.206   6.505   4.308
11005TIP3    H232959   5.086   6.413   4.301
11006TIP3   OH232960   6.223   7.422   0.175
11006TIP3    H132961   6.140   7.432   0.222
11006TIP3    H232962   6.284   7.479   0.222
11007TIP3   OH232963   5.151   2.674   2.915
11007TIP3    H132964   5.122   2.751   2.868
11007TIP3    H232965   5.153   2.604   2.849
11008TIP3   OH232966   2.563   1.298   0.699
11008TIP3    H132967   2.565   1.202   0.697
11008TIP3    H232968   2.471   1.320   0.685
11009TIP3   OH232969   5.127   5.881   2.761
11009TIP3    H132970   5.118   5.958   2.817
11009TIP3    H232971   5.216   5.849   2.778
11010TIP3   OH232972   7.015   6.141   4.440
11010TIP3    H132973   6.921   6.127   4.446
11010TIP3    H232974   7.032   6.151   4.346
11011TIP3   OH232975   6.269   2.798   3.208
11011TIP3    H132976   6.211   2.805   3.284
11011TIP3    H232977   6.330   2.728   3.231
11012TIP3   OH232978   7.339   5.268   4.891
11012TIP3    H132979   7.420   5.250   4.939
11012TIP3    H232980   7.363   5.255   4.799
11013TIP3   OH232981   2.516   0.338   4.161
11013TIP3    H132982   2.558   0.330   4.247
11013TIP3    H232983   2.424   0.319   4.178
11014TIP3   OH232984   2.457   3.511   2.241
11014TIP3    H132985   2.419   3.499   2.154
11014TIP3    H232986   2.383   3.498   2.301
11015TIP3   OH232987   1.888   3.412   1.297
11015TIP3    H132988   1.869   3.333   1.348
11015TIP3    H232989   1.983   3.410   1.284
11016TIP3   OH232990   5.248   0.164   5.708
11016TIP3    H132991   5.315   0.133   5.647
11016TIP3    H232992   5.253   0.259   5.702
11017TIP3   OH232993   1.873   2.339   4.819
11017TIP3    H132994   1.865   2.269   4.883
11017TIP3    H232995   1.789   2.385   4.822
11018TIP3   OH232996   2.410   7.780   6.307
11018TIP3    H132997   2.355   7.858   6.307
11018TIP3    H232998   2.384   7.732   6.386
11019TIP3   OH232999   7.689   5.530   5.733
11019TIP3    H133000   7.696   5.583   5.654
11019TIP3    H233001   7.766   5.554   5.785
11020TIP3   OH233002   7.866   5.395   2.508
11020TIP3    H133003   7.877   5.380   2.602
11020TIP3    H233004   7.772   5.409   2.497
11021TIP3   OH233005   1.964   6.218   6.455
11021TIP3    H133006   1.876   6.198   6.426
11021TIP3    H233007   2.016   6.141   6.431
11022TIP3   OH233008   7.179   7.523   4.543
11022TIP3    H133009   7.172   7.576   4.622
11022TIP3    H233010   7.092   7.525   4.503
11023TIP3   OH233011   6.898   3.279   2.028
11023TIP3    H133012   6.808   3.261   2.002
11023TIP3    H233013   6.894   3.365   2.072
11024TIP3   OH233014   0.175   2.543   0.219
11024TIP3    H133015   0.102   2.537   0.281
11024TIP3    H233016   0.147   2.492   0.143
11025TIP3   OH233017   7.065   0.781   3.459
11025TIP3    H133018   7.105   0.728   3.390
11025TIP3    H233019   7.087   0.871   3.436
11026TIP3   OH233020   7.589   7.383   3.393
11026TIP3    H133021   7.534   7.395   3.470
11026TIP3    H233022   7.527   7.382   3.320
11027TIP3   OH233023   1.087   2.128   4.079
11027TIP3    H133024   1.070   2.195   4.146
11027TIP3    H233025   1.005   2.122   4.031
11028TIP3   OH233026   0.819   0.650   1.585
11028TIP3    H133027   0.790   0.736   1.614
11028TIP3    H233028   0.852   0.664   1.496
11029TIP3   OH233029   4.633   7.503   5.140
11029TIP3    H133030   4.691   7.454   5.198
11029TIP3    H233031   4.644   7.461   5.054
11030TIP3   OH233032   0.289   2.585   5.060
11030TIP3    H133033   0.222   2.613   5.122
11030TIP3    H233034   0.366   2.568   5.115
11031TIP3   OH233035   8.301   1.449   3.628
11031TIP3    H133036   8.219   1.410   3.600
11031TIP3    H233037   8.275   1.517   3.691
11032TIP3   OH233038   0.346   3.337   1.202
11032TIP3    H133039   0.434   3.374   1.204
11032TIP3    H233040   0.351   3.259   1.256
11033TIP3   OH233041   1.608   5.531   0.784
11033TIP3    H133042   1.575   5.556   0.870
11033TIP3    H233043   1.703   5.528   0.795
11034TIP3   OH233044   4.838   3.644   4.295
11034TIP3    H133045   4.869   3.666   4.383
11034TIP3    H233046   4.762   3.700   4.281
11035TIP3   OH233047   4.407   3.540   3.442
11035TIP3    H133048   4.348   3.486   3.495
11035TIP3    H233049   4.464   3.478   3.398
11036TIP3   OH233050   0.518   2.751   6.209
11036TIP3    H133051   0.473   2.680   6.165
11036TIP3    H233052   0.519   2.726   6.302
11037TIP3   OH233053   7.908   6.712   1.630
11037TIP3    H133054   7.949   6.746   1.551
11037TIP3    H233055   7.975   6.720   1.698
11038TIP3   OH233056   5.287   7.612   5.689
11038TIP3    H133057   5.210   7.610   5.744
11038TIP3    H233058   5.317   7.703   5.693
11039TIP3   OH233059   7.492   0.537   1.320
11039TIP3    H133060   7.397   0.535   1.304
11039TIP3    H233061   7.500   0.542   1.415
11040TIP3   OH233062   8.080   5.566   1.994
11040TIP3    H133063   8.079   5.617   1.913
11040TIP3    H233064   8.165   5.584   2.034
11041TIP3   OH233065   0.997   4.342   2.739
11041TIP3    H133066   0.973   4.430   2.766
11041TIP3    H233067   1.029   4.352   2.649
11042TIP3   OH233068   4.856   5.155   4.816
11042TIP3    H133069   4.950   5.144   4.802
11042TIP3    H233070   4.849   5.203   4.899
11043TIP3   OH233071   5.111   1.134   4.392
11043TIP3    H133072   5.052   1.133   4.317
11043TIP3    H233073   5.063   1.183   4.459
11044TIP3   OH233074   0.519   2.973   6.750
11044TIP3    H133075   0.574   2.913   6.700
11044TIP3    H233076   0.436   2.976   6.702
11045TIP3   OH233077   8.256   3.871   1.681
11045TIP3    H133078   8.329   3.874   1.620
11045TIP3    H233079   8.249   3.961   1.714
11046TIP3   OH233080   6.870   7.008   0.111
11046TIP3    H133081   6.822   6.926   0.100
11046TIP3    H233082   6.833   7.067   0.046
11047TIP3   OH233083   5.452   1.948   5.449
11047TIP3    H133084   5.379   2.009   5.447
11047TIP3    H233085   5.454   1.909   5.361
11048TIP3   OH233086   4.329   4.594   6.572
11048TIP3    H133087   4.273   4.604   6.649
11048TIP3    H233088   4.375   4.678   6.565
11049TIP3   OH233089   1.949   4.140   1.077
11049TIP3    H133090   1.875   4.105   1.027
11049TIP3    H233091   1.989   4.204   1.019
11050TIP3   OH233092   0.789   6.631   6.040
11050TIP3    H133093   0.715   6.669   6.088
11050TIP3    H233094   0.749   6.569   5.979
11051TIP3   OH233095   4.650   3.270   3.750
11051TIP3    H133096   4.743   3.283   3.730
11051TIP3    H233097   4.622   3.352   3.789
11052TIP3   OH233098   7.841   1.093   1.867
11052TIP3    H133099   7.759   1.058   1.901
11052TIP3    H233100   7.905   1.023   1.881
11053TIP3   OH233101   8.050   4.288   5.251
11053TIP3    H133102   7.995   4.319   5.322
11053TIP3    H233103   7.996   4.223   5.205
11054TIP3   OH233104   1.146   2.918   1.577
11054TIP3    H133105   1.185   2.926   1.490
11054TIP3    H233106   1.173   2.831   1.608
11055TIP3   OH233107   7.603   2.056   0.442
11055TIP3    H133108   7.633   2.110   0.369
11055TIP3    H233109   7.671   1.989   0.452
11056TIP3   OH233110   6.244   2.267   6.420
11056TIP3    H133111   6.272   2.238   6.506
11056TIP3    H233112   6.304   2.225   6.359
11057TIP3   OH233113   3.428   5.686   0.925
11057TIP3    H133114   3.432   5.775   0.889
11057TIP3    H233115   3.495   5.638   0.878
11058TIP3   OH233116   4.836   2.852   5.209
11058TIP3    H133117   4.766   2.807   5.163
11058TIP3    H233118   4.893   2.887   5.140
11059TIP3   OH233119   6.753   2.208   5.008
11059TIP3    H133120   6.716   2.297   5.009
11059TIP3    H233121   6.679   2.151   5.029
11060TIP3   OH233122   3.576   7.080   4.263
11060TIP3    H133123   3.667   7.082   4.292
11060TIP3    H233124   3.525   7.080   4.343
11061TIP3   OH233125   7.720   7.121   6.445
11061TIP3    H133126   7.790   7.146   6.384
11061TIP3    H233127   7.736   7.174   6.523
11062TIP3   OH233128   1.760   3.772   4.331
11062TIP3    H133129   1.778   3.679   4.317
11062TIP3    H233130   1.728   3.803   4.246
11063TIP3   OH233131   4.439   2.875   0.291
11063TIP3    H133132   4.408   2.854   0.203
11063TIP3    H233133   4.477   2.794   0.324
11064TIP3   OH233134   0.382   5.311   4.669
11064TIP3    H133135   0.476   5.317   4.684
11064TIP3    H233136   0.369   5.225   4.628
11065TIP3   OH233137   1.502   0.789   4.894
11065TIP3    H133138   1.500   0.702   4.934
11065TIP3    H233139   1.437   0.839   4.943
11066TIP3   OH233140   1.000   4.963   2.011
11066TIP3    H133141   0.972   5.032   2.071
11066TIP3    H233142   1.060   5.007   1.950
11067TIP3   OH233143   5.844   5.347   6.695
11067TIP3    H133144   5.871   5.439   6.683
11067TIP3    H233145   5.886   5.300   6.623
11068TIP3   OH233146   2.986   3.092   2.168
11068TIP3    H133147   3.000   3.079   2.262
11068TIP3    H233148   3.071   3.074   2.128
11069TIP3   OH233149   4.875   5.101   0.641
11069TIP3    H133150   4.815   5.146   0.582
11069TIP3    H233151   4.943   5.166   0.660
11070TIP3   OH233152   2.037   0.468   2.782
11070TIP3    H133153   2.003   0.400   2.840
11070TIP3    H233154   2.132   0.463   2.793
11071TIP3   OH233155   3.763   1.486   6.267
11071TIP3    H133156   3.830   1.488   6.198
11071TIP3    H233157   3.693   1.432   6.231
11072TIP3   OH233158   4.278   4.450   0.737
11072TIP3    H133159   4.253   4.539   0.761
11072TIP3    H233160   4.342   4.461   0.667
11073TIP3   OH233161   4.848   1.436   3.973
11073TIP3    H133162   4.857   1.513   4.030
11073TIP3    H233163   4.879   1.466   3.887
11074TIP3   OH233164   5.470   1.072   1.202
11074TIP3    H133165   5.516   1.141   1.249
11074TIP3    H233166   5.396   1.117   1.161
11075TIP3   OH233167   6.038   5.528   3.071
11075TIP3    H133168   5.987   5.463   3.118
11075TIP3    H233169   6.120   5.534   3.120
11076TIP3   OH233170   3.748   0.752   0.748
11076TIP3    H133171   3.842   0.754   0.734
11076TIP3    H233172   3.735   0.798   0.831
11077TIP3   OH233173   4.795   4.464   5.245
11077TIP3    H133174   4.754   4.542   5.208
11077TIP3    H233175   4.865   4.497   5.300
11078TIP3   OH233176   2.412   4.666   2.787
11078TIP3    H133177   2.362   4.586   2.773
11078TIP3    H233178   2.470   4.671   2.711
11079TIP3   OH233179   3.583   3.577   5.706
11079TIP3    H133180   3.674   3.591   5.680
11079TIP3    H233181   3.583   3.594   5.800
11080TIP3   OH233182   7.876   2.437   5.686
11080TIP3    H133183   7.823   2.517   5.680
11080TIP3    H233184   7.827   2.372   5.636
11081TIP3   OH233185   4.705   6.339   3.499
11081TIP3    H133186   4.677   6.251   3.523
11081TIP3    H233187   4.627   6.379   3.459
11082TIP3   OH233188   0.156   4.252   4.122
11082TIP3    H133189   0.214   4.311   4.170
11082TIP3    H233190   0.078   4.246   4.177
11083TIP3   OH233191   7.550   0.287   5.463
11083TIP3    H133192   7.494   0.209   5.465
11083TIP3    H233193   7.639   0.252   5.461
11084TIP3   OH233194   4.192   2.126   5.285
11084TIP3    H133195   4.219   2.135   5.194
11084TIP3    H233196   4.103   2.090   5.280
11085TIP3   OH233197   6.720   1.045   2.254
11085TIP3    H133198   6.740   1.086   2.170
11085TIP3    H233199   6.668   0.968   2.232
11086TIP3   OH233200   5.224   1.401   6.550
11086TIP3    H133201   5.284   1.407   6.476
11086TIP3    H233202   5.239   1.480   6.600
11087TIP3   OH233203   2.500   3.111   1.531
11087TIP3    H133204   2.564   3.113   1.602
11087TIP3    H233205   2.540   3.161   1.460
11088TIP3   OH233206   5.936   5.237   4.071
11088TIP3    H133207   5.912   5.319   4.028
11088TIP3    H233208   5.882   5.234   4.149
11089TIP3   OH233209   5.850   5.201   1.785
11089TIP3    H133210   5.917   5.269   1.779
11089TIP3    H233211   5.828   5.196   1.878
11090TIP3   OH233212   1.597   4.504   4.318
11090TIP3    H133213   1.643   4.450   4.254
11090TIP3    H233214   1.504   4.490   4.298
11091TIP3   OH233215   6.131   3.625   4.239
11091TIP3    H133216   6.144   3.679   4.317
11091TIP3    H233217   6.191   3.661   4.174
11092TIP3   OH233218   6.047   5.711   1.839
11092TIP3    H133219   5.998   5.746   1.914
11092TIP3    H233220   5.979   5.681   1.778
11093TIP3   OH233221   5.544   0.565   4.269
11093TIP3    H133222   5.450   0.563   4.283
11093TIP3    H233223   5.559   0.506   4.195
11094TIP3   OH233224   1.836   3.592   0.608
11094TIP3    H133225   1.870   3.535   0.539
11094TIP3    H233226   1.838   3.680   0.569
11095TIP3   OH233227   4.015   7.782   1.796
11095TIP3    H133228   4.071   7.704   1.796
11095TIP3    H233229   3.932   7.752   1.758
11096TIP3   OH233230   0.799   1.000   3.120
11096TIP3    H133231   0.840   1.019   3.035
11096TIP3    H233232   0.800   1.084   3.166
11097TIP3   OH233233   5.318   1.377   1.034
11097TIP3    H133234   5.359   1.399   1.117
11097TIP3    H233235   5.245   1.438   1.026
11098TIP3   OH233236   1.484   1.016   0.121
11098TIP3    H133237   1.501   0.951   0.190
11098TIP3    H233238   1.543   0.991   0.050
11099TIP3   OH233239   7.779   7.332   6.639
11099TIP3    H133240   7.702   7.302   6.687
11099TIP3    H233241   7.744   7.380   6.564
11100TIP3   OH233242   4.365   6.910   6.660
11100TIP3    H133243   4.289   6.852   6.650
11100TIP3    H233244   4.383   6.942   6.572
11101TIP3   OH233245   2.315   5.136   5.342
11101TIP3    H133246   2.328   5.213   5.397
11101TIP3    H233247   2.403   5.108   5.319
11102TIP3   OH233248   8.051   2.018   0.988
11102TIP3    H133249   8.056   2.110   0.961
11102TIP3    H233250   7.972   1.985   0.945
11103TIP3   OH233251   5.710   5.551   1.170
11103TIP3    H133252   5.710   5.515   1.081
11103TIP3    H233253   5.701   5.474   1.227
11104TIP3   OH233254   2.442   4.206   5.574
11104TIP3    H133255   2.405   4.121   5.595
11104TIP3    H233256   2.401   4.231   5.491
11105TIP3   OH233257   2.819   1.184   3.912
11105TIP3    H133258   2.802   1.156   4.002
11105TIP3    H233259   2.849   1.105   3.868
11106TIP3   OH233260   7.181   6.697   2.762
11106TIP3    H133261   7.115   6.636   2.798
11106TIP3    H233262   7.155   6.708   2.670
11107TIP3   OH233263   3.918   2.118   1.676
11107TIP3    H133264   3.953   2.097   1.762
11107TIP3    H233265   3.994   2.113   1.617
11108TIP3   OH233266   3.751   7.592   6.498
11108TIP3    H133267   3.722   7.519   6.443
11108TIP3    H233268   3.847   7.593   6.487
11109TIP3   OH233269   7.948   1.206   3.076
11109TIP3    H133270   8.043   1.207   3.065
11109TIP3    H233271   7.914   1.190   2.987
11110TIP3   OH233272   2.908   5.111   0.856
11110TIP3    H133273   2.960   5.109   0.775
11110TIP3    H233274   2.953   5.049   0.914
11111TIP3   OH233275   4.296   7.440   1.020
11111TIP3    H133276   4.214   7.489   1.008
11111TIP3    H233277   4.362   7.493   0.975
11112TIP3   OH233278   3.438   2.173   5.017
11112TIP3    H133279   3.435   2.227   5.096
11112TIP3    H233280   3.514   2.115   5.030
11113TIP3   OH233281   5.522   0.225   4.602
11113TIP3    H133282   5.601   0.171   4.597
11113TIP3    H233283   5.459   0.170   4.649
11114TIP3   OH233284   0.238   3.116   3.676
11114TIP3    H133285   0.213   3.033   3.636
11114TIP3    H233286   0.160   3.171   3.668
11115TIP3   OH233287   6.966   0.527   0.563
11115TIP3    H133288   6.961   0.437   0.532
11115TIP3    H233289   6.979   0.520   0.657
11116TIP3   OH233290   7.384   4.697   3.257
11116TIP3    H133291   7.359   4.722   3.346
11116TIP3    H233292   7.479   4.695   3.258
11117TIP3   OH233293   4.165   7.171   3.503
11117TIP3    H133294   4.249   7.161   3.458
11117TIP3    H233295   4.187   7.212   3.587
11118TIP3   OH233296   0.791   5.749   3.351
11118TIP3    H133297   0.771   5.661   3.383
11118TIP3    H233298   0.740   5.807   3.407
11119TIP3   OH233299   3.268   5.682   6.285
11119TIP3    H133300   3.361   5.681   6.264
11119TIP3    H233301   3.235   5.599   6.249
11120TIP3   OH233302   6.896   1.469   2.901
11120TIP3    H133303   6.909   1.404   2.831
11120TIP3    H233304   6.833   1.429   2.960
11121TIP3   OH233305   5.014   1.517   3.038
11121TIP3    H133306   5.094   1.546   3.082
11121TIP3    H233307   5.044   1.457   2.970
11122TIP3   OH233308   4.757   0.939   6.708
11122TIP3    H133309   4.776   0.889   6.629
11122TIP3    H233310   4.844   0.961   6.744
11123TIP3   OH233311   1.521   6.941   3.040
11123TIP3    H133312   1.586   6.987   2.986
11123TIP3    H233313   1.437   6.975   3.009
11124TIP3   OH233314   5.726   7.246   4.797
11124TIP3    H133315   5.811   7.223   4.759
11124TIP3    H233316   5.669   7.173   4.774
11125TIP3   OH233317   3.660   4.154   2.051
11125TIP3    H133318   3.756   4.151   2.054
11125TIP3    H233319   3.633   4.096   2.123
11126TIP3   OH233320   1.183   7.610   4.968
11126TIP3    H133321   1.201   7.669   4.896
11126TIP3    H233322   1.130   7.661   5.029
11127TIP3   OH233323   1.124   5.226   3.442
11127TIP3    H133324   1.134   5.133   3.422
11127TIP3    H233325   1.136   5.271   3.358
11128TIP3   OH233326   0.170   6.493   2.573
11128TIP3    H133327   0.106   6.438   2.616
11128TIP3    H233328   0.166   6.468   2.481
11129TIP3   OH233329   5.391   4.476   2.910
11129TIP3    H133330   5.302   4.453   2.883
11129TIP3    H233331   5.379   4.531   2.987
11130TIP3   OH233332   7.643   5.976   3.068
11130TIP3    H133333   7.626   6.001   2.977
11130TIP3    H233334   7.563   5.933   3.097
11131TIP3   OH233335   4.175   1.095   4.542
11131TIP3    H133336   4.246   1.158   4.542
11131TIP3    H233337   4.107   1.135   4.596
11132TIP3   OH233338   1.854   7.245   2.750
11132TIP3    H133339   1.808   7.324   2.721
11132TIP3    H233340   1.910   7.222   2.677
11133TIP3   OH233341   7.161   2.405   6.325
11133TIP3    H133342   7.116   2.488   6.339
11133TIP3    H233343   7.231   2.426   6.263
11134TIP3   OH233344   7.425   2.895   4.680
11134TIP3    H133345   7.519   2.902   4.696
11134TIP3    H233346   7.419   2.863   4.590
11135TIP3   OH233347   8.079   1.145   3.769
11135TIP3    H133348   8.158   1.109   3.727
11135TIP3    H233349   8.100   1.145   3.862
11136TIP3   OH233350   3.666   7.450   3.636
11136TIP3    H133351   3.626   7.437   3.722
11136TIP3    H233352   3.597   7.429   3.573
11137TIP3   OH233353   4.595   1.344   6.441
11137TIP3    H133354   4.609   1.284   6.514
11137TIP3    H233355   4.499   1.349   6.431
11138TIP3   OH233356   3.065   7.185   1.906
11138TIP3    H133357   2.984   7.198   1.956
11138TIP3    H233358   3.039   7.197   1.815
11139TIP3   OH233359   5.960   5.749   2.885
11139TIP3    H133360   6.011   5.706   2.954
11139TIP3    H233361   5.870   5.748   2.918
11140TIP3   OH233362   4.696   5.812   4.153
11140TIP3    H133363   4.607   5.779   4.142
11140TIP3    H233364   4.747   5.764   4.088
11141TIP3   OH233365   4.386   7.526   4.441
11141TIP3    H133366   4.374   7.471   4.519
11141TIP3    H233367   4.390   7.463   4.369
11142TIP3   OH233368   6.606   6.442   2.801
11142TIP3    H133369   6.683   6.399   2.763
11142TIP3    H233370   6.613   6.427   2.895
11143TIP3   OH233371   2.529   1.836   3.822
11143TIP3    H133372   2.575   1.833   3.906
11143TIP3    H233373   2.505   1.745   3.804
11144TIP3   OH233374   4.822   4.154   0.669
11144TIP3    H133375   4.786   4.229   0.622
11144TIP3    H233376   4.915   4.155   0.646
11145TIP3   OH233377   2.019   6.016   3.466
11145TIP3    H133378   2.002   6.106   3.494
11145TIP3    H233379   1.933   5.984   3.436
11146TIP3   OH233380   0.661   3.816   2.295
11146TIP3    H133381   0.713   3.773   2.227
11146TIP3    H233382   0.681   3.767   2.375
11147TIP3   OH233383   1.605   1.646   5.662
11147TIP3    H133384   1.512   1.639   5.637
11147TIP3    H233385   1.622   1.740   5.663
11148TIP3   OH233386   2.118   3.424   4.186
11148TIP3    H133387   2.043   3.366   4.171
11148TIP3    H233388   2.194   3.369   4.167
11149TIP3   OH233389   8.035   0.244   0.890
11149TIP3    H133390   7.944   0.228   0.866
11149TIP3    H233391   8.031   0.287   0.975
11150TIP3   OH233392   5.914   1.513   5.789
11150TIP3    H133393   5.826   1.482   5.765
11150TIP3    H233394   5.906   1.608   5.788
11151TIP3   OH233395   2.095   1.374   3.892
11151TIP3    H133396   2.027   1.410   3.835
11151TIP3    H233397   2.177   1.391   3.845
11152TIP3   OH233398   6.390   1.092   0.678
11152TIP3    H133399   6.361   1.008   0.643
11152TIP3    H233400   6.415   1.142   0.601
11153TIP3   OH233401   4.793   6.485   4.922
11153TIP3    H133402   4.855   6.412   4.911
11153TIP3    H233403   4.766   6.481   5.014
11154TIP3   OH233404   5.716   2.611   0.399
11154TIP3    H133405   5.734   2.631   0.491
11154TIP3    H233406   5.710   2.515   0.397
11155TIP3   OH233407   0.866   0.645   5.700
11155TIP3    H133408   0.773   0.640   5.677
11155TIP3    H233409   0.911   0.624   5.618
11156TIP3   OH233410   8.044   3.107   5.694
11156TIP3    H133411   8.009   3.082   5.780
11156TIP3    H233412   8.131   3.143   5.713
11157TIP3   OH233413   7.088   4.317   1.986
11157TIP3    H133414   7.103   4.338   2.078
11157TIP3    H233415   7.123   4.229   1.975
11158TIP3   OH233416   3.457   3.542   3.384
11158TIP3    H133417   3.524   3.560   3.450
11158TIP3    H233418   3.495   3.472   3.331
11159TIP3   OH233419   0.738   5.199   5.352
11159TIP3    H133420   0.679   5.124   5.342
11159TIP3    H233421   0.731   5.245   5.269
11160TIP3   OH233422   7.050   5.454   3.846
11160TIP3    H133423   6.967   5.464   3.799
11160TIP3    H233424   7.051   5.527   3.908
11161TIP3   OH233425   1.579   1.416   4.988
11161TIP3    H133426   1.609   1.376   5.070
11161TIP3    H233427   1.494   1.377   4.971
11162TIP3   OH233428   6.175   1.312   5.355
11162TIP3    H133429   6.098   1.361   5.386
11162TIP3    H233430   6.138   1.240   5.304
11163TIP3   OH233431   6.410   6.640   2.854
11163TIP3    H133432   6.462   6.564   2.828
11163TIP3    H233433   6.320   6.607   2.857
11164TIP3   OH233434   3.382   4.288   4.293
11164TIP3    H133435   3.295   4.327   4.307
11164TIP3    H233436   3.431   4.355   4.246
11165TIP3   OH233437   5.291   3.765   3.772
11165TIP3    H133438   5.382   3.747   3.798
11165TIP3    H233439   5.283   3.860   3.777
11166TIP3   OH233440   6.942   5.511   6.553
11166TIP3    H133441   6.874   5.468   6.605
11166TIP3    H233442   6.966   5.446   6.486
11167TIP3   OH233443   7.845   2.487   1.709
11167TIP3    H133444   7.887   2.402   1.719
11167TIP3    H233445   7.908   2.538   1.657
11168TIP3   OH233446   0.530   3.431   1.678
11168TIP3    H133447   0.584   3.371   1.730
11168TIP3    H233448   0.493   3.376   1.608
11169TIP3   OH233449   7.956   0.898   4.331
11169TIP3    H133450   7.883   0.959   4.342
11169TIP3    H233451   7.932   0.845   4.256
11170TIP3   OH233452   7.151   0.331   0.104
11170TIP3    H133453   7.170   0.417   0.142
11170TIP3    H233454   7.237   0.293   0.088
11171TIP3   OH233455   2.966   7.520   6.066
11171TIP3    H133456   3.032   7.453   6.080
11171TIP3    H233457   2.884   7.478   6.092
11172TIP3   OH233458   0.754   6.144   5.311
11172TIP3    H133459   0.805   6.063   5.302
11172TIP3    H233460   0.771   6.192   5.230
11173TIP3   OH233461   0.635   4.598   3.336
11173TIP3    H133462   0.651   4.547   3.416
11173TIP3    H233463   0.610   4.684   3.368
11174TIP3   OH233464   4.648   7.772   3.934
11174TIP3    H133465   4.576   7.832   3.912
11174TIP3    H233466   4.617   7.724   4.010
11175TIP3   OH233467   3.869   0.111   1.772
11175TIP3    H133468   3.958   0.118   1.736
11175TIP3    H233469   3.818   0.175   1.722
11176TIP3   OH233470   2.180   4.604   5.102
11176TIP3    H133471   2.226   4.573   5.024
11176TIP3    H233472   2.113   4.663   5.069
11177TIP3   OH233473   1.926   4.465   2.768
11177TIP3    H133474   1.958   4.393   2.713
11177TIP3    H233475   1.841   4.487   2.731
11178TIP3   OH233476   1.054   4.337   5.222
11178TIP3    H133477   1.107   4.327   5.301
11178TIP3    H233478   0.981   4.392   5.248
11179TIP3   OH233479   5.753   3.053   2.738
11179TIP3    H133480   5.723   2.962   2.744
11179TIP3    H233481   5.807   3.065   2.816
11180TIP3   OH233482   0.494   4.421   6.552
11180TIP3    H133483   0.474   4.510   6.521
11180TIP3    H233484   0.589   4.421   6.566
11181TIP3   OH233485   0.478   1.080   2.101
11181TIP3    H133486   0.564   1.040   2.114
11181TIP3    H233487   0.488   1.135   2.023
11182TIP3   OH233488   1.177   5.608   0.741
11182TIP3    H133489   1.107   5.565   0.791
11182TIP3    H233490   1.133   5.644   0.664
11183TIP3   OH233491   7.507   4.143   2.907
11183TIP3    H133492   7.499   4.052   2.934
11183TIP3    H233493   7.597   4.168   2.932
11184TIP3   OH233494   0.842   1.626   6.644
11184TIP3    H133495   0.753   1.650   6.668
11184TIP3    H233496   0.848   1.642   6.550
11185TIP3   OH233497   3.155   5.235   5.727
11185TIP3    H133498   3.188   5.230   5.817
11185TIP3    H233499   3.158   5.145   5.696
11186TIP3   OH233500   1.864   0.585   6.619
11186TIP3    H133501   1.815   0.517   6.573
11186TIP3    H233502   1.802   0.620   6.683
11187TIP3   OH233503   3.115   1.351   2.490
11187TIP3    H133504   3.080   1.437   2.514
11187TIP3    H233505   3.065   1.325   2.413
11188TIP3   OH233506   2.889   6.129   4.664
11188TIP3    H133507   2.811   6.078   4.641
11188TIP3    H233508   2.963   6.073   4.640
11189TIP3   OH233509   0.979   0.044   4.250
11189TIP3    H133510   1.056   0.101   4.256
11189TIP3    H233511   0.980   0.012   4.160
11190TIP3   OH233512   5.358   4.039   0.759
11190TIP3    H133513   5.272   4.055   0.798
11190TIP3    H233514   5.399   4.125   0.755
11191TIP3   OH233515   5.528   0.239   5.180
11191TIP3    H133516   5.570   0.321   5.207
11191TIP3    H233517   5.532   0.183   5.258
11192TIP3   OH233518   8.112   6.525   0.173
11192TIP3    H133519   8.026   6.566   0.178
11192TIP3    H233520   8.135   6.528   0.081
11193TIP3   OH233521   5.250   7.194   6.517
11193TIP3    H133522   5.287   7.111   6.547
11193TIP3    H233523   5.176   7.211   6.575
11194TIP3   OH233524   7.838   3.474   1.538
11194TIP3    H133525   7.896   3.453   1.465
11194TIP3    H233526   7.822   3.568   1.530
11195TIP3   OH233527   6.045   7.812   0.485
11195TIP3    H133528   6.106   7.770   0.546
11195TIP3    H233529   5.979   7.746   0.466
11196TIP3   OH233530   3.981   1.651   2.486
11196TIP3    H133531   4.066   1.631   2.525
11196TIP3    H233532   3.983   1.745   2.470
11197TIP3   OH233533   7.775   4.754   0.333
11197TIP3    H133534   7.865   4.768   0.301
11197TIP3    H233535   7.783   4.682   0.396
11198TIP3   OH233536   6.669   2.573   5.902
11198TIP3    H133537   6.626   2.519   5.837
11198TIP3    H233538   6.745   2.610   5.856
11199TIP3   OH233539   4.224   4.124   5.124
11199TIP3    H133540   4.233   4.135   5.218
11199TIP3    H233541   4.215   4.029   5.112
11200TIP3   OH233542   5.860   5.475   3.964
11200TIP3    H133543   5.876   5.465   3.870
11200TIP3    H233544   5.765   5.474   3.973
11201TIP3   OH233545   3.361   1.386   0.273
11201TIP3    H133546   3.279   1.340   0.295
11201TIP3    H233547   3.372   1.450   0.343
11202TIP3   OH233548   4.612   5.420   6.573
11202TIP3    H133549   4.597   5.498   6.626
11202TIP3    H233550   4.553   5.355   6.609
11203TIP3   OH233551   7.652   3.467   5.513
11203TIP3    H133552   7.710   3.403   5.555
11203TIP3    H233553   7.700   3.550   5.519
11204TIP3   OH233554   2.424   0.136   2.001
11204TIP3    H133555   2.460   0.073   2.063
11204TIP3    H233556   2.356   0.182   2.050
11205TIP3   OH233557   2.776   3.090   1.962
11205TIP3    H133558   2.728   3.151   2.017
11205TIP3    H233559   2.865   3.091   1.997
11206TIP3   OH233560   5.930   1.666   1.279
11206TIP3    H133561   5.964   1.675   1.368
11206TIP3    H233562   5.998   1.617   1.232
11207TIP3   OH233563   7.588   3.839   3.287
11207TIP3    H133564   7.524   3.795   3.342
11207TIP3    H233565   7.672   3.818   3.328
11208TIP3   OH233566   2.462   6.167   0.096
11208TIP3    H133567   2.396   6.156   0.165
11208TIP3    H233568   2.545   6.159   0.142
11209TIP3   OH233569   7.968   3.420   6.385
11209TIP3    H133570   7.941   3.510   6.404
11209TIP3    H233571   7.892   3.367   6.405
11210TIP3   OH233572   7.302   6.451   4.379
11210TIP3    H133573   7.372   6.498   4.333
11210TIP3    H233574   7.287   6.373   4.325
11211TIP3   OH233575   7.792   3.683   5.970
11211TIP3    H133576   7.754   3.616   5.913
11211TIP3    H233577   7.717   3.724   6.013
11212TIP3   OH233578   1.358   3.254   5.778
11212TIP3    H133579   1.276   3.279   5.821
11212TIP3    H233580   1.397   3.190   5.838
11213TIP3   OH233581   3.547   7.393   1.171
11213TIP3    H133582   3.573   7.478   1.134
11213TIP3    H233583   3.522   7.414   1.261
11214TIP3   OH233584   7.980   7.723   5.374
11214TIP3    H133585   8.003   7.703   5.284
11214TIP3    H233586   7.903   7.668   5.392
11215TIP3   OH233587   1.313   3.831   0.574
11215TIP3    H133588   1.388   3.844   0.633
11215TIP3    H233589   1.351   3.789   0.497
11216TIP3   OH233590   3.445   0.430   3.974
11216TIP3    H133591   3.537   0.436   3.948
11216TIP3    H233592   3.433   0.338   3.997
11217TIP3   OH233593   2.948   0.275   3.293
11217TIP3    H133594   2.954   0.352   3.350
11217TIP3    H233595   2.896   0.213   3.344
11218TIP3   OH233596   6.629   4.680   3.109
11218TIP3    H133597   6.597   4.708   3.023
11218TIP3    H233598   6.593   4.593   3.121
11219TIP3   OH233599   4.282   2.192   2.397
11219TIP3    H133600   4.280   2.217   2.489
11219TIP3    H233601   4.235   2.262   2.352
11220TIP3   OH233602   1.374   4.804   2.687
11220TIP3    H133603   1.325   4.752   2.751
11220TIP3    H233604   1.384   4.746   2.612
11221TIP3   OH233605   4.127   7.515   1.860
11221TIP3    H133606   4.133   7.489   1.768
11221TIP3    H233607   4.167   7.442   1.908
11222TIP3   OH233608   4.022   3.348   3.273
11222TIP3    H133609   4.102   3.301   3.298
11222TIP3    H233610   4.040   3.380   3.185
11223TIP3   OH233611   7.952   4.096   1.485
11223TIP3    H133612   7.920   4.145   1.409
11223TIP3    H233613   7.889   4.115   1.554
11224TIP3   OH233614   2.317   2.962   1.389
11224TIP3    H133615   2.372   3.014   1.448
11224TIP3    H233616   2.360   2.876   1.386
11225TIP3   OH233617   7.658   6.724   2.213
11225TIP3    H133618   7.570   6.718   2.175
11225TIP3    H233619   7.662   6.650   2.274
11226TIP3   OH233620   0.888   3.515   3.769
11226TIP3    H133621   0.831   3.586   3.800
11226TIP3    H233622   0.910   3.466   3.848
11227TIP3   OH233623   1.231   0.514   5.507
11227TIP3    H133624   1.193   0.454   5.571
11227TIP3    H233625   1.220   0.601   5.545
11228TIP3   OH233626   3.478   0.013   2.050
11228TIP3    H133627   3.537   0.014   2.125
11228TIP3    H233628   3.533  -0.008   1.975
11229TIP3   OH233629   4.019   2.152   2.485
11229TIP3    H133630   4.046   2.147   2.576
11229TIP3    H233631   4.090   2.199   2.441
11230TIP3   OH233632   3.850   7.519   2.081
11230TIP3    H133633   3.882   7.486   1.998
11230TIP3    H233634   3.815   7.443   2.127
11231TIP3   OH233635   3.748   3.021   5.510
11231TIP3    H133636   3.665   3.057   5.478
11231TIP3    H233637   3.815   3.081   5.477
11232TIP3   OH233638   6.117   0.094   3.297
11232TIP3    H133639   6.028   0.109   3.327
11232TIP3    H233640   6.152   0.028   3.358
11233TIP3   OH233641   7.411   6.512   2.808
11233TIP3    H133642   7.446   6.523   2.896
11233TIP3    H233643   7.346   6.581   2.799
11234TIP3   OH233644   5.604   4.689   4.228
11234TIP3    H133645   5.552   4.733   4.161
11234TIP3    H233646   5.558   4.607   4.245
11235TIP3   OH233647   1.599   1.604   0.312
11235TIP3    H133648   1.517   1.653   0.317
11235TIP3    H233649   1.603   1.554   0.394
11236TIP3   OH233650   4.130   5.798   2.566
11236TIP3    H133651   4.138   5.712   2.607
11236TIP3    H233652   4.046   5.795   2.520
11237TIP3   OH233653   6.452   5.917   0.100
11237TIP3    H133654   6.419   5.881   0.017
11237TIP3    H233655   6.381   5.902   0.162
11238TIP3   OH233656   6.988   5.149   6.114
11238TIP3    H133657   6.894   5.137   6.128
11238TIP3    H233658   6.995   5.206   6.038
11239TIP3   OH233659   7.829   3.752   1.487
11239TIP3    H133660   7.743   3.791   1.469
11239TIP3    H233661   7.888   3.796   1.426
11240TIP3   OH233662   6.376   6.732   3.589
11240TIP3    H133663   6.381   6.723   3.685
11240TIP3    H233664   6.321   6.659   3.561
11241TIP3   OH233665   3.738   0.466   5.975
11241TIP3    H133666   3.692   0.498   5.898
11241TIP3    H233667   3.709   0.376   5.985
11242TIP3   OH233668   3.191   1.909   5.889
11242TIP3    H133669   3.147   1.992   5.867
11242TIP3    H233670   3.163   1.849   5.819
11243TIP3   OH233671   5.717   1.522   1.125
11243TIP3    H133672   5.638   1.562   1.089
11243TIP3    H233673   5.754   1.589   1.182
11244TIP3   OH233674   6.414   3.437   3.461
11244TIP3    H133675   6.379   3.490   3.533
11244TIP3    H233676   6.337   3.416   3.408
11245TIP3   OH233677   4.548   6.868   5.872
11245TIP3    H133678   4.586   6.782   5.857
11245TIP3    H233679   4.457   6.850   5.895
11246TIP3   OH233680   2.684   1.308   0.099
11246TIP3    H133681   2.659   1.310   0.006
11246TIP3    H233682   2.735   1.388   0.112
11247TIP3   OH233683   2.071   3.985   6.497
11247TIP3    H133684   2.037   3.965   6.584
11247TIP3    H233685   2.005   4.041   6.457
11248TIP3   OH233686   4.293   6.962   4.072
11248TIP3    H133687   4.279   6.876   4.032
11248TIP3    H233688   4.299   6.944   4.166
11249TIP3   OH233689   0.378   2.426   0.435
11249TIP3    H133690   0.315   2.429   0.363
11249TIP3    H233691   0.328   2.393   0.509
11250TIP3   OH233692   7.960   6.727   0.436
11250TIP3    H133693   8.053   6.732   0.418
11250TIP3    H233694   7.955   6.712   0.531
11251TIP3   OH233695   4.307   4.791   2.489
11251TIP3    H133696   4.361   4.715   2.466
11251TIP3    H233697   4.253   4.761   2.562
11252TIP3   OH233698   8.104   6.976   0.578
11252TIP3    H133699   8.010   6.983   0.594
11252TIP3    H233700   8.110   6.944   0.488
11253TIP3   OH233701   2.592   1.233   0.357
11253TIP3    H133702   2.616   1.142   0.343
11253TIP3    H233703   2.622   1.279   0.279
11254TIP3   OH233704   3.742   1.092   2.503
11254TIP3    H133705   3.664   1.084   2.449
11254TIP3    H233706   3.808   1.038   2.459
11255TIP3   OH233707   6.263   2.048   6.668
11255TIP3    H133708   6.339   2.106   6.668
11255TIP3    H233709   6.299   1.960   6.661
11256TIP3   OH233710   2.241   6.742   1.491
11256TIP3    H133711   2.296   6.795   1.432
11256TIP3    H233712   2.214   6.803   1.559
11257TIP3   OH233713   7.474   0.309   4.939
11257TIP3    H133714   7.415   0.261   4.881
11257TIP3    H233715   7.533   0.356   4.880
11258TIP3   OH233716   0.924   0.870   4.699
11258TIP3    H133717   1.018   0.859   4.710
11258TIP3    H233718   0.894   0.786   4.664
11259TIP3   OH233719   5.903   1.764   6.347
11259TIP3    H133720   5.828   1.816   6.315
11259TIP3    H233721   5.963   1.830   6.382
11260TIP3   OH233722   2.737   4.389   4.591
11260TIP3    H133723   2.775   4.476   4.602
11260TIP3    H233724   2.804   4.339   4.545
11261TIP3   OH233725   6.552   0.227   5.116
11261TIP3    H133726   6.622   0.201   5.176
11261TIP3    H233727   6.500   0.291   5.166
11262TIP3   OH233728   1.034   3.691   3.620
11262TIP3    H133729   1.115   3.639   3.621
11262TIP3    H233730   0.970   3.635   3.664
11263TIP3   OH233731   0.667   0.244   5.211
11263TIP3    H133732   0.706   0.173   5.261
11263TIP3    H233733   0.600   0.202   5.157
11264TIP3   OH233734   4.921   7.820   3.916
11264TIP3    H133735   4.833   7.787   3.932
11264TIP3    H233736   4.975   7.780   3.983
11265TIP3   OH233737   7.602   1.539   5.976
11265TIP3    H133738   7.615   1.542   5.881
11265TIP3    H233739   7.575   1.628   5.999
11266TIP3   OH233740   4.106   7.050   5.553
11266TIP3    H133741   4.198   7.023   5.557
11266TIP3    H233742   4.057   6.967   5.556
11267TIP3   OH233743   0.273   2.234   6.439
11267TIP3    H133744   0.291   2.179   6.363
11267TIP3    H233745   0.210   2.185   6.491
11268TIP3   OH233746   2.039   2.927   1.405
11268TIP3    H133747   2.068   2.861   1.342
11268TIP3    H233748   2.119   2.975   1.427
11269TIP3   OH233749   0.732   5.572   0.160
11269TIP3    H133750   0.806   5.534   0.112
11269TIP3    H233751   0.698   5.639   0.102
11270TIP3   OH233752   0.481   5.822   2.446
11270TIP3    H133753   0.533   5.890   2.402
11270TIP3    H233754   0.488   5.841   2.539
11271TIP3   OH233755   4.568   4.544   5.900
11271TIP3    H133756   4.559   4.475   5.965
11271TIP3    H233757   4.478   4.568   5.879
11272TIP3   OH233758   0.062   3.740   6.419
11272TIP3    H133759   0.096   3.702   6.339
11272TIP3    H233760   0.125   3.810   6.442
11273TIP3   OH233761   3.811   7.188   5.854
11273TIP3    H133762   3.826   7.273   5.895
11273TIP3    H233763   3.894   7.142   5.862
11274TIP3   OH233764   4.393   0.504   0.896
11274TIP3    H133765   4.342   0.438   0.944
11274TIP3    H233766   4.468   0.521   0.953
11275TIP3   OH233767   3.018   4.537   5.574
11275TIP3    H133768   2.949   4.576   5.521
11275TIP3    H233769   2.986   4.545   5.664
11276TIP3   OH233770   5.566   6.781   5.802
11276TIP3    H133771   5.501   6.851   5.806
11276TIP3    H233772   5.531   6.720   5.737
11277TIP3   OH233773   7.459   0.434   0.480
11277TIP3    H133774   7.531   0.458   0.422
11277TIP3    H233775   7.458   0.503   0.547
11278TIP3   OH233776   5.792   2.142   4.651
11278TIP3    H133777   5.787   2.060   4.699
11278TIP3    H233778   5.738   2.128   4.573
11279TIP3   OH233779   1.065   5.756   4.407
11279TIP3    H133780   1.135   5.818   4.427
11279TIP3    H233781   1.023   5.791   4.329
11280TIP3   OH233782   5.846   0.647   3.180
11280TIP3    H133783   5.794   0.668   3.103
11280TIP3    H233784   5.847   0.551   3.183
11281TIP3   OH233785   1.073   0.567   4.857
11281TIP3    H133786   1.051   0.475   4.876
11281TIP3    H233787   1.072   0.573   4.762
11282TIP3   OH233788   0.198   1.483   0.561
11282TIP3    H133789   0.171   1.512   0.648
11282TIP3    H233790   0.150   1.540   0.501
11283TIP3   OH233791   7.034   7.059   4.998
11283TIP3    H133792   7.006   7.133   4.944
11283TIP3    H233793   7.120   7.035   4.964
11284TIP3   OH233794   8.003   0.966   2.122
11284TIP3    H133795   7.942   1.036   2.147
11284TIP3    H233796   8.054   0.950   2.200
11285TIP3   OH233797   4.346   2.192   1.821
11285TIP3    H133798   4.270   2.140   1.846
11285TIP3    H233799   4.317   2.283   1.828
11286TIP3   OH233800   3.206   7.046   4.770
11286TIP3    H133801   3.163   6.961   4.776
11286TIP3    H233802   3.283   7.038   4.826
11287TIP3   OH233803   2.164   1.257   4.523
11287TIP3    H133804   2.204   1.174   4.545
11287TIP3    H233805   2.193   1.275   4.433
11288TIP3   OH233806   3.545   3.530   0.018
11288TIP3    H133807   3.617   3.546  -0.043
11288TIP3    H233808   3.538   3.611   0.068
11289TIP3   OH233809   1.013   0.116   3.856
11289TIP3    H133810   0.955   0.179   3.899
11289TIP3    H233811   0.953   0.055   3.811
11290TIP3   OH233812   8.069   6.452   4.965
11290TIP3    H133813   7.985   6.412   4.943
11290TIP3    H233814   8.107   6.393   5.030
11291TIP3   OH233815   2.008   4.142   2.940
11291TIP3    H133816   2.050   4.069   2.894
11291TIP3    H233817   1.979   4.200   2.870
11292TIP3   OH233818   5.457   0.875   1.030
11292TIP3    H133819   5.468   0.935   1.104
11292TIP3    H233820   5.546   0.848   1.008
11293TIP3   OH233821   6.700   2.014   0.536
11293TIP3    H133822   6.682   1.964   0.616
11293TIP3    H233823   6.651   1.969   0.468
11294TIP3   OH233824   4.672   0.085   4.521
11294TIP3    H133825   4.699   0.002   4.562
11294TIP3    H233826   4.735   0.097   4.449
11295TIP3   OH233827   4.915   5.527   2.066
11295TIP3    H133828   5.003   5.499   2.040
11295TIP3    H233829   4.888   5.462   2.132
11296TIP3   OH233830   3.280   5.668   2.926
11296TIP3    H133831   3.331   5.599   2.969
11296TIP3    H233832   3.345   5.731   2.896
11297TIP3   OH233833   5.759   5.277   5.919
11297TIP3    H133834   5.670   5.248   5.898
11297TIP3    H233835   5.768   5.261   6.013
11298TIP3   OH233836   0.929   3.480   1.825
11298TIP3    H133837   0.841   3.457   1.853
11298TIP3    H233838   0.963   3.400   1.784
11299TIP3   OH233839   7.245   2.152   2.847
11299TIP3    H133840   7.188   2.220   2.882
11299TIP3    H233841   7.202   2.124   2.766
11300TIP3   OH233842   0.679   1.359   2.069
11300TIP3    H133843   0.671   1.410   2.150
11300TIP3    H233844   0.642   1.415   2.001
11301TIP3   OH233845   1.368   0.714   6.159
11301TIP3    H133846   1.459   0.744   6.167
11301TIP3    H233847   1.368   0.659   6.081
11302TIP3   OH233848   2.824   7.461   5.016
11302TIP3    H133849   2.761   7.521   4.976
11302TIP3    H233850   2.909   7.502   5.001
11303TIP3   OH233851   3.599   3.333   3.279
11303TIP3    H133852   3.523   3.280   3.301
11303TIP3    H233853   3.673   3.273   3.288
11304TIP3   OH233854   4.658   4.334   0.516
11304TIP3    H133855   4.682   4.269   0.450
11304TIP3    H233856   4.594   4.390   0.472
11305TIP3   OH233857   4.568   4.502   6.203
11305TIP3    H133858   4.600   4.564   6.269
11305TIP3    H233859   4.484   4.472   6.237
11306TIP3   OH233860   4.504   4.166   2.475
11306TIP3    H133861   4.434   4.186   2.537
11306TIP3    H233862   4.573   4.128   2.529
11307TIP3   OH233863   6.405   7.433   1.845
11307TIP3    H133864   6.388   7.339   1.847
11307TIP3    H233865   6.364   7.467   1.925
11308TIP3   OH233866   3.046   6.508   1.723
11308TIP3    H133867   3.003   6.496   1.808
11308TIP3    H233868   2.990   6.570   1.676
11309TIP3   OH233869   1.895   2.680   1.443
11309TIP3    H133870   1.805   2.664   1.472
11309TIP3    H233871   1.902   2.775   1.440
11310TIP3   OH233872   5.638   1.711   4.655
11310TIP3    H133873   5.714   1.667   4.616
11310TIP3    H233874   5.666   1.734   4.743
11311TIP3   OH233875   6.482   3.792   0.625
11311TIP3    H133876   6.446   3.879   0.607
11311TIP3    H233877   6.554   3.782   0.562
11312TIP3   OH233878   8.239   3.018   3.789
11312TIP3    H133879   8.149   3.033   3.819
11312TIP3    H233880   8.241   3.050   3.699
11313TIP3   OH233881   4.923   3.360   3.665
11313TIP3    H133882   4.911   3.454   3.677
11313TIP3    H233883   5.015   3.351   3.641
11314TIP3   OH233884   3.419   5.596   6.044
11314TIP3    H133885   3.480   5.568   6.113
11314TIP3    H233886   3.433   5.534   5.973
11315TIP3   OH233887   6.842   1.875   4.275
11315TIP3    H133888   6.933   1.905   4.280
11315TIP3    H233889   6.847   1.781   4.290
11316TIP3   OH233890   5.188   4.097   1.789
11316TIP3    H133891   5.230   4.066   1.708
11316TIP3    H233892   5.095   4.082   1.774
11317TIP3   OH233893   4.531   5.908   5.878
11317TIP3    H133894   4.446   5.863   5.883
11317TIP3    H233895   4.528   5.971   5.950
11318TIP3   OH233896   7.222   7.439   2.466
11318TIP3    H133897   7.165   7.488   2.408
11318TIP3    H233898   7.305   7.488   2.466
11319TIP3   OH233899   7.718   5.618   2.353
11319TIP3    H133900   7.739   5.634   2.261
11319TIP3    H233901   7.796   5.644   2.401
11320TIP3   OH233902   7.339   2.402   1.308
11320TIP3    H133903   7.418   2.357   1.278
11320TIP3    H233904   7.362   2.494   1.306
11321TIP3   OH233905   6.935   3.347   4.438
11321TIP3    H133906   6.859   3.403   4.418
11321TIP3    H233907   7.000   3.372   4.373
11322TIP3   OH233908   4.439   0.177   4.744
11322TIP3    H133909   4.385   0.249   4.710
11322TIP3    H233910   4.397   0.152   4.826
11323TIP3   OH233911   2.070   2.666   5.167
11323TIP3    H133912   1.989   2.649   5.216
11323TIP3    H233913   2.092   2.756   5.190
11324TIP3   OH233914   8.132   4.868   5.044
11324TIP3    H133915   8.188   4.816   4.986
11324TIP3    H233916   8.157   4.842   5.132
11325TIP3   OH233917   6.474   5.008   5.190
11325TIP3    H133918   6.493   4.946   5.120
11325TIP3    H233919   6.490   5.094   5.151
11326TIP3   OH233920   7.130   2.935   4.989
11326TIP3    H133921   7.074   2.919   4.913
11326TIP3    H233922   7.194   2.999   4.958
11327TIP3   OH233923   3.957   1.658   3.712
11327TIP3    H133924   4.007   1.665   3.631
11327TIP3    H233925   3.986   1.732   3.766
11328TIP3   OH233926   0.220   2.022   2.519
11328TIP3    H133927   0.128   1.996   2.509
11328TIP3    H233928   0.217   2.108   2.560
11329TIP3   OH233929   8.215   5.420   0.570
11329TIP3    H133930   8.234   5.513   0.582
11329TIP3    H233931   8.181   5.414   0.480
11330TIP3   OH233932   4.441   1.565   4.783
11330TIP3    H133933   4.347   1.576   4.795
11330TIP3    H233934   4.481   1.616   4.854
11331TIP3   OH233935   4.324   2.010   0.892
11331TIP3    H133936   4.268   2.050   0.958
11331TIP3    H233937   4.274   2.016   0.811
11332TIP3   OH233938   0.102   4.916   4.233
11332TIP3    H133939   0.192   4.946   4.248
11332TIP3    H233940   0.090   4.845   4.297
11333TIP3   OH233941   4.359   2.061   4.142
11333TIP3    H133942   4.295   2.008   4.189
11333TIP3    H233943   4.318   2.077   4.057
11334TIP3   OH233944   5.300   2.007   4.537
11334TIP3    H133945   5.395   1.997   4.543
11334TIP3    H233946   5.279   1.990   4.445
11335TIP3   OH233947   3.529   7.577   1.486
11335TIP3    H133948   3.441   7.544   1.474
11335TIP3    H233949   3.538   7.590   1.580
11336TIP3   OH233950   0.660   5.617   1.893
11336TIP3    H133951   0.599   5.544   1.893
11336TIP3    H233952   0.624   5.678   1.958
11337TIP3   OH233953   4.750   7.146   1.787
11337TIP3    H133954   4.807   7.198   1.732
11337TIP3    H233955   4.706   7.086   1.727
11338TIP3   OH233956   0.556   0.768   4.662
11338TIP3    H133957   0.602   0.824   4.724
11338TIP3    H233958   0.625   0.715   4.621
11339TIP3   OH233959   1.460   7.475   5.989
11339TIP3    H133960   1.537   7.454   6.042
11339TIP3    H233961   1.406   7.530   6.045
11340TIP3   OH233962   6.349   0.463   5.732
11340TIP3    H133963   6.445   0.465   5.742
11340TIP3    H233964   6.334   0.490   5.642
11341TIP3   OH233965   5.186   6.942   2.580
11341TIP3    H133966   5.177   7.014   2.643
11341TIP3    H233967   5.222   6.870   2.631
11342TIP3   OH233968   3.164   1.215   0.513
11342TIP3    H133969   3.078   1.202   0.473
11342TIP3    H233970   3.220   1.152   0.468
11343TIP3   OH233971   4.334   3.914   4.096
11343TIP3    H133972   4.324   3.990   4.154
11343TIP3    H233973   4.295   3.841   4.145
11344TIP3   OH233974   1.118   0.511   2.789
11344TIP3    H133975   1.054   0.492   2.859
11344TIP3    H233976   1.180   0.571   2.830
11345TIP3   OH233977   6.519   5.367   1.867
11345TIP3    H133978   6.597   5.422   1.880
11345TIP3    H233979   6.539   5.315   1.790
11346TIP3   OH233980   4.749   3.863   5.369
11346TIP3    H133981   4.793   3.939   5.407
11346TIP3    H233982   4.790   3.788   5.412
11347TIP3   OH233983   4.408   1.659   1.124
11347TIP3    H133984   4.431   1.573   1.159
11347TIP3    H233985   4.369   1.705   1.198
11348TIP3   OH233986   1.056   4.727   1.396
11348TIP3    H133987   0.994   4.681   1.339
11348TIP3    H233988   1.062   4.672   1.474
11349TIP3   OH233989   3.600   6.587   1.116
11349TIP3    H133990   3.620   6.640   1.039
11349TIP3    H233991   3.640   6.502   1.098
11350TIP3   OH233992   8.131   5.004   6.106
11350TIP3    H133993   8.112   5.082   6.159
11350TIP3    H233994   8.045   4.977   6.073
11351TIP3   OH233995   1.602   6.378   5.729
11351TIP3    H133996   1.569   6.465   5.752
11351TIP3    H233997   1.532   6.318   5.754
11352TIP3   OH233998   5.472   3.834   6.088
11352TIP3    H133999   5.503   3.766   6.029
11352TIP3    H234000   5.549   3.890   6.103
11353TIP3   OH234001   1.393   1.133   5.562
11353TIP3    H134002   1.302   1.163   5.561
11353TIP3    H234003   1.435   1.187   5.628
11354TIP3   OH234004   2.401   1.688   0.164
11354TIP3    H134005   2.359   1.606   0.187
11354TIP3    H234006   2.354   1.755   0.214
11355TIP3   OH234007   2.260   3.412   2.705
11355TIP3    H134008   2.191   3.395   2.642
11355TIP3    H234009   2.339   3.375   2.666
11356TIP3   OH234010   7.748   3.037   1.505
11356TIP3    H134011   7.802   3.062   1.580
11356TIP3    H234012   7.804   3.054   1.429
11357TIP3   OH234013   7.733   2.521   4.346
11357TIP3    H134014   7.725   2.545   4.253
11357TIP3    H234015   7.680   2.442   4.355
11358TIP3   OH234016   5.981   1.086   6.551
11358TIP3    H134017   5.948   1.088   6.641
11358TIP3    H234018   6.056   1.027   6.554
11359TIP3   OH234019   2.912   1.293   2.118
11359TIP3    H134020   2.857   1.229   2.162
11359TIP3    H234021   2.871   1.378   2.137
11360TIP3   OH234022   5.356   6.602   4.857
11360TIP3    H134023   5.351   6.593   4.762
11360TIP3    H234024   5.305   6.681   4.877
11361TIP3   OH234025   3.039   5.631   2.780
11361TIP3    H134026   3.125   5.661   2.810
11361TIP3    H234027   3.032   5.541   2.814
11362TIP3   OH234028   2.447   2.283   4.447
11362TIP3    H134029   2.419   2.220   4.381
11362TIP3    H234030   2.460   2.231   4.526
11363TIP3   OH234031   7.701   2.236   2.865
11363TIP3    H134032   7.696   2.287   2.946
11363TIP3    H234033   7.615   2.246   2.825
11364TIP3   OH234034   6.640   3.981   3.543
11364TIP3    H134035   6.603   3.913   3.599
11364TIP3    H234036   6.574   4.051   3.544
11365TIP3   OH234037   3.241   6.530   1.325
11365TIP3    H134038   3.176   6.575   1.379
11365TIP3    H234039   3.209   6.441   1.318
11366TIP3   OH234040   4.428   4.549   1.718
11366TIP3    H134041   4.509   4.567   1.767
11366TIP3    H234042   4.360   4.597   1.766
11367TIP3   OH234043   2.711   3.561   2.028
11367TIP3    H134044   2.668   3.642   2.002
11367TIP3    H234045   2.695   3.501   1.954
11368TIP3   OH234046   0.187   2.816   2.436
11368TIP3    H134047   0.271   2.852   2.466
11368TIP3    H234048   0.125   2.843   2.504
11369TIP3   OH234049   1.467   4.129   4.955
11369TIP3    H134050   1.453   4.211   4.908
11369TIP3    H234051   1.383   4.112   4.999
11370TIP3   OH234052   7.234   3.530   2.376
11370TIP3    H134053   7.173   3.524   2.303
11370TIP3    H234054   7.315   3.490   2.343
11371TIP3   OH234055   1.650   1.908   2.307
11371TIP3    H134056   1.744   1.915   2.324
11371TIP3    H234057   1.627   1.992   2.268
11372TIP3   OH234058   7.531   1.611   1.558
11372TIP3    H134059   7.590   1.620   1.483
11372TIP3    H234060   7.463   1.676   1.543
11373TIP3   OH234061   1.488   2.815   1.607
11373TIP3    H134062   1.538   2.733   1.611
11373TIP3    H234063   1.407   2.796   1.655
11374TIP3   OH234064   2.539   5.659   3.305
11374TIP3    H134065   2.499   5.729   3.357
11374TIP3    H234066   2.624   5.644   3.348
11375TIP3   OH234067   6.261   2.827   5.651
11375TIP3    H134068   6.325   2.893   5.677
11375TIP3    H234069   6.227   2.793   5.734
11376TIP3   OH234070   8.084   3.713   5.674
11376TIP3    H134071   8.040   3.785   5.628
11376TIP3    H234072   8.109   3.751   5.758
11377TIP3   OH234073   5.122   0.679   2.960
11377TIP3    H134074   5.104   0.585   2.968
11377TIP3    H234075   5.044   0.722   2.996
11378TIP3   OH234076   5.551   1.583   3.440
11378TIP3    H134077   5.605   1.531   3.500
11378TIP3    H234078   5.612   1.643   3.398
11379TIP3   OH234079   6.985   7.322   0.570
11379TIP3    H134080   6.908   7.368   0.536
11379TIP3    H234081   6.963   7.230   0.564
11380TIP3   OH234082   0.055   0.221   0.484
11380TIP3    H134083  -0.031   0.215   0.527
11380TIP3    H234084   0.080   0.313   0.491
11381TIP3   OH234085   3.052   3.643   3.221
11381TIP3    H134086   3.070   3.550   3.207
11381TIP3    H234087   3.137   3.685   3.213
11382TIP3   OH234088   6.864   5.817   3.447
11382TIP3    H134089   6.809   5.862   3.511
11382TIP3    H234090   6.939   5.785   3.498
11383TIP3   OH234091   5.805   1.674   0.030
11383TIP3    H134092   5.803   1.608   0.100
11383TIP3    H234093   5.867   1.740   0.060
11384TIP3   OH234094   8.025   3.804   3.423
11384TIP3    H134095   8.099   3.767   3.470
11384TIP3    H234096   7.954   3.740   3.437
11385TIP3   OH234097   6.983   4.114   0.088
11385TIP3    H134098   6.999   4.130   0.181
11385TIP3    H234099   6.981   4.018   0.081
11386TIP3   OH234100   5.499   3.694   6.593
11386TIP3    H134101   5.530   3.651   6.513
11386TIP3    H234102   5.544   3.779   6.592
11387TIP3   OH234103   2.313   2.820   3.075
11387TIP3    H134104   2.248   2.759   3.038
11387TIP3    H234105   2.263   2.873   3.137
11388TIP3   OH234106   1.727   7.734   4.215
11388TIP3    H134107   1.715   7.681   4.136
11388TIP3    H234108   1.726   7.825   4.184
11389TIP3   OH234109   1.994   0.206   2.862
11389TIP3    H134110   2.083   0.175   2.845
11389TIP3    H234111   1.979   0.186   2.954
11390TIP3   OH234112   0.437   6.813   5.946
11390TIP3    H134113   0.421   6.786   5.856
11390TIP3    H234114   0.350   6.814   5.987
11391TIP3   OH234115   3.795   2.178   2.687
11391TIP3    H134116   3.782   2.259   2.736
11391TIP3    H234117   3.888   2.179   2.664
11392TIP3   OH234118   6.671   5.877   3.653
11392TIP3    H134119   6.585   5.836   3.640
11392TIP3    H234120   6.688   5.868   3.747
11393TIP3   OH234121   6.964   4.501   6.522
11393TIP3    H134122   6.981   4.595   6.524
11393TIP3    H234123   7.026   4.464   6.586
11394TIP3   OH234124   4.972   5.969   3.176
11394TIP3    H134125   4.905   5.983   3.109
11394TIP3    H234126   4.970   6.048   3.229
11395TIP3   OH234127   3.853   0.733   3.078
11395TIP3    H134128   3.848   0.826   3.059
11395TIP3    H234129   3.765   0.708   3.105
11396TIP3   OH234130   6.516   0.407   0.236
11396TIP3    H134131   6.471   0.322   0.231
11396TIP3    H234132   6.609   0.384   0.242
11397TIP3   OH234133   6.235   2.838   1.085
11397TIP3    H134134   6.326   2.866   1.088
11397TIP3    H234135   6.215   2.828   0.992
11398TIP3   OH234136   6.162   3.365   3.915
11398TIP3    H134137   6.146   3.450   3.873
11398TIP3    H234138   6.132   3.301   3.850
11399TIP3   OH234139   3.188   4.235   3.067
11399TIP3    H134140   3.184   4.181   3.146
11399TIP3    H234141   3.148   4.318   3.092
11400TIP3   OH234142   5.744   5.020   2.295
11400TIP3    H134143   5.726   4.942   2.347
11400TIP3    H234144   5.658   5.059   2.279
11401TIP3   OH234145   4.552   6.251   0.816
11401TIP3    H134146   4.570   6.294   0.899
11401TIP3    H234147   4.632   6.203   0.796
11402TIP3   OH234148   7.235   4.784   2.109
11402TIP3    H134149   7.324   4.784   2.071
11402TIP3    H234150   7.227   4.870   2.150
11403TIP3   OH234151   3.702   5.467   5.091
11403TIP3    H134152   3.677   5.534   5.027
11403TIP3    H234153   3.736   5.517   5.166
11404TIP3   OH234154   2.158   6.880   4.079
11404TIP3    H134155   2.181   6.909   4.167
11404TIP3    H234156   2.116   6.957   4.039
11405TIP3   OH234157   4.560   1.270   3.767
11405TIP3    H134158   4.498   1.199   3.751
11405TIP3    H234159   4.560   1.281   3.862
11406TIP3   OH234160   6.557   5.883   0.989
11406TIP3    H134161   6.567   5.923   1.076
11406TIP3    H234162   6.604   5.800   0.995
11407TIP3   OH234163   2.749   4.585   6.704
11407TIP3    H134164   2.695   4.553   6.632
11407TIP3    H234165   2.689   4.633   6.760
11408TIP3   OH234166   7.879   2.675   5.246
11408TIP3    H134167   7.923   2.711   5.323
11408TIP3    H234168   7.810   2.739   5.227
11409TIP3   OH234169   2.757   2.653   2.079
11409TIP3    H134170   2.790   2.722   2.022
11409TIP3    H234171   2.667   2.639   2.052
11410TIP3   OH234172   3.180   7.029   3.462
11410TIP3    H134173   3.177   7.025   3.558
11410TIP3    H234174   3.089   7.034   3.435
11411TIP3   OH234175   8.159   6.937   5.700
11411TIP3    H134176   8.246   6.932   5.740
11411TIP3    H234177   8.107   6.873   5.747
11412TIP3   OH234178   1.545   2.752   0.864
11412TIP3    H134179   1.571   2.793   0.946
11412TIP3    H234180   1.469   2.803   0.834
11413TIP3   OH234181   5.122   0.384   2.942
11413TIP3    H134182   5.106   0.363   2.850
11413TIP3    H234183   5.102   0.303   2.989
11414TIP3   OH234184   2.557   4.673   4.206
11414TIP3    H134185   2.560   4.585   4.242
11414TIP3    H234186   2.647   4.705   4.211
11415TIP3   OH234187   7.503   6.679   3.046
11415TIP3    H134188   7.418   6.712   3.016
11415TIP3    H234189   7.520   6.727   3.127
11416TIP3   OH234190   3.251   4.824   1.513
11416TIP3    H134191   3.321   4.796   1.454
11416TIP3    H234192   3.184   4.859   1.455
11417TIP3   OH234193   2.093   5.980   5.882
11417TIP3    H134194   2.045   5.928   5.818
11417TIP3    H234195   2.171   6.011   5.836
11418TIP3   OH234196   0.099   1.732   4.138
11418TIP3    H134197   0.035   1.668   4.107
11418TIP3    H234198   0.129   1.777   4.058
11419TIP3   OH234199   5.559   7.785   1.140
11419TIP3    H134200   5.607   7.713   1.179
11419TIP3    H234201   5.469   7.754   1.134
11420TIP3   OH234202   1.686   0.301   0.639
11420TIP3    H134203   1.645   0.315   0.724
11420TIP3    H234204   1.665   0.379   0.589
11421TIP3   OH234205   2.580   7.547   6.279
11421TIP3    H134206   2.544   7.627   6.240
11421TIP3    H234207   2.630   7.576   6.355
11422TIP3   OH234208   1.606   2.789   3.775
11422TIP3    H134209   1.542   2.761   3.709
11422TIP3    H234210   1.555   2.799   3.855
11423TIP3   OH234211   0.680   1.322   5.515
11423TIP3    H134212   0.766   1.345   5.481
11423TIP3    H234213   0.671   1.228   5.497
11424TIP3   OH234214   1.649   0.988   6.688
11424TIP3    H134215   1.665   1.032   6.605
11424TIP3    H234216   1.630   1.058   6.750
11425TIP3   OH234217   2.485   1.488   0.505
11425TIP3    H134218   2.553   1.431   0.541
11425TIP3    H234219   2.497   1.571   0.551
11426TIP3   OH234220   7.852   1.137   2.825
11426TIP3    H134221   7.852   1.041   2.831
11426TIP3    H234222   7.764   1.159   2.795
11427TIP3   OH234223   0.059   2.656   1.343
11427TIP3    H134224   0.010   2.576   1.322
11427TIP3    H234225  -0.006   2.727   1.334
11428TIP3   OH234226   7.912   1.374   0.744
11428TIP3    H134227   7.976   1.303   0.751
11428TIP3    H234228   7.914   1.417   0.829
11429TIP3   OH234229   6.840   5.774   6.507
11429TIP3    H134230   6.880   5.782   6.594
11429TIP3    H234231   6.820   5.681   6.499
11430TIP3   OH234232   0.587   0.488   1.514
11430TIP3    H134233   0.539   0.567   1.488
11430TIP3    H234234   0.638   0.515   1.590
11431TIP3   OH234235   4.308   0.429   0.301
11431TIP3    H134236   4.241   0.407   0.366
11431TIP3    H234237   4.322   0.523   0.313
11432TIP3   OH234238   6.121   2.795   3.995
11432TIP3    H134239   6.181   2.817   3.923
11432TIP3    H234240   6.046   2.755   3.953
11433TIP3   OH234241   2.415   5.208   2.043
11433TIP3    H134242   2.400   5.236   1.953
11433TIP3    H234243   2.509   5.223   2.058
11434TIP3   OH234244   0.061   7.094   6.414
11434TIP3    H134245   0.003   7.031   6.372
11434TIP3    H234246   0.006   7.135   6.481
11435TIP3   OH234247   5.343   4.891   5.652
11435TIP3    H134248   5.359   4.954   5.582
11435TIP3    H234249   5.404   4.819   5.635
11436TIP3   OH234250   6.711   3.547   2.941
11436TIP3    H134251   6.715   3.638   2.910
11436TIP3    H234252   6.670   3.499   2.869
11437TIP3   OH234253   8.254   5.408   1.838
11437TIP3    H134254   8.211   5.492   1.853
11437TIP3    H234255   8.215   5.375   1.758
11438TIP3   OH234256   5.492   1.831   3.770
11438TIP3    H134257   5.522   1.919   3.746
11438TIP3    H234258   5.404   1.825   3.733
11439TIP3   OH234259   0.606   1.184   0.682
11439TIP3    H134260   0.514   1.187   0.709
11439TIP3    H234261   0.602   1.171   0.587
11440TIP3   OH234262   8.184   7.006   3.857
11440TIP3    H134263   8.239   7.080   3.831
11440TIP3    H234264   8.173   7.015   3.951
11441TIP3   OH234265   0.867   7.491   2.219
11441TIP3    H134266   0.827   7.461   2.301
11441TIP3    H234267   0.815   7.449   2.150
11442TIP3   OH234268   1.145   3.376   5.941
11442TIP3    H134269   1.061   3.333   5.925
11442TIP3    H234270   1.122   3.456   5.990
11443TIP3   OH234271   4.874   5.730   1.811
11443TIP3    H134272   4.849   5.639   1.827
11443TIP3    H234273   4.808   5.781   1.857
11444TIP3   OH234274   5.155   2.740   0.247
11444TIP3    H134275   5.160   2.645   0.251
11444TIP3    H234276   5.076   2.758   0.197
11445TIP3   OH234277   0.298   1.596   4.351
11445TIP3    H134278   0.263   1.631   4.269
11445TIP3    H234279   0.335   1.511   4.327
11446TIP3   OH234280   3.939   5.168   5.916
11446TIP3    H134281   3.893   5.118   5.848
11446TIP3    H234282   3.981   5.239   5.868
11447TIP3   OH234283   4.490   2.883   3.655
11447TIP3    H134284   4.490   2.807   3.597
11447TIP3    H234285   4.565   2.935   3.627
11448TIP3   OH234286   8.040   2.257   1.831
11448TIP3    H134287   8.030   2.178   1.778
11448TIP3    H234288   7.973   2.250   1.899
11449TIP3   OH234289   4.393   0.219   3.655
11449TIP3    H134290   4.301   0.241   3.670
11449TIP3    H234291   4.409   0.239   3.563
11450TIP3   OH234292   4.782   7.165   3.184
11450TIP3    H134293   4.831   7.226   3.129
11450TIP3    H234294   4.694   7.202   3.189
11451TIP3   OH234295   7.083   6.183   5.648
11451TIP3    H134296   7.156   6.149   5.596
11451TIP3    H234297   7.095   6.145   5.734
11452TIP3   OH234298   6.863   1.692   5.080
11452TIP3    H134299   6.928   1.761   5.088
11452TIP3    H234300   6.865   1.668   4.987
11453TIP3   OH234301   3.250   5.054   6.048
11453TIP3    H134302   3.294   5.124   6.096
11453TIP3    H234303   3.312   5.030   5.979
11454TIP3   OH234304   5.386   7.713   2.877
11454TIP3    H134305   5.313   7.700   2.938
11454TIP3    H234306   5.358   7.786   2.821
11455TIP3   OH234307   0.851   3.319   6.634
11455TIP3    H134308   0.879   3.271   6.556
11455TIP3    H234309   0.786   3.262   6.675
11456TIP3   OH234310   4.604   7.260   4.961
11456TIP3    H134311   4.673   7.237   5.023
11456TIP3    H234312   4.537   7.194   4.975
11457TIP3   OH234313   1.008   3.482   5.179
11457TIP3    H134314   1.012   3.573   5.149
11457TIP3    H234315   0.985   3.488   5.271
11458TIP3   OH234316   2.951   5.934   3.873
11458TIP3    H134317   2.970   5.846   3.840
11458TIP3    H234318   3.037   5.971   3.894
11459TIP3   OH234319   4.334   1.329   3.250
11459TIP3    H134320   4.288   1.288   3.323
11459TIP3    H234321   4.426   1.304   3.261
11460TIP3   OH234322   2.052   7.184   2.550
11460TIP3    H134323   1.984   7.185   2.482
11460TIP3    H234324   2.100   7.103   2.534
11461TIP3   OH234325   1.943   1.285   0.056
11461TIP3    H134326   2.003   1.335   0.001
11461TIP3    H234327   1.965   1.310   0.146
11462TIP3   OH234328   1.366   1.932   3.682
11462TIP3    H134329   1.391   1.857   3.735
11462TIP3    H234330   1.283   1.906   3.642
11463TIP3   OH234331   5.176   1.995   1.048
11463TIP3    H134332   5.219   2.080   1.047
11463TIP3    H234333   5.110   2.000   0.979
11464TIP3   OH234334   4.355   3.111   0.646
11464TIP3    H134335   4.296   3.091   0.572
11464TIP3    H234336   4.365   3.206   0.643
11465TIP3   OH234337   1.967   3.665   2.226
11465TIP3    H134338   1.928   3.751   2.240
11465TIP3    H234339   1.902   3.603   2.260
11466TIP3   OH234340   6.450   1.508   1.917
11466TIP3    H134341   6.426   1.565   1.990
11466TIP3    H234342   6.519   1.556   1.871
11467TIP3   OH234343   8.254   5.617   3.630
11467TIP3    H134344   8.219   5.673   3.699
11467TIP3    H234345   8.180   5.561   3.605
11468TIP3   OH234346   6.560   0.908   2.653
11468TIP3    H134347   6.589   0.821   2.626
11468TIP3    H234348   6.633   0.966   2.631
11469TIP3   OH234349   0.874   0.820   6.655
11469TIP3    H134350   0.852   0.757   6.723
11469TIP3    H234351   0.963   0.796   6.629
11470TIP3   OH234352   2.516   0.988   0.092
11470TIP3    H134353   2.422   0.976   0.106
11470TIP3    H234354   2.553   0.997   0.180
11471TIP3   OH234355   2.177   6.659   4.944
11471TIP3    H134356   2.136   6.579   4.911
11471TIP3    H234357   2.257   6.668   4.892
11472TIP3   OH234358   5.326   6.595   5.832
11472TIP3    H134359   5.252   6.610   5.773
11472TIP3    H234360   5.286   6.587   5.919
11473TIP3   OH234361   3.248   2.956   0.367
11473TIP3    H134362   3.197   2.876   0.360
11473TIP3    H234363   3.337   2.927   0.387
11474TIP3   OH234364   4.327   5.122   1.306
11474TIP3    H134365   4.241   5.112   1.347
11474TIP3    H234366   4.376   5.045   1.336
11475TIP3   OH234367   7.872   7.643   1.973
11475TIP3    H134368   7.795   7.689   2.005
11475TIP3    H234369   7.943   7.671   2.032
11476TIP3   OH234370   1.340   2.935   3.959
11476TIP3    H134371   1.352   2.882   3.880
11476TIP3    H234372   1.257   2.980   3.946
11477TIP3   OH234373   5.552   0.954   1.536
11477TIP3    H134374   5.503   0.994   1.607
11477TIP3    H234375   5.491   0.891   1.498
11478TIP3   OH234376   7.548   4.137   2.347
11478TIP3    H134377   7.550   4.108   2.439
11478TIP3    H234378   7.470   4.192   2.341
11479TIP3   OH234379   6.382   5.594   1.667
11479TIP3    H134380   6.433   5.603   1.586
11479TIP3    H234381   6.433   5.532   1.719
11480TIP3   OH234382   1.961   5.054   3.629
11480TIP3    H134383   2.034   5.048   3.568
11480TIP3    H234384   1.957   4.968   3.670
11481TIP3   OH234385   0.789   5.873   4.573
11481TIP3    H134386   0.854   5.803   4.579
11481TIP3    H234387   0.708   5.834   4.606
11482TIP3   OH234388   5.123   4.753   5.241
11482TIP3    H134389   5.090   4.744   5.330
11482TIP3    H234390   5.107   4.845   5.218
11483TIP3   OH234391   2.405   0.746   5.116
11483TIP3    H134392   2.338   0.730   5.049
11483TIP3    H234393   2.358   0.737   5.199
11484TIP3   OH234394   2.198   0.349   3.023
11484TIP3    H134395   2.248   0.268   3.011
11484TIP3    H234396   2.246   0.415   2.973
11485TIP3   OH234397   6.011   3.245   3.695
11485TIP3    H134398   5.963   3.250   3.613
11485TIP3    H234399   5.945   3.219   3.760
11486TIP3   OH234400   1.140   1.566   0.705
11486TIP3    H134401   1.127   1.513   0.626
11486TIP3    H234402   1.196   1.638   0.676
11487TIP3   OH234403   6.134   3.942   5.087
11487TIP3    H134404   6.047   3.975   5.109
11487TIP3    H234405   6.185   4.020   5.067
11488TIP3   OH234406   0.263   5.386   3.326
11488TIP3    H134407   0.253   5.439   3.405
11488TIP3    H234408   0.287   5.299   3.357
11489TIP3   OH234409   7.303   7.448   3.379
11489TIP3    H134410   7.311   7.530   3.330
11489TIP3    H234411   7.240   7.468   3.449
11490TIP3   OH234412   4.138   6.480   2.151
11490TIP3    H134413   4.070   6.541   2.122
11490TIP3    H234414   4.094   6.395   2.155
11491TIP3   OH234415   7.619   1.183   6.265
11491TIP3    H134416   7.645   1.243   6.196
11491TIP3    H234417   7.543   1.224   6.306
11492TIP3   OH234418   3.778   5.192   2.860
11492TIP3    H134419   3.697   5.190   2.911
11492TIP3    H234420   3.791   5.101   2.834
11493TIP3   OH234421   3.431   2.380   4.672
11493TIP3    H134422   3.400   2.405   4.585
11493TIP3    H234423   3.449   2.463   4.716
11494TIP3   OH234424   7.281   2.722   6.299
11494TIP3    H134425   7.192   2.721   6.262
11494TIP3    H234426   7.337   2.693   6.228
11495TIP3   OH234427   3.139   5.926   3.474
11495TIP3    H134428   3.170   5.836   3.488
11495TIP3    H234429   3.072   5.918   3.406
11496TIP3   OH234430   1.198   2.793   3.284
11496TIP3    H134431   1.267   2.830   3.339
11496TIP3    H234432   1.235   2.794   3.196
11497TIP3   OH234433   3.826   0.785   0.265
11497TIP3    H134434   3.835   0.801   0.359
11497TIP3    H234435   3.894   0.721   0.245
11498TIP3   OH234436   4.160   4.537   6.243
11498TIP3    H134437   4.193   4.520   6.332
11498TIP3    H234438   4.185   4.628   6.225
11499TIP3   OH234439   3.329   1.468   2.825
11499TIP3    H134440   3.346   1.546   2.878
11499TIP3    H234441   3.258   1.423   2.871
11500TIP3   OH234442   7.517   3.780   5.085
11500TIP3    H134443   7.583   3.847   5.069
11500TIP3    H234444   7.441   3.808   5.033
11501TIP3   OH234445   3.902   7.485   1.626
11501TIP3    H134446   3.912   7.442   1.710
11501TIP3    H234447   3.841   7.557   1.642
11502TIP3   OH234448   6.732   1.397   6.079
11502TIP3    H134449   6.724   1.317   6.132
11502TIP3    H234450   6.825   1.404   6.062
11503TIP3   OH234451   4.751   6.344   2.900
11503TIP3    H134452   4.716   6.380   2.818
11503TIP3    H234453   4.843   6.371   2.900
11504TIP3   OH234454   1.831   5.747   2.050
11504TIP3    H134455   1.892   5.793   1.991
11504TIP3    H234456   1.753   5.802   2.051
11505TIP3   OH234457   2.600   3.683   3.698
11505TIP3    H134458   2.595   3.600   3.651
11505TIP3    H234459   2.656   3.738   3.644
11506TIP3   OH234460   6.288   3.689   0.387
11506TIP3    H134461   6.311   3.662   0.298
11506TIP3    H234462   6.350   3.759   0.407
11507TIP3   OH234463   4.764   5.385   3.431
11507TIP3    H134464   4.842   5.330   3.435
11507TIP3    H234465   4.793   5.465   3.387
11508TIP3   OH234466   0.227   7.081   2.362
11508TIP3    H134467   0.279   7.161   2.372
11508TIP3    H234468   0.142   7.103   2.400
11509TIP3   OH234469   4.242   1.106   5.428
11509TIP3    H134470   4.293   1.048   5.484
11509TIP3    H234471   4.183   1.048   5.381
11510TIP3   OH234472   2.560   5.710   4.875
11510TIP3    H134473   2.566   5.806   4.883
11510TIP3    H234474   2.568   5.694   4.781
11511TIP3   OH234475   7.145   5.998   5.264
11511TIP3    H134476   7.157   6.054   5.187
11511TIP3    H234477   7.050   5.998   5.279
11512TIP3   OH234478   3.896   0.627   5.635
11512TIP3    H134479   3.825   0.571   5.603
11512TIP3    H234480   3.897   0.701   5.574
11513TIP3   OH234481   5.334   0.948   3.543
11513TIP3    H134482   5.386   0.891   3.599
11513TIP3    H234483   5.253   0.962   3.592
11514TIP3   OH234484   5.116   3.017   1.926
11514TIP3    H134485   5.106   3.111   1.912
11514TIP3    H234486   5.106   2.978   1.839
11515TIP3   OH234487   2.471   1.701   3.424
11515TIP3    H134488   2.427   1.777   3.384
11515TIP3    H234489   2.432   1.695   3.511
11516TIP3   OH234490   7.670   2.046   4.029
11516TIP3    H134491   7.695   2.036   4.121
11516TIP3    H234492   7.608   1.974   4.013
11517TIP3   OH234493   2.419   6.307   0.505
11517TIP3    H134494   2.491   6.292   0.566
11517TIP3    H234495   2.362   6.370   0.551
11518TIP3   OH234496   0.486   0.900   0.829
11518TIP3    H134497   0.508   0.988   0.861
11518TIP3    H234498   0.529   0.894   0.744
11519TIP3   OH234499   7.183   2.647   4.805
11519TIP3    H134500   7.248   2.623   4.738
11519TIP3    H234501   7.139   2.724   4.769
11520TIP3   OH234502   7.842   0.867   2.795
11520TIP3    H134503   7.791   0.811   2.736
11520TIP3    H234504   7.851   0.816   2.875
11521TIP3   OH234505   0.193   0.525   3.890
11521TIP3    H134506   0.233   0.564   3.812
11521TIP3    H234507   0.179   0.434   3.866
11522TIP3   OH234508   4.037   1.265   6.238
11522TIP3    H134509   4.044   1.357   6.213
11522TIP3    H234510   3.949   1.257   6.275
11523TIP3   OH234511   4.194   6.467   4.540
11523TIP3    H134512   4.230   6.381   4.561
11523TIP3    H234513   4.266   6.528   4.554
11524TIP3   OH234514   4.000   2.400   0.893
11524TIP3    H134515   4.009   2.453   0.972
11524TIP3    H234516   3.972   2.462   0.825
11525TIP3   OH234517   5.081   4.928   5.707
11525TIP3    H134518   5.081   4.981   5.786
11525TIP3    H234519   5.174   4.918   5.685
11526TIP3   OH234520   4.624   3.014   6.624
11526TIP3    H134521   4.657   2.992   6.537
11526TIP3    H234522   4.530   3.030   6.611
11527TIP3   OH234523   1.592   6.034   5.489
11527TIP3    H134524   1.590   5.949   5.533
11527TIP3    H234525   1.540   6.091   5.546
11528TIP3   OH234526   0.474   6.627   4.724
11528TIP3    H134527   0.554   6.647   4.772
11528TIP3    H234528   0.411   6.599   4.791
11529TIP3   OH234529   6.495   2.730   6.511
11529TIP3    H134530   6.449   2.759   6.589
11529TIP3    H234531   6.433   2.670   6.468
11530TIP3   OH234532   3.291   4.208   0.126
11530TIP3    H134533   3.332   4.295   0.124
11530TIP3    H234534   3.219   4.215   0.063
11531TIP3   OH234535   4.389   0.718   6.085
11531TIP3    H134536   4.382   0.801   6.132
11531TIP3    H234537   4.463   0.673   6.128
11532TIP3   OH234538   1.034   5.354   4.342
11532TIP3    H134539   1.087   5.279   4.371
11532TIP3    H234540   1.044   5.356   4.247
11533TIP3   OH234541   0.669   5.084   2.265
11533TIP3    H134542   0.681   5.016   2.331
11533TIP3    H234543   0.582   5.068   2.229
11534TIP3   OH234544   7.854   3.085   4.810
11534TIP3    H134545   7.919   3.023   4.775
11534TIP3    H234546   7.900   3.129   4.882
11535TIP3   OH234547   7.874   7.175   0.925
11535TIP3    H134548   7.944   7.176   0.860
11535TIP3    H234549   7.796   7.149   0.876
11536TIP3   OH234550   4.773   6.083   2.959
11536TIP3    H134551   4.783   6.173   2.927
11536TIP3    H234552   4.801   6.028   2.886
11537TIP3   OH234553   1.187   2.776   5.851
11537TIP3    H134554   1.176   2.727   5.769
11537TIP3    H234555   1.280   2.768   5.871
11538TIP3   OH234556   5.399   2.572   5.932
11538TIP3    H134557   5.322   2.602   5.883
11538TIP3    H234558   5.466   2.562   5.865
11539TIP3   OH234559   6.149   4.063   2.882
11539TIP3    H134560   6.213   4.003   2.843
11539TIP3    H234561   6.066   4.039   2.840
11540TIP3   OH234562   0.291   2.150   4.748
11540TIP3    H134563   0.228   2.132   4.678
11540TIP3    H234564   0.279   2.243   4.767
11541TIP3   OH234565   2.001   7.776   2.750
11541TIP3    H134566   1.956   7.797   2.832
11541TIP3    H234567   2.064   7.709   2.775
11542TIP3   OH234568   6.375   4.747   3.307
11542TIP3    H134569   6.462   4.780   3.327
11542TIP3    H234570   6.363   4.765   3.213
11543TIP3   OH234571   2.055   3.645   5.301
11543TIP3    H134572   2.008   3.728   5.300
11543TIP3    H234573   2.075   3.627   5.209
11544TIP3   OH234574   6.606   2.534   2.135
11544TIP3    H134575   6.648   2.508   2.217
11544TIP3    H234576   6.636   2.470   2.071
11545TIP3   OH234577   2.378   2.451   1.443
11545TIP3    H134578   2.383   2.391   1.518
11545TIP3    H234579   2.285   2.470   1.434
11546TIP3   OH234580   8.162   5.619   3.172
11546TIP3    H134581   8.191   5.528   3.181
11546TIP3    H234582   8.206   5.650   3.093
11547TIP3   OH234583   4.669   1.379   1.033
11547TIP3    H134584   4.707   1.308   1.085
11547TIP3    H234585   4.652   1.339   0.948
11548TIP3   OH234586   7.836   0.967   4.045
11548TIP3    H134587   7.849   0.987   3.952
11548TIP3    H234588   7.793   1.045   4.081
11549TIP3   OH234589   4.878   1.069   4.234
11549TIP3    H134590   4.888   1.095   4.142
11549TIP3    H234591   4.811   1.001   4.232
11550TIP3   OH234592   2.846   4.935   1.490
11550TIP3    H134593   2.806   4.920   1.405
11550TIP3    H234594   2.779   4.908   1.553
11551TIP3   OH234595   2.624   0.239   3.435
11551TIP3    H134596   2.656   0.328   3.452
11551TIP3    H234597   2.552   0.251   3.373
11552TIP3   OH234598   1.909   6.120   4.070
11552TIP3    H134599   1.816   6.135   4.049
11552TIP3    H234600   1.950   6.109   3.984
11553TIP3   OH234601   6.703   2.670   0.942
11553TIP3    H134602   6.762   2.622   0.883
11553TIP3    H234603   6.709   2.622   1.025
11554TIP3   OH234604   2.761   2.334   3.069
11554TIP3    H134605   2.746   2.245   3.038
11554TIP3    H234606   2.848   2.357   3.037
11555TIP3   OH234607   4.815   2.697   4.757
11555TIP3    H134608   4.904   2.682   4.789
11555TIP3    H234609   4.775   2.609   4.755
11556TIP3   OH234610   4.926   5.306   5.462
11556TIP3    H134611   4.942   5.387   5.511
11556TIP3    H234612   4.920   5.238   5.529
11557TIP3   OH234613   6.789   7.483   0.417
11557TIP3    H134614   6.858   7.544   0.392
11557TIP3    H234615   6.740   7.530   0.485
11558TIP3   OH234616   3.592   5.907   4.129
11558TIP3    H134617   3.649   5.868   4.063
11558TIP3    H234618   3.624   5.872   4.212
11559TIP3   OH234619   6.080   1.543   2.891
11559TIP3    H134620   5.999   1.491   2.885
11559TIP3    H234621   6.150   1.478   2.896
11560TIP3   OH234622   1.471   0.538   6.379
11560TIP3    H134623   1.494   0.602   6.446
11560TIP3    H234624   1.460   0.590   6.299
11561TIP3   OH234625   2.837   5.935   3.385
11561TIP3    H134626   2.805   5.965   3.470
11561TIP3    H234627   2.779   5.978   3.321
11562TIP3   OH234628   5.401   4.936   5.107
11562TIP3    H134629   5.484   4.892   5.091
11562TIP3    H234630   5.419   5.028   5.086
11563TIP3   OH234631   5.440   5.658   3.723
11563TIP3    H134632   5.466   5.750   3.735
11563TIP3    H234633   5.345   5.661   3.714
11564TIP3   OH234634   0.887   7.761   1.840
11564TIP3    H134635   0.963   7.810   1.811
11564TIP3    H234636   0.825   7.767   1.767
11565TIP3   OH234637   4.156   6.489   4.271
11565TIP3    H134638   4.175   6.463   4.361
11565TIP3    H234639   4.213   6.434   4.218
11566TIP3   OH234640   6.525   0.872   2.200
11566TIP3    H134641   6.545   0.908   2.114
11566TIP3    H234642   6.578   0.793   2.207
11567TIP3   OH234643   1.960   0.648   1.716
11567TIP3    H134644   1.967   0.563   1.760
11567TIP3    H234645   1.981   0.629   1.624
11568TIP3   OH234646   0.865   2.448   6.060
11568TIP3    H134647   0.840   2.442   6.153
11568TIP3    H234648   0.903   2.536   6.051
11569TIP3   OH234649   4.560   1.300   0.794
11569TIP3    H134650   4.525   1.217   0.762
11569TIP3    H234651   4.495   1.365   0.770
11570TIP3   OH234652   6.895   3.677   5.046
11570TIP3    H134653   6.812   3.719   5.071
11570TIP3    H234654   6.932   3.647   5.130
11571TIP3   OH234655   6.652   7.803   6.216
11571TIP3    H134656   6.743   7.823   6.236
11571TIP3    H234657   6.654   7.714   6.181
11572TIP3   OH234658   8.023   4.041   2.459
11572TIP3    H134659   8.079   4.112   2.492
11572TIP3    H234660   7.947   4.041   2.517
11573TIP3   OH234661   4.866   0.823   6.486
11573TIP3    H134662   4.886   0.737   6.522
11573TIP3    H234663   4.921   0.831   6.408
11574TIP3   OH234664   3.823   3.047   1.368
11574TIP3    H134665   3.792   3.138   1.363
11574TIP3    H234666   3.743   2.995   1.380
11575TIP3   OH234667   7.023   6.954   0.753
11575TIP3    H134668   6.984   6.875   0.715
11575TIP3    H234669   7.032   6.934   0.846
11576TIP3   OH234670   7.345   5.319   3.268
11576TIP3    H134671   7.382   5.375   3.199
11576TIP3    H234672   7.401   5.242   3.269
11577TIP3   OH234673   3.935   6.659   2.619
11577TIP3    H134674   3.861   6.682   2.563
11577TIP3    H234675   3.896   6.638   2.704
11578TIP3   OH234676   2.267   0.101   1.761
11578TIP3    H134677   2.232   0.019   1.725
11578TIP3    H234678   2.327   0.074   1.829
11579TIP3   OH234679   2.339   0.913   3.487
11579TIP3    H134680   2.248   0.887   3.502
11579TIP3    H234681   2.333   0.983   3.422
11580TIP3   OH234682   3.015   2.407   5.988
11580TIP3    H134683   2.938   2.447   5.949
11580TIP3    H234684   3.003   2.313   5.977
11581TIP3   OH234685   0.887   4.580   2.818
11581TIP3    H134686   0.872   4.653   2.878
11581TIP3    H234687   0.902   4.621   2.733
11582TIP3   OH234688   5.495   6.288   1.236
11582TIP3    H134689   5.538   6.371   1.218
11582TIP3    H234690   5.405   6.312   1.260
11583TIP3   OH234691   5.964   7.130   5.395
11583TIP3    H134692   6.048   7.170   5.372
11583TIP3    H234693   5.926   7.104   5.312
11584TIP3   OH234694   4.502   4.111   5.969
11584TIP3    H134695   4.532   4.116   6.060
11584TIP3    H234696   4.407   4.105   5.976
11585TIP3   OH234697   7.890   0.941   2.538
11585TIP3    H134698   7.900   0.852   2.503
11585TIP3    H234699   7.882   0.929   2.633
11586TIP3   OH234700   5.265   3.275   3.789
11586TIP3    H134701   5.222   3.357   3.766
11586TIP3    H234702   5.338   3.268   3.727
11587TIP3   OH234703   1.849   0.106   3.597
11587TIP3    H134704   1.838   0.117   3.691
11587TIP3    H234705   1.905   0.029   3.588
11588TIP3   OH234706   1.759   2.852   0.281
11588TIP3    H134707   1.706   2.826   0.206
11588TIP3    H234708   1.782   2.770   0.325
11589TIP3   OH234709   0.867   3.816   5.435
11589TIP3    H134710   0.833   3.727   5.431
11589TIP3    H234711   0.962   3.805   5.446
11590TIP3   OH234712   2.673   7.650   6.498
11590TIP3    H134713   2.696   7.733   6.457
11590TIP3    H234714   2.607   7.673   6.564
11591TIP3   OH234715   0.806   2.237   3.326
11591TIP3    H134716   0.885   2.275   3.363
11591TIP3    H234717   0.836   2.165   3.271
11592TIP3   OH234718   2.146   6.945   1.205
11592TIP3    H134719   2.233   6.949   1.244
11592TIP3    H234720   2.126   7.036   1.181
11593TIP3   OH234721   7.423   0.595   0.683
11593TIP3    H134722   7.339   0.599   0.730
11593TIP3    H234723   7.448   0.686   0.670
11594TIP3   OH234724   3.354   2.327   3.057
11594TIP3    H134725   3.359   2.415   3.095
11594TIP3    H234726   3.446   2.301   3.047
11595TIP3   OH234727   2.378   5.410   0.583
11595TIP3    H134728   2.398   5.396   0.675
11595TIP3    H234729   2.285   5.388   0.575
11596TIP3   OH234730   0.176   1.527   5.453
11596TIP3    H134731   0.205   1.576   5.530
11596TIP3    H234732   0.208   1.438   5.469
11597TIP3   OH234733   0.094   2.422   6.755
11597TIP3    H134734   0.073   2.397   6.665
11597TIP3    H234735   0.140   2.506   6.746
11598TIP3   OH234736   2.057   6.969   1.603
11598TIP3    H134737   2.004   6.916   1.544
11598TIP3    H234738   2.061   7.055   1.563
11599TIP3   OH234739   4.709   0.370   3.023
11599TIP3    H134740   4.769   0.301   2.995
11599TIP3    H234741   4.624   0.343   2.990
11600TIP3   OH234742   1.142   2.654   6.256
11600TIP3    H134743   1.098   2.655   6.171
11600TIP3    H234744   1.171   2.745   6.269
11601TIP3   OH234745   5.339   5.966   0.255
11601TIP3    H134746   5.337   6.059   0.277
11601TIP3    H234747   5.272   5.927   0.311
11602TIP3   OH234748   4.360   1.077   3.752
11602TIP3    H134749   4.300   1.151   3.754
11602TIP3    H234750   4.311   1.008   3.706
11603TIP3   OH234751   4.477   0.509   4.028
11603TIP3    H134752   4.400   0.453   4.034
11603TIP3    H234753   4.545   0.454   3.989
11604TIP3   OH234754   5.692   2.030   5.048
11604TIP3    H134755   5.759   1.988   5.102
11604TIP3    H234756   5.668   2.109   5.096
11605TIP3   OH234757   4.219   3.275   2.722
11605TIP3    H134758   4.206   3.346   2.659
11605TIP3    H234759   4.223   3.196   2.668
11606TIP3   OH234760   4.437   6.324   1.731
11606TIP3    H134761   4.415   6.369   1.649
11606TIP3    H234762   4.398   6.379   1.799
11607TIP3   OH234763   3.845   0.054   1.415
11607TIP3    H134764   3.764   0.003   1.415
11607TIP3    H234765   3.827   0.129   1.472
11608TIP3   OH234766   6.136   5.199   2.014
11608TIP3    H134767   6.144   5.294   2.006
11608TIP3    H234768   6.214   5.172   2.062
11609TIP3   OH234769   2.526   7.726   5.195
11609TIP3    H134770   2.515   7.632   5.207
11609TIP3    H234771   2.567   7.757   5.276
11610TIP3   OH234772   6.274   5.103   6.258
11610TIP3    H134773   6.292   5.140   6.345
11610TIP3    H234774   6.187   5.136   6.236
11611TIP3   OH234775   5.893   0.173   2.013
11611TIP3    H134776   5.835   0.225   2.069
11611TIP3    H234777   5.939   0.115   2.074
11612TIP3   OH234778   0.372   3.810   4.813
11612TIP3    H134779   0.414   3.892   4.839
11612TIP3    H234780   0.280   3.833   4.799
11613TIP3   OH234781   6.504   7.166   2.387
11613TIP3    H134782   6.508   7.129   2.475
11613TIP3    H234783   6.588   7.210   2.376
11614TIP3   OH234784   7.344   5.641   2.697
11614TIP3    H134785   7.419   5.621   2.641
11614TIP3    H234786   7.353   5.581   2.771
11615TIP3   OH234787   3.161   6.987   0.217
11615TIP3    H134788   3.069   6.961   0.218
11615TIP3    H234789   3.192   6.959   0.130
11616TIP3   OH234790   1.298   1.437   5.870
11616TIP3    H134791   1.207   1.424   5.896
11616TIP3    H234792   1.314   1.530   5.886
11617TIP3   OH234793   6.997   1.902   0.050
11617TIP3    H134794   6.980   1.972  -0.013
11617TIP3    H234795   7.083   1.868   0.027
11618TIP3   OH234796   8.284   0.461   1.078
11618TIP3    H134797   8.300   0.370   1.101
11618TIP3    H234798   8.189   0.471   1.080
11619TIP3   OH234799   2.536   5.741   1.016
11619TIP3    H134800   2.581   5.765   1.097
11619TIP3    H234801   2.479   5.815   0.997
11620TIP3   OH234802   0.413   2.136   0.657
11620TIP3    H134803   0.358   2.143   0.579
11620TIP3    H234804   0.421   2.226   0.689
11621TIP3   OH234805   7.767   2.475   6.541
11621TIP3    H134806   7.766   2.538   6.613
11621TIP3    H234807   7.677   2.443   6.535
11622TIP3   OH234808   6.396   1.146   6.616
11622TIP3    H134809   6.471   1.206   6.619
11622TIP3    H234810   6.409   1.088   6.691
11623TIP3   OH234811   0.276   1.239   5.546
11623TIP3    H134812   0.247   1.155   5.511
11623TIP3    H234813   0.349   1.218   5.604
11624TIP3   OH234814   6.605   4.415   3.146
11624TIP3    H134815   6.587   4.389   3.056
11624TIP3    H234816   6.688   4.371   3.168
11625TIP3   OH234817   7.101   0.585   4.418
11625TIP3    H134818   7.005   0.581   4.420
11625TIP3    H234819   7.128   0.497   4.394
11626TIP3   OH234820   1.217   0.227   5.028
11626TIP3    H134821   1.195   0.137   5.053
11626TIP3    H234822   1.190   0.280   5.103
11627TIP3   OH234823   1.365   0.543   4.960
11627TIP3    H134824   1.290   0.489   4.983
11627TIP3    H234825   1.438   0.507   5.011
11628TIP3   OH234826   5.078   7.267   5.834
11628TIP3    H134827   4.984   7.252   5.832
11628TIP3    H234828   5.092   7.327   5.908
11629TIP3   OH234829   1.870   1.798   3.350
11629TIP3    H134830   1.775   1.802   3.338
11629TIP3    H234831   1.886   1.710   3.384
11630TIP3   OH234832   1.073   6.748   5.590
11630TIP3    H134833   1.130   6.813   5.631
11630TIP3    H234834   1.004   6.733   5.655
11631TIP3   OH234835   3.103   3.906   5.226
11631TIP3    H134836   3.174   3.937   5.282
11631TIP3    H234837   3.134   3.922   5.137
11632TIP3   OH234838   7.187   4.470   3.302
11632TIP3    H134839   7.210   4.412   3.229
11632TIP3    H234840   7.264   4.525   3.314
11633TIP3   OH234841   3.222   4.127   1.516
11633TIP3    H134842   3.310   4.100   1.540
11633TIP3    H234843   3.165   4.057   1.548
11634TIP3   OH234844   5.300   2.410   1.373
11634TIP3    H134845   5.284   2.428   1.465
11634TIP3    H234846   5.213   2.411   1.332
11635TIP3   OH234847   1.669   5.495   2.977
11635TIP3    H134848   1.723   5.520   3.052
11635TIP3    H234849   1.624   5.575   2.952
11636TIP3   OH234850   2.591   0.888   4.634
11636TIP3    H134851   2.639   0.807   4.652
11636TIP3    H234852   2.636   0.926   4.559
11637TIP3   OH234853   0.917   4.496   3.171
11637TIP3    H134854   0.930   4.533   3.258
11637TIP3    H234855   0.920   4.571   3.112
11638TIP3   OH234856   5.408   5.764   6.492
11638TIP3    H134857   5.379   5.830   6.429
11638TIP3    H234858   5.498   5.790   6.512
11639TIP3   OH234859   5.773   0.497   3.475
11639TIP3    H134860   5.768   0.529   3.565
11639TIP3    H234861   5.776   0.576   3.422
11640TIP3   OH234862   1.559   4.424   1.227
11640TIP3    H134863   1.576   4.516   1.203
11640TIP3    H234864   1.639   4.397   1.272
11641TIP3   OH234865   6.036   4.472   1.032
11641TIP3    H134866   5.995   4.389   1.055
11641TIP3    H234867   5.980   4.508   0.964
11642TIP3   OH234868   5.338   0.897   5.791
11642TIP3    H134869   5.433   0.904   5.791
11642TIP3    H234870   5.308   0.981   5.756
11643TIP3   OH234871   6.695   3.774   0.441
11643TIP3    H134872   6.618   3.762   0.386
11643TIP3    H234873   6.766   3.732   0.393
11644TIP3   OH234874   2.422   0.165   2.612
11644TIP3    H134875   2.426   0.198   2.523
11644TIP3    H234876   2.485   0.218   2.661
11645TIP3   OH234877   4.943   5.567   4.299
11645TIP3    H134878   4.979   5.642   4.253
11645TIP3    H234879   5.019   5.513   4.320
11646TIP3   OH234880   6.989   0.707   4.091
11646TIP3    H134881   6.921   0.647   4.120
11646TIP3    H234882   6.954   0.794   4.111
11647TIP3   OH234883   0.989   4.565   0.272
11647TIP3    H134884   0.908   4.617   0.270
11647TIP3    H234885   0.960   4.475   0.260
11648TIP3   OH234886   4.108   2.272   3.669
11648TIP3    H134887   4.028   2.259   3.618
11648TIP3    H234888   4.125   2.366   3.664
11649TIP3   OH234889   7.269   0.642   0.292
11649TIP3    H134890   7.213   0.677   0.362
11649TIP3    H234891   7.357   0.643   0.330
11650TIP3   OH234892   8.141   7.101   4.401
11650TIP3    H134893   8.070   7.123   4.461
11650TIP3    H234894   8.214   7.074   4.457
11651TIP3   OH234895   3.155   2.112   2.314
11651TIP3    H134896   3.105   2.114   2.396
11651TIP3    H234897   3.089   2.118   2.246
11652TIP3   OH234898   8.151   4.235   3.515
11652TIP3    H134899   8.165   4.326   3.540
11652TIP3    H234900   8.220   4.216   3.452
11653TIP3   OH234901   2.839   3.776   1.831
11653TIP3    H134902   2.929   3.767   1.862
11653TIP3    H234903   2.824   3.870   1.826
11654TIP3   OH234904   8.092  -0.009   4.647
11654TIP3    H134905   8.134   0.074   4.666
11654TIP3    H234906   8.151  -0.053   4.586
11655TIP3   OH234907   4.949   0.046   3.247
11655TIP3    H134908   5.029   0.069   3.294
11655TIP3    H234909   4.896   0.126   3.249
11656TIP3   OH234910   0.151   5.314   1.207
11656TIP3    H134911   0.175   5.241   1.150
11656TIP3    H234912   0.186   5.392   1.163
11657TIP3   OH234913   3.456   6.490   3.987
11657TIP3    H134914   3.444   6.537   3.904
11657TIP3    H234915   3.378   6.436   3.995
11658TIP3   OH234916   6.270   0.049   2.521
11658TIP3    H134917   6.355   0.040   2.564
11658TIP3    H234918   6.275  -0.009   2.445
11659TIP3   OH234919   0.029   0.572   1.632
11659TIP3    H134920   0.071   0.644   1.679
11659TIP3    H234921   0.081   0.495   1.654
11660TIP3   OH234922   0.327   3.501   4.908
11660TIP3    H134923   0.403   3.537   4.952
11660TIP3    H234924   0.252   3.546   4.947
11661TIP3   OH234925   3.645   1.669   1.141
11661TIP3    H134926   3.679   1.752   1.173
11661TIP3    H234927   3.622   1.686   1.050
11662TIP3   OH234928   6.343   5.872   6.307
11662TIP3    H134929   6.353   5.930   6.383
11662TIP3    H234930   6.346   5.931   6.232
11663TIP3   OH234931   1.945   2.283   1.776
11663TIP3    H134932   1.896   2.276   1.694
11663TIP3    H234933   1.884   2.326   1.836
11664TIP3   OH234934   1.411   0.052   6.256
11664TIP3    H134935   1.401   0.146   6.240
11664TIP3    H234936   1.475   0.046   6.327
11665TIP3   OH234937   8.065   5.797   1.122
11665TIP3    H134938   7.998   5.863   1.141
11665TIP3    H234939   8.140   5.823   1.174
11666TIP3   OH234940   7.405   5.964   0.735
11666TIP3    H134941   7.400   6.054   0.702
11666TIP3    H234942   7.456   5.917   0.668
11667TIP3   OH234943   5.366   2.770   4.864
11667TIP3    H134944   5.392   2.681   4.886
11667TIP3    H234945   5.380   2.777   4.769
11668TIP3   OH234946   1.987   7.329   5.298
11668TIP3    H134947   2.030   7.375   5.226
11668TIP3    H234948   1.957   7.399   5.357
11669TIP3   OH234949   2.785   0.723   4.153
11669TIP3    H134950   2.701   0.679   4.143
11669TIP3    H234951   2.807   0.715   4.246
11670TIP3   OH234952   1.757   4.938   1.019
11670TIP3    H134953   1.841   4.971   0.988
11670TIP3    H234954   1.723   4.886   0.947
11671TIP3   OH234955   2.078   6.229   2.211
11671TIP3    H134956   2.047   6.250   2.300
11671TIP3    H234957   2.172   6.213   2.223
11672TIP3   OH234958   1.845   3.138   3.665
11672TIP3    H134959   1.769   3.161   3.717
11672TIP3    H234960   1.857   3.212   3.605
11673TIP3   OH234961   1.255   5.402   1.114
11673TIP3    H134962   1.160   5.411   1.126
11673TIP3    H234963   1.291   5.401   1.203
11674TIP3   OH234964   2.025   2.603   4.823
11674TIP3    H134965   1.954   2.646   4.872
11674TIP3    H234966   2.049   2.666   4.755
11675TIP3   OH234967   0.183   7.181   1.538
11675TIP3    H134968   0.130   7.248   1.494
11675TIP3    H234969   0.273   7.202   1.515
11676TIP3   OH234970   0.384   0.804   5.410
11676TIP3    H134971   0.370   0.780   5.318
11676TIP3    H234972   0.464   0.758   5.435
11677TIP3   OH234973   3.349   4.734   2.932
11677TIP3    H134974   3.416   4.771   2.875
11677TIP3    H234975   3.394   4.721   3.016
11678TIP3   OH234976   2.522   0.762   1.762
11678TIP3    H134977   2.427   0.759   1.748
11678TIP3    H234978   2.552   0.672   1.748
11679TIP3   OH234979   4.804   5.357   6.339
11679TIP3    H134980   4.743   5.404   6.395
11679TIP3    H234981   4.842   5.289   6.394
11680TIP3   OH234982   1.439   4.398   6.117
11680TIP3    H134983   1.398   4.327   6.067
11680TIP3    H234984   1.532   4.393   6.093
11681TIP3   OH234985   2.818   7.000   2.093
11681TIP3    H134986   2.804   7.095   2.097
11681TIP3    H234987   2.789   6.968   2.179
11682TIP3   OH234988   1.330   0.174   5.547
11682TIP3    H134989   1.401   0.238   5.554
11682TIP3    H234990   1.344   0.116   5.622
11683TIP3   OH234991   6.691   6.587   4.940
11683TIP3    H134992   6.686   6.609   4.847
11683TIP3    H234993   6.782   6.603   4.964
11684TIP3   OH234994   4.932   7.286   0.872
11684TIP3    H134995   4.879   7.271   0.794
11684TIP3    H234996   5.022   7.268   0.844
11685TIP3   OH234997   3.071   2.735   6.526
11685TIP3    H134998   3.136   2.668   6.551
11685TIP3    H234999   3.067   2.794   6.601
11686TIP3   OH235000   7.618   3.871   0.366
11686TIP3    H135001   7.684   3.941   0.371
11686TIP3    H235002   7.589   3.859   0.457
11687TIP3   OH235003   1.147   5.344   3.186
11687TIP3    H135004   1.119   5.434   3.169
11687TIP3    H235005   1.242   5.345   3.172
11688TIP3   OH235006   4.416   5.151   0.530
11688TIP3    H135007   4.483   5.094   0.492
11688TIP3    H235008   4.443   5.161   0.622
11689TIP3   OH235009   0.464   4.498   2.065
11689TIP3    H135010   0.441   4.552   1.990
11689TIP3    H235011   0.480   4.560   2.136
11690TIP3   OH235012   3.728   6.846   3.936
11690TIP3    H135013   3.680   6.888   3.864
11690TIP3    H235014   3.818   6.878   3.927
11691TIP3   OH235015   4.985   2.185   2.758
11691TIP3    H135016   5.068   2.229   2.773
11691TIP3    H235017   4.972   2.130   2.835
11692TIP3   OH235018   1.321   5.365   2.871
11692TIP3    H135019   1.335   5.416   2.950
11692TIP3    H235020   1.292   5.279   2.902
11693TIP3   OH235021   4.366   2.826   1.098
11693TIP3    H135022   4.357   2.784   1.183
11693TIP3    H235023   4.458   2.851   1.093
11694TIP3   OH235024   0.308   5.450   0.358
11694TIP3    H135025   0.249   5.520   0.386
11694TIP3    H235026   0.250   5.384   0.319
11695TIP3   OH235027   8.085   0.377   3.234
11695TIP3    H135028   8.101   0.409   3.323
11695TIP3    H235029   8.043   0.292   3.246
11696TIP3   OH235030   2.930   7.293   3.135
11696TIP3    H135031   2.973   7.358   3.191
11696TIP3    H235032   2.992   7.220   3.130
11697TIP3   OH235033   1.711   5.692   0.531
11697TIP3    H135034   1.617   5.704   0.516
11697TIP3    H235035   1.719   5.673   0.625
11698TIP3   OH235036   0.208   5.588   3.140
11698TIP3    H135037   0.229   5.541   3.059
11698TIP3    H235038   0.244   5.533   3.210
11699TIP3   OH235039   1.112   6.420   2.890
11699TIP3    H135040   1.191   6.421   2.836
11699TIP3    H235041   1.044   6.456   2.833
11700TIP3   OH235042   4.929   2.902   1.341
11700TIP3    H135043   4.871   2.977   1.325
11700TIP3    H235044   4.946   2.904   1.435
11701TIP3   OH235045   4.785   3.973   3.181
11701TIP3    H135046   4.726   4.035   3.138
11701TIP3    H235047   4.760   3.888   3.145
11702TIP3   OH235048   0.371   4.723   3.070
11702TIP3    H135049   0.410   4.636   3.064
11702TIP3    H235050   0.437   4.782   3.034
11703TIP3   OH235051   1.620   0.927   3.847
11703TIP3    H135052   1.693   0.878   3.884
11703TIP3    H235053   1.617   0.900   3.756
11704TIP3   OH235054   5.877   4.844   3.895
11704TIP3    H135055   5.833   4.760   3.903
11704TIP3    H235056   5.970   4.822   3.898
11705TIP3   OH235057   6.409   7.361   0.527
11705TIP3    H135058   6.360   7.440   0.549
11705TIP3    H235059   6.479   7.391   0.469
11706TIP3   OH235060   2.456   2.746   3.288
11706TIP3    H135061   2.419   2.759   3.201
11706TIP3    H235062   2.489   2.656   3.287
11707TIP3   OH235063   7.183   5.000   4.978
11707TIP3    H135064   7.092   4.980   5.000
11707TIP3    H235065   7.183   5.003   4.882
11708TIP3   OH235066   6.571   0.284   4.463
11708TIP3    H135067   6.578   0.338   4.542
11708TIP3    H235068   6.477   0.268   4.453
11709TIP3   OH235069   2.301   0.492   0.540
11709TIP3    H135070   2.268   0.486   0.630
11709TIP3    H235071   2.327   0.583   0.530
11710TIP3   OH235072   2.858   1.572   4.401
11710TIP3    H135073   2.818   1.659   4.395
11710TIP3    H235074   2.802   1.516   4.347
11711TIP3   OH235075   2.451   4.346   6.093
11711TIP3    H135076   2.382   4.331   6.158
11711TIP3    H235077   2.405   4.346   6.009
11712TIP3   OH235078   6.863   1.494   5.272
11712TIP3    H135079   6.925   1.431   5.234
11712TIP3    H235080   6.842   1.553   5.199
11713TIP3   OH235081   1.122   1.196   0.675
11713TIP3    H135082   1.201   1.142   0.667
11713TIP3    H235083   1.137   1.249   0.753
11714TIP3   OH235084   4.062   3.129   6.114
11714TIP3    H135085   4.032   3.160   6.028
11714TIP3    H235086   4.036   3.037   6.117
11715TIP3   OH235087   3.432   4.258   1.783
11715TIP3    H135088   3.501   4.194   1.798
11715TIP3    H235089   3.369   4.242   1.854
11716TIP3   OH235090   2.054   3.282   4.671
11716TIP3    H135091   2.067   3.275   4.766
11716TIP3    H235092   2.003   3.204   4.649
11717TIP3   OH235093   0.872   7.169   1.964
11717TIP3    H135094   0.815   7.245   1.961
11717TIP3    H235095   0.923   7.174   1.882
11718TIP3   OH235096   7.948   0.461   6.559
11718TIP3    H135097   7.927   0.505   6.641
11718TIP3    H235098   8.034   0.420   6.574
11719TIP3   OH235099   2.204   1.864   3.596
11719TIP3    H135100   2.206   1.773   3.626
11719TIP3    H235101   2.197   1.858   3.501
11720TIP3   OH235102   7.833   6.813   4.767
11720TIP3    H135103   7.904   6.785   4.709
11720TIP3    H235104   7.796   6.732   4.802
11721TIP3   OH235105   0.593   5.823   2.067
11721TIP3    H135106   0.650   5.769   2.120
11721TIP3    H235107   0.583   5.904   2.117
11722TIP3   OH235108   5.260   5.190   5.345
11722TIP3    H135109   5.326   5.257   5.365
11722TIP3    H235110   5.307   5.107   5.354
11723TIP3   OH235111   3.138   1.933   0.652
11723TIP3    H135112   3.106   1.866   0.712
11723TIP3    H235113   3.067   1.946   0.589
11724TIP3   OH235114   4.408   6.770   3.697
11724TIP3    H135115   4.487   6.800   3.651
11724TIP3    H235116   4.437   6.697   3.751
11725TIP3   OH235117   8.270   4.774   3.573
11725TIP3    H135118   8.252   4.810   3.659
11725TIP3    H235119   8.194   4.799   3.520
11726TIP3   OH235120   3.773   3.488   6.175
11726TIP3    H135121   3.788   3.488   6.080
11726TIP3    H235122   3.806   3.403   6.204
11727TIP3   OH235123   7.932   3.075   5.932
11727TIP3    H135124   7.860   3.028   5.973
11727TIP3    H235125   7.976   3.120   6.004
11728TIP3   OH235126   1.977   6.795   1.032
11728TIP3    H135127   2.033   6.868   1.059
11728TIP3    H235128   1.891   6.834   1.017
11729TIP3   OH235129   1.017   1.865   1.589
11729TIP3    H135130   0.968   1.914   1.524
11729TIP3    H235131   1.038   1.782   1.546
11730TIP3   OH235132   0.124   1.777   5.818
11730TIP3    H135133   0.100   1.740   5.903
11730TIP3    H235134   0.153   1.866   5.838
11731TIP3   OH235135   1.867   0.098   0.614
11731TIP3    H135136   1.952   0.135   0.590
11731TIP3    H235137   1.809   0.174   0.623
11732TIP3   OH235138   4.320   2.009   6.096
11732TIP3    H135139   4.229   2.036   6.089
11732TIP3    H235140   4.350   2.048   6.179
11733TIP3   OH235141   1.565   1.850   3.373
11733TIP3    H135142   1.605   1.876   3.455
11733TIP3    H235143   1.525   1.765   3.392
11734TIP3   OH235144   2.590   0.486   1.356
11734TIP3    H135145   2.542   0.466   1.276
11734TIP3    H235146   2.679   0.507   1.325
11735TIP3   OH235147   0.037   2.483   3.096
11735TIP3    H135148   0.033   2.392   3.127
11735TIP3    H235149  -0.054   2.513   3.100
11736TIP3   OH235150   7.122   3.107   2.658
11736TIP3    H135151   7.056   3.165   2.620
11736TIP3    H235152   7.083   3.020   2.654
11737TIP3   OH235153   0.954   2.184   6.186
11737TIP3    H135154   0.961   2.179   6.281
11737TIP3    H235155   1.037   2.224   6.158
11738TIP3   OH235156   5.194   7.285   4.690
11738TIP3    H135157   5.120   7.229   4.670
11738TIP3    H235158   5.188   7.357   4.627
11739TIP3   OH235159   0.661   7.663   1.640
11739TIP3    H135160   0.635   7.664   1.548
11739TIP3    H235161   0.692   7.573   1.655
11740TIP3   OH235162   7.538   6.472   4.245
11740TIP3    H135163   7.499   6.436   4.166
11740TIP3    H235164   7.575   6.555   4.218
11741TIP3   OH235165   7.113   3.259   4.133
11741TIP3    H135166   7.110   3.354   4.121
11741TIP3    H235167   7.156   3.226   4.054
11742TIP3   OH235168   0.802   4.805   0.096
11742TIP3    H135169   0.757   4.735   0.142
11742TIP3    H235170   0.828   4.867   0.165
11743TIP3   OH235171   0.671   4.571   3.811
11743TIP3    H135172   0.678   4.662   3.782
11743TIP3    H235173   0.676   4.519   3.731
11744TIP3   OH235174   1.468   6.902   5.545
11744TIP3    H135175   1.500   6.812   5.539
11744TIP3    H235176   1.547   6.956   5.542
11745TIP3   OH235177   3.681   1.116   5.865
11745TIP3    H135178   3.586   1.121   5.851
11745TIP3    H235179   3.691   1.051   5.934
11746TIP3   OH235180   7.498   4.967   4.040
11746TIP3    H135181   7.566   4.902   4.021
11746TIP3    H235182   7.481   5.009   3.955
11747TIP3   OH235183   1.568   7.052   0.213
11747TIP3    H135184   1.584   6.965   0.176
11747TIP3    H235185   1.472   7.060   0.216
11748TIP3   OH235186   5.711   4.019   6.030
11748TIP3    H135187   5.731   4.104   5.989
11748TIP3    H235188   5.792   3.993   6.073
11749TIP3   OH235189   4.242   6.706   5.959
11749TIP3    H135190   4.235   6.669   5.871
11749TIP3    H235191   4.172   6.664   6.008
11750TIP3   OH235192   6.396   3.491   3.774
11750TIP3    H135193   6.377   3.408   3.818
11750TIP3    H235194   6.486   3.480   3.741
11751TIP3   OH235195   1.785   1.016   1.442
11751TIP3    H135196   1.827   0.930   1.446
11751TIP3    H235197   1.695   0.998   1.414
11752TIP3   OH235198   6.208   3.368   5.698
11752TIP3    H135199   6.169   3.416   5.771
11752TIP3    H235200   6.154   3.391   5.622
11753TIP3   OH235201   2.789   5.593   4.575
11753TIP3    H135202   2.785   5.519   4.515
11753TIP3    H235203   2.855   5.567   4.640
11754TIP3   OH235204   2.961   6.118   1.830
11754TIP3    H135205   2.890   6.111   1.766
11754TIP3    H235206   3.008   6.035   1.823
11755TIP3   OH235207   1.630   6.919   5.109
11755TIP3    H135208   1.697   6.987   5.112
11755TIP3    H235209   1.673   6.841   5.143
11756TIP3   OH235210   0.080   5.868   4.789
11756TIP3    H135211   0.122   5.929   4.849
11756TIP3    H235212   0.144   5.856   4.719
11757TIP3   OH235213   7.197   6.548   3.042
11757TIP3    H135214   7.234   6.514   3.124
11757TIP3    H235215   7.237   6.634   3.031
11758TIP3   OH235216   8.120   0.373   1.326
11758TIP3    H135217   8.047   0.317   1.300
11758TIP3    H235218   8.198   0.326   1.297
11759TIP3   OH235219   4.941   6.141   2.544
11759TIP3    H135220   4.846   6.135   2.543
11759TIP3    H235221   4.965   6.173   2.457
11760TIP3   OH235222   0.596   4.553   5.588
11760TIP3    H135223   0.649   4.591   5.517
11760TIP3    H235224   0.519   4.610   5.593
11761TIP3   OH235225   3.843   3.964   0.560
11761TIP3    H135226   3.750   3.984   0.574
11761TIP3    H235227   3.870   4.023   0.490
11762TIP3   OH235228   5.883   4.547   0.373
11762TIP3    H135229   5.817   4.571   0.438
11762TIP3    H235230   5.950   4.616   0.380
11763TIP3   OH235231   1.943   5.275   3.404
11763TIP3    H135232   1.928   5.196   3.352
11763TIP3    H235233   1.946   5.243   3.495
11764TIP3   OH235234   6.779   6.347   1.116
11764TIP3    H135235   6.849   6.282   1.108
11764TIP3    H235236   6.725   6.334   1.038
11765TIP3   OH235237   5.822   0.844   2.718
11765TIP3    H135238   5.785   0.905   2.781
11765TIP3    H235239   5.756   0.838   2.649
11766TIP3   OH235240   4.011   5.502   6.092
11766TIP3    H135241   3.975   5.451   6.165
11766TIP3    H235242   3.942   5.564   6.070
11767TIP3   OH235243   7.294   6.817   2.995
11767TIP3    H135244   7.277   6.910   3.006
11767TIP3    H235245   7.261   6.797   2.907
11768TIP3   OH235246   4.422   4.933   4.392
11768TIP3    H135247   4.392   4.866   4.331
11768TIP3    H235248   4.405   4.896   4.478
11769TIP3   OH235249   0.806   7.458   2.511
11769TIP3    H135250   0.801   7.553   2.525
11769TIP3    H235251   0.811   7.421   2.599
11770TIP3   OH235252   2.626   4.470   6.497
11770TIP3    H135253   2.659   4.384   6.471
11770TIP3    H235254   2.565   4.494   6.427
11771TIP3   OH235255   0.713   3.412   3.482
11771TIP3    H135256   0.629   3.392   3.442
11771TIP3    H235257   0.766   3.334   3.466
11772TIP3   OH235258   5.815   7.629   0.426
11772TIP3    H135259   5.856   7.556   0.472
11772TIP3    H235260   5.770   7.589   0.352
11773TIP3   OH235261   5.455   5.301   5.475
11773TIP3    H135262   5.523   5.235   5.486
11773TIP3    H235263   5.473   5.366   5.543
11774TIP3   OH235264   8.295   0.154   5.436
11774TIP3    H135265   8.252   0.177   5.353
11774TIP3    H235266   8.238   0.087   5.475
11775TIP3   OH235267   3.789   3.750   4.018
11775TIP3    H135268   3.851   3.788   3.956
11775TIP3    H235269   3.773   3.661   3.985
11776TIP3   OH235270   0.493   2.226   5.167
11776TIP3    H135271   0.531   2.174   5.238
11776TIP3    H235272   0.409   2.256   5.201
11777TIP3   OH235273   2.015   0.903   1.944
11777TIP3    H135274   2.050   0.814   1.941
11777TIP3    H235275   1.921   0.893   1.924
11778TIP3   OH235276   5.822   3.102   3.862
11778TIP3    H135277   5.729   3.101   3.839
11778TIP3    H235278   5.823   3.133   3.953
11779TIP3   OH235279   5.009   5.530   1.054
11779TIP3    H135280   4.934   5.474   1.073
11779TIP3    H235281   4.971   5.610   1.018
11780TIP3   OH235282   4.104   2.915   1.030
11780TIP3    H135283   4.182   2.864   1.051
11780TIP3    H235284   4.137   2.994   0.988
11781TIP3   OH235285   7.647   5.992   4.787
11781TIP3    H135286   7.646   5.999   4.691
11781TIP3    H235287   7.687   6.074   4.816
11782TIP3   OH235288   4.979   4.952   3.924
11782TIP3    H135289   5.021   4.893   3.986
11782TIP3    H235290   5.040   4.959   3.851
11783TIP3   OH235291   6.706   5.786   0.378
11783TIP3    H135292   6.713   5.724   0.451
11783TIP3    H235293   6.716   5.872   0.418
11784TIP3   OH235294   1.458   4.897   2.254
11784TIP3    H135295   1.421   4.810   2.239
11784TIP3    H235296   1.384   4.949   2.284
11785TIP3   OH235297   0.282   5.941   0.442
11785TIP3    H135298   0.317   5.852   0.433
11785TIP3    H235299   0.238   5.958   0.359
11786TIP3   OH235300   6.173   7.249   4.040
11786TIP3    H135301   6.083   7.273   4.061
11786TIP3    H235302   6.180   7.156   4.061
11787TIP3   OH235303   8.223   5.137   1.908
11787TIP3    H135304   8.247   5.229   1.918
11787TIP3    H235305   8.304   5.093   1.884
11788TIP3   OH235306   6.070   6.688   1.533
11788TIP3    H135307   6.100   6.644   1.613
11788TIP3    H235308   5.981   6.657   1.520
11789TIP3   OH235309   0.182   5.037   5.391
11789TIP3    H135310   0.123   4.994   5.452
11789TIP3    H235311   0.256   4.977   5.381
11790TIP3   OH235312   7.878   4.728   1.371
11790TIP3    H135313   7.881   4.823   1.364
11790TIP3    H235314   7.865   4.697   1.282
11791TIP3   OH235315   0.638   4.058   1.261
11791TIP3    H135316   0.652   4.032   1.352
11791TIP3    H235317   0.553   4.101   1.260
11792TIP3   OH235318   3.713   4.137   4.747
11792TIP3    H135319   3.622   4.165   4.758
11792TIP3    H235320   3.712   4.083   4.667
11793TIP3   OH235321   5.348   1.622   5.030
11793TIP3    H135322   5.407   1.562   5.074
11793TIP3    H235323   5.273   1.568   5.005
11794TIP3   OH235324   4.903   1.301   2.130
11794TIP3    H135325   4.974   1.360   2.106
11794TIP3    H235326   4.836   1.315   2.063
11795TIP3   OH235327   7.130   5.394   0.956
11795TIP3    H135328   7.165   5.474   0.996
11795TIP3    H235329   7.076   5.425   0.883
11796TIP3   OH235330   8.070   4.842   0.989
11796TIP3    H135331   8.109   4.824   0.903
11796TIP3    H235332   8.072   4.758   1.035
11797TIP3   OH235333   0.867   0.236   3.156
11797TIP3    H135334   0.835   0.205   3.072
11797TIP3    H235335   0.892   0.327   3.141
11798TIP3   OH235336   1.019   4.864   5.274
11798TIP3    H135337   1.049   4.792   5.217
11798TIP3    H235338   1.043   4.836   5.362
11799TIP3   OH235339   7.185   4.663   5.594
11799TIP3    H135340   7.160   4.697   5.508
11799TIP3    H235341   7.105   4.667   5.646
11800TIP3   OH235342   0.038   4.236   4.825
11800TIP3    H135343   0.059   4.330   4.830
11800TIP3    H235344   0.059   4.212   4.734
11801TIP3   OH235345   4.174   4.268   4.870
11801TIP3    H135346   4.117   4.208   4.822
11801TIP3    H235347   4.211   4.215   4.941
11802TIP3   OH235348   3.615   7.633   1.934
11802TIP3    H135349   3.674   7.579   1.986
11802TIP3    H235350   3.602   7.712   1.986
11803TIP3   OH235351   5.472   3.628   3.406
11803TIP3    H135352   5.512   3.667   3.483
11803TIP3    H235353   5.399   3.686   3.384
11804TIP3   OH235354   2.309   0.460   2.785
11804TIP3    H135355   2.361   0.401   2.731
11804TIP3    H235356   2.334   0.548   2.756
11805TIP3   OH235357   6.188   2.900   1.632
11805TIP3    H135358   6.207   2.806   1.640
11805TIP3    H235359   6.256   2.934   1.574
11806TIP3   OH235360   7.181   5.000   1.111
11806TIP3    H135361   7.216   4.913   1.129
11806TIP3    H235362   7.139   5.027   1.192
11807TIP3   OH235363   3.658   7.783   4.801
11807TIP3    H135364   3.586   7.732   4.836
11807TIP3    H235365   3.634   7.799   4.709
11808TIP3   OH235366   3.318   0.609   6.357
11808TIP3    H135367   3.399   0.650   6.387
11808TIP3    H235368   3.333   0.591   6.264
11809TIP3   OH235369   3.153   1.145   0.124
11809TIP3    H135370   3.077   1.105   0.080
11809TIP3    H235371   3.188   1.075   0.179
11810TIP3   OH235372   2.483   6.234   6.077
11810TIP3    H135373   2.434   6.313   6.098
11810TIP3    H235374   2.549   6.227   6.146
11811TIP3   OH235375   7.565   5.633   3.246
11811TIP3    H135376   7.657   5.615   3.226
11811TIP3    H235377   7.564   5.724   3.274
11812TIP3   OH235378   6.050   1.866   2.394
11812TIP3    H135379   6.103   1.905   2.464
11812TIP3    H235380   6.061   1.925   2.319
11813TIP3   OH235381   4.990   3.950   2.608
11813TIP3    H135382   4.993   3.905   2.524
11813TIP3    H235383   5.036   4.033   2.592
11814TIP3   OH235384   2.213   5.761   2.510
11814TIP3    H135385   2.309   5.763   2.504
11814TIP3    H235386   2.189   5.849   2.539
11815TIP3   OH235387   1.190   5.243   2.330
11815TIP3    H135388   1.155   5.315   2.382
11815TIP3    H235389   1.271   5.277   2.292
11816TIP3   OH235390   5.255   4.254   3.962
11816TIP3    H135391   5.290   4.258   4.051
11816TIP3    H235392   5.208   4.336   3.951
11817TIP3   OH235393   3.337   2.888   4.414
11817TIP3    H135394   3.396   2.920   4.346
11817TIP3    H235395   3.367   2.932   4.494
11818TIP3   OH235396   0.539   0.444   2.762
11818TIP3    H135397   0.595   0.378   2.802
11818TIP3    H235398   0.600   0.512   2.732
11819TIP3   OH235399   5.676   6.262   4.815
11819TIP3    H135400   5.610   6.328   4.794
11819TIP3    H235401   5.759   6.305   4.797
11820TIP3   OH235402   3.248   0.056   2.705
11820TIP3    H135403   3.167   0.023   2.745
11820TIP3    H235404   3.222   0.139   2.665
11821TIP3   OH235405   7.085   2.754   5.185
11821TIP3    H135406   7.034   2.681   5.149
11821TIP3    H235407   7.105   2.809   5.110
11822TIP3   OH235408   0.070   0.650   6.470
11822TIP3    H135409   0.000   0.687   6.416
11822TIP3    H235410   0.103   0.725   6.520
11823TIP3   OH235411   6.838   1.215   3.483
11823TIP3    H135412   6.768   1.201   3.419
11823TIP3    H235413   6.806   1.287   3.538
11824TIP3   OH235414   3.997   7.539   4.648
11824TIP3    H135415   3.954   7.606   4.595
11824TIP3    H235416   3.992   7.459   4.596
11825TIP3   OH235417   8.009   4.781   4.264
11825TIP3    H135418   7.994   4.686   4.270
11825TIP3    H235419   8.001   4.811   4.355
11826TIP3   OH235420   6.063   0.117   1.370
11826TIP3    H135421   6.084   0.056   1.299
11826TIP3    H235422   6.146   0.158   1.393
11827TIP3   OH235423   6.221   1.011   5.819
11827TIP3    H135424   6.185   0.931   5.781
11827TIP3    H235425   6.221   1.074   5.747
11828TIP3   OH235426   5.762   0.064   5.906
11828TIP3    H135427   5.736   0.120   5.979
11828TIP3    H235428   5.778   0.124   5.834
11829TIP3   OH235429   2.713   6.617   5.769
11829TIP3    H135430   2.680   6.528   5.783
11829TIP3    H235431   2.804   6.615   5.799
11830TIP3   OH235432   2.282   0.711   6.579
11830TIP3    H135433   2.264   0.628   6.622
11830TIP3    H235434   2.377   0.718   6.579
11831TIP3   OH235435   6.383   4.577   4.408
11831TIP3    H135436   6.383   4.669   4.436
11831TIP3    H235437   6.379   4.528   4.490
11832TIP3   OH235438   1.492   2.229   6.200
11832TIP3    H135439   1.440   2.239   6.279
11832TIP3    H235440   1.579   2.261   6.224
11833TIP3   OH235441   2.264   0.208   0.911
11833TIP3    H135442   2.339   0.219   0.969
11833TIP3    H235443   2.268   0.116   0.885
11834TIP3   OH235444   3.861   0.753   2.699
11834TIP3    H135445   3.906   0.794   2.773
11834TIP3    H235446   3.769   0.776   2.711
11835TIP3   OH235447   2.414   2.115   2.437
11835TIP3    H135448   2.427   2.111   2.342
11835TIP3    H235449   2.464   2.040   2.471
11836TIP3   OH235450   0.368   6.672   3.119
11836TIP3    H135451   0.311   6.664   3.195
11836TIP3    H235452   0.336   6.606   3.058
11837TIP3   OH235453   0.675   1.482   1.827
11837TIP3    H135454   0.749   1.513   1.774
11837TIP3    H235455   0.600   1.532   1.795
11838TIP3   OH235456   5.422   6.577   0.410
11838TIP3    H135457   5.445   6.634   0.483
11838TIP3    H235458   5.348   6.525   0.443
11839TIP3   OH235459   5.090   7.705   5.284
11839TIP3    H135460   5.116   7.629   5.337
11839TIP3    H235461   5.163   7.716   5.222
11840TIP3   OH235462   3.618   0.350   4.476
11840TIP3    H135463   3.698   0.402   4.473
11840TIP3    H235464   3.552   0.404   4.432
11841TIP3   OH235465   6.637   6.529   6.340
11841TIP3    H135466   6.618   6.555   6.250
11841TIP3    H235467   6.614   6.436   6.343
11842TIP3   OH235468   6.859   3.304   3.594
11842TIP3    H135469   6.797   3.300   3.522
11842TIP3    H235470   6.945   3.300   3.552
11843TIP3   OH235471   7.378   3.654   5.784
11843TIP3    H135472   7.383   3.568   5.744
11843TIP3    H235473   7.383   3.715   5.710
11844TIP3   OH235474   3.562   0.822   5.706
11844TIP3    H135475   3.640   0.809   5.761
11844TIP3    H235476   3.495   0.853   5.767
11845TIP3   OH235477   5.764   6.583   4.840
11845TIP3    H135478   5.824   6.509   4.830
11845TIP3    H235479   5.688   6.559   4.786
11846TIP3   OH235480   0.781   7.152   1.622
11846TIP3    H135481   0.798   7.106   1.540
11846TIP3    H235482   0.733   7.090   1.675
11847TIP3   OH235483   1.698   0.603   1.959
11847TIP3    H135484   1.766   0.626   2.021
11847TIP3    H235485   1.663   0.520   1.991
11848TIP3   OH235486   6.866   4.729   2.947
11848TIP3    H135487   6.777   4.737   2.913
11848TIP3    H235488   6.869   4.792   3.019
11849TIP3   OH235489   6.468   4.657   2.150
11849TIP3    H135490   6.448   4.565   2.133
11849TIP3    H235491   6.564   4.659   2.160
11850TIP3   OH235492   0.216   0.912   2.876
11850TIP3    H135493   0.301   0.903   2.920
11850TIP3    H235494   0.232   0.880   2.787
11851TIP3   OH235495   6.210   0.460   1.388
11851TIP3    H135496   6.244   0.460   1.477
11851TIP3    H235497   6.125   0.504   1.395
11852TIP3   OH235498   2.685   1.237   5.112
11852TIP3    H135499   2.643   1.201   5.190
11852TIP3    H235500   2.614   1.279   5.064
11853TIP3   OH235501   1.006   2.491   4.395
11853TIP3    H135502   1.047   2.576   4.409
11853TIP3    H235503   0.934   2.489   4.457
11854TIP3   OH235504   0.316   3.526   3.945
11854TIP3    H135505   0.401   3.565   3.963
11854TIP3    H235506   0.333   3.457   3.881
11855TIP3   OH235507   6.243   6.410   1.271
11855TIP3    H135508   6.162   6.379   1.313
11855TIP3    H235509   6.212   6.461   1.197
11856TIP3   OH235510   5.909   6.067   0.251
11856TIP3    H135511   5.887   6.156   0.223
11856TIP3    H235512   5.826   6.029   0.280
11857TIP3   OH235513   2.713   2.532   5.605
11857TIP3    H135514   2.807   2.544   5.595
11857TIP3    H235515   2.686   2.487   5.525
11858TIP3   OH235516   2.028   5.128   2.282
11858TIP3    H135517   1.935   5.146   2.266
11858TIP3    H235518   2.046   5.171   2.366
11859TIP3   OH235519   2.947   1.793   0.450
11859TIP3    H135520   2.990   1.857   0.392
11859TIP3    H235521   2.869   1.767   0.402
11860TIP3   OH235522   4.730   0.144   1.186
11860TIP3    H135523   4.778   0.133   1.104
11860TIP3    H235524   4.761   0.227   1.221
11861TIP3   OH235525   4.785   0.876   1.892
11861TIP3    H135526   4.707   0.866   1.947
11861TIP3    H235527   4.835   0.797   1.907
11862TIP3   OH235528   3.838   5.691   2.583
11862TIP3    H135529   3.878   5.688   2.670
11862TIP3    H235530   3.833   5.600   2.555
11863TIP3   OH235531   7.367   7.076   5.820
11863TIP3    H135532   7.385   7.000   5.875
11863TIP3    H235533   7.423   7.145   5.855
11864TIP3   OH235534   1.925   6.736   4.943
11864TIP3    H135535   2.019   6.720   4.950
11864TIP3    H235536   1.909   6.747   4.850
11865TIP3   OH235537   0.221   5.936   2.365
11865TIP3    H135538   0.181   5.896   2.289
11865TIP3    H235539   0.274   5.866   2.404
11866TIP3   OH235540   1.149   1.758   3.338
11866TIP3    H135541   1.134   1.852   3.337
11866TIP3    H235542   1.103   1.725   3.261
11867TIP3   OH235543   6.718   4.568   2.562
11867TIP3    H135544   6.659   4.605   2.627
11867TIP3    H235545   6.751   4.488   2.603
11868TIP3   OH235546   2.429   2.592   0.094
11868TIP3    H135547   2.374   2.670   0.083
11868TIP3    H235548   2.494   2.598   0.024
11869TIP3   OH235549   1.801   2.688   6.654
11869TIP3    H135550   1.735   2.757   6.647
11869TIP3    H235551   1.765   2.615   6.602
11870TIP3   OH235552   6.153   6.261   3.709
11870TIP3    H135553   6.248   6.253   3.714
11870TIP3    H235554   6.138   6.354   3.691
11871TIP3   OH235555   1.360   5.915   1.156
11871TIP3    H135556   1.405   5.839   1.194
11871TIP3    H235557   1.307   5.878   1.086
11872TIP3   OH235558   2.495   4.669   4.689
11872TIP3    H135559   2.444   4.592   4.662
11872TIP3    H235560   2.507   4.719   4.608
11873TIP3   OH235561   3.609   5.553   3.333
11873TIP3    H135562   3.669   5.481   3.350
11873TIP3    H235563   3.653   5.631   3.366
11874TIP3   OH235564   3.967   3.984   3.647
11874TIP3    H135565   4.049   4.033   3.647
11874TIP3    H235566   3.950   3.965   3.555
11875TIP3   OH235567   4.838   1.144   1.850
11875TIP3    H135568   4.802   1.056   1.858
11875TIP3    H235569   4.924   1.139   1.891
11876TIP3   OH235570   1.798   7.202   0.219
11876TIP3    H135571   1.861   7.156   0.275
11876TIP3    H235572   1.724   7.142   0.212
11877TIP3   OH235573   4.595   4.791   1.163
11877TIP3    H135574   4.640   4.708   1.145
11877TIP3    H235575   4.632   4.852   1.099
11878TIP3   OH235576   6.248   6.485   2.441
11878TIP3    H135577   6.296   6.433   2.505
11878TIP3    H235578   6.191   6.422   2.397
11879TIP3   OH235579   0.725   3.399   5.714
11879TIP3    H135580   0.777   3.318   5.710
11879TIP3    H235581   0.790   3.469   5.717
11880TIP3   OH235582   2.929   5.917   4.885
11880TIP3    H135583   2.992   5.893   4.817
11880TIP3    H235584   2.848   5.935   4.837
11881TIP3   OH235585   1.917   5.847   0.634
11881TIP3    H135586   1.879   5.791   0.567
11881TIP3    H235587   1.896   5.803   0.717
11882TIP3   OH235588   1.410   1.289   5.286
11882TIP3    H135589   1.392   1.247   5.371
11882TIP3    H235590   1.500   1.266   5.267
11883TIP3   OH235591   5.640  -0.035   4.106
11883TIP3    H135592   5.662   0.016   4.184
11883TIP3    H235593   5.602   0.029   4.045
11884TIP3   OH235594   2.226   2.467   3.228
11884TIP3    H135595   2.289   2.461   3.301
11884TIP3    H235596   2.255   2.399   3.167
11885TIP3   OH235597   3.212   2.048   5.624
11885TIP3    H135598   3.243   1.979   5.566
11885TIP3    H235599   3.132   2.081   5.582
11886TIP3   OH235600   2.974   6.609   5.993
11886TIP3    H135601   3.030   6.635   5.921
11886TIP3    H235602   3.026   6.546   6.043
11887TIP3   OH235603   1.057   2.985   3.957
11887TIP3    H135604   1.001   2.916   3.992
11887TIP3    H235605   1.022   3.002   3.869
11888TIP3   OH235606   1.376   1.555   3.660
11888TIP3    H135607   1.409   1.465   3.662
11888TIP3    H235608   1.390   1.583   3.570
11889TIP3   OH235609   4.330   5.367   1.783
11889TIP3    H135610   4.381   5.356   1.703
11889TIP3    H235611   4.277   5.445   1.768
11890TIP3   OH235612   2.702   6.886   1.515
11890TIP3    H135613   2.641   6.838   1.572
11890TIP3    H235614   2.663   6.881   1.428
11891TIP3   OH235615   0.594   1.106   2.876
11891TIP3    H135616   0.686   1.082   2.866
11891TIP3    H235617   0.555   1.034   2.924
11892TIP3   OH235618   0.532   6.137   4.074
11892TIP3    H135619   0.538   6.161   3.981
11892TIP3    H235620   0.472   6.201   4.111
11893TIP3   OH235621   4.481   2.669   4.338
11893TIP3    H135622   4.406   2.687   4.281
11893TIP3    H235623   4.515   2.756   4.361
11894TIP3   OH235624   6.835   2.027   3.823
11894TIP3    H135625   6.923   2.025   3.785
11894TIP3    H235626   6.783   1.970   3.766
11895TIP3   OH235627   0.379   7.733   4.373
11895TIP3    H135628   0.296   7.703   4.409
11895TIP3    H235629   0.438   7.658   4.383
11896TIP3   OH235630   0.713   0.290   2.878
11896TIP3    H135631   0.782   0.262   2.817
11896TIP3    H235632   0.753   0.362   2.927
11897TIP3   OH235633   5.626   4.112   5.264
11897TIP3    H135634   5.607   4.202   5.291
11897TIP3    H235635   5.591   4.058   5.335
11898TIP3   OH235636   0.660   6.055   2.277
11898TIP3    H135637   0.569   6.085   2.270
11898TIP3    H235638   0.712   6.135   2.267
11899TIP3   OH235639   4.452   6.324   3.159
11899TIP3    H135640   4.429   6.341   3.067
11899TIP3    H235641   4.506   6.245   3.156
11900TIP3   OH235642   3.880   4.316   6.265
11900TIP3    H135643   3.927   4.393   6.294
11900TIP3    H235644   3.947   4.250   6.250
11901TIP3   OH235645   6.937   2.923   5.554
11901TIP3    H135646   7.018   2.932   5.505
11901TIP3    H235647   6.918   3.012   5.585
11902TIP3   OH235648   0.048   1.869   5.225
11902TIP3    H135649  -0.024   1.920   5.187
11902TIP3    H235650   0.123   1.890   5.169
11903TIP3   OH235651   7.279   2.495   5.077
11903TIP3    H135652   7.328   2.424   5.036
11903TIP3    H235653   7.261   2.556   5.005
11904TIP3   OH235654   2.766   5.599   3.511
11904TIP3    H135655   2.855   5.615   3.480
11904TIP3    H235656   2.750   5.506   3.492
11905TIP3   OH235657   4.459   5.059   5.695
11905TIP3    H135658   4.503   4.974   5.690
11905TIP3    H235659   4.471   5.097   5.608
11906TIP3   OH235660   7.104   2.635   1.953
11906TIP3    H135661   7.165   2.623   1.881
11906TIP3    H235662   7.093   2.730   1.960
11907TIP3   OH235663   1.522   0.493   3.958
11907TIP3    H135664   1.486   0.581   3.953
11907TIP3    H235665   1.454   0.437   3.920
11908TIP3   OH235666   0.026   2.914   0.074
11908TIP3    H135667   0.034   2.827   0.036
11908TIP3    H235668   0.071   2.971   0.012
11909TIP3   OH235669   0.885   7.395   3.557
11909TIP3    H135670   0.840   7.458   3.613
11909TIP3    H235671   0.883   7.313   3.606
11910TIP3   OH235672   5.717   1.196   5.824
11910TIP3    H135673   5.680   1.283   5.815
11910TIP3    H235674   5.812   1.209   5.826
11911TIP3   OH235675   2.937   6.231   5.495
11911TIP3    H135676   2.990   6.173   5.440
11911TIP3    H235677   2.988   6.311   5.502
11912TIP3   OH235678   2.494   7.356   3.953
11912TIP3    H135679   2.566   7.390   4.006
11912TIP3    H235680   2.527   7.274   3.918
11913TIP3   OH235681   7.680   4.674   2.193
11913TIP3    H135682   7.736   4.648   2.119
11913TIP3    H235683   7.597   4.697   2.152
11914TIP3   OH235684   4.588   2.317   2.886
11914TIP3    H135685   4.622   2.234   2.853
11914TIP3    H235686   4.569   2.300   2.978
11915TIP3   OH235687   2.378   0.508   4.749
11915TIP3    H135688   2.450   0.521   4.811
11915TIP3    H235689   2.416   0.456   4.678
11916TIP3   OH235690   2.441   5.109   4.134
11916TIP3    H135691   2.353   5.076   4.117
11916TIP3    H235692   2.427   5.193   4.177
11917TIP3   OH235693   7.433   4.837   5.061
11917TIP3    H135694   7.409   4.930   5.063
11917TIP3    H235695   7.414   4.806   5.150
11918TIP3   OH235696   2.269   2.325   6.408
11918TIP3    H135697   2.269   2.403   6.352
11918TIP3    H235698   2.359   2.293   6.404
11919TIP3   OH235699   2.706   5.374   2.427
11919TIP3    H135700   2.637   5.424   2.383
11919TIP3    H235701   2.787   5.414   2.397
11920TIP3   OH235702   1.721   1.872   5.006
11920TIP3    H135703   1.676   1.910   5.081
11920TIP3    H235704   1.813   1.864   5.034
11921TIP3   OH235705   1.846   5.552   4.445
11921TIP3    H135706   1.796   5.518   4.371
11921TIP3    H235707   1.817   5.499   4.519
11922TIP3   OH235708   5.666   2.871   0.420
11922TIP3    H135709   5.576   2.882   0.388
11922TIP3    H235710   5.687   2.780   0.400
11923TIP3   OH235711   7.770   2.872   4.337
11923TIP3    H135712   7.850   2.832   4.302
11923TIP3    H235713   7.739   2.809   4.403
11924TIP3   OH235714   7.380   4.796   3.789
11924TIP3    H135715   7.367   4.891   3.786
11924TIP3    H235716   7.475   4.785   3.784
11925TIP3   OH235717   1.621   2.038   0.808
11925TIP3    H135718   1.546   2.040   0.867
11925TIP3    H235719   1.651   2.129   0.804
11926TIP3   OH235720   1.155   0.729   3.364
11926TIP3    H135721   1.202   0.710   3.445
11926TIP3    H235722   1.103   0.650   3.348
11927TIP3   OH235723   6.829   4.934   0.846
11927TIP3    H135724   6.849   4.948   0.939
11927TIP3    H235725   6.864   5.011   0.802
11928TIP3   OH235726   0.579   1.966   6.263
11928TIP3    H135727   0.632   1.919   6.198
11928TIP3    H235728   0.609   2.057   6.256
11929TIP3   OH235729   3.153   5.486   4.449
11929TIP3    H135730   3.224   5.521   4.395
11929TIP3    H235731   3.122   5.562   4.499
11930TIP3   OH235732   1.577   7.275   0.749
11930TIP3    H135733   1.589   7.245   0.658
11930TIP3    H235734   1.576   7.194   0.800
11931TIP3   OH235735   2.843   5.913   2.610
11931TIP3    H135736   2.893   5.918   2.692
11931TIP3    H235737   2.768   5.857   2.631
11932TIP3   OH235738   0.379   4.837   5.330
11932TIP3    H135739   0.326   4.800   5.259
11932TIP3    H235740   0.389   4.765   5.392
11933TIP3   OH235741   2.322   6.024   5.205
11933TIP3    H135742   2.333   5.952   5.142
11933TIP3    H235743   2.262   6.084   5.161
11934TIP3   OH235744   3.568   5.620   1.455
11934TIP3    H135745   3.594   5.711   1.472
11934TIP3    H235746   3.489   5.628   1.401
11935TIP3   OH235747   0.104   1.814   0.916
11935TIP3    H135748   0.197   1.793   0.923
11935TIP3    H235749   0.082   1.796   0.825
11936TIP3   OH235750   7.405   3.416   3.604
11936TIP3    H135751   7.442   3.470   3.674
11936TIP3    H235752   7.347   3.354   3.649
11937TIP3   OH235753   3.364   1.757   2.049
11937TIP3    H135754   3.409   1.824   1.998
11937TIP3    H235755   3.271   1.775   2.035
11938TIP3   OH235756   0.300   0.536   6.322
11938TIP3    H135757   0.243   0.571   6.390
11938TIP3    H235758   0.347   0.612   6.289
11939TIP3   OH235759   1.329   6.060   2.540
11939TIP3    H135760   1.284   5.979   2.514
11939TIP3    H235761   1.411   6.031   2.579
11940TIP3   OH235762   1.051   1.624   1.979
11940TIP3    H135763   1.106   1.577   2.042
11940TIP3    H235764   0.976   1.652   2.030
11941TIP3   OH235765   2.220   7.399   5.095
11941TIP3    H135766   2.166   7.475   5.118
11941TIP3    H235767   2.218   7.398   4.999
11942TIP3   OH235768   4.673   6.293   1.855
11942TIP3    H135769   4.585   6.296   1.820
11942TIP3    H235770   4.725   6.248   1.788
11943TIP3   OH235771   7.230   4.003   2.999
11943TIP3    H135772   7.170   4.027   3.070
11943TIP3    H235773   7.317   4.019   3.034
11944TIP3   OH235774   0.221   5.422   1.452
11944TIP3    H135775   0.243   5.349   1.510
11944TIP3    H235776   0.198   5.381   1.369
11945TIP3   OH235777   1.449   4.120   0.345
11945TIP3    H135778   1.450   4.169   0.428
11945TIP3    H235779   1.462   4.187   0.278
11946TIP3   OH235780   5.767   4.347   2.138
11946TIP3    H135781   5.790   4.261   2.172
11946TIP3    H235782   5.727   4.330   2.053
11947TIP3   OH235783   1.712   1.077   4.842
11947TIP3    H135784   1.647   1.040   4.901
11947TIP3    H235785   1.750   1.149   4.892
11948TIP3   OH235786   3.035   5.772   0.670
11948TIP3    H135787   3.067   5.841   0.728
11948TIP3    H235788   3.054   5.690   0.717
11949TIP3   OH235789   4.951   4.118   2.327
11949TIP3    H135790   5.019   4.061   2.290
11949TIP3    H235791   4.875   4.061   2.337
11950TIP3   OH235792   8.016   3.691   0.514
11950TIP3    H135793   8.093   3.687   0.571
11950TIP3    H235794   7.992   3.783   0.513
11951TIP3   OH235795   7.867   2.405   2.672
11951TIP3    H135796   7.875   2.333   2.609
11951TIP3    H235797   7.830   2.365   2.750
11952TIP3   OH235798   0.819   7.549   0.901
11952TIP3    H135799   0.809   7.500   0.983
11952TIP3    H235800   0.813   7.482   0.833
11953TIP3   OH235801   6.146   5.617   5.661
11953TIP3    H135802   6.163   5.575   5.745
11953TIP3    H235803   6.125   5.545   5.601
11954TIP3   OH235804   2.935   0.785   5.973
11954TIP3    H135805   3.003   0.788   6.040
11954TIP3    H235806   2.977   0.820   5.894
11955TIP3   OH235807   8.086   4.678   0.121
11955TIP3    H135808   8.099   4.762   0.164
11955TIP3    H235809   8.107   4.694   0.029
11956TIP3   OH235810   1.064   2.048   5.442
11956TIP3    H135811   1.116   1.969   5.427
11956TIP3    H235812   0.996   2.022   5.504
11957TIP3   OH235813   4.636   1.536   2.747
11957TIP3    H135814   4.549   1.563   2.717
11957TIP3    H235815   4.653   1.454   2.701
11958TIP3   OH235816   4.363   1.459   3.959
11958TIP3    H135817   4.443   1.412   3.982
11958TIP3    H235818   4.361   1.534   4.018
11959TIP3   OH235819   2.354   6.807   0.517
11959TIP3    H135820   2.385   6.895   0.499
11959TIP3    H235821   2.433   6.759   0.542
11960TIP3   OH235822   2.929   4.372   2.863
11960TIP3    H135823   2.994   4.303   2.852
11960TIP3    H235824   2.930   4.392   2.957
11961TIP3   OH235825   7.865   7.499   1.533
11961TIP3    H135826   7.947   7.525   1.573
11961TIP3    H235827   7.862   7.404   1.543
11962TIP3   OH235828   6.619   2.188   3.910
11962TIP3    H135829   6.585   2.209   3.822
11962TIP3    H235830   6.695   2.133   3.893
11963TIP3   OH235831   1.163   5.035   4.849
11963TIP3    H135832   1.198   4.972   4.911
11963TIP3    H235833   1.214   5.114   4.863
11964TIP3   OH235834   4.875   0.517   6.196
11964TIP3    H135835   4.907   0.455   6.131
11964TIP3    H235836   4.891   0.475   6.280
11965TIP3   OH235837   1.506   0.301   2.393
11965TIP3    H135838   1.595   0.331   2.374
11965TIP3    H235839   1.492   0.324   2.485
11966TIP3   OH235840   1.232   2.318   0.813
11966TIP3    H135841   1.301   2.368   0.856
11966TIP3    H235842   1.273   2.282   0.735
11967TIP3   OH235843   7.272   2.837   0.587
11967TIP3    H135844   7.194   2.875   0.547
11967TIP3    H235845   7.261   2.852   0.681
11968TIP3   OH235846   2.434   1.294   4.188
11968TIP3    H135847   2.345   1.301   4.222
11968TIP3    H235848   2.427   1.319   4.096
11969TIP3   OH235849   3.117   6.343   6.715
11969TIP3    H135850   3.111   6.271   6.651
11969TIP3    H235851   3.152   6.302   6.794
11970TIP3   OH235852   6.210   4.430   4.237
11970TIP3    H135853   6.279   4.383   4.189
11970TIP3    H235854   6.258   4.486   4.298
11971TIP3   OH235855   6.511   7.150   1.208
11971TIP3    H135856   6.445   7.206   1.168
11971TIP3    H235857   6.462   7.074   1.239
11972TIP3   OH235858   3.500   2.354   5.850
11972TIP3    H135859   3.427   2.294   5.862
11972TIP3    H235860   3.535   2.332   5.763
11973TIP3   OH235861   2.410   5.779   4.410
11973TIP3    H135862   2.444   5.865   4.386
11973TIP3    H235863   2.317   5.794   4.426
11974TIP3   OH235864   6.845   6.267   5.892
11974TIP3    H135865   6.850   6.342   5.952
11974TIP3    H235866   6.917   6.211   5.919
11975TIP3   OH235867   4.766   4.394   6.678
11975TIP3    H135868   4.805   4.314   6.713
11975TIP3    H235869   4.709   4.425   6.748
11976TIP3   OH235870   3.217   4.006   3.258
11976TIP3    H135871   3.195   4.009   3.351
11976TIP3    H235872   3.304   3.967   3.255
11977TIP3   OH235873   2.524   6.284   5.240
11977TIP3    H135874   2.540   6.376   5.261
11977TIP3    H235875   2.475   6.286   5.157
11978TIP3   OH235876   8.302   2.436   2.108
11978TIP3    H135877   8.223   2.382   2.114
11978TIP3    H235878   8.284   2.511   2.164
11979TIP3   OH235879   0.031   1.839   1.185
11979TIP3    H135880   0.040   1.932   1.207
11979TIP3    H235881   0.033   1.837   1.089
11980TIP3   OH235882   6.556   4.409   6.203
11980TIP3    H135883   6.622   4.339   6.203
11980TIP3    H235884   6.481   4.371   6.248
11981TIP3   OH235885   1.221   6.536   6.348
11981TIP3    H135886   1.262   6.561   6.430
11981TIP3    H235887   1.226   6.441   6.346
11982TIP3   OH235888   6.444   3.942   0.374
11982TIP3    H135889   6.461   3.949   0.280
11982TIP3    H235890   6.481   4.022   0.411
11983TIP3   OH235891   1.216   7.352   5.621
11983TIP3    H135892   1.292   7.303   5.653
11983TIP3    H235893   1.164   7.288   5.573
11984TIP3   OH235894   7.228   3.707   2.810
11984TIP3    H135895   7.134   3.693   2.816
11984TIP3    H235896   7.260   3.700   2.900
11985TIP3   OH235897   2.560   5.078   1.740
11985TIP3    H135898   2.510   5.125   1.673
11985TIP3    H235899   2.602   5.148   1.791
11986TIP3   OH235900   2.260   2.027   3.817
11986TIP3    H135901   2.218   2.113   3.814
11986TIP3    H235902   2.230   1.984   3.737
11987TIP3   OH235903   7.771   4.169   1.673
11987TIP3    H135904   7.704   4.199   1.612
11987TIP3    H235905   7.722   4.127   1.744
11988TIP3   OH235906   1.184   0.765   5.610
11988TIP3    H135907   1.139   0.818   5.676
11988TIP3    H235908   1.207   0.828   5.541
11989TIP3   OH235909   7.410   0.691   4.815
11989TIP3    H135910   7.370   0.627   4.757
11989TIP3    H235911   7.451   0.639   4.884
11990TIP3   OH235912   6.792   2.396   1.508
11990TIP3    H135913   6.834   2.330   1.453
11990TIP3    H235914   6.699   2.375   1.504
11991TIP3   OH235915   3.734   5.303   3.952
11991TIP3    H135916   3.799   5.236   3.971
11991TIP3    H235917   3.704   5.333   4.038
11992TIP3   OH235918   3.855   2.222   3.509
11992TIP3    H135919   3.772   2.270   3.511
11992TIP3    H235920   3.830   2.132   3.489
11993TIP3   OH235921   7.905   4.673   0.698
11993TIP3    H135922   7.903   4.621   0.778
11993TIP3    H235923   7.822   4.720   0.698
11994TIP3   OH235924   7.351   2.739   1.802
11994TIP3    H135925   7.414   2.758   1.733
11994TIP3    H235926   7.379   2.654   1.837
11995TIP3   OH235927   5.999   2.118   3.706
11995TIP3    H135928   5.943   2.196   3.711
11995TIP3    H235929   6.060   2.129   3.779
11996TIP3   OH235930   0.051   4.331   6.363
11996TIP3    H135931   0.131   4.282   6.383
11996TIP3    H235932   0.047   4.333   6.268
11997TIP3   OH235933   6.861   6.250   6.241
11997TIP3    H135934   6.791   6.236   6.177
11997TIP3    H235935   6.845   6.186   6.309
11998TIP3   OH235936   2.768   5.059   6.292
11998TIP3    H135937   2.842   5.008   6.325
11998TIP3    H235938   2.720   5.086   6.370
11999TIP3   OH235939   4.796   5.835   3.374
11999TIP3    H135940   4.749   5.915   3.399
11999TIP3    H235941   4.880   5.867   3.340
12000TIP3   OH235942   5.012   0.772   5.496
12000TIP3    H135943   5.092   0.744   5.541
12000TIP3    H235944   4.947   0.779   5.565
12001TIP3   OH235945   1.015   5.757   3.751
12001TIP3    H135946   0.930   5.765   3.708
12001TIP3    H235947   1.035   5.845   3.782
12002TIP3   OH235948   0.229   6.704   6.077
12002TIP3    H135949   0.264   6.676   6.161
12002TIP3    H235950   0.247   6.630   6.018
12003TIP3   OH235951   7.523   7.272   2.732
12003TIP3    H135952   7.549   7.184   2.758
12003TIP3    H235953   7.598   7.306   2.683
12004TIP3   OH235954   2.637   3.875   0.171
12004TIP3    H135955   2.696   3.948   0.151
12004TIP3    H235956   2.665   3.846   0.258
12005TIP3   OH235957   3.460   4.178   6.733
12005TIP3    H135958   3.521   4.249   6.750
12005TIP3    H235959   3.384   4.199   6.787
12006TIP3   OH235960   0.837   5.101   2.810
12006TIP3    H135961   0.845   5.195   2.797
12006TIP3    H235962   0.744   5.088   2.833
12007TIP3   OH235963   6.826   6.423   6.578
12007TIP3    H135964   6.826   6.490   6.510
12007TIP3    H235965   6.898   6.448   6.636
12008TIP3   OH235966   5.265   3.718   4.405
12008TIP3    H135967   5.267   3.665   4.485
12008TIP3    H235968   5.253   3.654   4.334
12009TIP3   OH235969   5.385   2.711   3.582
12009TIP3    H135970   5.429   2.719   3.498
12009TIP3    H235971   5.423   2.782   3.635
12010TIP3   OH235972   3.700   3.295   1.085
12010TIP3    H135973   3.630   3.256   1.137
12010TIP3    H235974   3.659   3.317   1.001
12011TIP3   OH235975   4.669   4.412   2.636
12011TIP3    H135976   4.697   4.497   2.602
12011TIP3    H235977   4.749   4.360   2.637
12012TIP3   OH235978   1.558   6.086   5.820
12012TIP3    H135979   1.491   6.094   5.752
12012TIP3    H235980   1.641   6.094   5.773
12013TIP3   OH235981   2.702   5.114   5.766
12013TIP3    H135982   2.719   5.021   5.781
12013TIP3    H235983   2.738   5.131   5.679
12014TIP3   OH235984   0.692   0.774   1.879
12014TIP3    H135985   0.640   0.838   1.830
12014TIP3    H235986   0.697   0.810   1.968
12015TIP3   OH235987   3.011   1.685   5.268
12015TIP3    H135988   2.935   1.629   5.288
12015TIP3    H235989   2.980   1.774   5.283
12016TIP3   OH235990   2.361   4.654   2.131
12016TIP3    H135991   2.271   4.675   2.156
12016TIP3    H235992   2.414   4.690   2.202
12017TIP3   OH235993   2.411   2.956   3.474
12017TIP3    H135994   2.477   3.022   3.495
12017TIP3    H235995   2.454   2.897   3.412
12018TIP3   OH235996   3.505   7.684   3.416
12018TIP3    H135997   3.545   7.612   3.368
12018TIP3    H235998   3.574   7.715   3.475
12019TIP3   OH235999   6.138   5.822   5.462
12019TIP3    H136000   6.149   5.745   5.517
12019TIP3    H236001   6.086   5.791   5.388
12020TIP3   OH236002   4.688   5.457   4.802
12020TIP3    H136003   4.632   5.400   4.750
12020TIP3    H236004   4.767   5.405   4.817
12021TIP3   OH236005   5.184   0.634   6.376
12021TIP3    H136006   5.235   0.706   6.340
12021TIP3    H236007   5.114   0.620   6.312
12022TIP3   OH236008   3.923   5.198   0.749
12022TIP3    H136009   3.948   5.233   0.663
12022TIP3    H236010   3.833   5.168   0.738
12023TIP3   OH236011   0.563   6.185   1.270
12023TIP3    H136012   0.638   6.244   1.275
12023TIP3    H236013   0.529   6.198   1.182
12024TIP3   OH236014   6.204   4.497   3.087
12024TIP3    H136015   6.230   4.437   3.017
12024TIP3    H236016   6.118   4.530   3.060
12025TIP3   OH236017   3.781   4.880   5.951
12025TIP3    H136018   3.725   4.938   6.004
12025TIP3    H236019   3.720   4.828   5.900
12026TIP3   OH236020   7.647   2.346   3.868
12026TIP3    H136021   7.710   2.407   3.907
12026TIP3    H236022   7.701   2.281   3.824
12027TIP3   OH236023   4.961   4.561   2.474
12027TIP3    H136024   4.955   4.657   2.472
12027TIP3    H236025   4.992   4.541   2.562
12028TIP3   OH236026   3.660   7.782   0.814
12028TIP3    H136027   3.719   7.707   0.821
12028TIP3    H236028   3.695   7.847   0.875
12029TIP3   OH236029   1.499   1.105   3.421
12029TIP3    H136030   1.514   1.180   3.479
12029TIP3    H236031   1.404   1.094   3.420
12030TIP3   OH236032   3.654   6.665   3.277
12030TIP3    H136033   3.586   6.664   3.210
12030TIP3    H236034   3.607   6.652   3.359
12031TIP3   OH236035   5.021   0.938   2.377
12031TIP3    H136036   5.064   0.977   2.301
12031TIP3    H236037   4.988   1.013   2.427
12032TIP3   OH236038   5.945   5.116   5.843
12032TIP3    H136039   5.870   5.172   5.865
12032TIP3    H236040   6.017   5.150   5.897
12033TIP3   OH236041   2.317   0.140   4.507
12033TIP3    H136042   2.330   0.082   4.432
12033TIP3    H236043   2.346   0.225   4.477
12034TIP3   OH236044   7.726   0.626   1.097
12034TIP3    H136045   7.672   0.548   1.087
12034TIP3    H236046   7.685   0.692   1.041
12035TIP3   OH236047   2.024   0.881   5.374
12035TIP3    H136048   1.956   0.866   5.308
12035TIP3    H236049   1.991   0.954   5.427
12036TIP3   OH236050   5.886   6.075   3.270
12036TIP3    H136051   5.842   5.996   3.302
12036TIP3    H236052   5.817   6.124   3.224
12037TIP3   OH236053   6.703   3.810   2.852
12037TIP3    H136054   6.708   3.878   2.918
12037TIP3    H236055   6.644   3.846   2.785
12038TIP3   OH236056   0.934   1.452   6.180
12038TIP3    H136057   0.883   1.475   6.103
12038TIP3    H236058   0.893   1.500   6.252
12039TIP3   OH236059   2.062   7.004   4.990
12039TIP3    H136060   2.014   6.922   4.986
12039TIP3    H236061   2.100   7.014   4.903
12040TIP3   OH236062   3.583   2.489   0.079
12040TIP3    H136063   3.659   2.437   0.107
12040TIP3    H236064   3.606   2.519  -0.009
12041TIP3   OH236065   3.703   4.190   2.773
12041TIP3    H136066   3.692   4.115   2.713
12041TIP3    H236067   3.615   4.227   2.781
12042TIP3   OH236068   4.766   2.025   3.549
12042TIP3    H136069   4.705   2.039   3.622
12042TIP3    H236070   4.802   1.937   3.566
12043TIP3   OH236071   5.360   5.945   3.665
12043TIP3    H136072   5.389   6.036   3.658
12043TIP3    H236073   5.323   5.925   3.580
12044TIP3   OH236074   7.826   4.911   1.102
12044TIP3    H136075   7.846   4.961   1.182
12044TIP3    H236076   7.912   4.888   1.067
12045TIP3   OH236077   2.713   6.059   2.195
12045TIP3    H136078   2.655   6.048   2.270
12045TIP3    H236079   2.796   6.020   2.222
12046TIP3   OH236080   0.611   3.963   5.048
12046TIP3    H136081   0.546   3.948   5.116
12046TIP3    H236082   0.693   3.932   5.086
12047TIP3   OH236083   2.270   3.766   1.502
12047TIP3    H136084   2.282   3.860   1.489
12047TIP3    H236085   2.283   3.728   1.415
12048TIP3   OH236086   7.499   7.210   3.732
12048TIP3    H136087   7.536   7.195   3.819
12048TIP3    H236088   7.409   7.179   3.738
12049TIP3   OH236089   0.652   6.977   4.196
12049TIP3    H136090   0.668   7.036   4.122
12049TIP3    H236091   0.639   6.891   4.156
12050TIP3   OH236092   1.267   7.064   2.984
12050TIP3    H136093   1.235   7.149   3.013
12050TIP3    H236094   1.195   7.004   3.003
12051TIP3   OH236095   2.090   4.516   1.905
12051TIP3    H136096   2.118   4.606   1.922
12051TIP3    H236097   2.164   4.462   1.933
12052TIP3   OH236098   1.581   2.689   5.077
12052TIP3    H136099   1.518   2.724   5.014
12052TIP3    H236100   1.594   2.760   5.140
12053TIP3   OH236101   4.108   4.667   3.617
12053TIP3    H136102   4.064   4.657   3.533
12053TIP3    H236103   4.143   4.580   3.636
12054TIP3   OH236104   4.856   0.368   1.321
12054TIP3    H136105   4.807   0.354   1.403
12054TIP3    H236106   4.911   0.444   1.338
12055TIP3   OH236107   7.753   2.192   4.793
12055TIP3    H136108   7.827   2.133   4.804
12055TIP3    H236109   7.792   2.278   4.777
12056TIP3   OH236110   8.154   5.299   1.615
12056TIP3    H136111   8.173   5.338   1.529
12056TIP3    H236112   8.133   5.208   1.595
12057TIP3   OH236113   0.863   2.062   3.920
12057TIP3    H136114   0.813   2.144   3.924
12057TIP3    H236115   0.823   2.013   3.848
12058TIP3   OH236116  -0.006   2.448   1.697
12058TIP3    H136117   0.068   2.439   1.637
12058TIP3    H236118  -0.051   2.364   1.691
12059TIP3   OH236119   2.331   4.495   5.302
12059TIP3    H136120   2.293   4.407   5.306
12059TIP3    H236121   2.285   4.539   5.231
12060TIP3   OH236122   5.034   3.966   5.651
12060TIP3    H136123   5.007   3.875   5.636
12060TIP3    H236124   5.019   3.979   5.745
12061TIP3   OH236125   0.383   1.272   4.062
12061TIP3    H136126   0.400   1.306   4.150
12061TIP3    H236127   0.338   1.343   4.017
12062TIP3   OH236128   0.200   3.631   2.926
12062TIP3    H136129   0.172   3.541   2.906
12062TIP3    H236130   0.133   3.663   2.987
12063TIP3   OH236131   7.797   4.763   4.083
12063TIP3    H136132   7.817   4.803   4.168
12063TIP3    H236133   7.823   4.829   4.019
12064TIP3   OH236134   3.850   5.385   4.454
12064TIP3    H136135   3.908   5.385   4.530
12064TIP3    H236136   3.857   5.296   4.419
12065TIP3   OH236137   7.921   3.847   5.344
12065TIP3    H136138   7.963   3.787   5.282
12065TIP3    H236139   7.989   3.866   5.408
12066TIP3   OH236140   1.892   3.477   0.113
12066TIP3    H136141   1.883   3.559   0.064
12066TIP3    H236142   1.931   3.502   0.196
12067TIP3   OH236143   5.153   7.285   3.120
12067TIP3    H136144   5.233   7.310   3.166
12067TIP3    H236145   5.163   7.191   3.104
12068TIP3   OH236146   2.859   3.286   1.190
12068TIP3    H136147   2.937   3.336   1.167
12068TIP3    H236148   2.888   3.195   1.196
12069TIP3   OH236149   5.994   6.940   6.077
12069TIP3    H136150   5.985   6.986   6.161
12069TIP3    H236151   6.089   6.928   6.066
12070TIP3   OH236152   2.610   4.304   5.785
12070TIP3    H136153   2.585   4.219   5.820
12070TIP3    H236154   2.571   4.307   5.698
12071TIP3   OH236155   2.544   3.717   3.023
12071TIP3    H136156   2.502   3.643   2.978
12071TIP3    H236157   2.541   3.693   3.116
12072TIP3   OH236158   4.801   6.531   3.706
12072TIP3    H136159   4.801   6.499   3.616
12072TIP3    H236160   4.743   6.472   3.753
12073TIP3   OH236161   6.186   2.178   1.592
12073TIP3    H136162   6.126   2.245   1.558
12073TIP3    H236163   6.252   2.168   1.524
12074TIP3   OH236164   2.168   7.325   0.316
12074TIP3    H136165   2.252   7.278   0.320
12074TIP3    H236166   2.190   7.415   0.341
12075TIP3   OH236167   7.548   1.919   2.095
12075TIP3    H136168   7.523   1.970   2.172
12075TIP3    H236169   7.610   1.974   2.048
12076TIP3   OH236170   8.143   6.795   2.248
12076TIP3    H136171   8.092   6.729   2.201
12076TIP3    H236172   8.084   6.830   2.314
12077TIP3   OH236173   7.390   4.876   6.042
12077TIP3    H136174   7.312   4.900   6.093
12077TIP3    H236175   7.447   4.833   6.105
12078TIP3   OH236176   6.823   3.116   1.518
12078TIP3    H136177   6.872   3.192   1.550
12078TIP3    H236178   6.786   3.077   1.597
12079TIP3   OH236179   1.888   2.241   1.042
12079TIP3    H136180   1.847   2.327   1.046
12079TIP3    H236181   1.823   2.181   1.079
12080TIP3   OH236182   0.992   4.959   2.573
12080TIP3    H136183   0.958   5.046   2.595
12080TIP3    H236184   0.970   4.947   2.481
12081TIP3   OH236185   1.398   0.471   1.077
12081TIP3    H136186   1.381   0.409   1.148
12081TIP3    H236187   1.357   0.552   1.105
12082TIP3   OH236188   1.749   6.557   6.071
12082TIP3    H136189   1.801   6.507   6.133
12082TIP3    H236190   1.663   6.515   6.071
12083TIP3   OH236191   3.858   7.160   4.075
12083TIP3    H136192   3.912   7.094   4.031
12083TIP3    H236193   3.858   7.135   4.167
12084TIP3   OH236194   2.705   7.520   5.839
12084TIP3    H136195   2.695   7.577   5.915
12084TIP3    H236196   2.762   7.568   5.779
12085TIP3   OH236197   6.004   4.263   3.930
12085TIP3    H136198   5.943   4.319   3.978
12085TIP3    H236199   6.027   4.194   3.991
12086TIP3   OH236200   2.458   1.751   1.956
12086TIP3    H136201   2.416   1.831   1.924
12086TIP3    H236202   2.390   1.705   2.005
12087TIP3   OH236203   1.715   2.158   3.113
12087TIP3    H136204   1.646   2.145   3.178
12087TIP3    H236205   1.794   2.172   3.165
12088TIP3   OH236206   2.996   3.862   4.445
12088TIP3    H136207   3.079   3.816   4.451
12088TIP3    H236208   2.995   3.920   4.521
12089TIP3   OH236209   5.488   0.734   2.722
12089TIP3    H136210   5.434   0.767   2.793
12089TIP3    H236211   5.430   0.735   2.645
12090TIP3   OH236212   6.078   2.690   1.906
12090TIP3    H136213   6.044   2.718   1.991
12090TIP3    H236214   6.028   2.612   1.884
12091TIP3   OH236215   3.798   0.990   3.042
12091TIP3    H136216   3.707   1.006   3.018
12091TIP3    H236217   3.830   1.075   3.073
12092TIP3   OH236218   0.329   4.646   5.513
12092TIP3    H136219   0.328   4.563   5.464
12092TIP3    H236220   0.247   4.645   5.563
12093TIP3   OH236221   5.728   1.194   5.508
12093TIP3    H136222   5.727   1.287   5.488
12093TIP3    H236223   5.724   1.190   5.604
12094TIP3   OH236224   4.825   1.583   0.921
12094TIP3    H136225   4.783   1.615   0.841
12094TIP3    H236226   4.759   1.526   0.961
12095TIP3   OH236227   4.490   3.702   2.433
12095TIP3    H136228   4.399   3.674   2.419
12095TIP3    H236229   4.483   3.795   2.454
12096TIP3   OH236230   5.474   7.564   6.635
12096TIP3    H136231   5.549   7.521   6.594
12096TIP3    H236232   5.506   7.652   6.658
12097TIP3   OH236233   3.480   5.448   4.686
12097TIP3    H136234   3.518   5.447   4.597
12097TIP3    H236235   3.500   5.535   4.719
12098TIP3   OH236236   5.486   2.434   4.076
12098TIP3    H136237   5.578   2.407   4.077
12098TIP3    H236238   5.438   2.351   4.075
12099TIP3   OH236239   1.177   2.757   4.159
12099TIP3    H136240   1.188   2.686   4.096
12099TIP3    H236241   1.174   2.837   4.106
12100TIP3   OH236242   0.305   0.487   5.329
12100TIP3    H136243   0.245   0.490   5.403
12100TIP3    H236244   0.389   0.460   5.367
12101TIP3   OH236245   5.080   3.947   0.661
12101TIP3    H136246   5.005   3.892   0.684
12101TIP3    H236247   5.151   3.886   0.645
12102TIP3   OH236248   7.306   3.861   4.929
12102TIP3    H136249   7.250   3.790   4.899
12102TIP3    H236250   7.246   3.923   4.971
12103TIP3   OH236251   6.970   6.920   6.417
12103TIP3    H136252   7.051   6.966   6.438
12103TIP3    H236253   6.901   6.983   6.437
12104TIP3   OH236254   6.902   0.328   1.350
12104TIP3    H136255   6.980   0.321   1.296
12104TIP3    H236256   6.931   0.376   1.428
12105TIP3   OH236257   1.579   6.950   4.667
12105TIP3    H136258   1.524   7.003   4.725
12105TIP3    H236259   1.615   6.882   4.725
12106TIP3   OH236260   5.094   1.969   4.671
12106TIP3    H136261   5.141   1.895   4.710
12106TIP3    H236262   5.152   2.001   4.603
12107TIP3   OH236263   2.393   4.389   3.222
12107TIP3    H136264   2.414   4.318   3.162
12107TIP3    H236265   2.436   4.466   3.186
12108TIP3   OH236266   5.555   5.418   1.669
12108TIP3    H136267   5.557   5.410   1.574
12108TIP3    H236268   5.480   5.475   1.687
12109TIP3   OH236269   4.751   3.355   4.278
12109TIP3    H136270   4.795   3.395   4.203
12109TIP3    H236271   4.815   3.361   4.349
12110TIP3   OH236272   2.803   6.619   1.306
12110TIP3    H136273   2.813   6.535   1.350
12110TIP3    H236274   2.709   6.634   1.303
12111TIP3   OH236275   7.787   7.676   5.839
12111TIP3    H136276   7.843   7.687   5.762
12111TIP3    H236277   7.782   7.764   5.877
12112TIP3   OH236278   5.404   7.417   5.496
12112TIP3    H136279   5.490   7.454   5.475
12112TIP3    H236280   5.363   7.481   5.554
12113TIP3   OH236281   4.745   0.953   3.363
12113TIP3    H136282   4.677   0.892   3.334
12113TIP3    H236283   4.765   1.005   3.285
12114TIP3   OH236284   0.808   5.200   3.482
12114TIP3    H136285   0.879   5.167   3.428
12114TIP3    H236286   0.791   5.130   3.545
12115TIP3   OH236287   1.862   0.278   2.114
12115TIP3    H136288   1.894   0.303   2.201
12115TIP3    H236289   1.775   0.316   2.108
12116TIP3   OH236290   0.282   3.834   1.245
12116TIP3    H136291   0.250   3.910   1.196
12116TIP3    H236292   0.369   3.817   1.209
12117TIP3   OH236293   3.742   0.185   6.575
12117TIP3    H136294   3.673   0.206   6.638
12117TIP3    H236295   3.710   0.220   6.492
12118TIP3   OH236296   6.510   4.203   3.716
12118TIP3    H136297   6.418   4.196   3.744
12118TIP3    H236298   6.508   4.265   3.644
12119TIP3   OH236299   2.787   5.928   0.544
12119TIP3    H136300   2.731   5.936   0.622
12119TIP3    H236301   2.869   5.893   0.577
12120TIP3   OH236302   0.857   7.274   3.290
12120TIP3    H136303   0.848   7.329   3.368
12120TIP3    H236304   0.776   7.222   3.288
12121TIP3   OH236305   7.804   7.739   2.532
12121TIP3    H136306   7.715   7.774   2.527
12121TIP3    H236307   7.855   7.809   2.572
12122TIP3   OH236308   8.218   5.839   0.454
12122TIP3    H136309   8.146   5.790   0.495
12122TIP3    H236310   8.181   5.926   0.439
12123TIP3   OH236311   7.015   2.836   3.326
12123TIP3    H136312   7.091   2.782   3.346
12123TIP3    H236313   6.955   2.819   3.399
12124TIP3   OH236314   1.881   4.823   5.337
12124TIP3    H136315   1.905   4.845   5.247
12124TIP3    H236316   1.832   4.899   5.369
12125TIP3   OH236317   7.636   7.235   1.642
12125TIP3    H136318   7.620   7.153   1.688
12125TIP3    H236319   7.642   7.301   1.711
12126TIP3   OH236320   7.355   6.912   4.273
12126TIP3    H136321   7.395   6.867   4.199
12126TIP3    H236322   7.261   6.907   4.256
12127TIP3   OH236323   2.189   7.027   4.316
12127TIP3    H136324   2.097   7.020   4.340
12127TIP3    H236325   2.236   6.992   4.392
12128TIP3   OH236326   6.990   1.000   2.486
12128TIP3    H136327   7.021   1.036   2.569
12128TIP3    H236328   7.032   1.055   2.419
12129TIP3   OH236329   6.399   0.071   3.570
12129TIP3    H136330   6.466   0.017   3.613
12129TIP3    H236331   6.388   0.146   3.629
12130TIP3   OH236332   0.740   4.839   2.702
12130TIP3    H136333   0.698   4.900   2.642
12130TIP3    H236334   0.834   4.859   2.694
12131TIP3   OH236335   4.507   5.760   3.285
12131TIP3    H136336   4.594   5.795   3.269
12131TIP3    H236337   4.476   5.806   3.363
12132TIP3   OH236338   5.161   3.389   2.094
12132TIP3    H136339   5.069   3.368   2.080
12132TIP3    H236340   5.205   3.357   2.015
12133TIP3   OH236341   0.283   7.082   2.911
12133TIP3    H136342   0.221   7.031   2.964
12133TIP3    H236343   0.293   7.164   2.959
12134TIP3   OH236344   6.305   1.560   4.808
12134TIP3    H136345   6.299   1.649   4.841
12134TIP3    H236346   6.397   1.536   4.818
12135TIP3   OH236347   0.931   1.223   1.611
12135TIP3    H136348   0.880   1.185   1.539
12135TIP3    H236349   0.896   1.182   1.690
12136TIP3   OH236350   4.455   0.120   2.548
12136TIP3    H136351   4.453   0.195   2.607
12136TIP3    H236352   4.378   0.068   2.573
12137TIP3   OH236353   6.547   2.320   1.425
12137TIP3    H136354   6.474   2.369   1.387
12137TIP3    H236355   6.514   2.230   1.432
12138TIP3   OH236356   6.841   7.551   4.183
12138TIP3    H136357   6.895   7.498   4.124
12138TIP3    H236358   6.888   7.550   4.266
12139TIP3   OH236359   3.582   5.495   4.424
12139TIP3    H136360   3.591   5.587   4.396
12139TIP3    H236361   3.671   5.462   4.428
12140TIP3   OH236362   6.684   5.535   2.010
12140TIP3    H136363   6.696   5.449   2.049
12140TIP3    H236364   6.750   5.590   2.051
12141TIP3   OH236365   2.851   2.555   3.813
12141TIP3    H136366   2.871   2.649   3.808
12141TIP3    H236367   2.927   2.517   3.857
12142TIP3   OH236368   3.408   0.703   5.473
12142TIP3    H136369   3.459   0.742   5.545
12142TIP3    H236370   3.325   0.751   5.474
12143TIP3   OH236371   0.690   2.300   3.931
12143TIP3    H136372   0.616   2.331   3.878
12143TIP3    H236373   0.754   2.371   3.926
12144TIP3   OH236374   1.105   2.999   4.405
12144TIP3    H136375   1.019   2.962   4.425
12144TIP3    H236376   1.158   2.924   4.378
12145TIP3   OH236377   5.028   2.417   4.514
12145TIP3    H136378   5.038   2.511   4.505
12145TIP3    H236379   4.949   2.396   4.464
12146TIP3   OH236380   0.654   4.074   1.940
12146TIP3    H136381   0.602   4.039   2.011
12146TIP3    H236382   0.737   4.100   1.981
12147TIP3   OH236383   6.799   3.722   4.426
12147TIP3    H136384   6.880   3.731   4.476
12147TIP3    H236385   6.805   3.634   4.389
12148TIP3   OH236386   7.492   2.611   5.788
12148TIP3    H136387   7.483   2.706   5.779
12148TIP3    H236388   7.415   2.574   5.745
12149TIP3   OH236389   6.763   0.593   5.010
12149TIP3    H136390   6.852   0.594   5.046
12149TIP3    H236391   6.760   0.670   4.952
12150TIP3   OH236392   4.613   5.086   5.324
12150TIP3    H136393   4.640   5.025   5.392
12150TIP3    H236394   4.607   5.032   5.245
12151TIP3   OH236395   4.879   3.832   1.362
12151TIP3    H136396   4.962   3.856   1.320
12151TIP3    H236397   4.828   3.790   1.293
12152TIP3   OH236398   5.317   3.509   5.493
12152TIP3    H136399   5.311   3.590   5.442
12152TIP3    H236400   5.393   3.523   5.551
12153TIP3   OH236401   6.404   5.583   4.196
12153TIP3    H136402   6.473   5.636   4.236
12153TIP3    H236403   6.438   5.560   4.110
12154TIP3   OH236404   7.587   2.295   5.108
12154TIP3    H136405   7.581   2.243   5.028
12154TIP3    H236406   7.678   2.326   5.109
12155TIP3   OH236407   6.024   4.970   2.204
12155TIP3    H136408   6.060   5.027   2.272
12155TIP3    H236409   5.929   4.979   2.214
12156TIP3   OH236410   0.864   5.595   5.458
12156TIP3    H136411   0.951   5.555   5.459
12156TIP3    H236412   0.871   5.670   5.517
12157TIP3   OH236413   0.318   1.975   6.181
12157TIP3    H136414   0.400   1.984   6.230
12157TIP3    H236415   0.342   1.925   6.103
12158TIP3   OH236416   0.411   1.874   1.728
12158TIP3    H136417   0.349   1.926   1.676
12158TIP3    H236418   0.375   1.877   1.817
12159TIP3   OH236419   0.517   7.483   1.826
12159TIP3    H136420   0.535   7.442   1.911
12159TIP3    H236421   0.585   7.449   1.768
12160TIP3   OH236422   4.938   5.902   0.056
12160TIP3    H136423   5.005   5.838   0.081
12160TIP3    H236424   4.949   5.973   0.119
12161TIP3   OH236425   5.875   5.951   5.494
12161TIP3    H136426   5.956   5.934   5.447
12161TIP3    H236427   5.877   5.891   5.569
12162TIP3   OH236428   3.642   5.647   0.260
12162TIP3    H136429   3.702   5.628   0.188
12162TIP3    H236430   3.679   5.724   0.303
12163TIP3   OH236431   2.647   5.076   6.543
12163TIP3    H136432   2.579   5.143   6.546
12163TIP3    H236433   2.604   5.000   6.504
12164TIP3   OH236434   6.074   4.603   3.715
12164TIP3    H136435   6.123   4.559   3.785
12164TIP3    H236436   6.139   4.619   3.646
12165TIP3   OH236437   7.014   0.612   3.669
12165TIP3    H136438   6.919   0.605   3.657
12165TIP3    H236439   7.043   0.665   3.595
12166TIP3   OH236440   4.348   3.434   6.443
12166TIP3    H136441   4.395   3.407   6.522
12166TIP3    H236442   4.352   3.357   6.386
12167TIP3   OH236443   7.195   3.239   5.980
12167TIP3    H136444   7.102   3.260   5.986
12167TIP3    H236445   7.210   3.223   5.887
12168TIP3   OH236446   6.832   7.159   2.366
12168TIP3    H136447   6.908   7.216   2.357
12168TIP3    H236448   6.833   7.132   2.458
12169TIP3   OH236449   8.158   2.005   1.445
12169TIP3    H136450   8.086   2.066   1.460
12169TIP3    H236451   8.214   2.049   1.381
12170TIP3   OH236452   4.120   3.562   0.636
12170TIP3    H136453   4.179   3.637   0.623
12170TIP3    H236454   4.035   3.592   0.605
12171TIP3   OH236455   0.317   0.534   3.634
12171TIP3    H136456   0.282   0.497   3.553
12171TIP3    H236457   0.378   0.467   3.666
12172TIP3   OH236458   3.479   6.120   3.515
12172TIP3    H136459   3.495   6.044   3.459
12172TIP3    H236460   3.491   6.087   3.604
12173TIP3   OH236461   7.660   7.241   0.155
12173TIP3    H136462   7.658   7.153   0.119
12173TIP3    H236463   7.652   7.230   0.249
12174TIP3   OH236464   8.142   2.435   1.294
12174TIP3    H136465   8.117   2.342   1.290
12174TIP3    H236466   8.092   2.476   1.223
12175TIP3   OH236467   4.527   7.291   4.717
12175TIP3    H136468   4.446   7.338   4.737
12175TIP3    H236469   4.565   7.273   4.803
12176TIP3   OH236470   2.035   0.829   6.497
12176TIP3    H136471   2.107   0.770   6.520
12176TIP3    H236472   1.962   0.801   6.551
12177TIP3   OH236473   3.089   1.111   1.948
12177TIP3    H136474   3.160   1.161   1.908
12177TIP3    H236475   3.023   1.176   1.970
12178TIP3   OH236476   3.863   1.636   5.105
12178TIP3    H136477   3.916   1.703   5.147
12178TIP3    H236478   3.784   1.681   5.076
12179TIP3   OH236479   3.322   1.321   4.225
12179TIP3    H136480   3.372   1.377   4.284
12179TIP3    H236481   3.384   1.300   4.154
12180TIP3   OH236482   1.224   5.218   6.351
12180TIP3    H136483   1.283   5.246   6.421
12180TIP3    H236484   1.266   5.249   6.271
12181TIP3   OH236485   1.641   1.953   6.322
12181TIP3    H136486   1.558   1.926   6.283
12181TIP3    H236487   1.619   1.973   6.413
12182TIP3   OH236488   7.827   2.006   2.406
12182TIP3    H136489   7.826   1.919   2.368
12182TIP3    H236490   7.808   1.992   2.499
12183TIP3   OH236491   5.623   4.045   2.210
12183TIP3    H136492   5.636   4.057   2.304
12183TIP3    H236493   5.530   4.020   2.202
12184TIP3   OH236494   1.398   1.550   3.933
12184TIP3    H136495   1.372   1.586   3.848
12184TIP3    H236496   1.429   1.626   3.983
12185TIP3   OH236497   0.533   4.475   1.307
12185TIP3    H136498   0.612   4.422   1.296
12185TIP3    H236499   0.565   4.565   1.316
12186TIP3   OH236500   7.780   3.318   0.688
12186TIP3    H136501   7.753   3.330   0.597
12186TIP3    H236502   7.875   3.306   0.683
12187TIP3   OH236503   3.309   6.852   5.634
12187TIP3    H136504   3.358   6.856   5.552
12187TIP3    H236505   3.217   6.843   5.607
12188TIP3   OH236506   2.846   4.235   6.062
12188TIP3    H136507   2.759   4.199   6.079
12188TIP3    H236508   2.851   4.242   5.967
12189TIP3   OH236509   1.427   0.469   3.111
12189TIP3    H136510   1.447   0.511   3.195
12189TIP3    H236511   1.384   0.387   3.136
12190TIP3   OH236512   6.746   2.445   2.681
12190TIP3    H136513   6.729   2.476   2.770
12190TIP3    H236514   6.746   2.525   2.628
12191TIP3   OH236515   5.963   2.128   5.437
12191TIP3    H136516   5.919   2.174   5.508
12191TIP3    H236517   5.905   2.055   5.416
12192TIP3   OH236518   5.843   4.771   3.153
12192TIP3    H136519   5.917   4.808   3.201
12192TIP3    H236520   5.808   4.703   3.210
12193TIP3   OH236521   5.290   2.730   5.700
12193TIP3    H136522   5.249   2.784   5.767
12193TIP3    H236523   5.217   2.701   5.645
12194TIP3   OH236524   0.228   7.418   3.872
12194TIP3    H136525   0.231   7.513   3.879
12194TIP3    H236526   0.163   7.391   3.937
12195TIP3   OH236527   2.865   0.762   4.409
12195TIP3    H136528   2.930   0.693   4.395
12195TIP3    H236529   2.821   0.738   4.490
12196TIP3   OH236530   2.155   4.819   1.894
12196TIP3    H136531   2.228   4.832   1.833
12196TIP3    H236532   2.161   4.893   1.955
12197TIP3   OH236533   6.077   2.359   1.951
12197TIP3    H136534   6.159   2.339   1.905
12197TIP3    H236535   6.021   2.399   1.885
12198TIP3   OH236536   5.597   3.880   5.430
12198TIP3    H136537   5.671   3.822   5.413
12198TIP3    H236538   5.591   3.885   5.526
12199TIP3   OH236539   5.113   1.779   6.543
12199TIP3    H136540   5.180   1.741   6.486
12199TIP3    H236541   5.124   1.873   6.533
12200TIP3   OH236542   6.398   7.059   6.401
12200TIP3    H136543   6.426   7.076   6.491
12200TIP3    H236544   6.456   7.112   6.347
12201TIP3   OH236545   5.244   1.240   2.623
12201TIP3    H136546   5.283   1.167   2.672
12201TIP3    H236547   5.223   1.203   2.538
12202TIP3   OH236548   6.578   7.413   2.876
12202TIP3    H136549   6.500   7.358   2.885
12202TIP3    H236550   6.583   7.461   2.959
12203TIP3   OH236551   3.940   3.304   6.262
12203TIP3    H136552   4.004   3.344   6.320
12203TIP3    H236553   3.991   3.249   6.203
12204TIP3   OH236554   1.540   5.508   1.058
12204TIP3    H136555   1.593   5.430   1.076
12204TIP3    H236556   1.456   5.490   1.098
12205TIP3   OH236557   5.351   3.240   5.719
12205TIP3    H136558   5.325   3.329   5.744
12205TIP3    H236559   5.282   3.211   5.659
12206TIP3   OH236560   7.036   3.433   4.664
12206TIP3    H136561   7.017   3.414   4.572
12206TIP3    H236562   7.123   3.397   4.679
12207TIP3   OH236563   6.593   0.636   2.521
12207TIP3    H136564   6.653   0.595   2.583
12207TIP3    H236565   6.641   0.639   2.438
12208TIP3   OH236566   4.687   0.944   3.747
12208TIP3    H136567   4.758   0.939   3.812
12208TIP3    H236568   4.608   0.959   3.799
12209TIP3   OH236569   0.952   7.563   5.477
12209TIP3    H136570   1.040   7.552   5.513
12209TIP3    H236571   0.967   7.604   5.391
12210TIP3   OH236572   7.436   7.494   0.749
12210TIP3    H136573   7.347   7.521   0.773
12210TIP3    H236574   7.449   7.410   0.794
12211TIP3   OH236575   2.329   3.670   1.772
12211TIP3    H136576   2.307   3.739   1.710
12211TIP3    H236577   2.340   3.591   1.719
12212TIP3   OH236578   3.106   5.272   0.512
12212TIP3    H136579   3.092   5.184   0.548
12212TIP3    H236580   3.109   5.329   0.589
12213TIP3   OH236581   5.749   3.298   0.421
12213TIP3    H136582   5.823   3.262   0.372
12213TIP3    H236583   5.787   3.367   0.475
12214TIP3   OH236584   0.867   6.130   2.668
12214TIP3    H136585   0.798   6.157   2.607
12214TIP3    H236586   0.887   6.210   2.717
12215TIP3   OH236587   8.112   7.684   2.673
12215TIP3    H136588   8.065   7.640   2.601
12215TIP3    H236589   8.145   7.764   2.633
12216TIP3   OH236590   4.332   1.392   2.457
12216TIP3    H136591   4.417   1.360   2.427
12216TIP3    H236592   4.304   1.454   2.389
12217TIP3   OH236593   6.301   6.013   2.373
12217TIP3    H136594   6.384   5.967   2.368
12217TIP3    H236595   6.253   5.969   2.443
12218TIP3   OH236596   5.774   3.670   4.035
12218TIP3    H136597   5.842   3.732   4.008
12218TIP3    H236598   5.821   3.588   4.050
12219TIP3   OH236599   4.521   4.302   5.543
12219TIP3    H136600   4.441   4.337   5.505
12219TIP3    H236601   4.573   4.380   5.564
12220TIP3   OH236602   5.698   7.753   0.044
12220TIP3    H136603   5.614   7.709   0.054
12220TIP3    H236604   5.691   7.832   0.098
12221TIP3   OH236605   5.768   4.884   6.589
12221TIP3    H136606   5.846   4.829   6.599
12221TIP3    H236607   5.700   4.836   6.637
12222TIP3   OH236608   3.699   7.046   1.539
12222TIP3    H136609   3.648   6.986   1.594
12222TIP3    H236610   3.636   7.082   1.477
12223TIP3   OH236611   7.276   7.385   1.276
12223TIP3    H136612   7.360   7.343   1.296
12223TIP3    H236613   7.214   7.346   1.338
12224TIP3   OH236614   0.891   0.408   3.588
12224TIP3    H136615   0.849   0.470   3.648
12224TIP3    H236616   0.818   0.369   3.540
12225TIP3   OH236617   7.770   1.355   1.443
12225TIP3    H136618   7.677   1.335   1.432
12225TIP3    H236619   7.790   1.328   1.533
12226TIP3   OH236620   0.942   4.081   5.413
12226TIP3    H136621   0.906   3.993   5.425
12226TIP3    H236622   0.886   4.121   5.347
12227TIP3   OH236623   2.845   1.746   4.907
12227TIP3    H136624   2.782   1.818   4.904
12227TIP3    H236625   2.804   1.675   4.857
12228TIP3   OH236626   1.849   2.889   5.668
12228TIP3    H136627   1.839   2.955   5.737
12228TIP3    H236628   1.844   2.939   5.586
12229TIP3   OH236629   5.251   3.079   3.049
12229TIP3    H136630   5.202   3.136   2.989
12229TIP3    H236631   5.343   3.093   3.024
12230TIP3   OH236632   5.046   0.357   5.994
12230TIP3    H136633   5.083   0.285   6.046
12230TIP3    H236634   5.022   0.317   5.911
12231TIP3   OH236635   7.998   6.878   6.637
12231TIP3    H136636   8.003   6.783   6.646
12231TIP3    H236637   8.062   6.899   6.569
12232TIP3   OH236638   4.703   2.212   4.812
12232TIP3    H136639   4.753   2.180   4.887
12232TIP3    H236640   4.770   2.245   4.752
12233TIP3   OH236641   4.455   1.465   0.460
12233TIP3    H136642   4.419   1.520   0.390
12233TIP3    H236643   4.426   1.506   0.541
12234TIP3   OH236644   1.550   4.043   3.103
12234TIP3    H136645   1.500   4.113   3.060
12234TIP3    H236646   1.571   4.077   3.189
12235TIP3   OH236647   5.977   3.990   4.361
12235TIP3    H136648   5.897   3.956   4.401
12235TIP3    H236649   5.983   4.080   4.392
12236TIP3   OH236650   1.461   5.848   4.019
12236TIP3    H136651   1.482   5.793   4.095
12236TIP3    H236652   1.474   5.937   4.051
12237TIP3   OH236653   0.492   1.092   5.297
12237TIP3    H136654   0.513   1.060   5.385
12237TIP3    H236655   0.499   1.187   5.304
12238TIP3   OH236656   2.562   1.808   5.767
12238TIP3    H136657   2.620   1.830   5.695
12238TIP3    H236658   2.573   1.879   5.830
12239TIP3   OH236659   5.525   3.907   1.630
12239TIP3    H136660   5.487   3.925   1.716
12239TIP3    H236661   5.455   3.865   1.581
12240TIP3   OH236662   1.286   1.561   5.280
12240TIP3    H136663   1.310   1.470   5.264
12240TIP3    H236664   1.272   1.598   5.192
12241TIP3   OH236665   3.777   6.090   4.759
12241TIP3    H136666   3.787   6.168   4.814
12241TIP3    H236667   3.837   6.105   4.686
12242TIP3   OH236668   6.088   1.943   6.423
12242TIP3    H136669   6.097   2.038   6.429
12242TIP3    H236670   6.177   1.909   6.422
12243TIP3   OH236671   0.715   0.953   3.515
12243TIP3    H136672   0.671   0.891   3.457
12243TIP3    H236673   0.798   0.910   3.537
12244TIP3   OH236674   8.188   5.193   6.642
12244TIP3    H136675   8.198   5.235   6.557
12244TIP3    H236676   8.271   5.209   6.687
12245TIP3   OH236677   0.511   5.757   4.647
12245TIP3    H136678   0.453   5.757   4.723
12245TIP3    H236679   0.481   5.685   4.593
12246TIP3   OH236680   3.378   3.808   6.155
12246TIP3    H136681   3.406   3.723   6.191
12246TIP3    H236682   3.434   3.872   6.199
12247TIP3   OH236683   4.839   5.058   3.121
12247TIP3    H136684   4.933   5.067   3.108
12247TIP3    H236685   4.800   5.088   3.039
12248TIP3   OH236686   0.732   6.114   4.245
12248TIP3    H136687   0.676   6.105   4.168
12248TIP3    H236688   0.677   6.157   4.310
12249TIP3   OH236689   4.467   4.790   5.140
12249TIP3    H136690   4.552   4.766   5.177
12249TIP3    H236691   4.408   4.793   5.216
12250TIP3   OH236692   3.557   6.963   3.709
12250TIP3    H136693   3.575   7.025   3.638
12250TIP3    H236694   3.472   6.989   3.743
12251TIP3   OH236695   0.754   6.870   3.768
12251TIP3    H136696   0.659   6.862   3.774
12251TIP3    H236697   0.772   6.867   3.674
12252TIP3   OH236698   2.067   2.175   6.095
12252TIP3    H136699   2.072   2.179   6.191
12252TIP3    H236700   2.050   2.265   6.068
12253TIP3   OH236701   6.693   3.502   3.693
12253TIP3    H136702   6.678   3.542   3.607
12253TIP3    H236703   6.748   3.426   3.675
12254TIP3   OH236704   1.986   1.750   5.013
12254TIP3    H136705   2.031   1.692   5.075
12254TIP3    H236706   1.941   1.690   4.954
12255TIP3   OH236707   0.763   2.054   5.144
12255TIP3    H136708   0.844   2.007   5.160
12255TIP3    H236709   0.696   1.986   5.139
12256TIP3   OH236710   2.250   0.969   0.103
12256TIP3    H136711   2.162   0.989   0.073
12256TIP3    H236712   2.240   0.890   0.156
12257TIP3   OH236713   7.107   4.476   0.528
12257TIP3    H136714   7.169   4.421   0.576
12257TIP3    H236715   7.156   4.557   0.511
12258TIP3   OH236716   3.384   3.014   0.999
12258TIP3    H136717   3.324   3.055   1.061
12258TIP3    H236718   3.439   2.957   1.053
12259TIP3   OH236719   1.705   7.108   1.352
12259TIP3    H136720   1.637   7.151   1.402
12259TIP3    H236721   1.773   7.174   1.341
12260TIP3   OH236722   5.444   2.516   5.518
12260TIP3    H136723   5.415   2.429   5.545
12260TIP3    H236724   5.379   2.576   5.556
12261TIP3   OH236725   0.767   4.731   6.456
12261TIP3    H136726   0.724   4.661   6.506
12261TIP3    H236727   0.707   4.805   6.463
12262TIP3   OH236728   6.136   2.688   6.562
12262TIP3    H136729   6.129   2.597   6.534
12262TIP3    H236730   6.230   2.705   6.568
12263TIP3   OH236731   3.397   2.047   2.434
12263TIP3    H136732   3.318   2.094   2.406
12263TIP3    H236733   3.440   2.107   2.495
12264TIP3   OH236734   5.649   0.178   1.478
12264TIP3    H136735   5.569   0.158   1.430
12264TIP3    H236736   5.699   0.097   1.476
12265TIP3   OH236737   4.773   0.798   6.044
12265TIP3    H136738   4.837   0.813   5.975
12265TIP3    H236739   4.812   0.730   6.099
12266TIP3   OH236740   4.576   3.331   0.384
12266TIP3    H136741   4.568   3.388   0.461
12266TIP3    H236742   4.604   3.247   0.419
12267TIP3   OH236743   8.260   0.409   6.238
12267TIP3    H136744   8.213   0.488   6.265
12267TIP3    H236745   8.350   0.422   6.269
12268TIP3   OH236746   2.246   1.808   2.181
12268TIP3    H136747   2.239   1.712   2.178
12268TIP3    H236748   2.269   1.828   2.272
12269TIP3   OH236749   7.865   1.097   0.140
12269TIP3    H136750   7.834   1.023   0.193
12269TIP3    H236751   7.900   1.056   0.061
12270TIP3   OH236752   6.701   2.950   5.882
12270TIP3    H136753   6.747   2.871   5.855
12270TIP3    H236754   6.760   2.992   5.944
12271TIP3   OH236755   1.823   2.453   4.572
12271TIP3    H136756   1.822   2.384   4.505
12271TIP3    H236757   1.871   2.415   4.645
12272TIP3   OH236758   3.173   2.657   3.239
12272TIP3    H136759   3.182   2.723   3.308
12272TIP3    H236760   3.094   2.608   3.262
12273TIP3   OH236761   1.675   0.173   6.128
12273TIP3    H136762   1.657   0.208   6.215
12273TIP3    H236763   1.664   0.078   6.137
12274TIP3   OH236764   7.709   2.469   0.216
12274TIP3    H136765   7.693   2.525   0.140
12274TIP3    H236766   7.770   2.519   0.270
12275TIP3   OH236767   6.284   1.752   5.840
12275TIP3    H136768   6.374   1.739   5.869
12275TIP3    H236769   6.233   1.688   5.890
12276TIP3   OH236770   4.431   6.507   4.959
12276TIP3    H136771   4.356   6.479   4.906
12276TIP3    H236772   4.429   6.603   4.955
12277TIP3   OH236773   4.627   0.000   5.590
12277TIP3    H136774   4.718   0.018   5.613
12277TIP3    H236775   4.585   0.086   5.591
12278TIP3   OH236776   6.309   1.562   4.319
12278TIP3    H136777   6.370   1.627   4.284
12278TIP3    H236778   6.326   1.483   4.269
12279TIP3   OH236779   3.153   6.674   5.812
12279TIP3    H136780   3.230   6.722   5.781
12279TIP3    H236781   3.132   6.613   5.741
12280TIP3   OH236782   3.531   5.300   0.854
12280TIP3    H136783   3.441   5.283   0.830
12280TIP3    H236784   3.582   5.233   0.809
12281TIP3   OH236785   3.849   7.237   1.414
12281TIP3    H136786   3.791   7.174   1.457
12281TIP3    H236787   3.858   7.308   1.477
12282TIP3   OH236788   3.202   0.354   4.459
12282TIP3    H136789   3.258   0.278   4.470
12282TIP3    H236790   3.113   0.321   4.472
12283TIP3   OH236791   0.510   6.990   6.255
12283TIP3    H136792   0.418   6.984   6.232
12283TIP3    H236793   0.541   7.071   6.214
12284TIP3   OH236794   2.846   3.115   0.892
12284TIP3    H136795   2.926   3.151   0.930
12284TIP3    H236796   2.852   3.136   0.799
12285TIP3   OH236797   3.744   5.260   1.374
12285TIP3    H136798   3.742   5.355   1.368
12285TIP3    H236799   3.794   5.232   1.297
12286TIP3   OH236800   6.412   6.047   5.580
12286TIP3    H136801   6.485   6.100   5.612
12286TIP3    H236802   6.384   5.996   5.656
12287TIP3   OH236803   1.270   7.656   2.936
12287TIP3    H136804   1.258   7.572   2.891
12287TIP3    H236805   1.202   7.713   2.901
12288TIP3   OH236806   1.203   1.119   5.170
12288TIP3    H136807   1.120   1.157   5.141
12288TIP3    H236808   1.239   1.184   5.230
12289TIP3   OH236809   0.114   7.185   1.941
12289TIP3    H136810   0.064   7.126   1.884
12289TIP3    H236811   0.156   7.126   2.004
12290TIP3   OH236812   0.198   6.664   1.572
12290TIP3    H136813   0.228   6.675   1.482
12290TIP3    H236814   0.268   6.701   1.626
12291TIP3   OH236815   0.622   1.044   5.572
12291TIP3    H136816   0.693   0.981   5.562
12291TIP3    H236817   0.591   1.030   5.662
12292TIP3   OH236818   2.045   0.939   3.489
12292TIP3    H136819   2.059   1.003   3.558
12292TIP3    H236820   1.981   0.877   3.525
12293TIP3   OH236821   4.654   1.497   3.190
12293TIP3    H136822   4.611   1.439   3.127
12293TIP3    H236823   4.673   1.576   3.139
12294TIP3   OH236824   4.253   5.341   5.247
12294TIP3    H136825   4.261   5.423   5.297
12294TIP3    H236826   4.280   5.365   5.159
12295TIP3   OH236827   6.050   2.873   5.323
12295TIP3    H136828   6.058   2.951   5.379
12295TIP3    H236829   5.956   2.865   5.307
12296TIP3   OH236830   7.033   2.641   1.409
12296TIP3    H136831   7.023   2.547   1.395
12296TIP3    H236832   6.971   2.682   1.349
12297TIP3   OH236833   0.897   5.118   0.713
12297TIP3    H136834   0.848   5.048   0.669
12297TIP3    H236835   0.968   5.072   0.758
12298TIP3   OH236836   0.748   5.627   2.247
12298TIP3    H136837   0.819   5.628   2.183
12298TIP3    H236838   0.757   5.543   2.292
12299TIP3   OH236839   6.606   1.780   2.862
12299TIP3    H136840   6.595   1.876   2.863
12299TIP3    H236841   6.647   1.760   2.945
12300TIP3   OH236842   2.882   4.617   5.791
12300TIP3    H136843   2.809   4.564   5.824
12300TIP3    H236844   2.862   4.706   5.820
12301TIP3   OH236845   2.924   7.388   0.058
12301TIP3    H136846   2.944   7.470   0.012
12301TIP3    H236847   2.980   7.323   0.016
12302TIP3   OH236848   1.846   4.115   2.491
12302TIP3    H136849   1.928   4.146   2.530
12302TIP3    H236850   1.795   4.194   2.477
12303TIP3   OH236851   6.637   6.175   3.998
12303TIP3    H136852   6.587   6.256   4.007
12303TIP3    H236853   6.608   6.121   4.071
12304TIP3   OH236854   3.886   5.887   2.414
12304TIP3    H136855   3.854   5.825   2.480
12304TIP3    H236856   3.900   5.834   2.336
12305TIP3   OH236857   7.667   2.826   0.251
12305TIP3    H136858   7.589   2.855   0.299
12305TIP3    H236859   7.714   2.771   0.314
12306TIP3   OH236860   6.183   1.118   2.714
12306TIP3    H136861   6.266   1.144   2.674
12306TIP3    H236862   6.163   1.033   2.674
12307TIP3   OH236863   3.913   2.771   0.893
12307TIP3    H136864   3.877   2.699   0.946
12307TIP3    H236865   3.977   2.813   0.950
12308TIP3   OH236866   6.815   2.287   5.896
12308TIP3    H136867   6.853   2.247   5.818
12308TIP3    H236868   6.840   2.379   5.892
12309TIP3   OH236869   2.172   1.412   4.763
12309TIP3    H136870   2.114   1.363   4.821
12309TIP3    H236871   2.194   1.351   4.692
12310TIP3   OH236872   0.471   2.834   2.480
12310TIP3    H136873   0.475   2.778   2.557
12310TIP3    H236874   0.520   2.787   2.413
12311TIP3   OH236875   1.452   1.304   2.410
12311TIP3    H136876   1.525   1.325   2.469
12311TIP3    H236877   1.484   1.230   2.358
12312TIP3   OH236878   1.072   7.015   5.756
12312TIP3    H136879   1.016   6.989   5.829
12312TIP3    H236880   1.020   7.079   5.707
12313TIP3   OH236881   4.350   3.692   0.851
12313TIP3    H136882   4.270   3.744   0.846
12313TIP3    H236883   4.341   3.642   0.932
12314TIP3   OH236884   0.033   6.334   1.372
12314TIP3    H136885   0.098   6.268   1.350
12314TIP3    H236886   0.016   6.380   1.290
12315TIP3   OH236887   2.262   5.137   5.868
12315TIP3    H136888   2.342   5.096   5.835
12315TIP3    H236889   2.222   5.071   5.924
12316TIP3   OH236890   3.591   1.464   1.907
12316TIP3    H136891   3.505   1.479   1.870
12316TIP3    H236892   3.649   1.454   1.831
12317TIP3   OH236893   7.787   4.098   0.311
12317TIP3    H136894   7.840   4.085   0.232
12317TIP3    H236895   7.774   4.193   0.315
12318TIP3   OH236896   2.648   2.014   0.471
12318TIP3    H136897   2.586   2.032   0.543
12318TIP3    H236898   2.616   2.067   0.398
12319TIP3   OH236899   1.363   3.675   2.283
12319TIP3    H136900   1.312   3.701   2.207
12319TIP3    H236901   1.341   3.739   2.350
12320TIP3   OH236902   1.611   2.813   5.382
12320TIP3    H136903   1.585   2.891   5.333
12320TIP3    H236904   1.568   2.822   5.467
12321TIP3   OH236905   6.318   2.602   2.915
12321TIP3    H136906   6.230   2.631   2.939
12321TIP3    H236907   6.375   2.643   2.979
12322TIP3   OH236908   6.016   2.574   2.787
12322TIP3    H136909   6.025   2.615   2.873
12322TIP3    H236910   5.933   2.527   2.791
12323TIP3   OH236911   3.097   4.714   6.093
12323TIP3    H136912   3.051   4.793   6.067
12323TIP3    H236913   3.126   4.675   6.010
12324TIP3   OH236914   1.890   4.003   4.400
12324TIP3    H136915   1.858   3.915   4.380
12324TIP3    H236916   1.955   3.989   4.469
12325TIP3   OH236917   1.770   4.714   2.885
12325TIP3    H136918   1.824   4.649   2.928
12325TIP3    H236919   1.711   4.746   2.954
12326TIP3   OH236920   3.452   4.205   5.705
12326TIP3    H136921   3.413   4.130   5.659
12326TIP3    H236922   3.397   4.216   5.783
12327TIP3   OH236923   2.544   0.058   6.050
12327TIP3    H136924   2.601   0.074   6.125
12327TIP3    H236925   2.458   0.041   6.089
12328TIP3   OH236926   2.878   2.463   0.431
12328TIP3    H136927   2.860   2.529   0.365
12328TIP3    H236928   2.947   2.409   0.393
12329TIP3   OH236929   4.079   0.415   5.096
12329TIP3    H136930   4.149   0.365   5.137
12329TIP3    H236931   4.028   0.350   5.048
12330TIP3   OH236932   7.953   7.312   3.511
12330TIP3    H136933   7.873   7.266   3.535
12330TIP3    H236934   7.927   7.370   3.439
12331TIP3   OH236935   7.766   1.303   1.716
12331TIP3    H136936   7.792   1.227   1.769
12331TIP3    H236937   7.843   1.359   1.715
12332TIP3   OH236938   5.552   7.691   4.113
12332TIP3    H136939   5.477   7.654   4.067
12332TIP3    H236940   5.614   7.714   4.044
12333TIP3   OH236941   6.721   7.146   3.324
12333TIP3    H136942   6.796   7.183   3.371
12333TIP3    H236943   6.756   7.124   3.238
12334TIP3   OH236944   4.879   4.374   5.521
12334TIP3    H136945   4.826   4.295   5.511
12334TIP3    H236946   4.824   4.433   5.573
12335TIP3   OH236947   2.917   3.204   0.652
12335TIP3    H136948   2.940   3.155   0.572
12335TIP3    H236949   2.922   3.296   0.626
12336TIP3   OH236950   0.037   6.600   4.461
12336TIP3    H136951   0.124   6.570   4.488
12336TIP3    H236952   0.051   6.691   4.433
12337TIP3   OH236953   1.430   6.615   1.123
12337TIP3    H136954   1.360   6.669   1.157
12337TIP3    H236955   1.489   6.601   1.197
12338TIP3   OH236956   2.481   2.984   4.047
12338TIP3    H136957   2.527   2.928   3.984
12338TIP3    H236958   2.428   3.042   3.993
12339TIP3   OH236959   7.960   1.109   1.273
12339TIP3    H136960   8.053   1.108   1.252
12339TIP3    H236961   7.927   1.026   1.239
12340TIP3   OH236962   5.062   1.649   5.300
12340TIP3    H136963   5.003   1.644   5.374
12340TIP3    H236964   5.012   1.612   5.227
12341TIP3   OH236965   7.694   6.689   2.830
12341TIP3    H136966   7.630   6.735   2.885
12341TIP3    H236967   7.744   6.635   2.891
12342TIP3   OH236968   3.250   0.534   2.609
12342TIP3    H136969   3.341   0.514   2.630
12342TIP3    H236970   3.218   0.454   2.567
12343TIP3   OH236971   2.359   0.806   2.071
12343TIP3    H136972   2.439   0.790   2.021
12343TIP3    H236973   2.360   0.900   2.089
12344TIP3   OH236974   3.586   5.462   2.838
12344TIP3    H136975   3.630   5.525   2.895
12344TIP3    H236976   3.510   5.433   2.888
12345TIP3   OH236977   1.031   6.326   5.001
12345TIP3    H136978   1.088   6.300   5.073
12345TIP3    H236979   1.057   6.416   4.981
12346TIP3   OH236980   5.391   0.491   2.929
12346TIP3    H136981   5.381   0.583   2.955
12346TIP3    H236982   5.307   0.451   2.949
12347TIP3   OH236983   5.274   0.350   5.378
12347TIP3    H136984   5.193   0.362   5.329
12347TIP3    H236985   5.309   0.267   5.346
12348TIP3   OH236986   0.790   3.924   3.253
12348TIP3    H136987   0.836   3.870   3.317
12348TIP3    H236988   0.729   3.864   3.210
12349TIP3   OH236989   3.695   0.063   4.659
12349TIP3    H136990   3.755  -0.010   4.675
12349TIP3    H236991   3.608   0.023   4.659
12350TIP3   OH236992   5.020   3.522   0.504
12350TIP3    H136993   5.034   3.453   0.439
12350TIP3    H236994   5.081   3.591   0.478
12351TIP3   OH236995   4.137   1.836   4.774
12351TIP3    H136996   4.132   1.778   4.851
12351TIP3    H236997   4.212   1.892   4.791
12352TIP3   OH236998   8.239   3.730   0.664
12352TIP3    H136999   8.330   3.699   0.662
12352TIP3    H237000   8.245   3.822   0.641
12353TIP3   OH237001   8.137   7.428   4.892
12353TIP3    H137002   8.185   7.488   4.835
12353TIP3    H237003   8.201   7.362   4.917
12354TIP3   OH237004   5.088   4.967   6.604
12354TIP3    H137005   5.097   4.872   6.596
12354TIP3    H237006   5.060   4.981   6.695
12355TIP3   OH237007   0.960   7.328   4.086
12355TIP3    H137008   0.991   7.380   4.160
12355TIP3    H237009   0.933   7.245   4.126
12356TIP3   OH237010   7.929   7.102   5.669
12356TIP3    H137011   8.006   7.048   5.684
12356TIP3    H237012   7.914   7.096   5.575
12357TIP3   OH237013   0.761   4.295   1.331
12357TIP3    H137014   0.855   4.301   1.316
12357TIP3    H237015   0.738   4.205   1.309
12358TIP3   OH237016   1.310   4.177   5.937
12358TIP3    H137017   1.216   4.196   5.936
12358TIP3    H237018   1.315   4.082   5.931
12359TIP3   OH237019   6.049   4.751   0.410
12359TIP3    H137020   6.010   4.781   0.492
12359TIP3    H237021   6.044   4.827   0.352
12360TIP3   OH237022   7.091   5.366   5.532
12360TIP3    H137023   7.057   5.456   5.537
12360TIP3    H237024   7.028   5.314   5.581
12361TIP3   OH237025   5.184   5.339   2.040
12361TIP3    H137026   5.121   5.268   2.053
12361TIP3    H237027   5.196   5.377   2.127
12362TIP3   OH237028   7.179   2.529   2.355
12362TIP3    H137029   7.086   2.537   2.333
12362TIP3    H237030   7.225   2.573   2.284
12363TIP3   OH237031   6.222   1.073   0.908
12363TIP3    H137032   6.145   1.026   0.878
12363TIP3    H237033   6.277   1.082   0.830
12364TIP3   OH237034   4.270   5.527   0.442
12364TIP3    H137035   4.317   5.502   0.363
12364TIP3    H237036   4.338   5.557   0.502
12365TIP3   OH237037   4.587   2.048   0.888
12365TIP3    H137038   4.495   2.023   0.901
12365TIP3    H237039   4.636   1.968   0.904
12366TIP3   OH237040   5.389   7.028   4.132
12366TIP3    H137041   5.306   7.058   4.095
12366TIP3    H237042   5.432   6.982   4.060
12367TIP3   OH237043   6.453   6.548   1.364
12367TIP3    H137044   6.404   6.630   1.358
12367TIP3    H237045   6.389   6.480   1.344
12368TIP3   OH237046   0.251   4.785   1.989
12368TIP3    H137047   0.208   4.783   1.904
12368TIP3    H237048   0.337   4.744   1.974
12369TIP3   OH237049   0.748   7.648   5.665
12369TIP3    H137050   0.799   7.618   5.590
12369TIP3    H237051   0.811   7.649   5.737
12370TIP3   OH237052   0.599   6.354   3.240
12370TIP3    H137053   0.598   6.313   3.327
12370TIP3    H237054   0.507   6.368   3.220
12371TIP3   OH237055   0.852   3.357   4.147
12371TIP3    H137056   0.915   3.415   4.104
12371TIP3    H237057   0.869   3.271   4.109
12372TIP3   OH237058   2.446   0.235   1.562
12372TIP3    H137059   2.366   0.288   1.566
12372TIP3    H237060   2.435   0.171   1.633
12373TIP3   OH237061   2.829   7.438   2.433
12373TIP3    H137062   2.787   7.354   2.449
12373TIP3    H237063   2.826   7.483   2.518
12374TIP3   OH237064   7.681   0.018   1.129
12374TIP3    H137065   7.627  -0.061   1.125
12374TIP3    H237066   7.618   0.090   1.136
12375TIP3   OH237067   1.079   3.816   5.713
12375TIP3    H137068   1.096   3.853   5.626
12375TIP3    H237069   1.161   3.827   5.761
12376TIP3   OH237070   5.998   7.169   0.796
12376TIP3    H137071   6.007   7.117   0.876
12376TIP3    H237072   5.948   7.112   0.737
12377TIP3   OH237073   2.605   6.534   3.831
12377TIP3    H137074   2.650   6.559   3.912
12377TIP3    H237075   2.535   6.598   3.822
12378TIP3   OH237076   2.984   4.250   6.673
12378TIP3    H137077   3.067   4.264   6.717
12378TIP3    H237078   2.918   4.282   6.735
12379TIP3   OH237079   5.734   5.694   1.542
12379TIP3    H137080   5.747   5.643   1.623
12379TIP3    H237081   5.640   5.697   1.530
12380TIP3   OH237082   3.400   5.106   3.311
12380TIP3    H137083   3.338   5.062   3.368
12380TIP3    H237084   3.428   5.184   3.360
12381TIP3   OH237085   0.714   3.529   0.060
12381TIP3    H137086   0.735   3.614   0.023
12381TIP3    H237087   0.781   3.470   0.026
12382TIP3   OH237088   2.840   7.842   3.215
12382TIP3    H137089   2.832   7.764   3.269
12382TIP3    H237090   2.817   7.813   3.126
12383TIP3   OH237091   5.500   0.784   3.694
12383TIP3    H137092   5.430   0.748   3.748
12383TIP3    H237093   5.552   0.837   3.754
12384TIP3   OH237094   3.061   3.013   5.576
12384TIP3    H137095   3.064   3.012   5.671
12384TIP3    H237096   2.981   2.966   5.554
12385TIP3   OH237097   7.182   6.033   1.982
12385TIP3    H137098   7.211   6.108   1.931
12385TIP3    H237099   7.234   6.036   2.062
12386TIP3   OH237100   6.701   4.078   0.820
12386TIP3    H137101   6.712   4.082   0.725
12386TIP3    H237102   6.732   4.163   0.851
12387TIP3   OH237103   8.052   4.169   4.882
12387TIP3    H137104   8.004   4.235   4.833
12387TIP3    H237105   8.144   4.189   4.866
12388TIP3   OH237106   5.325   0.446   1.007
12388TIP3    H137107   5.244   0.405   0.976
12388TIP3    H237108   5.394   0.385   0.983
12389TIP3   OH237109   1.692   7.573   3.978
12389TIP3    H137110   1.777   7.539   3.950
12389TIP3    H237111   1.689   7.661   3.940
12390TIP3   OH237112   0.973   3.843   2.703
12390TIP3    H137113   0.979   3.927   2.748
12390TIP3    H237114   1.053   3.837   2.651
12391TIP3   OH237115   7.199   0.639   0.856
12391TIP3    H137116   7.153   0.715   0.820
12391TIP3    H237117   7.181   0.641   0.950
12392TIP3   OH237118   4.785   5.839   1.287
12392TIP3    H137119   4.786   5.754   1.332
12392TIP3    H237120   4.779   5.817   1.194
12393TIP3   OH237121   4.068   3.059   1.975
12393TIP3    H137122   4.054   3.065   1.881
12393TIP3    H237123   4.163   3.066   1.985
12394TIP3   OH237124   4.535   5.661   1.664
12394TIP3    H137125   4.443   5.679   1.683
12394TIP3    H237126   4.576   5.747   1.660
12395TIP3   OH237127   4.832   4.577   3.958
12395TIP3    H137128   4.745   4.592   3.920
12395TIP3    H237129   4.892   4.598   3.887
12396TIP3   OH237130   6.070   0.653   2.881
12396TIP3    H137131   6.023   0.663   2.798
12396TIP3    H237132   6.040   0.568   2.915
12397TIP3   OH237133   0.858   1.026   0.526
12397TIP3    H137134   0.816   1.101   0.483
12397TIP3    H237135   0.943   1.019   0.482
12398TIP3   OH237136   5.018   4.796   1.243
12398TIP3    H137137   5.088   4.834   1.296
12398TIP3    H237138   4.949   4.773   1.305
12399TIP3   OH237139   1.536   7.050   3.449
12399TIP3    H137140   1.587   7.052   3.369
12399TIP3    H237141   1.445   7.041   3.420
12400TIP3   OH237142   2.250   7.073   6.668
12400TIP3    H137143   2.334   7.113   6.642
12400TIP3    H237144   2.269   7.028   6.750
12401TIP3   OH237145   1.678   5.522   2.181
12401TIP3    H137146   1.693   5.554   2.270
12401TIP3    H237147   1.710   5.592   2.124
12402TIP3   OH237148   3.489   1.435   0.017
12402TIP3    H137149   3.461   1.411   0.105
12402TIP3    H237150   3.496   1.530   0.020
12403TIP3   OH237151   6.622   5.286   0.791
12403TIP3    H137152   6.575   5.339   0.727
12403TIP3    H237153   6.554   5.237   0.838
12404TIP3   OH237154   5.640   7.506   6.065
12404TIP3    H137155   5.719   7.491   6.013
12404TIP3    H237156   5.648   7.596   6.096
12405TIP3   OH237157   4.439   2.609   3.537
12405TIP3    H137158   4.535   2.612   3.542
12405TIP3    H237159   4.421   2.547   3.467
12406TIP3   OH237160   6.450   2.590   5.554
12406TIP3    H137161   6.493   2.547   5.628
12406TIP3    H237162   6.396   2.658   5.594
12407TIP3   OH237163   5.009   2.493   1.294
12407TIP3    H137164   4.942   2.442   1.250
12407TIP3    H237165   5.008   2.578   1.249
12408TIP3   OH237166   1.869   6.131   2.052
12408TIP3    H137167   1.793   6.138   2.109
12408TIP3    H237168   1.939   6.176   2.100
12409TIP3   OH237169   8.140   6.682   5.281
12409TIP3    H137170   8.098   6.606   5.323
12409TIP3    H237171   8.069   6.724   5.232
12410TIP3   OH237172   4.090   0.418   0.714
12410TIP3    H137173   4.091   0.513   0.723
12410TIP3    H237174   4.002   0.398   0.682
12411TIP3   OH237175   0.903   5.941   6.718
12411TIP3    H137176   0.995   5.935   6.744
12411TIP3    H237177   0.905   5.929   6.623
12412TIP3   OH237178   5.805   4.128   1.006
12412TIP3    H137179   5.827   4.035   1.017
12412TIP3    H237180   5.853   4.172   1.076
12413TIP3   OH237181   6.523   6.001   3.311
12413TIP3    H137182   6.523   6.055   3.232
12413TIP3    H237183   6.610   6.014   3.349
12414TIP3   OH237184   0.557   1.626   6.231
12414TIP3    H137185   0.558   1.666   6.318
12414TIP3    H237186   0.543   1.699   6.171
12415TIP3   OH237187   0.216   7.356   0.377
12415TIP3    H137188   0.246   7.275   0.337
12415TIP3    H237189   0.249   7.426   0.321
12416TIP3   OH237190   7.314   2.872   3.655
12416TIP3    H137191   7.227   2.845   3.683
12416TIP3    H237192   7.367   2.792   3.661
12417TIP3   OH237193   3.843   3.589   5.919
12417TIP3    H137194   3.809   3.649   5.853
12417TIP3    H237195   3.925   3.556   5.882
12418TIP3   OH237196   3.206   1.258   1.573
12418TIP3    H137197   3.237   1.237   1.661
12418TIP3    H237198   3.193   1.173   1.532
12419TIP3   OH237199   2.795   4.701   6.325
12419TIP3    H137200   2.785   4.692   6.230
12419TIP3    H237201   2.849   4.779   6.336
12420TIP3   OH237202   2.281   1.719   6.288
12420TIP3    H137203   2.230   1.665   6.227
12420TIP3    H237204   2.229   1.718   6.369
12421TIP3   OH237205   6.311   3.455   0.887
12421TIP3    H137206   6.282   3.375   0.844
12421TIP3    H237207   6.389   3.482   0.839
12422TIP3   OH237208   6.266   2.513   0.822
12422TIP3    H137209   6.190   2.518   0.764
12422TIP3    H237210   6.237   2.458   0.895
12423TIP3   OH237211   2.583   5.554   3.024
12423TIP3    H137212   2.661   5.577   2.975
12423TIP3    H237213   2.604   5.576   3.115
12424TIP3   OH237214   2.312   4.936   2.392
12424TIP3    H137215   2.311   5.026   2.358
12424TIP3    H237216   2.238   4.894   2.349
12425TIP3   OH237217   7.583   0.428   5.212
12425TIP3    H137218   7.586   0.344   5.258
12425TIP3    H237219   7.509   0.419   5.151
12426TIP3   OH237220   6.197   5.929   2.133
12426TIP3    H137221   6.267   5.956   2.073
12426TIP3    H237222   6.221   5.967   2.217
12427TIP3   OH237223   1.485   1.616   3.076
12427TIP3    H137224   1.475   1.705   3.041
12427TIP3    H237225   1.580   1.604   3.083
12428TIP3   OH237226   5.315   5.196   0.229
12428TIP3    H137227   5.390   5.254   0.244
12428TIP3    H237228   5.310   5.143   0.308
12429TIP3   OH237229   7.889   2.457   2.171
12429TIP3    H137230   7.958   2.391   2.165
12429TIP3    H237231   7.929   2.528   2.221
12430TIP3   OH237232   3.049   1.036   1.498
12430TIP3    H137233   2.974   1.077   1.540
12430TIP3    H237234   3.067   0.959   1.551
12431TIP3   OH237235   3.204   0.428   2.992
12431TIP3    H137236   3.223   0.489   3.063
12431TIP3    H237237   3.287   0.416   2.947
12432TIP3   OH237238   7.145   2.926   1.913
12432TIP3    H137239   7.209   2.871   1.866
12432TIP3    H237240   7.103   2.978   1.844
12433TIP3   OH237241   5.415   7.122   2.486
12433TIP3    H137242   5.349   7.129   2.555
12433TIP3    H237243   5.396   7.196   2.428
12434TIP3   OH237244   2.126   1.766   1.750
12434TIP3    H137245   2.193   1.797   1.810
12434TIP3    H237246   2.125   1.831   1.679
12435TIP3   OH237247   7.911   2.410   4.694
12435TIP3    H137248   7.984   2.361   4.731
12435TIP3    H237249   7.952   2.484   4.649
12436TIP3   OH237250   3.204   1.506   4.767
12436TIP3    H137251   3.182   1.572   4.702
12436TIP3    H237252   3.156   1.532   4.846
12437TIP3   OH237253   0.813   7.683   4.069
12437TIP3    H137254   0.905   7.675   4.047
12437TIP3    H237255   0.782   7.593   4.081
12438TIP3   OH237256   4.683   6.564   6.650
12438TIP3    H137257   4.662   6.656   6.664
12438TIP3    H237258   4.685   6.526   6.738
12439TIP3   OH237259   0.756   0.487   6.497
12439TIP3    H137260   0.683   0.536   6.535
12439TIP3    H237261   0.814   0.554   6.461
12440TIP3   OH237262   5.815   1.432   0.178
12440TIP3    H137263   5.819   1.347   0.135
12440TIP3    H237264   5.906   1.449   0.205
12441TIP3   OH237265   8.205   5.435   5.473
12441TIP3    H137266   8.174   5.362   5.420
12441TIP3    H237267   8.286   5.404   5.513
12442TIP3   OH237268   1.816   6.627   1.426
12442TIP3    H137269   1.842   6.698   1.485
12442TIP3    H237270   1.825   6.548   1.478
12443TIP3   OH237271   1.590   7.311   3.654
12443TIP3    H137272   1.586   7.245   3.585
12443TIP3    H237273   1.510   7.298   3.705
12444TIP3   OH237274   5.071   2.873   2.734
12444TIP3    H137275   5.092   2.840   2.646
12444TIP3    H237276   5.133   2.944   2.749
12445TIP3   OH237277   1.786   1.186   4.233
12445TIP3    H137278   1.700   1.224   4.215
12445TIP3    H237279   1.818   1.235   4.308
12446TIP3   OH237280   7.710   7.542   4.143
12446TIP3    H137281   7.684   7.477   4.078
12446TIP3    H237282   7.714   7.494   4.226
12447TIP3   OH237283   3.946   5.325   2.437
12447TIP3    H137284   3.883   5.391   2.464
12447TIP3    H237285   3.924   5.306   2.346
12448TIP3   OH237286   5.877   1.111   1.913
12448TIP3    H137287   5.905   1.178   1.975
12448TIP3    H237288   5.932   1.035   1.934
12449TIP3   OH237289   6.960   7.243   6.063
12449TIP3    H137290   6.979   7.233   5.970
12449TIP3    H237291   7.026   7.305   6.094
12450TIP3   OH237292   6.546   2.536   4.836
12450TIP3    H137293   6.586   2.471   4.777
12450TIP3    H237294   6.548   2.617   4.786
12451TIP3   OH237295   5.243   3.676   1.492
12451TIP3    H137296   5.302   3.639   1.558
12451TIP3    H237297   5.275   3.640   1.409
12452TIP3   OH237298   6.357   0.733   5.206
12452TIP3    H137299   6.377   0.797   5.137
12452TIP3    H237300   6.315   0.785   5.275
12453TIP3   OH237301   7.701   5.482   6.053
12453TIP3    H137302   7.788   5.485   6.013
12453TIP3    H237303   7.660   5.406   6.014
12454TIP3   OH237304   4.721   3.591   2.617
12454TIP3    H137305   4.736   3.505   2.580
12454TIP3    H237306   4.654   3.630   2.561
12455TIP3   OH237307   1.900   3.232   2.331
12455TIP3    H137308   1.928   3.227   2.240
12455TIP3    H237309   1.836   3.162   2.340
12456TIP3   OH237310   7.198   6.061   0.451
12456TIP3    H137311   7.169   6.105   0.531
12456TIP3    H237312   7.174   5.969   0.463
12457TIP3   OH237313   8.083   2.788   5.562
12457TIP3    H137314   8.009   2.732   5.586
12457TIP3    H237315   8.042   2.866   5.525
12458TIP3   OH237316   1.433   5.666   5.117
12458TIP3    H137317   1.524   5.691   5.128
12458TIP3    H237318   1.385   5.749   5.118
12459TIP3   OH237319   5.506   7.719   2.104
12459TIP3    H137320   5.545   7.780   2.167
12459TIP3    H237321   5.419   7.755   2.087
12460TIP3   OH237322   3.106   5.039   0.658
12460TIP3    H137323   3.181   5.025   0.716
12460TIP3    H237324   3.074   4.951   0.639
12461TIP3   OH237325   4.134   0.193   1.350
12461TIP3    H137326   4.064   0.217   1.410
12461TIP3    H237327   4.093   0.129   1.291
12462TIP3   OH237328   0.223   1.908   1.926
12462TIP3    H137329   0.169   1.906   2.005
12462TIP3    H237330   0.184   1.843   1.869
12463TIP3   OH237331   1.483   0.736   0.776
12463TIP3    H137332   1.566   0.767   0.738
12463TIP3    H237333   1.470   0.791   0.853
12464TIP3   OH237334   2.013   3.553   1.785
12464TIP3    H137335   2.031   3.643   1.814
12464TIP3    H237336   1.925   3.535   1.817
12465TIP3   OH237337   2.724   0.169   5.536
12465TIP3    H137338   2.820   0.166   5.530
12465TIP3    H237339   2.703   0.261   5.519
12466TIP3   OH237340   5.392   1.102   4.070
12466TIP3    H137341   5.364   1.165   4.004
12466TIP3    H237342   5.392   1.153   4.152
12467TIP3   OH237343   6.907   2.702   1.175
12467TIP3    H137344   6.820   2.677   1.205
12467TIP3    H237345   6.954   2.619   1.166
12468TIP3   OH237346   0.940   5.106   2.243
12468TIP3    H137347   0.846   5.095   2.252
12468TIP3    H237348   0.965   5.165   2.314
12469TIP3   OH237349   6.543   4.036   1.284
12469TIP3    H137350   6.485   4.042   1.208
12469TIP3    H237351   6.566   3.944   1.290
12470TIP3   OH237352   6.762   5.461   3.997
12470TIP3    H137353   6.813   5.507   4.065
12470TIP3    H237354   6.701   5.527   3.965
12471TIP3   OH237355   1.546   5.101   6.252
12471TIP3    H137356   1.487   5.142   6.188
12471TIP3    H237357   1.494   5.097   6.333
12472TIP3   OH237358   0.209   0.466   3.376
12472TIP3    H137359   0.120   0.500   3.390
12472TIP3    H237360   0.198   0.398   3.309
12473TIP3   OH237361   7.392   1.471   6.243
12473TIP3    H137362   7.480   1.485   6.280
12473TIP3    H237363   7.333   1.488   6.316
12474TIP3   OH237364   4.145   5.966   3.499
12474TIP3    H137365   4.066   6.017   3.517
12474TIP3    H237366   4.186   6.010   3.425
12475TIP3   OH237367   2.156   2.353   0.010
12475TIP3    H137368   2.121   2.422   0.066
12475TIP3    H237369   2.096   2.280   0.020
12476TIP3   OH237370   5.833   4.455   1.511
12476TIP3    H137371   5.758   4.467   1.453
12476TIP3    H237372   5.805   4.491   1.595
12477TIP3   OH237373   3.716   2.849   2.020
12477TIP3    H137374   3.806   2.824   2.040
12477TIP3    H237375   3.663   2.775   2.050
12478TIP3   OH237376   4.781   1.226   1.228
12478TIP3    H137377   4.773   1.227   1.324
12478TIP3    H237378   4.755   1.138   1.202
12479TIP3   OH237379   0.993   1.639   0.914
12479TIP3    H137380   1.025   1.728   0.899
12479TIP3    H237381   1.032   1.587   0.844
12480TIP3   OH237382   3.005   1.587   3.042
12480TIP3    H137383   2.930   1.634   3.080
12480TIP3    H237384   3.077   1.650   3.046
12481TIP3   OH237385   7.006   4.341   4.825
12481TIP3    H137386   7.038   4.358   4.914
12481TIP3    H237387   7.075   4.290   4.784
12482TIP3   OH237388   3.037   2.725   4.223
12482TIP3    H137389   2.955   2.694   4.184
12482TIP3    H237390   3.032   2.698   4.314
12483TIP3   OH237391   8.044   6.920   6.069
12483TIP3    H137392   8.000   6.990   6.020
12483TIP3    H237393   8.104   6.880   6.007
12484TIP3   OH237394   1.034   1.941   2.378
12484TIP3    H137395   0.945   1.922   2.407
12484TIP3    H237396   1.025   1.959   2.284
12485TIP3   OH237397   8.087   1.284   0.265
12485TIP3    H137398   8.051   1.321   0.346
12485TIP3    H237399   8.013   1.240   0.223
12486TIP3   OH237400   6.269   0.672   2.285
12486TIP3    H137401   6.273   0.761   2.252
12486TIP3    H237402   6.293   0.679   2.377
12487TIP3   OH237403   4.863   2.528   3.206
12487TIP3    H137404   4.957   2.539   3.193
12487TIP3    H237405   4.830   2.499   3.121
12488TIP3   OH237406   1.977   2.553   3.341
12488TIP3    H137407   1.971   2.529   3.434
12488TIP3    H237408   2.064   2.524   3.314
12489TIP3   OH237409   1.883   0.556   6.177
12489TIP3    H137410   1.929   0.537   6.259
12489TIP3    H237411   1.860   0.649   6.184
12490TIP3   OH237412   5.270   2.496   1.887
12490TIP3    H137413   5.320   2.500   1.968
12490TIP3    H237414   5.218   2.416   1.894
12491TIP3   OH237415   7.440   3.380   6.088
12491TIP3    H137416   7.419   3.378   6.181
12491TIP3    H237417   7.363   3.344   6.045
12492TIP3   OH237418   1.858   3.931   4.760
12492TIP3    H137419   1.888   3.875   4.688
12492TIP3    H237420   1.792   3.988   4.720
12493TIP3   OH237421   3.705   0.434   1.781
12493TIP3    H137422   3.773   0.496   1.810
12493TIP3    H237423   3.651   0.420   1.859
12494TIP3   OH237424   1.529   6.383   2.509
12494TIP3    H137425   1.484   6.370   2.426
12494TIP3    H237426   1.467   6.434   2.562
12495TIP3   OH237427   3.095   3.228   1.888
12495TIP3    H137428   3.095   3.292   1.959
12495TIP3    H237429   3.149   3.156   1.920
12496TIP3   OH237430   5.948   7.350   3.230
12496TIP3    H137431   5.863   7.368   3.270
12496TIP3    H237432   5.962   7.422   3.169
12497TIP3   OH237433   7.652   2.862   3.616
12497TIP3    H137434   7.591   2.854   3.544
12497TIP3    H237435   7.637   2.784   3.669
12498TIP3   OH237436   7.365   5.938   4.434
12498TIP3    H137437   7.296   5.871   4.431
12498TIP3    H237438   7.424   5.907   4.503
12499TIP3   OH237439   1.762   5.581   1.770
12499TIP3    H137440   1.740   5.497   1.810
12499TIP3    H237441   1.702   5.643   1.811
12500TIP3   OH237442   3.587   5.508   6.249
12500TIP3    H137443   3.514   5.449   6.268
12500TIP3    H237444   3.659   5.474   6.302
12501TIP3   OH237445   3.944   6.275   6.740
12501TIP3    H137446   3.919   6.207   6.678
12501TIP3    H237447   4.012   6.234   6.794
12502TIP3   OH237448   4.065   3.517   3.557
12502TIP3    H137449   4.089   3.589   3.498
12502TIP3    H237450   4.015   3.457   3.501
12503TIP3   OH237451   4.609   0.434   4.665
12503TIP3    H137452   4.671   0.416   4.593
12503TIP3    H237453   4.656   0.494   4.722
12504TIP3   OH237454   1.611   1.712   3.703
12504TIP3    H137455   1.612   1.725   3.798
12504TIP3    H237456   1.579   1.622   3.691
12505TIP3   OH237457   7.981   5.800   6.364
12505TIP3    H137458   7.914   5.778   6.300
12505TIP3    H237459   7.943   5.778   6.449
12506TIP3   OH237460   0.715   0.723   2.365
12506TIP3    H137461   0.672   0.647   2.404
12506TIP3    H237462   0.807   0.715   2.391
12507TIP3   OH237463   6.896   1.807   3.415
12507TIP3    H137464   6.924   1.869   3.348
12507TIP3    H237465   6.976   1.787   3.464
12508TIP3   OH237466   2.947   1.345   4.934
12508TIP3    H137467   2.861   1.376   4.908
12508TIP3    H237468   2.940   1.328   5.028
12509TIP3   OH237469   5.029   4.053   0.304
12509TIP3    H137470   5.044   4.124   0.241
12509TIP3    H237471   5.057   4.091   0.388
12510TIP3   OH237472   7.766   6.980   4.522
12510TIP3    H137473   7.827   6.951   4.454
12510TIP3    H237474   7.770   6.911   4.589
12511TIP3   OH237475   2.471   5.184   3.320
12511TIP3    H137476   2.444   5.093   3.334
12511TIP3    H237477   2.398   5.236   3.353
12512TIP3   OH237478   2.850   6.691   1.655
12512TIP3    H137479   2.813   6.779   1.650
12512TIP3    H237480   2.774   6.635   1.673
12513TIP3   OH237481   6.560   1.810   1.911
12513TIP3    H137482   6.638   1.761   1.883
12513TIP3    H237483   6.492   1.783   1.849
12514TIP3   OH237484   2.792   7.576   0.710
12514TIP3    H137485   2.767   7.525   0.787
12514TIP3    H237486   2.832   7.655   0.746
12515TIP3   OH237487   2.415   3.021   2.352
12515TIP3    H137488   2.501   3.037   2.390
12515TIP3    H237489   2.408   3.083   2.280
12516TIP3   OH237490   5.881   6.865   4.912
12516TIP3    H137491   5.806   6.914   4.879
12516TIP3    H237492   5.881   6.785   4.859
12517TIP3   OH237493   0.981   5.393   5.748
12517TIP3    H137494   1.021   5.356   5.827
12517TIP3    H237495   1.045   5.459   5.718
12518TIP3   OH237496   8.102   4.377   2.169
12518TIP3    H137497   8.196   4.398   2.165
12518TIP3    H237498   8.093   4.296   2.119
12519TIP3   OH237499   4.537   2.669   5.701
12519TIP3    H137500   4.459   2.661   5.647
12519TIP3    H237501   4.574   2.581   5.702
12520TIP3   OH237502   0.192   0.981   5.495
12520TIP3    H137503   0.263   0.919   5.478
12520TIP3    H237504   0.115   0.925   5.510
12521TIP3   OH237505   0.361   3.365   3.740
12521TIP3    H137506   0.329   3.278   3.714
12521TIP3    H237507   0.454   3.353   3.756
12522TIP3   OH237508   5.161   0.579   0.791
12522TIP3    H137509   5.102   0.504   0.778
12522TIP3    H237510   5.150   0.603   0.883
12523TIP3   OH237511   0.384   0.281   4.094
12523TIP3    H137512   0.291   0.266   4.109
12523TIP3    H237513   0.407   0.220   4.024
12524TIP3   OH237514   0.046   4.943   3.107
12524TIP3    H137515   0.049   4.881   3.034
12524TIP3    H237516  -0.042   4.979   3.106
12525TIP3   OH237517   0.839   6.017   3.866
12525TIP3    H137518   0.796   5.950   3.919
12525TIP3    H237519   0.810   5.999   3.776
12526TIP3   OH237520   1.806   3.902   0.260
12526TIP3    H137521   1.849   3.978   0.221
12526TIP3    H237522   1.715   3.909   0.231
12527TIP3   OH237523   5.538   0.921   3.930
12527TIP3    H137524   5.515   1.005   3.970
12527TIP3    H237525   5.560   0.865   4.005
12528TIP3   OH237526   5.196   7.534   0.156
12528TIP3    H137527   5.133   7.548   0.227
12528TIP3    H237528   5.280   7.525   0.200
12529TIP3   OH237529   3.446   6.658   3.759
12529TIP3    H137530   3.518   6.722   3.755
12529TIP3    H237531   3.388   6.683   3.687
12530TIP3   OH237532   2.498   5.758   5.264
12530TIP3    H137533   2.440   5.779   5.338
12530TIP3    H237534   2.482   5.665   5.248
12531TIP3   OH237535   0.566   0.395   5.437
12531TIP3    H137536   0.591   0.339   5.364
12531TIP3    H237537   0.555   0.335   5.511
12532TIP3   OH237538   0.768   1.967   4.590
12532TIP3    H137539   0.749   1.970   4.496
12532TIP3    H237540   0.774   2.059   4.617
12533TIP3   OH237541   2.008   4.597   3.721
12533TIP3    H137542   1.995   4.579   3.628
12533TIP3    H237543   1.966   4.524   3.765
12534TIP3   OH237544   8.249   5.863   3.821
12534TIP3    H137545   8.233   5.917   3.898
12534TIP3    H237546   8.285   5.923   3.756
12535TIP3   OH237547   4.488   2.746   4.675
12535TIP3    H137548   4.545   2.820   4.652
12535TIP3    H237549   4.545   2.669   4.667
12536TIP3   OH237550   4.338   6.504   6.447
12536TIP3    H137551   4.325   6.453   6.527
12536TIP3    H237552   4.260   6.559   6.441
12537TIP3   OH237553   4.729   3.343   4.872
12537TIP3    H137554   4.658   3.401   4.902
12537TIP3    H237555   4.684   3.272   4.827
12538TIP3   OH237556   1.495   0.521   3.646
12538TIP3    H137557   1.544   0.460   3.701
12538TIP3    H237558   1.501   0.485   3.557
12539TIP3   OH237559   4.171   5.654   2.137
12539TIP3    H137560   4.105   5.712   2.175
12539TIP3    H237561   4.204   5.604   2.211
12540TIP3   OH237562   4.380   1.603   3.575
12540TIP3    H137563   4.302   1.623   3.523
12540TIP3    H237564   4.363   1.516   3.611
12541TIP3   OH237565   1.935   5.194   1.966
12541TIP3    H137566   1.941   5.289   1.957
12541TIP3    H237567   2.021   5.167   1.996
12542TIP3   OH237568   3.103   1.284   5.755
12542TIP3    H137569   3.159   1.312   5.828
12542TIP3    H237570   3.049   1.360   5.735
12543TIP3   OH237571   6.133   0.472   5.158
12543TIP3    H137572   6.095   0.470   5.246
12543TIP3    H237573   6.122   0.563   5.130
12544TIP3   OH237574   1.172   0.226   4.199
12544TIP3    H137575   1.186   0.188   4.113
12544TIP3    H237576   1.257   0.261   4.225
12545TIP3   OH237577   8.190   6.172   1.855
12545TIP3    H137578   8.158   6.155   1.767
12545TIP3    H237579   8.145   6.109   1.911
12546TIP3   OH237580   7.992   2.228   5.862
12546TIP3    H137581   7.930   2.245   5.933
12546TIP3    H237582   8.002   2.313   5.819
12547TIP3   OH237583   2.658   7.216   3.282
12547TIP3    H137584   2.686   7.173   3.363
12547TIP3    H237585   2.739   7.231   3.234
12548TIP3   OH237586   4.958   1.744   2.336
12548TIP3    H137587   5.018   1.803   2.380
12548TIP3    H237588   4.927   1.684   2.405
12549TIP3   OH237589   8.154   3.704   3.880
12549TIP3    H137590   8.078   3.690   3.824
12549TIP3    H237591   8.168   3.620   3.924
12550TIP3   OH237592   7.854   7.528   6.187
12550TIP3    H137593   7.781   7.467   6.202
12550TIP3    H237594   7.909   7.519   6.265
12551TIP3   OH237595   7.936   7.173   1.819
12551TIP3    H137596   7.895   7.240   1.873
12551TIP3    H237597   7.878   7.097   1.827
12552TIP3   OH237598   8.122   1.472   3.315
12552TIP3    H137599   8.107   1.422   3.395
12552TIP3    H237600   8.036   1.480   3.275
12553TIP3   OH237601   4.517   5.078   3.972
12553TIP3    H137602   4.580   5.100   3.904
12553TIP3    H237603   4.570   5.065   4.051
12554TIP3   OH237604   5.679   2.542   3.834
12554TIP3    H137605   5.614   2.534   3.904
12554TIP3    H237606   5.628   2.537   3.754
12555TIP3   OH237607   1.012   4.918   0.875
12555TIP3    H137608   1.033   4.963   0.957
12555TIP3    H237609   0.957   4.844   0.901
12556TIP3   OH237610   5.279   5.554   0.652
12556TIP3    H137611   5.355   5.579   0.705
12556TIP3    H237612   5.313   5.546   0.563
12557TIP3   OH237613   1.044   0.949   1.688
12557TIP3    H137614   0.986   0.940   1.612
12557TIP3    H237615   1.044   0.863   1.729
12558TIP3   OH237616   1.252   4.531   3.797
12558TIP3    H137617   1.233   4.464   3.731
12558TIP3    H237618   1.174   4.585   3.799
12559TIP3   OH237619   4.411   3.332   0.957
12559TIP3    H137620   4.364   3.364   0.880
12559TIP3    H237621   4.384   3.391   1.028
12560TIP3   OH237622   6.920   5.381   4.647
12560TIP3    H137623   7.001   5.394   4.696
12560TIP3    H237624   6.859   5.444   4.686
12561TIP3   OH237625   0.925   1.242   2.048
12561TIP3    H137626   0.843   1.290   2.059
12561TIP3    H237627   0.984   1.282   2.112
12562TIP3   OH237628   5.835   3.071   3.371
12562TIP3    H137629   5.924   3.104   3.357
12562TIP3    H237630   5.797   3.132   3.434
12563TIP3   OH237631   0.814   5.379   1.414
12563TIP3    H137632   0.904   5.410   1.424
12563TIP3    H237633   0.824   5.288   1.383
12564TIP3   OH237634   1.563   1.497   6.208
12564TIP3    H137635   1.480   1.541   6.226
12564TIP3    H237636   1.591   1.531   6.123
12565TIP3   OH237637   6.165   2.079   4.743
12565TIP3    H137638   6.144   2.113   4.656
12565TIP3    H237639   6.248   2.120   4.766
12566TIP3   OH237640   4.378   5.638   4.783
12566TIP3    H137641   4.338   5.718   4.816
12566TIP3    H237642   4.306   5.575   4.780
12567TIP3   OH237643   1.252   6.157   4.387
12567TIP3    H137644   1.178   6.098   4.403
12567TIP3    H237645   1.270   6.148   4.294
12568TIP3   OH237646   4.421   5.454   5.764
12568TIP3    H137647   4.396   5.422   5.677
12568TIP3    H237648   4.357   5.523   5.782
12569TIP3   OH237649   1.687   4.731   4.886
12569TIP3    H137650   1.716   4.706   4.974
12569TIP3    H237651   1.768   4.740   4.836
12570TIP3   OH237652   6.981   6.969   2.194
12570TIP3    H137653   7.009   7.057   2.220
12570TIP3    H237654   6.893   6.960   2.229
12571TIP3   OH237655   6.704   3.486   3.229
12571TIP3    H137656   6.763   3.431   3.178
12571TIP3    H237657   6.623   3.489   3.177
12572TIP3   OH237658   4.651   7.072   5.403
12572TIP3    H137659   4.627   6.987   5.440
12572TIP3    H237660   4.573   7.126   5.414
12573TIP3   OH237661   2.996   4.773   2.331
12573TIP3    H137662   3.075   4.806   2.373
12573TIP3    H237663   3.029   4.716   2.261
12574TIP3   OH237664   4.466   5.271   5.462
12574TIP3    H137665   4.532   5.328   5.422
12574TIP3    H237666   4.464   5.193   5.407
12575TIP3   OH237667   4.325   1.820   3.952
12575TIP3    H137668   4.342   1.748   4.014
12575TIP3    H237669   4.398   1.816   3.891
12576TIP3   OH237670   0.636   1.907   0.983
12576TIP3    H137671   0.676   1.958   0.913
12576TIP3    H237672   0.639   1.964   1.060
12577TIP3   OH237673   4.477   1.767   0.869
12577TIP3    H137674   4.469   1.705   0.942
12577TIP3    H237675   4.419   1.839   0.892
12578TIP3   OH237676   3.203   6.607   6.746
12578TIP3    H137677   3.289   6.568   6.759
12578TIP3    H237678   3.143   6.533   6.740
12579TIP3   OH237679   4.245   3.788   5.409
12579TIP3    H137680   4.241   3.738   5.491
12579TIP3    H237681   4.232   3.879   5.437
12580TIP3   OH237682   3.209   1.376   6.012
12580TIP3    H137683   3.153   1.406   6.084
12580TIP3    H237684   3.269   1.449   5.997
12581TIP3   OH237685   2.654   4.997   3.980
12581TIP3    H137686   2.718   4.991   4.051
12581TIP3    H237687   2.574   5.027   4.024
12582TIP3   OH237688   5.023   2.338   6.541
12582TIP3    H137689   5.099   2.375   6.496
12582TIP3    H237690   5.057   2.259   6.584
12583TIP3   OH237691   7.235   3.036   0.282
12583TIP3    H137692   7.255   3.064   0.192
12583TIP3    H237693   7.314   3.058   0.332
12584TIP3   OH237694   5.301   0.430   2.289
12584TIP3    H137695   5.318   0.368   2.218
12584TIP3    H237696   5.376   0.420   2.348
12585TIP3   OH237697   2.515   1.726   6.517
12585TIP3    H137698   2.430   1.684   6.524
12585TIP3    H237699   2.495   1.816   6.491
12586TIP3   OH237700   6.341   3.152   0.871
12586TIP3    H137701   6.340   3.076   0.813
12586TIP3    H237702   6.434   3.171   0.885
12587TIP3   OH237703   1.315   6.932   3.311
12587TIP3    H137704   1.334   6.908   3.220
12587TIP3    H237705   1.254   7.005   3.304
12588TIP3   OH237706   7.413   0.446   6.700
12588TIP3    H137707   7.490   0.488   6.661
12588TIP3    H237708   7.406   0.362   6.655
12589TIP3   OH237709   3.215   7.657   5.967
12589TIP3    H137710   3.123   7.670   5.942
12589TIP3    H237711   3.217   7.671   6.061
12590TIP3   OH237712   5.562   0.104   1.211
12590TIP3    H137713   5.645   0.115   1.164
12590TIP3    H237714   5.500   0.075   1.144
12591TIP3   OH237715   4.819   4.191   2.076
12591TIP3    H137716   4.786   4.211   2.163
12591TIP3    H237717   4.852   4.101   2.083
12592TIP3   OH237718   0.492   5.092   5.311
12592TIP3    H137719   0.410   5.141   5.307
12592TIP3    H237720   0.465   5.003   5.333
12593TIP3   OH237721   4.603   2.581   3.212
12593TIP3    H137722   4.579   2.630   3.291
12593TIP3    H237723   4.697   2.566   3.221
12594TIP3   OH237724   1.390   1.536   1.111
12594TIP3    H137725   1.342   1.457   1.136
12594TIP3    H237726   1.446   1.553   1.187
12595TIP3   OH237727   4.787   3.864   1.061
12595TIP3    H137728   4.801   3.959   1.057
12595TIP3    H237729   4.702   3.852   1.018
12596TIP3   OH237730   6.261   5.438   1.973
12596TIP3    H137731   6.343   5.396   1.947
12596TIP3    H237732   6.288   5.525   2.002
12597TIP3   OH237733   3.278   4.516   1.364
12597TIP3    H137734   3.323   4.518   1.449
12597TIP3    H237735   3.302   4.598   1.321
12598TIP3   OH237736   3.408   2.448   0.296
12598TIP3    H137737   3.469   2.462   0.224
12598TIP3    H237738   3.384   2.356   0.290
12599TIP3   OH237739   3.252   1.693   4.435
12599TIP3    H137740   3.170   1.684   4.484
12599TIP3    H237741   3.292   1.772   4.471
12600TIP3   OH237742   7.160   6.356   3.971
12600TIP3    H137743   7.071   6.386   3.990
12600TIP3    H237744   7.215   6.433   3.985
12601TIP3   OH237745   2.092   7.219   1.935
12601TIP3    H137746   2.173   7.271   1.940
12601TIP3    H237747   2.060   7.217   2.025
12602TIP3   OH237748   1.557   3.694   5.108
12602TIP3    H137749   1.550   3.648   5.023
12602TIP3    H237750   1.475   3.743   5.115
12603TIP3   OH237751   1.262   2.780   3.763
12603TIP3    H137752   1.280   2.690   3.792
12603TIP3    H237753   1.185   2.771   3.706
12604TIP3   OH237754   7.613   0.655   2.754
12604TIP3    H137755   7.595   0.608   2.673
12604TIP3    H237756   7.652   0.589   2.812
12605TIP3   OH237757   4.269   4.741   2.949
12605TIP3    H137758   4.353   4.709   2.984
12605TIP3    H237759   4.248   4.816   3.006
12606TIP3   OH237760   7.707   3.352   2.175
12606TIP3    H137761   7.748   3.416   2.118
12606TIP3    H237762   7.728   3.267   2.135
12607TIP3   OH237763   7.133   7.639   1.349
12607TIP3    H137764   7.149   7.628   1.443
12607TIP3    H237765   7.188   7.572   1.308
12608TIP3   OH237766   6.016   3.500   2.351
12608TIP3    H137767   6.043   3.527   2.263
12608TIP3    H237768   5.977   3.578   2.390
12609TIP3   OH237769   5.742   1.664   2.497
12609TIP3    H137770   5.759   1.753   2.528
12609TIP3    H237771   5.829   1.626   2.485
12610TIP3   OH237772   4.922   3.978   4.703
12610TIP3    H137773   5.012   3.990   4.732
12610TIP3    H237774   4.871   4.037   4.759
12611TIP3   OH237775   3.775   4.971   4.993
12611TIP3    H137776   3.692   5.005   4.960
12611TIP3    H237777   3.813   4.924   4.919
12612TIP3   OH237778   4.669   2.675   5.385
12612TIP3    H137779   4.655   2.755   5.334
12612TIP3    H237780   4.597   2.618   5.359
12613TIP3   OH237781   5.680   7.384   3.764
12613TIP3    H137782   5.753   7.391   3.702
12613TIP3    H237783   5.714   7.328   3.834
12614TIP3   OH237784   7.536   1.435   0.470
12614TIP3    H137785   7.447   1.457   0.496
12614TIP3    H237786   7.569   1.514   0.428
12615TIP3   OH237787   5.386   6.856   5.599
12615TIP3    H137788   5.435   6.935   5.579
12615TIP3    H237789   5.341   6.876   5.682
12616TIP3   OH237790   3.431   1.623   0.406
12616TIP3    H137791   3.423   1.640   0.500
12616TIP3    H237792   3.387   1.697   0.364
12617TIP3   OH237793   2.151   3.305   4.934
12617TIP3    H137794   2.082   3.263   4.984
12617TIP3    H237795   2.218   3.238   4.924
12618TIP3   OH237796   6.144   3.338   1.937
12618TIP3    H137797   6.120   3.246   1.924
12618TIP3    H237798   6.147   3.375   1.849
12619TIP3   OH237799   4.301   3.290   3.287
12619TIP3    H137800   4.328   3.218   3.345
12619TIP3    H237801   4.373   3.300   3.226
12620TIP3   OH237802   4.989   4.968   2.762
12620TIP3    H137803   5.001   4.886   2.810
12620TIP3    H237804   4.898   4.964   2.731
12621TIP3   OH237805   7.663   2.625   2.939
12621TIP3    H137806   7.612   2.593   2.865
12621TIP3    H237807   7.636   2.571   3.013
12622TIP3   OH237808   0.059   4.397   6.071
12622TIP3    H137809   0.126   4.337   6.038
12622TIP3    H237810   0.099   4.484   6.064
12623TIP3   OH237811   5.919   0.894   0.501
12623TIP3    H137812   5.861   0.952   0.451
12623TIP3    H237813   5.902   0.807   0.464
12624TIP3   OH237814   4.357   5.143   1.957
12624TIP3    H137815   4.360   5.218   1.898
12624TIP3    H237816   4.402   5.073   1.910
12625TIP3   OH237817   2.975   4.258   3.328
12625TIP3    H137818   3.001   4.349   3.318
12625TIP3    H237819   3.055   4.213   3.356
12626TIP3   OH237820   4.417   1.904  -0.018
12626TIP3    H137821   4.501   1.859  -0.025
12626TIP3    H237822   4.432   1.972   0.048
12627TIP3   OH237823   1.234   1.859   4.257
12627TIP3    H137824   1.314   1.818   4.223
12627TIP3    H237825   1.179   1.872   4.180
12628TIP3   OH237826   7.220   2.591   3.301
12628TIP3    H137827   7.290   2.623   3.358
12628TIP3    H237828   7.254   2.602   3.212
12629TIP3   OH237829   5.939   4.425   4.123
12629TIP3    H137830   6.032   4.443   4.138
12629TIP3    H237831   5.906   4.399   4.209
12630TIP3   OH237832   1.613   1.550   0.047
12630TIP3    H137833   1.636   1.457   0.043
12630TIP3    H237834   1.618   1.572   0.140
12631TIP3   OH237835   1.908   3.885   1.871
12631TIP3    H137836   1.881   3.941   1.943
12631TIP3    H237837   1.993   3.849   1.899
12632TIP3   OH237838   1.187   0.123   0.294
12632TIP3    H137839   1.210   0.139   0.385
12632TIP3    H237840   1.268   0.091   0.254
12633TIP3   OH237841   4.674   2.960   6.329
12633TIP3    H137842   4.655   3.046   6.291
12633TIP3    H237843   4.763   2.941   6.302
12634TIP3   OH237844   1.215   2.271   6.189
12634TIP3    H137845   1.248   2.283   6.278
12634TIP3    H237846   1.275   2.320   6.134
12635TIP3   OH237847   3.888   6.544   3.323
12635TIP3    H137848   3.794   6.559   3.310
12635TIP3    H237849   3.919   6.624   3.365
12636TIP3   OH237850   0.130   5.070   2.113
12636TIP3    H137851   0.124   5.165   2.103
12636TIP3    H237852   0.042   5.041   2.135
12637TIP3   OH237853   6.548   2.304   4.660
12637TIP3    H137854   6.618   2.239   4.672
12637TIP3    H237855   6.545   2.318   4.565
12638TIP3   OH237856   5.941   5.316   2.364
12638TIP3    H137857   5.979   5.381   2.305
12638TIP3    H237858   5.849   5.341   2.371
12639TIP3   OH237859   6.885   4.933   3.131
12639TIP3    H137860   6.830   4.983   3.192
12639TIP3    H237861   6.974   4.951   3.161
12640TIP3   OH237862   0.928   7.568   5.907
12640TIP3    H137863   1.021   7.550   5.892
12640TIP3    H237864   0.926   7.621   5.986
12641TIP3   OH237865   5.452   7.428   2.614
12641TIP3    H137866   5.441   7.425   2.519
12641TIP3    H237867   5.371   7.467   2.646
12642TIP3   OH237868   0.351   5.628   4.451
12642TIP3    H137869   0.367   5.551   4.396
12642TIP3    H237870   0.258   5.648   4.438
12643TIP3   OH237871   7.696   1.443   6.490
12643TIP3    H137872   7.667   1.476   6.405
12643TIP3    H237873   7.680   1.515   6.550
12644TIP3   OH237874   5.259   7.662   3.651
12644TIP3    H137875   5.352   7.653   3.633
12644TIP3    H237876   5.253   7.729   3.719
12645TIP3   OH237877   6.592   2.409   5.370
12645TIP3    H137878   6.556   2.478   5.425
12645TIP3    H237879   6.572   2.437   5.281
12646TIP3   OH237880   2.130   3.381   0.947
12646TIP3    H137881   2.189   3.453   0.925
12646TIP3    H237882   2.117   3.388   1.041
12647TIP3   OH237883   8.118   5.219   5.314
12647TIP3    H137884   8.112   5.124   5.319
12647TIP3    H237885   8.158   5.235   5.228
12648TIP3   OH237886   1.291   0.127   2.447
12648TIP3    H137887   1.341   0.169   2.377
12648TIP3    H237888   1.343   0.141   2.526
12649TIP3   OH237889   6.749   0.630   3.667
12649TIP3    H137890   6.684   0.682   3.714
12649TIP3    H237891   6.716   0.625   3.578
12650TIP3   OH237892   2.687   0.988   0.339
12650TIP3    H137893   2.744   0.935   0.395
12650TIP3    H237894   2.599   0.957   0.359
12651TIP3   OH237895   6.451   0.539   3.491
12651TIP3    H137896   6.429   0.629   3.518
12651TIP3    H237897   6.370   0.506   3.451
12652TIP3   OH237898   3.053   0.898   3.380
12652TIP3    H137899   3.069   0.810   3.415
12652TIP3    H237900   3.139   0.940   3.382
12653TIP3   OH237901   0.656   6.687   2.442
12653TIP3    H137902   0.563   6.689   2.417
12653TIP3    H237903   0.675   6.777   2.468
12654TIP3   OH237904   4.513   5.469   2.006
12654TIP3    H137905   4.455   5.452   1.932
12654TIP3    H237906   4.504   5.563   2.023
12655TIP3   OH237907   7.321   4.777   5.335
12655TIP3    H137908   7.358   4.702   5.382
12655TIP3    H237909   7.359   4.853   5.377
12656TIP3   OH237910   6.729   4.944   2.441
12656TIP3    H137911   6.790   4.909   2.506
12656TIP3    H237912   6.650   4.890   2.451
12657TIP3   OH237913   1.452   0.181   0.502
12657TIP3    H137914   1.374   0.174   0.557
12657TIP3    H237915   1.522   0.205   0.564
12658TIP3   OH237916   7.039   4.791   2.453
12658TIP3    H137917   7.109   4.725   2.463
12658TIP3    H237918   6.980   4.774   2.527
12659TIP3   OH237919   4.456   7.018   6.399
12659TIP3    H137920   4.548   6.993   6.390
12659TIP3    H237921   4.413   6.978   6.324
12660TIP3   OH237922   4.363   3.059   6.599
12660TIP3    H137923   4.386   3.149   6.625
12660TIP3    H237924   4.269   3.063   6.582
12661TIP3   OH237925   1.151   3.091   0.727
12661TIP3    H137926   1.165   3.035   0.650
12661TIP3    H237927   1.086   3.155   0.698
12662TIP3   OH237928   8.036   6.733   1.348
12662TIP3    H137929   8.031   6.814   1.297
12662TIP3    H237930   8.129   6.710   1.349
12663TIP3   OH237931   2.740   5.423   5.588
12663TIP3    H137932   2.717   5.514   5.572
12663TIP3    H237933   2.832   5.425   5.613
12664TIP3   OH237934   6.892   1.832   2.553
12664TIP3    H137935   6.844   1.763   2.599
12664TIP3    H237936   6.967   1.850   2.609
12665TIP3   OH237937   1.366   4.701   5.684
12665TIP3    H137938   1.413   4.715   5.766
12665TIP3    H237939   1.329   4.613   5.692
12666TIP3   OH237940   1.487   7.114   6.369
12666TIP3    H137941   1.421   7.085   6.431
12666TIP3    H237942   1.504   7.205   6.393
12667TIP3   OH237943   4.652   4.067   2.969
12667TIP3    H137944   4.722   4.040   2.909
12667TIP3    H237945   4.585   4.104   2.912
12668TIP3   OH237946   5.268   5.162   5.666
12668TIP3    H137947   5.232   5.155   5.577
12668TIP3    H237948   5.276   5.256   5.681
12669TIP3   OH237949   5.034   4.114   1.493
12669TIP3    H137950   5.085   4.033   1.494
12669TIP3    H237951   5.093   4.180   1.530
12670TIP3   OH237952   0.874   1.795   1.159
12670TIP3    H137953   0.787   1.783   1.123
12670TIP3    H237954   0.859   1.820   1.250
12671TIP3   OH237955   3.641   3.820   0.999
12671TIP3    H137956   3.694   3.743   1.018
12671TIP3    H237957   3.567   3.815   1.060
12672TIP3   OH237958   7.591   0.974   1.926
12672TIP3    H137959   7.567   0.917   1.999
12672TIP3    H237960   7.510   1.017   1.901
12673TIP3   OH237961   0.660   7.743   4.664
12673TIP3    H137962   0.622   7.784   4.586
12673TIP3    H237963   0.587   7.696   4.704
12674TIP3   OH237964   4.804   6.509   5.225
12674TIP3    H137965   4.896   6.523   5.204
12674TIP3    H237966   4.788   6.417   5.205
12675TIP3   OH237967   2.290   0.782   6.138
12675TIP3    H137968   2.299   0.866   6.094
12675TIP3    H237969   2.342   0.792   6.218
12676TIP3   OH237970   7.205   4.981   6.231
12676TIP3    H137971   7.260   5.042   6.280
12676TIP3    H237972   7.147   5.038   6.180
12677TIP3   OH237973   5.718   5.882   3.340
12677TIP3    H137974   5.645   5.877   3.278
12677TIP3    H237975   5.763   5.798   3.329
12678TIP3   OH237976   4.671   3.295   6.324
12678TIP3    H137977   4.612   3.304   6.249
12678TIP3    H237978   4.715   3.380   6.330
12679TIP3   OH237979   2.016   0.719   3.851
12679TIP3    H137980   1.942   0.736   3.793
12679TIP3    H237981   2.090   0.702   3.792
12680TIP3   OH237982   8.122   3.326   0.304
12680TIP3    H137983   8.174   3.380   0.243
12680TIP3    H237984   8.140   3.236   0.276
12681TIP3   OH237985   4.607   2.269   1.279
12681TIP3    H137986   4.623   2.340   1.341
12681TIP3    H237987   4.606   2.312   1.193
12682TIP3   OH237988   5.149   4.825   4.624
12682TIP3    H137989   5.212   4.855   4.558
12682TIP3    H237990   5.147   4.895   4.689
12683TIP3   OH237991   0.494   0.209   3.189
12683TIP3    H137992   0.446   0.189   3.109
12683TIP3    H237993   0.543   0.129   3.209
12684TIP3   OH237994   1.601   3.991   6.084
12684TIP3    H137995   1.522   3.996   6.030
12684TIP3    H237996   1.571   4.014   6.172
12685TIP3   OH237997   4.541   3.996   6.593
12685TIP3    H137998   4.601   3.923   6.607
12685TIP3    H237999   4.454   3.960   6.612
12686TIP3   OH238000   3.340   3.226   5.205
12686TIP3    H138001   3.269   3.252   5.147
12686TIP3    H238002   3.296   3.198   5.285
12687TIP3   OH238003   7.331   3.721   1.932
12687TIP3    H138004   7.304   3.643   1.883
12687TIP3    H238005   7.254   3.778   1.928
12688TIP3   OH238006   2.802   5.079   4.186
12688TIP3    H138007   2.888   5.122   4.186
12688TIP3    H238008   2.750   5.129   4.248
12689TIP3   OH238009   5.011   4.755   5.498
12689TIP3    H138010   4.915   4.757   5.501
12689TIP3    H238011   5.038   4.828   5.552
12690TIP3   OH238012   4.927   6.346   6.281
12690TIP3    H138013   4.896   6.431   6.311
12690TIP3    H238014   4.992   6.366   6.213
12691TIP3   OH238015   2.092   6.537   2.589
12691TIP3    H138016   2.015   6.593   2.596
12691TIP3    H238017   2.138   6.548   2.673
12692TIP3   OH238018   7.394   1.350   5.732
12692TIP3    H138019   7.457   1.422   5.722
12692TIP3    H238020   7.340   1.355   5.653
12693TIP3   OH238021   4.664   6.244   2.498
12693TIP3    H138022   4.603   6.268   2.568
12693TIP3    H238023   4.632   6.290   2.421
12694TIP3   OH238024   1.435   3.715   5.452
12694TIP3    H138025   1.483   3.740   5.530
12694TIP3    H238026   1.479   3.759   5.380
12695TIP3   OH238027   2.640   0.194   3.724
12695TIP3    H138028   2.734   0.211   3.731
12695TIP3    H238029   2.615   0.229   3.639
12696TIP3   OH238030   0.343   3.424   0.905
12696TIP3    H138031   0.417   3.479   0.881
12696TIP3    H238032   0.336   3.434   1.001
12697TIP3   OH238033   2.310   0.084   0.482
12697TIP3    H138034   2.329   0.093   0.389
12697TIP3    H238035   2.239   0.147   0.498
12698TIP3   OH238036   5.675   6.522   0.285
12698TIP3    H138037   5.602   6.517   0.346
12698TIP3    H238038   5.640   6.572   0.211
12699TIP3   OH238039   3.303   1.005   0.372
12699TIP3    H138040   3.385   0.974   0.334
12699TIP3    H238041   3.262   0.927   0.409
12700TIP3   OH238042   4.000   0.755   6.711
12700TIP3    H138043   4.043   0.697   6.649
12700TIP3    H238044   3.972   0.697   6.782
12701TIP3   OH238045   1.535   3.904   5.645
12701TIP3    H138046   1.486   3.972   5.599
12701TIP3    H238047   1.512   3.916   5.737
12702TIP3   OH238048   8.051   3.867   4.336
12702TIP3    H138049   8.080   3.775   4.334
12702TIP3    H238050   8.055   3.891   4.428
12703TIP3   OH238051   0.131   3.702   4.071
12703TIP3    H138052   0.201   3.642   4.046
12703TIP3    H238053   0.174   3.764   4.130
12704TIP3   OH238054   4.339   6.480   2.366
12704TIP3    H138055   4.279   6.477   2.441
12704TIP3    H238056   4.282   6.487   2.290
12705TIP3   OH238057   2.971   0.986   2.609
12705TIP3    H138058   2.952   0.913   2.668
12705TIP3    H238059   3.042   1.033   2.652
12706TIP3   OH238060   2.823   3.077   5.747
12706TIP3    H138061   2.811   3.019   5.671
12706TIP3    H238062   2.872   3.024   5.810
12707TIP3   OH238063   3.734   2.639   4.437
12707TIP3    H138064   3.750   2.728   4.403
12707TIP3    H238065   3.812   2.619   4.489
12708TIP3   OH238066   5.479   0.437   2.514
12708TIP3    H138067   5.567   0.402   2.503
12708TIP3    H238068   5.450   0.402   2.599
12709TIP3   OH238069   5.581   5.537   3.518
12709TIP3    H138070   5.659   5.575   3.478
12709TIP3    H238071   5.579   5.573   3.607
12710TIP3   OH238072   7.299   7.597   2.719
12710TIP3    H138073   7.285   7.509   2.753
12710TIP3    H238074   7.296   7.587   2.624
12711TIP3   OH238075   1.539   4.000   1.540
12711TIP3    H138076   1.557   3.968   1.452
12711TIP3    H238077   1.624   4.001   1.583
12712TIP3   OH238078   5.621   4.715   2.622
12712TIP3    H138079   5.694   4.757   2.667
12712TIP3    H238080   5.598   4.775   2.551
12713TIP3   OH238081   2.109   5.436   0.533
12713TIP3    H138082   2.101   5.400   0.444
12713TIP3    H238083   2.021   5.430   0.569
12714TIP3   OH238084   2.922   2.897   0.040
12714TIP3    H138085   2.896   2.986   0.016
12714TIP3    H238086   3.017   2.897   0.031
12715TIP3   OH238087   3.856   2.621   6.754
12715TIP3    H138088   3.765   2.651   6.747
12715TIP3    H238089   3.867   2.559   6.681
12716TIP3   OH238090   5.286   4.755   0.581
12716TIP3    H138091   5.227   4.736   0.508
12716TIP3    H238092   5.262   4.844   0.609
12717TIP3   OH238093   7.749   1.661   1.050
12717TIP3    H138094   7.726   1.663   0.958
12717TIP3    H238095   7.836   1.701   1.054
12718TIP3   OH238096   6.085   3.781   3.232
12718TIP3    H138097   6.081   3.782   3.328
12718TIP3    H238098   6.133   3.860   3.209
12719TIP3   OH238099   7.652   2.921   6.568
12719TIP3    H138100   7.624   2.955   6.483
12719TIP3    H238101   7.626   2.989   6.631
12720TIP3   OH238102   3.853   6.128   5.339
12720TIP3    H138103   3.880   6.080   5.261
12720TIP3    H238104   3.920   6.109   5.404
12721TIP3   OH238105   4.476   1.795   2.167
12721TIP3    H138106   4.483   1.850   2.089
12721TIP3    H238107   4.567   1.773   2.188
12722TIP3   OH238108   6.930   1.982   3.184
12722TIP3    H138109   6.957   1.897   3.149
12722TIP3    H238110   6.893   2.028   3.109
12723TIP3   OH238111   2.625   3.615   6.203
12723TIP3    H138112   2.545   3.563   6.198
12723TIP3    H238113   2.676   3.588   6.127
12724TIP3   OH238114   3.555   1.285   6.174
12724TIP3    H138115   3.602   1.245   6.101
12724TIP3    H238116   3.498   1.350   6.134
12725TIP3   OH238117   1.357   0.829   2.782
12725TIP3    H138118   1.394   0.914   2.805
12725TIP3    H238119   1.329   0.791   2.865
12726TIP3   OH238120   5.267   1.704   5.671
12726TIP3    H138121   5.352   1.704   5.715
12726TIP3    H238122   5.289   1.701   5.577
12727TIP3   OH238123   1.614   5.884   6.103
12727TIP3    H138124   1.569   5.861   6.021
12727TIP3    H238125   1.701   5.910   6.075
12728TIP3   OH238126   5.382   6.143   2.835
12728TIP3    H138127   5.298   6.162   2.794
12728TIP3    H238128   5.423   6.229   2.849
12729TIP3   OH238129   6.793   3.802   1.556
12729TIP3    H138130   6.796   3.853   1.475
12729TIP3    H238131   6.870   3.745   1.551
12730TIP3   OH238132   7.337   0.977   4.073
12730TIP3    H138133   7.245   1.002   4.076
12730TIP3    H238134   7.385   1.060   4.079
12731TIP3   OH238135   5.368   4.123   3.577
12731TIP3    H138136   5.333   4.100   3.663
12731TIP3    H238137   5.320   4.202   3.552
12732TIP3   OH238138   7.512   1.912   5.726
12732TIP3    H138139   7.472   1.825   5.719
12732TIP3    H238140   7.586   1.899   5.786
12733TIP3   OH238141   4.179   7.616   3.333
12733TIP3    H138142   4.138   7.590   3.415
12733TIP3    H238143   4.204   7.707   3.346
12734TIP3   OH238144   1.876   4.396   3.848
12734TIP3    H138145   1.872   4.326   3.913
12734TIP3    H238146   1.793   4.388   3.800
12735TIP3   OH238147   4.587   0.803   2.330
12735TIP3    H138148   4.555   0.741   2.396
12735TIP3    H238149   4.669   0.766   2.300
12736TIP3   OH238150   0.147   2.291   4.403
12736TIP3    H138151   0.204   2.276   4.328
12736TIP3    H238152   0.141   2.206   4.446
12737TIP3   OH238153   7.009   2.638   2.809
12737TIP3    H138154   6.915   2.648   2.822
12737TIP3    H238155   7.045   2.630   2.898
12738TIP3   OH238156   1.089   4.988   0.060
12738TIP3    H138157   1.162   4.929   0.080
12738TIP3    H238158   1.128   5.056   0.005
12739TIP3   OH238159   8.047   5.122   3.759
12739TIP3    H138160   8.094   5.201   3.733
12739TIP3    H238161   8.115   5.056   3.770
12740TIP3   OH238162   2.530   5.450   6.658
12740TIP3    H138163   2.517   5.444   6.752
12740TIP3    H238164   2.492   5.369   6.623
12741TIP3   OH238165   2.526   6.813   2.123
12741TIP3    H138166   2.586   6.860   2.181
12741TIP3    H238167   2.524   6.724   2.157
12742TIP3   OH238168   3.532   7.253   4.563
12742TIP3    H138169   3.598   7.189   4.589
12742TIP3    H238170   3.552   7.330   4.615
12743TIP3   OH238171   2.594   3.001   4.317
12743TIP3    H138172   2.538   3.077   4.330
12743TIP3    H238173   2.581   2.978   4.225
12744TIP3   OH238174   7.776   1.334  -0.001
12744TIP3    H138175   7.685   1.318  -0.023
12744TIP3    H238176   7.798   1.264   0.061
12745TIP3   OH238177   7.855   0.877   5.476
12745TIP3    H138178   7.862   0.907   5.566
12745TIP3    H238179   7.942   0.894   5.439
12746TIP3   OH238180   4.184   4.388   6.008
12746TIP3    H138181   4.234   4.453   5.959
12746TIP3    H238182   4.168   4.429   6.093
12747TIP3   OH238183   0.803   1.593   5.698
12747TIP3    H138184   0.722   1.618   5.653
12747TIP3    H238185   0.858   1.554   5.630
12748TIP3   OH238186   4.725   6.476   4.147
12748TIP3    H138187   4.669   6.464   4.224
12748TIP3    H238188   4.783   6.400   4.147
12749TIP3   OH238189   6.925   3.565   0.980
12749TIP3    H138190   7.006   3.608   0.955
12749TIP3    H238191   6.858   3.607   0.926
12750TIP3   OH238192   4.680   7.376   1.989
12750TIP3    H138193   4.604   7.400   2.043
12750TIP3    H238194   4.646   7.312   1.927
12751TIP3   OH238195   7.170   1.532   5.319
12751TIP3    H138196   7.139   1.621   5.306
12751TIP3    H238197   7.111   1.478   5.266
12752TIP3   OH238198   4.524   4.208   5.040
12752TIP3    H138199   4.575   4.201   5.120
12752TIP3    H238200   4.434   4.185   5.066
12753TIP3   OH238201   1.334   4.829   4.939
12753TIP3    H138202   1.344   4.735   4.951
12753TIP3    H238203   1.333   4.841   4.844
12754TIP3   OH238204   3.980   6.957   1.081
12754TIP3    H138205   4.023   6.944   0.996
12754TIP3    H238206   3.966   7.051   1.087
12755TIP3   OH238207   3.778   5.140   6.130
12755TIP3    H138208   3.824   5.149   6.047
12755TIP3    H238209   3.686   5.154   6.108
12756TIP3   OH238210   7.192   6.495   5.220
12756TIP3    H138211   7.135   6.544   5.160
12756TIP3    H238212   7.269   6.551   5.231
12757TIP3   OH238213   1.885   1.970   6.034
12757TIP3    H138214   1.820   2.015   5.980
12757TIP3    H238215   1.952   2.037   6.051
12758TIP3   OH238216   3.068   5.691   3.762
12758TIP3    H138217   3.161   5.671   3.755
12758TIP3    H238218   3.028   5.647   3.687
12759TIP3   OH238219   8.237   4.274   2.791
12759TIP3    H138220   8.264   4.313   2.874
12759TIP3    H238221   8.271   4.185   2.793
12760TIP3   OH238222   3.212   6.225   3.404
12760TIP3    H138223   3.290   6.182   3.439
12760TIP3    H238224   3.157   6.153   3.371
12761TIP3   OH238225   3.316   1.194   1.005
12761TIP3    H138226   3.282   1.153   0.925
12761TIP3    H238227   3.237   1.217   1.054
12762TIP3   OH238228   4.515   0.850   2.040
12762TIP3    H138229   4.515   0.839   2.135
12762TIP3    H238230   4.481   0.939   2.027
12763TIP3   OH238231   4.586   1.829   5.444
12763TIP3    H138232   4.556   1.827   5.535
12763TIP3    H238233   4.506   1.820   5.392
12764TIP3   OH238234   0.549   2.961   1.975
12764TIP3    H138235   0.460   2.990   1.995
12764TIP3    H238236   0.603   3.006   2.041
12765TIP3   OH238237   1.489   1.913   2.963
12765TIP3    H138238   1.564   1.969   2.942
12765TIP3    H238239   1.423   1.936   2.898
12766TIP3   OH238240   2.812   7.129   2.928
12766TIP3    H138241   2.839   7.203   2.982
12766TIP3    H238242   2.892   7.102   2.883
12767TIP3   OH238243   1.867   6.220   3.282
12767TIP3    H138244   1.797   6.269   3.238
12767TIP3    H238245   1.832   6.131   3.289
12768TIP3   OH238246   0.440   1.689   0.281
12768TIP3    H138247   0.405   1.606   0.315
12768TIP3    H238248   0.534   1.673   0.271
12769TIP3   OH238249   4.522   0.503   4.297
12769TIP3    H138250   4.522   0.499   4.202
12769TIP3    H238251   4.448   0.449   4.324
12770TIP3   OH238252   5.149   1.708   6.209
12770TIP3    H138253   5.221   1.681   6.266
12770TIP3    H238254   5.131   1.631   6.155
12771TIP3   OH238255   0.447   5.994   4.464
12771TIP3    H138256   0.527   6.042   4.486
12771TIP3    H238257   0.467   5.904   4.490
12772TIP3   OH238258   0.814   3.471   0.319
12772TIP3    H138259   0.787   3.537   0.255
12772TIP3    H238260   0.909   3.477   0.320
12773TIP3   OH238261   7.253   2.024   6.725
12773TIP3    H138262   7.252   1.955   6.658
12773TIP3    H238263   7.209   2.098   6.684
12774TIP3   OH238264   5.592   5.763   1.812
12774TIP3    H138265   5.504   5.744   1.843
12774TIP3    H238266   5.580   5.831   1.745
12775TIP3   OH238267   1.244   7.378   4.457
12775TIP3    H138268   1.267   7.352   4.368
12775TIP3    H238269   1.325   7.371   4.506
12776TIP3   OH238270   0.229   2.041   2.195
12776TIP3    H138271   0.243   2.125   2.240
12776TIP3    H238272   0.154   2.002   2.239
12777TIP3   OH238273   3.204   5.337   1.765
12777TIP3    H138274   3.289   5.374   1.789
12777TIP3    H238275   3.226   5.261   1.710
12778TIP3   OH238276   1.656   7.305   4.213
12778TIP3    H138277   1.611   7.387   4.194
12778TIP3    H238278   1.651   7.255   4.131
12779TIP3   OH238279   5.506   1.237   5.337
12779TIP3    H138280   5.577   1.195   5.385
12779TIP3    H238281   5.429   1.184   5.357
12780TIP3   OH238282   5.246   4.105   2.299
12780TIP3    H138283   5.220   4.170   2.233
12780TIP3    H238284   5.300   4.043   2.250
12781TIP3   OH238285   4.864   5.098   5.645
12781TIP3    H138286   4.949   5.054   5.639
12781TIP3    H238287   4.800   5.030   5.622
12782TIP3   OH238288   0.150   6.523   5.627
12782TIP3    H138289   0.134   6.517   5.532
12782TIP3    H238290   0.139   6.434   5.658
12783TIP3   OH238291   4.187   4.742   1.276
12783TIP3    H138292   4.238   4.677   1.228
12783TIP3    H238293   4.125   4.777   1.212
12784TIP3   OH238294   4.922   0.064   5.885
12784TIP3    H138295   4.896   0.009   5.810
12784TIP3    H238296   4.880   0.148   5.869
12785TIP3   OH238297   6.023   6.036   3.614
12785TIP3    H138298   6.047   6.119   3.653
12785TIP3    H238299   5.928   6.041   3.602
12786TIP3   OH238300   8.269   7.560   4.046
12786TIP3    H138301   8.225   7.619   4.107
12786TIP3    H238302   8.268   7.608   3.963
12787TIP3   OH238303   3.535   6.570   0.570
12787TIP3    H138304   3.493   6.578   0.485
12787TIP3    H238305   3.506   6.648   0.618
12788TIP3   OH238306   7.611   0.866   3.064
12788TIP3    H138307   7.702   0.836   3.059
12788TIP3    H238308   7.576   0.822   3.142
12789TIP3   OH238309   2.326   0.778   0.587
12789TIP3    H138310   2.394   0.782   0.655
12789TIP3    H238311   2.246   0.805   0.633
12790TIP3   OH238312   3.628   1.166   4.716
12790TIP3    H138313   3.541   1.143   4.681
12790TIP3    H238314   3.615   1.252   4.757
12791TIP3   OH238315   0.395   1.403   6.202
12791TIP3    H138316   0.319   1.458   6.184
12791TIP3    H238317   0.464   1.465   6.225
12792TIP3   OH238318   0.211   1.111   5.212
12792TIP3    H138319   0.283   1.131   5.272
12792TIP3    H238320   0.155   1.050   5.261
12793TIP3   OH238321   0.224   7.065   3.905
12793TIP3    H138322   0.233   7.018   3.822
12793TIP3    H238323   0.218   7.157   3.880
12794TIP3   OH238324   3.160   2.140   1.906
12794TIP3    H138325   3.253   2.162   1.897
12794TIP3    H238326   3.121   2.218   1.946
12795TIP3   OH238327   3.914   7.474   5.358
12795TIP3    H138328   3.903   7.524   5.277
12795TIP3    H238329   3.882   7.532   5.427
12796TIP3   OH238330   1.323   5.130   3.923
12796TIP3    H138331   1.358   5.156   4.008
12796TIP3    H238332   1.349   5.039   3.913
12797TIP3   OH238333   6.989   3.067   0.783
12797TIP3    H138334   6.968   3.157   0.806
12797TIP3    H238335   6.905   3.027   0.759
12798TIP3   OH238336   2.481   2.429   1.158
12798TIP3    H138337   2.470   2.334   1.153
12798TIP3    H238338   2.461   2.451   1.249
12799TIP3   OH238339   1.760   2.990   3.253
12799TIP3    H138340   1.825   3.039   3.201
12799TIP3    H238341   1.799   2.984   3.340
12800TIP3   OH238342   5.136   3.119   0.619
12800TIP3    H138343   5.213   3.172   0.639
12800TIP3    H238344   5.172   3.041   0.575
12801TIP3   OH238345   5.103   1.019   2.062
12801TIP3    H138346   5.137   0.929   2.062
12801TIP3    H238347   5.149   1.062   1.989
12802TIP3   OH238348   7.424   7.010   5.519
12802TIP3    H138349   7.360   6.942   5.498
12802TIP3    H238350   7.421   7.016   5.615
12803TIP3   OH238351   1.286   5.051   2.588
12803TIP3    H138352   1.322   4.973   2.630
12803TIP3    H238353   1.249   5.019   2.506
12804TIP3   OH238354   5.318   4.563   2.475
12804TIP3    H138355   5.331   4.603   2.389
12804TIP3    H238356   5.389   4.498   2.481
12805TIP3   OH238357   2.521   1.513   3.252
12805TIP3    H138358   2.508   1.564   3.332
12805TIP3    H238359   2.614   1.526   3.230
12806TIP3   OH238360   3.201   3.344   4.645
12806TIP3    H138361   3.148   3.353   4.566
12806TIP3    H238362   3.152   3.390   4.712
12807TIP3   OH238363   7.186   5.026   4.440
12807TIP3    H138364   7.282   5.017   4.440
12807TIP3    H238365   7.171   5.117   4.417
12808TIP3   OH238366   6.399   7.392   6.117
12808TIP3    H138367   6.343   7.315   6.105
12808TIP3    H238368   6.417   7.423   6.029
12809TIP3   OH238369   2.492   6.598   2.259
12809TIP3    H138370   2.414   6.617   2.312
12809TIP3    H238371   2.532   6.523   2.302
12810TIP3   OH238372   4.102   3.255   5.614
12810TIP3    H138373   4.039   3.319   5.580
12810TIP3    H238374   4.187   3.298   5.605
12811TIP3   OH238375   5.591   1.765   1.264
12811TIP3    H138376   5.613   1.846   1.219
12811TIP3    H238377   5.498   1.771   1.283
12812TIP3   OH238378   4.867   3.533   6.539
12812TIP3    H138379   4.841   3.454   6.586
12812TIP3    H238380   4.809   3.537   6.463
12813TIP3   OH238381   6.141   4.816   3.940
12813TIP3    H138382   6.211   4.867   3.899
12813TIP3    H238383   6.171   4.725   3.933
12814TIP3   OH238384   0.915   4.073   1.658
12814TIP3    H138385   0.969   4.011   1.706
12814TIP3    H238386   0.953   4.074   1.570
12815TIP3   OH238387   2.657   6.682   3.167
12815TIP3    H138388   2.608   6.729   3.234
12815TIP3    H238389   2.695   6.751   3.112
12816TIP3   OH238390   6.625   0.482   4.698
12816TIP3    H138391   6.596   0.451   4.784
12816TIP3    H238392   6.695   0.544   4.717
12817TIP3   OH238393   2.217   3.165   5.869
12817TIP3    H138394   2.143   3.199   5.918
12817TIP3    H238395   2.215   3.213   5.786
12818TIP3   OH238396   1.329   6.485   0.370
12818TIP3    H138397   1.245   6.524   0.396
12818TIP3    H238398   1.388   6.560   0.361
12819TIP3   OH238399   5.910   2.890   3.659
12819TIP3    H138400   5.902   2.958   3.726
12819TIP3    H238401   5.921   2.809   3.709
12820TIP3   OH238402   2.412   5.180   1.476
12820TIP3    H138403   2.354   5.241   1.430
12820TIP3    H238404   2.493   5.229   1.489
12821TIP3   OH238405   3.738   2.112   5.996
12821TIP3    H138406   3.642   2.117   6.001
12821TIP3    H238407   3.758   2.022   6.021
12822TIP3   OH238408   2.043   1.589   6.084
12822TIP3    H138409   2.071   1.501   6.060
12822TIP3    H238410   1.958   1.576   6.128
12823TIP3   OH238411   5.801   6.598   1.472
12823TIP3    H138412   5.771   6.529   1.413
12823TIP3    H238413   5.766   6.678   1.434
12824TIP3   OH238414   6.375   1.806   2.715
12824TIP3    H138415   6.469   1.821   2.729
12824TIP3    H238416   6.352   1.741   2.781
12825TIP3   OH238417   0.882   0.903   0.778
12825TIP3    H138418   0.860   0.953   0.700
12825TIP3    H238419   0.842   0.818   0.765
12826TIP3   OH238420   6.296   2.510   4.587
12826TIP3    H138421   6.339   2.595   4.588
12826TIP3    H238422   6.363   2.448   4.617
12827TIP3   OH238423   4.507   4.563   2.372
12827TIP3    H138424   4.580   4.610   2.331
12827TIP3    H238425   4.528   4.564   2.465
12828TIP3   OH238426   5.505   2.242   5.811
12828TIP3    H138427   5.593   2.261   5.844
12828TIP3    H238428   5.482   2.158   5.851
12829TIP3   OH238429   5.861   7.583   1.564
12829TIP3    H138430   5.807   7.575   1.643
12829TIP3    H238431   5.818   7.651   1.513
12830TIP3   OH238432   0.271   5.023   1.455
12830TIP3    H138433   0.290   5.073   1.375
12830TIP3    H238434   0.215   5.080   1.507
12831TIP3   OH238435   6.228   2.795   6.228
12831TIP3    H138436   6.157   2.738   6.259
12831TIP3    H238437   6.236   2.862   6.295
12832TIP3   OH238438   1.610   3.423   5.081
12832TIP3    H138439   1.556   3.373   5.142
12832TIP3    H238440   1.606   3.513   5.113
12833TIP3   OH238441   6.540   1.858   4.934
12833TIP3    H138442   6.560   1.942   4.977
12833TIP3    H238443   6.452   1.836   4.965
12834TIP3   OH238444   6.735   4.178   5.095
12834TIP3    H138445   6.698   4.237   5.029
12834TIP3    H238446   6.662   4.158   5.153
12835TIP3   OH238447   6.455   4.052   2.109
12835TIP3    H138448   6.368   4.091   2.108
12835TIP3    H238449   6.456   3.994   2.033
12836TIP3   OH238450   8.111   3.452   0.046
12836TIP3    H138451   8.056   3.382   0.012
12836TIP3    H238452   8.053   3.529   0.048
12837TIP3   OH238453   1.761   7.362   3.060
12837TIP3    H138454   1.668   7.378   3.046
12837TIP3    H238455   1.805   7.428   3.007
12838TIP3   OH238456   0.740   0.775   6.112
12838TIP3    H138457   0.816   0.827   6.139
12838TIP3    H238458   0.774   0.686   6.105
12839TIP3   OH238459   3.479   1.361   2.571
12839TIP3    H138460   3.501   1.268   2.576
12839TIP3    H238461   3.439   1.381   2.656
12840TIP3   OH238462   0.346   2.942   1.399
12840TIP3    H138463   0.423   2.981   1.358
12840TIP3    H238464   0.377   2.910   1.484
12841TIP3   OH238465   5.395   1.731   3.197
12841TIP3    H138466   5.443   1.712   3.278
12841TIP3    H238467   5.432   1.814   3.166
12842TIP3   OH238468   2.151   5.554   2.127
12842TIP3    H138469   2.134   5.640   2.166
12842TIP3    H238470   2.198   5.573   2.046
12843TIP3   OH238471   2.350   1.431   6.577
12843TIP3    H138472   2.290   1.461   6.645
12843TIP3    H238473   2.327   1.339   6.563
12844TIP3   OH238474   2.223   0.919   4.282
12844TIP3    H138475   2.169   0.989   4.247
12844TIP3    H238476   2.176   0.889   4.360
12845TIP3   OH238477   0.495   2.705   4.122
12845TIP3    H138478   0.423   2.644   4.139
12845TIP3    H238479   0.566   2.674   4.179
12846TIP3   OH238480   7.186   6.829   1.243
12846TIP3    H138481   7.222   6.755   1.291
12846TIP3    H238482   7.113   6.861   1.297
12847TIP3   OH238483   0.401   7.178   4.584
12847TIP3    H138484   0.380   7.092   4.548
12847TIP3    H238485   0.464   7.215   4.523
12848TIP3   OH238486   3.402   2.120   4.755
12848TIP3    H138487   3.411   2.211   4.726
12848TIP3    H238488   3.397   2.126   4.851
12849TIP3   OH238489   6.600   7.412   0.224
12849TIP3    H138490   6.662   7.450   0.285
12849TIP3    H238491   6.533   7.479   0.212
12850TIP3   OH238492   4.744   7.062   2.261
12850TIP3    H138493   4.669   7.092   2.210
12850TIP3    H238494   4.812   7.047   2.196
12851TIP3   OH238495   5.922   6.079   1.196
12851TIP3    H138496   5.884   6.101   1.111
12851TIP3    H238497   5.933   6.164   1.240
12852TIP3   OH238498   6.190   4.352   5.896
12852TIP3    H138499   6.281   4.358   5.925
12852TIP3    H238500   6.191   4.384   5.806
12853TIP3   OH238501   7.413   1.122   2.570
12853TIP3    H138502   7.328   1.165   2.584
12853TIP3    H238503   7.398   1.061   2.498
12854TIP3   OH238504   1.143   2.887   0.526
12854TIP3    H138505   1.107   2.799   0.534
12854TIP3    H238506   1.226   2.875   0.479
12855TIP3   OH238507   0.236   1.137   2.444
12855TIP3    H138508   0.267   1.168   2.530
12855TIP3    H238509   0.303   1.167   2.383
12856TIP3   OH238510   6.397   5.844   4.495
12856TIP3    H138511   6.413   5.927   4.539
12856TIP3    H238512   6.464   5.785   4.528
12857TIP3   OH238513   3.833   0.504   4.452
12857TIP3    H138514   3.889   0.511   4.529
12857TIP3    H238515   3.825   0.594   4.419
12858TIP3   OH238516   4.079   6.036   4.342
12858TIP3    H138517   4.123   6.001   4.420
12858TIP3    H238518   4.150   6.066   4.286
12859TIP3   OH238519   3.760   5.942   0.251
12859TIP3    H138520   3.737   5.985   0.333
12859TIP3    H238521   3.852   5.918   0.262
12860TIP3   OH238522   3.333   7.754   3.030
12860TIP3    H138523   3.368   7.801   3.105
12860TIP3    H238524   3.252   7.714   3.061
12861TIP3   OH238525   0.763   0.421   4.828
12861TIP3    H138526   0.856   0.405   4.840
12861TIP3    H238527   0.727   0.335   4.803
12862TIP3   OH238528   6.880   2.600   0.723
12862TIP3    H138529   6.886   2.657   0.646
12862TIP3    H238530   6.807   2.541   0.704
12863TIP3   OH238531   3.865   1.473   4.143
12863TIP3    H138532   3.825   1.506   4.224
12863TIP3    H238533   3.935   1.414   4.174
12864TIP3   OH238534   3.865   3.666   3.392
12864TIP3    H138535   3.846   3.716   3.312
12864TIP3    H238536   3.923   3.723   3.442
12865TIP3   OH238537   7.199   0.668   6.447
12865TIP3    H138538   7.167   0.661   6.537
12865TIP3    H238539   7.140   0.611   6.397
12866TIP3   OH238540   3.857   7.561   3.875
12866TIP3    H138541   3.822   7.603   3.797
12866TIP3    H238542   3.801   7.485   3.888
12867TIP3   OH238543   4.300   4.408   0.223
12867TIP3    H138544   4.210   4.424   0.193
12867TIP3    H238545   4.316   4.315   0.204
12868TIP3   OH238546   5.571   5.493   4.605
12868TIP3    H138547   5.605   5.423   4.549
12868TIP3    H238548   5.556   5.566   4.545
12869TIP3   OH238549   7.290   6.514   0.031
12869TIP3    H138550   7.371   6.562   0.015
12869TIP3    H238551   7.259   6.547   0.115
12870TIP3   OH238552   7.684   2.938   2.987
12870TIP3    H138553   7.688   2.882   3.065
12870TIP3    H238554   7.595   2.972   2.986
12871TIP3   OH238555   5.545   1.462   2.833
12871TIP3    H138556   5.521   1.374   2.862
12871TIP3    H238557   5.463   1.511   2.834
12872TIP3   OH238558   1.085   6.925   1.784
12872TIP3    H138559   1.104   6.917   1.877
12872TIP3    H238560   1.067   7.018   1.771
12873TIP3   OH238561   6.562   6.270   1.287
12873TIP3    H138562   6.481   6.319   1.297
12873TIP3    H238563   6.630   6.336   1.276
12874TIP3   OH238564   4.890   1.393   3.266
12874TIP3    H138565   4.808   1.442   3.260
12874TIP3    H238566   4.936   1.414   3.184
12875TIP3   OH238567   2.723   3.324   2.155
12875TIP3    H138568   2.644   3.362   2.194
12875TIP3    H238569   2.763   3.397   2.108
12876TIP3   OH238570   7.683   3.502   1.219
12876TIP3    H138571   7.666   3.492   1.312
12876TIP3    H238572   7.766   3.550   1.214
12877TIP3   OH238573   8.253   6.347   6.179
12877TIP3    H138574   8.219   6.431   6.148
12877TIP3    H238575   8.237   6.287   6.107
12878TIP3   OH238576   4.901   2.300   5.498
12878TIP3    H138577   4.831   2.238   5.519
12878TIP3    H238578   4.982   2.252   5.513
12879TIP3   OH238579   3.471   1.481   5.560
12879TIP3    H138580   3.384   1.513   5.537
12879TIP3    H238581   3.468   1.388   5.538
12880TIP3   OH238582   2.112   3.588   5.790
12880TIP3    H138583   2.108   3.593   5.694
12880TIP3    H238584   2.079   3.673   5.819
12881TIP3   OH238585   4.399   5.188   4.466
12881TIP3    H138586   4.419   5.241   4.390
12881TIP3    H238587   4.403   5.098   4.435
12882TIP3   OH238588   3.867   5.170   4.300
12882TIP3    H138589   3.918   5.093   4.326
12882TIP3    H238590   3.928   5.223   4.249
12883TIP3   OH238591   0.222   3.441   4.244
12883TIP3    H138592   0.127   3.443   4.242
12883TIP3    H238593   0.248   3.418   4.155
12884TIP3   OH238594   1.127   1.196   5.466
12884TIP3    H138595   1.097   1.159   5.550
12884TIP3    H238596   1.050   1.192   5.410
12885TIP3   OH238597   0.836   6.193   1.710
12885TIP3    H138598   0.844   6.103   1.743
12885TIP3    H238599   0.780   6.237   1.773
12886TIP3   OH238600   4.175   6.500   4.848
12886TIP3    H138601   4.096   6.550   4.868
12886TIP3    H238602   4.193   6.519   4.756
12887TIP3   OH238603   3.390   1.516   1.733
12887TIP3    H138604   3.419   1.539   1.645
12887TIP3    H238605   3.294   1.516   1.727
12888TIP3   OH238606   6.334   7.043   5.516
12888TIP3    H138607   6.324   6.949   5.535
12888TIP3    H238608   6.422   7.064   5.547
12889TIP3   OH238609   2.755   2.317   3.714
12889TIP3    H138610   2.799   2.259   3.775
12889TIP3    H238611   2.767   2.405   3.751
12890TIP3   OH238612   6.657   6.664   2.421
12890TIP3    H138613   6.685   6.728   2.486
12890TIP3    H238614   6.566   6.644   2.445
12891TIP3   OH238615   3.397   4.512   1.604
12891TIP3    H138616   3.432   4.450   1.668
12891TIP3    H238617   3.465   4.580   1.597
12892TIP3   OH238618   0.650   4.725   1.392
12892TIP3    H138619   0.606   4.743   1.475
12892TIP3    H238620   0.641   4.807   1.343
12893TIP3   OH238621   2.244   7.459   3.851
12893TIP3    H138622   2.253   7.555   3.850
12893TIP3    H238623   2.330   7.427   3.878
12894TIP3   OH238624   2.372   3.621   0.877
12894TIP3    H138625   2.361   3.681   0.803
12894TIP3    H238626   2.453   3.574   0.859
12895TIP3   OH238627   6.835   5.536   3.667
12895TIP3    H138628   6.777   5.463   3.686
12895TIP3    H238629   6.778   5.613   3.667
12896TIP3   OH238630   5.691   2.053   4.203
12896TIP3    H138631   5.748   1.984   4.237
12896TIP3    H238632   5.630   2.071   4.275
12897TIP3   OH238633   2.187   6.036   2.582
12897TIP3    H138634   2.134   6.100   2.630
12897TIP3    H238635   2.251   6.089   2.535
12898TIP3   OH238636   3.232   1.390   1.330
12898TIP3    H138637   3.318   1.419   1.300
12898TIP3    H238638   3.243   1.375   1.424
12899TIP3   OH238639   6.315   4.918   0.596
12899TIP3    H138640   6.362   4.893   0.517
12899TIP3    H238641   6.263   4.994   0.570
12900TIP3   OH238642   7.877   2.178   0.585
12900TIP3    H138643   7.968   2.209   0.587
12900TIP3    H238644   7.876   2.112   0.516
12901TIP3   OH238645   3.355   1.562   3.978
12901TIP3    H138646   3.419   1.615   3.930
12901TIP3    H238647   3.393   1.474   3.980
12902TIP3   OH238648   5.407   3.014   6.260
12902TIP3    H138649   5.493   3.026   6.220
12902TIP3    H238650   5.351   3.080   6.217
12903TIP3   OH238651   0.963   6.921   6.007
12903TIP3    H138652   0.872   6.890   6.011
12903TIP3    H238653   1.015   6.841   6.000
12904TIP3   OH238654   0.489   6.779   0.826
12904TIP3    H138655   0.405   6.772   0.871
12904TIP3    H238656   0.532   6.855   0.866
12905TIP3   OH238657   2.787   3.538   6.000
12905TIP3    H138658   2.862   3.478   5.995
12905TIP3    H238659   2.713   3.486   5.968
12906TIP3   OH238660   0.025   2.730   1.930
12906TIP3    H138661  -0.054   2.677   1.939
12906TIP3    H238662   0.035   2.774   2.015
12907TIP3   OH238663   0.430   5.702   2.956
12907TIP3    H138664   0.406   5.722   3.047
12907TIP3    H238665   0.412   5.609   2.946
12908TIP3   OH238666   5.953   6.704   5.204
12908TIP3    H138667   5.998   6.644   5.263
12908TIP3    H238668   5.985   6.791   5.229
12909TIP3   OH238669   6.053   0.931   3.426
12909TIP3    H138670   6.078   0.890   3.344
12909TIP3    H238671   6.071   0.864   3.493
12910TIP3   OH238672   8.093   3.849  -0.012
12910TIP3    H138673   8.115   3.866   0.079
12910TIP3    H238674   8.070   3.934  -0.048
12911TIP3   OH238675   7.797   6.943   5.883
12911TIP3    H138676   7.784   7.003   5.956
12911TIP3    H238677   7.829   6.999   5.812
12912TIP3   OH238678   1.494   4.255   1.643
12912TIP3    H138679   1.575   4.304   1.632
12912TIP3    H238680   1.506   4.177   1.589
12913TIP3   OH238681   2.617   6.264   3.799
12913TIP3    H138682   2.630   6.233   3.710
12913TIP3    H238683   2.609   6.359   3.790
12914TIP3   OH238684   2.006   5.277   5.045
12914TIP3    H138685   2.005   5.287   5.140
12914TIP3    H238686   2.099   5.282   5.022
12915TIP3   OH238687   1.220   6.435   1.755
12915TIP3    H138688   1.165   6.431   1.833
12915TIP3    H238689   1.308   6.416   1.787
12916TIP3   OH238690   0.121   1.088   1.905
12916TIP3    H138691   0.100   1.033   1.980
12916TIP3    H238692   0.166   1.164   1.942
12917TIP3   OH238693   1.930   3.729   1.127
12917TIP3    H138694   1.925   3.704   1.035
12917TIP3    H238695   1.969   3.817   1.126
12918TIP3   OH238696   2.505   1.309   4.673
12918TIP3    H138697   2.510   1.239   4.608
12918TIP3    H238698   2.493   1.389   4.622
12919TIP3   OH238699   7.169   4.301   2.538
12919TIP3    H138700   7.148   4.393   2.556
12919TIP3    H238701   7.195   4.266   2.623
12920TIP3   OH238702   8.161   5.267   0.832
12920TIP3    H138703   8.172   5.278   0.738
12920TIP3    H238704   8.156   5.356   0.866
12921TIP3   OH238705   4.885   7.450   3.830
12921TIP3    H138706   4.874   7.364   3.869
12921TIP3    H238707   4.826   7.507   3.880
12922TIP3   OH238708   1.160   5.680   1.076
12922TIP3    H138709   1.121   5.674   0.989
12922TIP3    H238710   1.213   5.600   1.083
12923TIP3   OH238711   0.105   1.714   1.748
12923TIP3    H138712   0.102   1.764   1.666
12923TIP3    H238713   0.014   1.700   1.771
12924TIP3   OH238714   8.246   1.779   2.122
12924TIP3    H138715   8.248   1.868   2.087
12924TIP3    H238716   8.175   1.779   2.185
12925TIP3   OH238717   6.880   6.593   2.802
12925TIP3    H138718   6.789   6.594   2.831
12925TIP3    H238719   6.888   6.512   2.751
12926TIP3   OH238720   5.881   5.352   3.251
12926TIP3    H138721   5.809   5.304   3.292
12926TIP3    H238722   5.959   5.300   3.271
12927TIP3   OH238723   3.518   2.145   4.381
12927TIP3    H138724   3.556   2.223   4.420
12927TIP3    H238725   3.566   2.134   4.299
12928TIP3   OH238726   4.692   4.886   4.952
12928TIP3    H138727   4.701   4.979   4.932
12928TIP3    H238728   4.600   4.876   4.977
12929TIP3   OH238729   6.482   0.733   5.861
12929TIP3    H138730   6.447   0.811   5.904
12929TIP3    H238731   6.416   0.709   5.796
12930TIP3   OH238732   5.199   4.042   4.702
12930TIP3    H138733   5.207   4.123   4.753
12930TIP3    H238734   5.213   4.069   4.612
12931TIP3   OH238735   6.062   3.268   3.014
12931TIP3    H138736   6.129   3.210   3.051
12931TIP3    H238737   6.045   3.332   3.084
12932TIP3   OH238738   2.925   2.418   2.021
12932TIP3    H138739   2.836   2.396   2.048
12932TIP3    H238740   2.958   2.475   2.091
12933TIP3   OH238741   3.481   7.142   2.305
12933TIP3    H138742   3.484   7.174   2.395
12933TIP3    H238743   3.482   7.047   2.314
12934TIP3   OH238744   1.192   3.243   3.587
12934TIP3    H138745   1.201   3.233   3.492
12934TIP3    H238746   1.123   3.183   3.611
12935TIP3   OH238747   3.067   7.054   3.181
12935TIP3    H138748   3.005   6.983   3.195
12935TIP3    H238749   3.150   7.011   3.162
12936TIP3   OH238750   4.595   1.969   1.524
12936TIP3    H138751   4.561   1.890   1.565
12936TIP3    H238752   4.516   2.019   1.500
12937TIP3   OH238753   0.594   7.161   4.397
12937TIP3    H138754   0.626   7.076   4.366
12937TIP3    H238755   0.566   7.207   4.318
12938TIP3   OH238756   5.788   4.603   3.984
12938TIP3    H138757   5.870   4.561   4.010
12938TIP3    H238758   5.720   4.552   4.028
12939TIP3   OH238759   3.632   7.156   5.224
12939TIP3    H138760   3.668   7.239   5.192
12939TIP3    H238761   3.692   7.130   5.294
12940TIP3   OH238762   7.565   4.977   3.490
12940TIP3    H138763   7.550   5.024   3.408
12940TIP3    H238764   7.487   4.924   3.503
12941TIP3   OH238765   1.374   3.102   4.696
12941TIP3    H138766   1.379   3.132   4.606
12941TIP3    H238767   1.352   3.180   4.747
12942TIP3   OH238768   5.864   5.440   2.847
12942TIP3    H138769   5.942   5.458   2.793
12942TIP3    H238770   5.883   5.485   2.929
12943TIP3   OH238771   0.528   0.985   2.496
12943TIP3    H138772   0.619   1.013   2.508
12943TIP3    H238773   0.535   0.893   2.470
12944TIP3   OH238774   6.287   2.066   2.052
12944TIP3    H138775   6.278   2.143   1.997
12944TIP3    H238776   6.257   1.993   1.998
12945TIP3   OH238777   7.781   0.298   2.357
12945TIP3    H138778   7.853   0.239   2.336
12945TIP3    H238779   7.734   0.254   2.427
12946TIP3   OH238780   4.725   4.323   3.742
12946TIP3    H138781   4.730   4.418   3.753
12946TIP3    H238782   4.770   4.288   3.818
12947TIP3   OH238783   4.056   0.409   2.688
12947TIP3    H138784   3.962   0.417   2.703
12947TIP3    H238785   4.063   0.392   2.594
12948TIP3   OH238786   3.108   6.640   0.471
12948TIP3    H138787   3.028   6.691   0.480
12948TIP3    H238788   3.106   6.579   0.545
12949TIP3   OH238789   2.257   0.990   1.790
12949TIP3    H138790   2.178   0.989   1.845
12949TIP3    H238791   2.268   0.899   1.763
12950TIP3   OH238792   3.822   6.271   1.657
12950TIP3    H138793   3.827   6.180   1.687
12950TIP3    H238794   3.789   6.265   1.567
12951TIP3   OH238795   3.068   5.871   0.398
12951TIP3    H138796   3.057   5.824   0.480
12951TIP3    H238797   3.158   5.852   0.372
12952TIP3   OH238798   2.754   4.887   1.236
12952TIP3    H138799   2.769   4.853   1.148
12952TIP3    H238800   2.665   4.923   1.233
12953TIP3   OH238801   3.956   4.679   0.591
12953TIP3    H138802   3.918   4.763   0.564
12953TIP3    H238803   4.017   4.701   0.661
12954TIP3   OH238804   1.824   7.760   3.376
12954TIP3    H138805   1.852   7.705   3.302
12954TIP3    H238806   1.834   7.703   3.453
12955TIP3   OH238807   7.450   1.218   4.712
12955TIP3    H138808   7.366   1.230   4.756
12955TIP3    H238809   7.483   1.134   4.745
12956TIP3   OH238810   6.336   1.459   5.692
12956TIP3    H138811   6.430   1.447   5.705
12956TIP3    H238812   6.299   1.461   5.780
12957TIP3   OH238813   0.468   6.662   0.243
12957TIP3    H138814   0.480   6.691   0.153
12957TIP3    H238815   0.454   6.567   0.236
12958TIP3   OH238816   6.749   4.093   6.649
12958TIP3    H138817   6.790   4.179   6.657
12958TIP3    H238818   6.776   4.061   6.563
12959TIP3   OH238819   0.192   1.915   3.195
12959TIP3    H138820   0.215   1.880   3.282
12959TIP3    H238821   0.244   1.995   3.187
12960TIP3   OH238822   1.600   1.201   3.797
12960TIP3    H138823   1.566   1.236   3.879
12960TIP3    H238824   1.631   1.113   3.820
12961TIP3   OH238825   3.777   2.988   5.999
12961TIP3    H138826   3.690   2.947   5.996
12961TIP3    H238827   3.820   2.946   6.073
12962TIP3   OH238828   4.023   2.129   1.025
12962TIP3    H138829   4.003   2.209   0.977
12962TIP3    H238830   4.099   2.151   1.078
12963TIP3   OH238831   7.830   4.018   1.142
12963TIP3    H138832   7.884   3.975   1.209
12963TIP3    H238833   7.796   3.946   1.089
12964TIP3   OH238834   3.579   0.134   0.606
12964TIP3    H138835   3.583   0.183   0.688
12964TIP3    H238836   3.532   0.054   0.629
12965TIP3   OH238837   2.033   7.136   2.944
12965TIP3    H138838   1.983   7.166   2.868
12965TIP3    H238839   2.041   7.214   2.999
12966TIP3   OH238840   5.125   1.026   0.086
12966TIP3    H138841   5.149   1.116   0.063
12966TIP3    H238842   5.085   0.990   0.006
12967TIP3   OH238843   0.541   0.698   0.233
12967TIP3    H138844   0.476   0.735   0.174
12967TIP3    H238845   0.528   0.746   0.315
12968TIP3   OH238846   5.393   2.607   6.654
12968TIP3    H138847   5.372   2.520   6.620
12968TIP3    H238848   5.319   2.661   6.626
12969TIP3   OH238849   4.206   6.214   6.470
12969TIP3    H138850   4.293   6.198   6.433
12969TIP3    H238851   4.169   6.126   6.482
12970TIP3   OH238852   6.634   4.674   1.910
12970TIP3    H138853   6.708   4.659   1.970
12970TIP3    H238854   6.592   4.753   1.945
12971TIP3   OH238855   3.235   0.560   3.237
12971TIP3    H138856   3.305   0.498   3.259
12971TIP3    H238857   3.226   0.614   3.316
12972TIP3   OH238858   5.820   4.984   0.989
12972TIP3    H138859   5.742   4.975   0.934
12972TIP3    H238860   5.811   4.915   1.055
12973TIP3   OH238861   2.659   6.317   0.665
12973TIP3    H138862   2.747   6.347   0.644
12973TIP3    H238863   2.671   6.229   0.701
12974TIP3   OH238864   2.617   6.008   2.455
12974TIP3    H138865   2.580   5.920   2.458
12974TIP3    H238866   2.686   6.008   2.520
12975TIP3   OH238867   1.547   3.514   2.643
12975TIP3    H138868   1.468   3.479   2.684
12975TIP3    H238869   1.613   3.509   2.711
12976TIP3   OH238870   7.602   6.183   6.338
12976TIP3    H138871   7.523   6.236   6.341
12976TIP3    H238872   7.620   6.172   6.244
12977TIP3   OH238873   3.738   0.839   3.788
12977TIP3    H138874   3.730   0.886   3.705
12977TIP3    H238875   3.688   0.891   3.850
12978TIP3   OH238876   1.383   6.932   6.186
12978TIP3    H138877   1.332   6.993   6.134
12978TIP3    H238878   1.419   6.984   6.258
12979TIP3   OH238879   7.376   0.580   3.557
12979TIP3    H138880   7.434   0.623   3.620
12979TIP3    H238881   7.423   0.500   3.532
12980TIP3   OH238882   0.989   6.333   6.501
12980TIP3    H138883   1.047   6.298   6.569
12980TIP3    H238884   0.904   6.291   6.518
12981TIP3   OH238885   3.235   3.155   1.449
12981TIP3    H138886   3.301   3.149   1.517
12981TIP3    H238887   3.172   3.220   1.481
12982TIP3   OH238888   5.905   6.696   5.631
12982TIP3    H138889   5.904   6.768   5.694
12982TIP3    H238890   5.813   6.670   5.624
12983TIP3   OH238891   5.586   1.985   1.108
12983TIP3    H138892   5.540   2.064   1.136
12983TIP3    H238893   5.669   2.018   1.071
12984TIP3   OH238894   5.956   2.083   0.605
12984TIP3    H138895   6.041   2.091   0.648
12984TIP3    H238896   5.893   2.077   0.677
12985TIP3   OH238897   5.425   4.014   1.908
12985TIP3    H138898   5.349   4.056   1.868
12985TIP3    H238899   5.394   3.927   1.930
12986TIP3   OH238900   2.730   4.530   2.174
12986TIP3    H138901   2.819   4.498   2.192
12986TIP3    H238902   2.731   4.552   2.081
12987TIP3   OH238903   7.133   5.343   5.065
12987TIP3    H138904   7.129   5.314   5.156
12987TIP3    H238905   7.216   5.308   5.032
12988TIP3   OH238906   3.899   3.093   2.213
12988TIP3    H138907   3.812   3.127   2.191
12988TIP3    H238908   3.951   3.105   2.133
12989TIP3   OH238909   0.911   2.641   6.521
12989TIP3    H138910   0.976   2.691   6.473
12989TIP3    H238911   0.961   2.568   6.560
12990TIP3   OH238912   3.140   5.274   2.021
12990TIP3    H138913   3.151   5.366   2.044
12990TIP3    H238914   3.147   5.272   1.925
12991TIP3   OH238915   2.247   0.743   4.717
12991TIP3    H138916   2.194   0.735   4.795
12991TIP3    H238917   2.298   0.663   4.713
12992TIP3   OH238918   8.024   2.495   6.461
12992TIP3    H138919   8.060   2.538   6.539
12992TIP3    H238920   7.931   2.487   6.479
12993TIP3   OH238921   1.187   2.722   4.431
12993TIP3    H138922   1.269   2.678   4.455
12993TIP3    H238923   1.182   2.712   4.336
12994TIP3   OH238924   3.474   7.529   0.587
12994TIP3    H138925   3.397   7.485   0.624
12994TIP3    H238926   3.535   7.458   0.569
12995TIP3   OH238927   0.281   1.760   5.095
12995TIP3    H138928   0.314   1.717   5.016
12995TIP3    H238929   0.300   1.853   5.082
12996TIP3   OH238930   2.007   5.074   6.731
12996TIP3    H138931   1.928   5.122   6.757
12996TIP3    H238932   1.989   4.984   6.758
12997TIP3   OH238933   7.363   3.956   4.294
12997TIP3    H138934   7.274   3.946   4.259
12997TIP3    H238935   7.417   3.977   4.218
12998TIP3   OH238936   2.009   1.394   3.281
12998TIP3    H138937   1.969   1.307   3.280
12998TIP3    H238938   2.101   1.379   3.260
12999TIP3   OH238939   0.749   0.788   5.135
12999TIP3    H138940   0.839   0.781   5.103
12999TIP3    H238941   0.701   0.719   5.089
13000TIP3   OH238942   6.887   6.498   2.453
13000TIP3    H138943   6.961   6.548   2.485
13000TIP3    H238944   6.818   6.564   2.439
13001TIP3   OH238945   3.613   0.796   4.811
13001TIP3    H138946   3.544   0.860   4.827
13001TIP3    H238947   3.585   0.750   4.732
13002TIP3   OH238948   5.211   7.484   0.843
13002TIP3    H138949   5.212   7.526   0.929
13002TIP3    H238950   5.214   7.390   0.862
13003TIP3   OH238951   0.436   5.030   6.243
13003TIP3    H138952   0.363   5.013   6.183
13003TIP3    H238953   0.409   5.107   6.292
13004TIP3   OH238954   7.059   0.927   3.191
13004TIP3    H138955   7.068   0.863   3.121
13004TIP3    H238956   6.971   0.963   3.181
13005TIP3   OH238957   6.449   5.138   0.413
13005TIP3    H138958   6.470   5.054   0.371
13005TIP3    H238959   6.354   5.139   0.418
13006TIP3   OH238960   2.869   4.893   4.997
13006TIP3    H138961   2.888   4.826   5.062
13006TIP3    H238962   2.901   4.856   4.915
13007TIP3   OH238963   1.400   0.353   4.762
13007TIP3    H138964   1.356   0.421   4.813
13007TIP3    H238965   1.330   0.312   4.712
13008TIP3   OH238966   1.645   6.234   3.840
13008TIP3    H138967   1.675   6.322   3.816
13008TIP3    H238968   1.708   6.175   3.798
13009TIP3   OH238969   3.238   2.141   3.268
13009TIP3    H138970   3.270   2.169   3.183
13009TIP3    H238971   3.142   2.149   3.262
13010TIP3   OH238972   0.136   5.273   0.199
13010TIP3    H138973   0.166   5.212   0.131
13010TIP3    H238974   0.097   5.345   0.150
13011TIP3   OH238975   7.022   4.666   0.158
13011TIP3    H138976   7.079   4.739   0.133
13011TIP3    H238977   6.937   4.688   0.121
13012TIP3   OH238978   6.515   1.236   1.877
13012TIP3    H138979   6.594   1.263   1.830
13012TIP3    H238980   6.463   1.316   1.886
13013TIP3   OH238981   6.993   2.234   2.729
13013TIP3    H138982   6.925   2.298   2.705
13013TIP3    H238983   6.977   2.217   2.822
13014TIP3   OH238984   0.831   1.363   3.684
13014TIP3    H138985   0.907   1.307   3.701
13014TIP3    H238986   0.771   1.344   3.756
13015TIP3   OH238987   1.258   7.764   2.179
13015TIP3    H138988   1.260   7.818   2.100
13015TIP3    H238989   1.339   7.785   2.225
13016TIP3   OH238990   2.599   2.127   1.451
13016TIP3    H138991   2.599   2.216   1.415
13016TIP3    H238992   2.676   2.124   1.507
13017TIP3   OH238993   3.115   1.196   1.187
13017TIP3    H138994   3.181   1.243   1.238
13017TIP3    H238995   3.033   1.239   1.208
13018TIP3   OH238996   3.846   7.017   6.353
13018TIP3    H138997   3.920   7.078   6.354
13018TIP3    H238998   3.826   7.001   6.445
13019TIP3   OH238999   7.159   3.083   4.675
13019TIP3    H139000   7.087   3.095   4.613
13019TIP3    H239001   7.217   3.019   4.634
13020TIP3   OH239002   6.798   4.468   3.734
13020TIP3    H139003   6.712   4.490   3.768
13020TIP3    H239004   6.854   4.463   3.812
13021TIP3   OH239005   0.399   1.945   1.183
13021TIP3    H139006   0.309   1.933   1.211
13021TIP3    H239007   0.396   2.019   1.123
13022TIP3   OH239008   2.064   3.604   0.286
13022TIP3    H139009   2.131   3.537   0.275
13022TIP3    H239010   2.100   3.664   0.352
13023TIP3   OH239011   7.420   4.024   4.028
13023TIP3    H139012   7.460   3.952   3.980
13023TIP3    H239013   7.461   4.103   3.992
13024TIP3   OH239014   6.185   2.556   0.172
13024TIP3    H139015   6.119   2.525   0.234
13024TIP3    H239016   6.147   2.636   0.135
13025TIP3   OH239017   0.916   2.566   3.017
13025TIP3    H139018   1.006   2.582   3.044
13025TIP3    H239019   0.906   2.471   3.024
13026TIP3   OH239020   1.885   6.338   6.171
13026TIP3    H139021   1.840   6.289   6.103
13026TIP3    H239022   1.974   6.302   6.172
13027TIP3   OH239023   1.095   3.182   4.154
13027TIP3    H139024   1.056   3.120   4.092
13027TIP3    H239025   1.087   3.137   4.239
13028TIP3   OH239026   8.299   7.315   1.362
13028TIP3    H139027   8.222   7.366   1.387
13028TIP3    H239028   8.277   7.278   1.277
13029TIP3   OH239029   5.270   7.228   1.532
13029TIP3    H139030   5.359   7.208   1.563
13029TIP3    H239031   5.213   7.178   1.589
13030TIP3   OH239032   2.461   4.964   2.645
13030TIP3    H139033   2.470   5.059   2.651
13030TIP3    H239034   2.419   4.948   2.561
13031TIP3   OH239035   6.677   4.263   4.339
13031TIP3    H139036   6.599   4.265   4.395
13031TIP3    H239037   6.723   4.184   4.364
13032TIP3   OH239038   1.290   0.296   6.595
13032TIP3    H139039   1.248   0.290   6.681
13032TIP3    H239040   1.218   0.313   6.534
13033TIP3   OH239041   2.335   1.280   0.092
13033TIP3    H139042   2.425   1.248   0.099
13033TIP3    H239043   2.328   1.347   0.160
13034TIP3   OH239044   5.799   2.168   2.513
13034TIP3    H139045   5.788   2.137   2.424
13034TIP3    H239046   5.710   2.169   2.549
13035TIP3   OH239047   7.635   7.291   4.054
13035TIP3    H139048   7.628   7.215   4.112
13035TIP3    H239049   7.727   7.290   4.026
13036TIP3   OH239050   8.117   6.916   6.321
13036TIP3    H139051   8.101   6.935   6.228
13036TIP3    H239052   8.096   6.823   6.330
13037TIP3   OH239053   2.594   3.049   3.169
13037TIP3    H139054   2.594   3.106   3.091
13037TIP3    H239055   2.503   3.049   3.198
13038TIP3   OH239056   3.713   6.065   1.294
13038TIP3    H139057   3.805   6.073   1.270
13038TIP3    H239058   3.686   6.155   1.312
13039TIP3   OH239059   2.280   3.041   5.598
13039TIP3    H139060   2.282   3.109   5.665
13039TIP3    H239061   2.219   3.074   5.532
13040TIP3   OH239062   7.405   6.993   2.426
13040TIP3    H139063   7.489   6.971   2.465
13040TIP3    H239064   7.421   7.075   2.379
13041TIP3   OH239065   1.393   2.834   3.069
13041TIP3    H139066   1.409   2.840   2.975
13041TIP3    H239067   1.476   2.802   3.105
13042TIP3   OH239068   5.106   3.373   5.565
13042TIP3    H139069   5.176   3.434   5.541
13042TIP3    H239070   5.144   3.286   5.550
13043TIP3   OH239071   1.538   7.564   2.328
13043TIP3    H139072   1.448   7.580   2.355
13043TIP3    H239073   1.581   7.530   2.406
13044TIP3   OH239074   0.636   2.016   1.610
13044TIP3    H139075   0.616   2.105   1.641
13044TIP3    H239076   0.591   1.959   1.672
13045TIP3   OH239077   7.517   6.973   1.758
13045TIP3    H139078   7.488   6.902   1.815
13045TIP3    H239079   7.611   6.980   1.775
13046TIP3   OH239080   8.087   7.198   3.168
13046TIP3    H139081   8.105   7.292   3.162
13046TIP3    H239082   8.004   7.193   3.216
13047TIP3   OH239083   0.217   6.537   3.301
13047TIP3    H139084   0.282   6.512   3.367
13047TIP3    H239085   0.139   6.486   3.324
13048TIP3   OH239086   6.645   6.291   0.894
13048TIP3    H139087   6.680   6.245   0.818
13048TIP3    H239088   6.555   6.260   0.902
13049TIP3   OH239089   0.809   7.372   1.112
13049TIP3    H139090   0.864   7.297   1.135
13049TIP3    H239091   0.773   7.401   1.196
13050TIP3   OH239092   0.696   1.482   2.318
13050TIP3    H139093   0.616   1.506   2.364
13050TIP3    H239094   0.751   1.441   2.385
13051TIP3   OH239095   2.896   1.257   4.585
13051TIP3    H139096   2.943   1.331   4.625
13051TIP3    H239097   2.878   1.286   4.496
13052TIP3   OH239098   7.180   2.058   1.515
13052TIP3    H139099   7.169   1.963   1.520
13052TIP3    H239100   7.269   2.071   1.482
13053TIP3   OH239101   7.135   1.219   0.495
13053TIP3    H139102   7.142   1.298   0.441
13053TIP3    H239103   7.218   1.215   0.541
13054TIP3   OH239104   6.011   3.463   5.531
13054TIP3    H139105   6.065   3.482   5.455
13054TIP3    H239106   5.942   3.405   5.498
13055TIP3   OH239107   2.315   4.476   4.886
13055TIP3    H139108   2.357   4.394   4.861
13055TIP3    H239109   2.278   4.511   4.805
13056TIP3   OH239110   1.659   4.695   3.408
13056TIP3    H139111   1.668   4.790   3.409
13056TIP3    H239112   1.623   4.673   3.494
13057TIP3   OH239113   7.949   3.919   5.856
13057TIP3    H139114   7.906   3.984   5.912
13057TIP3    H239115   7.915   3.835   5.888
13058TIP3   OH239116   7.788   3.143   4.504
13058TIP3    H139117   7.759   3.051   4.508
13058TIP3    H239118   7.707   3.193   4.502
13059TIP3   OH239119   6.391   2.509   6.385
13059TIP3    H139120   6.445   2.519   6.307
13059TIP3    H239121   6.330   2.439   6.363
13060TIP3   OH239122   7.323   1.531   2.543
13060TIP3    H139123   7.262   1.457   2.550
13060TIP3    H239124   7.309   1.582   2.622
13061TIP3   OH239125   1.118   4.773   2.155
13061TIP3    H139126   1.069   4.847   2.119
13061TIP3    H239127   1.052   4.705   2.170
13062TIP3   OH239128   0.378   2.164   1.723
13062TIP3    H139129   0.355   2.154   1.816
13062TIP3    H239130   0.469   2.195   1.724
13063TIP3   OH239131   0.862   6.421   3.538
13063TIP3    H139132   0.844   6.473   3.617
13063TIP3    H239133   0.954   6.398   3.546
13064TIP3   OH239134   4.167   0.410   4.373
13064TIP3    H139135   4.177   0.321   4.340
13064TIP3    H239136   4.151   0.464   4.295
13065TIP3   OH239137   0.798   4.594   2.396
13065TIP3    H139138   0.799   4.511   2.445
13065TIP3    H239139   0.706   4.619   2.393
13066TIP3   OH239140   5.834   1.827   5.195
13066TIP3    H139141   5.817   1.833   5.289
13066TIP3    H239142   5.923   1.861   5.185
13067TIP3   OH239143   8.208   3.109   0.951
13067TIP3    H139144   8.278   3.139   1.009
13067TIP3    H239145   8.221   3.157   0.870
13068TIP3   OH239146   7.122   3.655   6.467
13068TIP3    H139147   7.167   3.664   6.383
13068TIP3    H239148   7.047   3.599   6.447
13069TIP3   OH239149   1.596   0.361   2.052
13069TIP3    H139150   1.558   0.305   2.119
13069TIP3    H239151   1.541   0.347   1.975
13070TIP3   OH239152   4.387   3.589   1.999
13070TIP3    H139153   4.346   3.631   1.923
13070TIP3    H239154   4.393   3.497   1.976
13071TIP3   OH239155   2.727   4.249   6.419
13071TIP3    H139156   2.775   4.213   6.494
13071TIP3    H239157   2.782   4.228   6.343
13072TIP3   OH239158   5.710   7.070   6.011
13072TIP3    H139159   5.693   7.123   5.933
13072TIP3    H239160   5.804   7.081   6.027
13073TIP3   OH239161   1.759   6.794   5.406
13073TIP3    H139162   1.826   6.760   5.465
13073TIP3    H239163   1.790   6.769   5.319
13074TIP3   OH239164   4.005   0.057   5.314
13074TIP3    H139165   4.058  -0.023   5.313
13074TIP3    H239166   3.960   0.056   5.229
13075TIP3   OH239167   2.849   7.360   4.633
13075TIP3    H139168   2.824   7.333   4.545
13075TIP3    H239169   2.867   7.454   4.625
13076TIP3   OH239170   6.200   0.614   0.556
13076TIP3    H139171   6.155   0.531   0.546
13076TIP3    H239172   6.280   0.605   0.506
13077TIP3   OH239173   0.556   4.616   5.923
13077TIP3    H139174   0.507   4.657   5.851
13077TIP3    H239175   0.646   4.648   5.911
13078TIP3   OH239176   5.286   5.290   3.748
13078TIP3    H139177   5.381   5.292   3.734
13078TIP3    H239178   5.250   5.341   3.676
13079TIP3   OH239179   2.448   7.298   0.226
13079TIP3    H139180   2.438   7.292   0.131
13079TIP3    H239181   2.510   7.370   0.239
13080TIP3   OH239182   7.145   5.209   2.566
13080TIP3    H139183   7.144   5.292   2.518
13080TIP3    H239184   7.053   5.181   2.568
13081TIP3   OH239185   3.846   6.409   6.153
13081TIP3    H139186   3.862   6.323   6.115
13081TIP3    H239187   3.768   6.441   6.108
13082TIP3   OH239188   5.529   3.202   2.374
13082TIP3    H139189   5.562   3.125   2.327
13082TIP3    H239190   5.593   3.216   2.444
13083TIP3   OH239191   4.530   6.751   1.137
13083TIP3    H139192   4.445   6.723   1.169
13083TIP3    H239193   4.532   6.845   1.154
13084TIP3   OH239194   5.893   2.015   2.936
13084TIP3    H139195   5.918   1.989   2.848
13084TIP3    H239196   5.955   1.972   2.994
13085TIP3   OH239197   3.793   5.194   1.832
13085TIP3    H139198   3.766   5.124   1.774
13085TIP3    H239199   3.746   5.177   1.914
13086TIP3   OH239200   0.126   6.283   5.176
13086TIP3    H139201   0.139   6.356   5.237
13086TIP3    H239202   0.032   6.285   5.157
13087TIP3   OH239203   7.077   0.096   2.616
13087TIP3    H139204   7.067   0.032   2.546
13087TIP3    H239205   6.998   0.150   2.610
13088TIP3   OH239206   7.832   1.747   4.309
13088TIP3    H139207   7.898   1.769   4.243
13088TIP3    H239208   7.868   1.781   4.391
13089TIP3   OH239209   8.249   2.863   4.343
13089TIP3    H139210   8.278   2.954   4.353
13089TIP3    H239211   8.297   2.815   4.411
13090TIP3   OH239212   7.500   5.925   6.433
13090TIP3    H139213   7.509   6.013   6.398
13090TIP3    H239214   7.571   5.918   6.498
13091TIP3   OH239215   3.394   4.410   2.833
13091TIP3    H139216   3.398   4.327   2.784
13091TIP3    H239217   3.428   4.475   2.771
13092TIP3   OH239218   2.416   2.477   2.196
13092TIP3    H139219   2.434   2.529   2.117
13092TIP3    H239220   2.321   2.465   2.196
13093TIP3   OH239221   5.574   1.298   6.620
13093TIP3    H139222   5.566   1.353   6.541
13093TIP3    H239223   5.576   1.360   6.692
13094TIP3   OH239224   3.666   2.290   5.620
13094TIP3    H139225   3.717   2.226   5.570
13094TIP3    H239226   3.575   2.267   5.601
13095TIP3   OH239227   3.109   0.349   3.955
13095TIP3    H139228   3.169   0.363   3.882
13095TIP3    H239229   3.147   0.276   4.004
13096TIP3   OH239230   3.098   5.218   4.152
13096TIP3    H139231   3.193   5.212   4.163
13096TIP3    H239232   3.082   5.312   4.139
13097TIP3   OH239233   2.513   2.001   3.348
13097TIP3    H139234   2.519   2.097   3.346
13097TIP3    H239235   2.546   1.977   3.434
13098TIP3   OH239236   5.250   5.857   3.428
13098TIP3    H139237   5.225   5.879   3.338
13098TIP3    H239238   5.260   5.762   3.428
13099TIP3   OH239239   6.850   6.174   1.415
13099TIP3    H139240   6.889   6.195   1.330
13099TIP3    H239241   6.759   6.151   1.395
13100TIP3   OH239242   2.298   1.156   0.748
13100TIP3    H139243   2.386   1.125   0.771
13100TIP3    H239244   2.299   1.161   0.653
13101TIP3   OH239245   4.481   4.632   5.475
13101TIP3    H139246   4.548   4.699   5.484
13101TIP3    H239247   4.414   4.672   5.419
13102TIP3   OH239248   1.103   1.363   2.879
13102TIP3    H139249   1.179   1.422   2.881
13102TIP3    H239250   1.106   1.323   2.792
13103TIP3   OH239251   8.271   0.865   1.210
13103TIP3    H139252   8.267   0.855   1.305
13103TIP3    H239253   8.249   0.957   1.194
13104TIP3   OH239254   3.328   7.087   6.189
13104TIP3    H139255   3.262   7.150   6.162
13104TIP3    H239256   3.279   7.008   6.212
13105TIP3   OH239257   1.520   7.146   2.307
13105TIP3    H139258   1.590   7.191   2.261
13105TIP3    H239259   1.443   7.160   2.253
13106TIP3   OH239260   4.968   2.752   5.452
13106TIP3    H139261   4.907   2.732   5.381
13106TIP3    H239262   4.997   2.842   5.434
13107TIP3   OH239263   6.993   2.200   0.269
13107TIP3    H139264   7.075   2.150   0.259
13107TIP3    H239265   7.012   2.284   0.227
13108TIP3   OH239266   7.663   1.560   1.943
13108TIP3    H139267   7.610   1.586   2.018
13108TIP3    H239268   7.747   1.603   1.957
13109TIP3   OH239269   5.526   4.616   0.972
13109TIP3    H139270   5.603   4.562   0.956
13109TIP3    H239271   5.466   4.594   0.901
13110TIP3   OH239272   3.260   3.037   5.827
13110TIP3    H139273   3.265   2.987   5.908
13110TIP3    H239274   3.337   3.094   5.830
13111TIP3   OH239275   1.453   3.054   1.168
13111TIP3    H139276   1.517   3.112   1.208
13111TIP3    H239277   1.501   3.008   1.100
13112TIP3   OH239278   5.387   6.123   3.124
13112TIP3    H139279   5.300   6.145   3.160
13112TIP3    H239280   5.379   6.137   3.030
13113TIP3   OH239281   1.073   7.100   4.763
13113TIP3    H139282   1.074   7.174   4.824
13113TIP3    H239283   1.009   7.039   4.801
13114TIP3   OH239284   6.959   3.734   2.758
13114TIP3    H139285   6.963   3.822   2.720
13114TIP3    H239286   6.879   3.734   2.811
13115TIP3   OH239287   7.464   4.481   1.879
13115TIP3    H139288   7.482   4.450   1.967
13115TIP3    H239289   7.494   4.411   1.822
13116TIP3   OH239290   5.532   4.811   2.912
13116TIP3    H139291   5.526   4.809   2.816
13116TIP3    H239292   5.512   4.721   2.939
13117TIP3   OH239293   3.024   6.841   4.678
13117TIP3    H139294   3.099   6.783   4.693
13117TIP3    H239295   3.025   6.858   4.584
13118TIP3   OH239296   1.909   3.282   1.553
13118TIP3    H139297   1.997   3.303   1.522
13118TIP3    H239298   1.918   3.195   1.592
13119TIP3   OH239299   3.774   7.110   4.644
13119TIP3    H139300   3.802   7.154   4.724
13119TIP3    H239301   3.843   7.129   4.580
13120TIP3   OH239302   4.816   4.764   4.286
13120TIP3    H139303   4.883   4.738   4.223
13120TIP3    H239304   4.734   4.764   4.237
13121TIP3   OH239305   5.735   4.989   0.516
13121TIP3    H139306   5.644   5.018   0.511
13121TIP3    H239307   5.730   4.894   0.518
13122TIP3   OH239308   1.640   1.435   5.498
13122TIP3    H139309   1.637   1.527   5.522
13122TIP3    H239310   1.578   1.393   5.558
13123TIP3   OH239311   6.173   6.231   6.709
13123TIP3    H139312   6.230   6.291   6.757
13123TIP3    H239313   6.142   6.169   6.776
13124TIP3   OH239314   5.392   6.258   3.898
13124TIP3    H139315   5.373   6.169   3.926
13124TIP3    H239316   5.456   6.248   3.827
13125TIP3   OH239317   2.852   1.100   0.650
13125TIP3    H139318   2.856   1.158   0.725
13125TIP3    H239319   2.852   1.158   0.574
13126TIP3   OH239320   2.778   1.562   6.073
13126TIP3    H139321   2.759   1.516   5.990
13126TIP3    H239322   2.692   1.574   6.113
13127TIP3   OH239323   0.744   4.425   6.662
13127TIP3    H139324   0.808   4.354   6.652
13127TIP3    H239325   0.732   4.433   6.757
13128TIP3   OH239326   7.675   1.594   1.294
13128TIP3    H139327   7.722   1.517   1.325
13128TIP3    H239328   7.722   1.620   1.214
13129TIP3   OH239329   1.646   7.651   0.451
13129TIP3    H139330   1.556   7.616   0.448
13129TIP3    H239331   1.701   7.577   0.426
13130TIP3   OH239332   1.268   7.098   4.309
13130TIP3    H139333   1.219   7.170   4.269
13130TIP3    H239334   1.262   7.027   4.246
13131TIP3   OH239335   5.853   6.012   4.551
13131TIP3    H139336   5.862   5.921   4.579
13131TIP3    H239337   5.940   6.050   4.566
13132TIP3   OH239338   8.219   4.910   3.816
13132TIP3    H139339   8.173   4.834   3.851
13132TIP3    H239340   8.310   4.897   3.842
13133TIP3   OH239341   4.352   5.575   2.351
13133TIP3    H139342   4.333   5.489   2.387
13133TIP3    H239343   4.429   5.561   2.295
13134TIP3   OH239344   7.568   5.887   3.437
13134TIP3    H139345   7.554   5.875   3.531
13134TIP3    H239346   7.660   5.914   3.430
13135TIP3   OH239347   3.943   7.097   0.449
13135TIP3    H139348   4.003   7.141   0.510
13135TIP3    H239349   3.988   7.016   0.425
13136TIP3   OH239350   0.261   4.767   0.342
13136TIP3    H139351   0.238   4.751   0.251
13136TIP3    H239352   0.246   4.861   0.354
13137TIP3   OH239353   0.278   7.445   2.065
13137TIP3    H139354   0.239   7.516   2.016
13137TIP3    H239355   0.210   7.377   2.068
13138TIP3   OH239356   6.694   0.982   2.943
13138TIP3    H139357   6.615   0.979   2.997
13138TIP3    H239358   6.662   0.995   2.854
13139TIP3   OH239359   8.167   3.532   4.873
13139TIP3    H139360   8.077   3.521   4.843
13139TIP3    H239361   8.183   3.455   4.928
13140TIP3   OH239362   0.855   6.781   4.007
13140TIP3    H139363   0.852   6.833   3.927
13140TIP3    H239364   0.948   6.774   4.028
13141TIP3   OH239365   4.712   4.185   5.271
13141TIP3    H139366   4.730   4.140   5.353
13141TIP3    H239367   4.751   4.272   5.282
13142TIP3   OH239368   6.773   1.623   2.706
13142TIP3    H139369   6.705   1.660   2.761
13142TIP3    H239370   6.831   1.577   2.767
13143TIP3   OH239371   1.837   3.873   1.405
13143TIP3    H139372   1.830   3.902   1.496
13143TIP3    H239373   1.855   3.952   1.356
13144TIP3   OH239374   7.654   4.586   2.470
13144TIP3    H139375   7.737   4.633   2.484
13144TIP3    H239376   7.653   4.569   2.376
13145TIP3   OH239377   1.327   0.937   3.669
13145TIP3    H139378   1.344   0.999   3.740
13145TIP3    H239379   1.232   0.927   3.668
13146TIP3   OH239380   7.255   2.638   6.567
13146TIP3    H139381   7.291   2.718   6.606
13146TIP3    H239382   7.259   2.654   6.472
13147TIP3   OH239383   6.436   4.237   4.518
13147TIP3    H139384   6.344   4.249   4.494
13147TIP3    H239385   6.438   4.253   4.612
13148TIP3   OH239386   2.446   4.464   1.758
13148TIP3    H139387   2.405   4.445   1.842
13148TIP3    H239388   2.499   4.386   1.738
13149TIP3   OH239389   7.016   0.880   6.000
13149TIP3    H139390   7.062   0.941   5.942
13149TIP3    H239391   6.979   0.936   6.068
13150TIP3   OH239392   4.108   1.003   0.298
13150TIP3    H139393   4.021   1.044   0.296
13150TIP3    H239394   4.133   0.997   0.206
13151TIP3   OH239395   3.130   3.604   3.996
13151TIP3    H139396   3.219   3.629   3.971
13151TIP3    H239397   3.087   3.581   3.914
13152TIP3   OH239398   7.675   1.182   1.243
13152TIP3    H139399   7.757   1.201   1.289
13152TIP3    H239400   7.700   1.175   1.151
13153TIP3   OH239401   2.017   0.400   1.813
13153TIP3    H139402   2.040   0.395   1.906
13153TIP3    H239403   1.988   0.312   1.791
13154TIP3   OH239404   1.103   0.893   2.632
13154TIP3    H139405   1.176   0.889   2.695
13154TIP3    H239406   1.145   0.909   2.548
13155TIP3   OH239407   0.752   7.335   4.515
13155TIP3    H139408   0.703   7.258   4.486
13155TIP3    H239409   0.842   7.304   4.525
13156TIP3   OH239410   4.898   5.583   6.678
13156TIP3    H139411   4.985   5.574   6.639
13156TIP3    H239412   4.868   5.492   6.689
13157TIP3   OH239413   0.956   1.684   0.445
13157TIP3    H139414   0.890   1.680   0.515
13157TIP3    H239415   1.000   1.599   0.450
13158TIP3   OH239416   6.138   4.066   4.701
13158TIP3    H139417   6.051   4.034   4.722
13158TIP3    H239418   6.198   4.007   4.746
13159TIP3   OH239419   4.552   5.721   5.377
13159TIP3    H139420   4.568   5.786   5.445
13159TIP3    H239421   4.630   5.722   5.323
13160TIP3   OH239422   2.718   5.916   5.202
13160TIP3    H139423   2.769   5.849   5.156
13160TIP3    H239424   2.630   5.879   5.207
13161TIP3   OH239425   7.594   3.670   3.677
13161TIP3    H139426   7.610   3.656   3.771
13161TIP3    H239427   7.509   3.714   3.674
13162TIP3   OH239428   5.859   1.778   0.376
13162TIP3    H139429   5.915   1.854   0.365
13162TIP3    H239430   5.898   1.730   0.450
13163TIP3   OH239431   2.664   3.710   0.964
13163TIP3    H139432   2.759   3.715   0.971
13163TIP3    H239433   2.643   3.756   0.883
13164TIP3   OH239434   2.168   3.041   3.232
13164TIP3    H139435   2.082   3.075   3.205
13164TIP3    H239436   2.230   3.107   3.203
13165TIP3   OH239437   0.618   2.957   4.957
13165TIP3    H139438   0.694   2.902   4.978
13165TIP3    H239439   0.643   3.002   4.876
13166TIP3   OH239440   2.446   3.025   1.116
13166TIP3    H139441   2.419   3.117   1.112
13166TIP3    H239442   2.413   2.995   1.200
13167TIP3   OH239443   1.700   7.604   4.444
13167TIP3    H139444   1.781   7.561   4.471
13167TIP3    H239445   1.723   7.652   4.364
13168TIP3   OH239446   3.956   2.345   3.256
13168TIP3    H139447   4.022   2.408   3.287
13168TIP3    H239448   3.940   2.288   3.331
13169TIP3   OH239449   0.221   7.010   4.791
13169TIP3    H139450   0.189   6.926   4.825
13169TIP3    H239451   0.308   6.990   4.757
13170TIP3   OH239452   7.184   0.572   2.467
13170TIP3    H139453   7.099   0.616   2.473
13170TIP3    H239454   7.246   0.636   2.503
13171TIP3   OH239455   6.449   4.379   2.031
13171TIP3    H139456   6.359   4.408   2.026
13171TIP3    H239457   6.478   4.373   1.940
13172TIP3   OH239458   3.331   5.829   0.381
13172TIP3    H139459   3.400   5.813   0.445
13172TIP3    H239460   3.373   5.880   0.312
13173TIP3   OH239461   8.221   0.955   4.325
13173TIP3    H139462   8.241   0.911   4.243
13173TIP3    H239463   8.127   0.941   4.337
13174TIP3   OH239464   7.376   1.999   6.450
13174TIP3    H139465   7.369   2.094   6.439
13174TIP3    H239466   7.294   1.965   6.415
13175TIP3   OH239467   3.952   0.549   4.818
13175TIP3    H139468   4.004   0.502   4.884
13175TIP3    H239469   4.018   0.582   4.756
13176TIP3   OH239470   5.799   1.122   3.693
13176TIP3    H139471   5.709   1.152   3.706
13176TIP3    H239472   5.793   1.055   3.625
13177TIP3   OH239473   2.876   6.278   2.647
13177TIP3    H139474   2.865   6.196   2.695
13177TIP3    H239475   2.846   6.345   2.708
13178TIP3   OH239476   7.176   1.275   2.620
13178TIP3    H139477   7.134   1.277   2.706
13178TIP3    H239478   7.104   1.290   2.558
13179TIP3   OH239479   6.762   4.308   2.619
13179TIP3    H139480   6.669   4.283   2.618
13179TIP3    H239481   6.801   4.249   2.684
13180TIP3   OH239482   4.716   5.375   3.108
13180TIP3    H139483   4.726   5.294   3.158
13180TIP3    H239484   4.725   5.445   3.172
13181TIP3   OH239485   7.263   4.495   2.875
13181TIP3    H139486   7.290   4.558   2.808
13181TIP3    H239487   7.168   4.503   2.879
13182TIP3   OH239488   4.541   6.092   6.109
13182TIP3    H139489   4.627   6.109   6.148
13182TIP3    H239490   4.483   6.156   6.148
13183TIP3   OH239491   7.159   1.460   1.945
13183TIP3    H139492   7.234   1.413   1.983
13183TIP3    H239493   7.177   1.462   1.851
13184TIP3   OH239494   0.488   1.367   5.307
13184TIP3    H139495   0.492   1.377   5.402
13184TIP3    H239496   0.516   1.451   5.273
13185TIP3   OH239497   2.611   0.771   1.147
13185TIP3    H139498   2.650   0.685   1.142
13185TIP3    H239499   2.683   0.829   1.172
13186TIP3   OH239500   5.635   6.753   2.299
13186TIP3    H139501   5.564   6.788   2.353
13186TIP3    H239502   5.669   6.829   2.253
13187TIP3   OH239503   6.154   1.878   0.718
13187TIP3    H139504   6.086   1.873   0.651
13187TIP3    H239505   6.215   1.808   0.695
13188TIP3   OH239506   7.780   1.797   5.500
13188TIP3    H139507   7.789   1.856   5.575
13188TIP3    H239508   7.802   1.710   5.535
13189TIP3   OH239509   1.622   3.618   4.848
13189TIP3    H139510   1.626   3.636   4.754
13189TIP3    H239511   1.689   3.551   4.863
13190TIP3   OH239512   3.784   0.288   2.684
13190TIP3    H139513   3.739   0.323   2.606
13190TIP3    H239514   3.717   0.237   2.729
13191TIP3   OH239515   7.295   6.912   0.983
13191TIP3    H139516   7.294   6.896   1.077
13191TIP3    H239517   7.380   6.952   0.966
13192TIP3   OH239518   4.396   7.166   5.908
13192TIP3    H139519   4.472   7.180   5.851
13192TIP3    H239520   4.430   7.179   5.997
13193TIP3   OH239521   7.670   2.896   4.783
13193TIP3    H139522   7.728   2.972   4.779
13193TIP3    H239523   7.722   2.829   4.828
13194TIP3   OH239524   4.181   0.678   0.778
13194TIP3    H139525   4.263   0.648   0.819
13194TIP3    H239526   4.163   0.762   0.820
13195TIP3   OH239527   6.113   6.766   3.780
13195TIP3    H139528   6.073   6.680   3.767
13195TIP3    H239529   6.080   6.794   3.865
13196TIP3   OH239530   6.697   1.623   2.208
13196TIP3    H139531   6.697   1.718   2.212
13196TIP3    H239532   6.723   1.594   2.295
13197TIP3   OH239533   3.144   4.904   3.765
13197TIP3    H139534   3.104   4.977   3.811
13197TIP3    H239535   3.209   4.869   3.826
13198TIP3   OH239536   0.643   5.916   3.145
13198TIP3    H139537   0.626   5.918   3.239
13198TIP3    H239538   0.734   5.888   3.137
13199TIP3   OH239539   5.005   0.118   5.375
13199TIP3    H139540   5.094   0.087   5.389
13199TIP3    H239541   4.988   0.100   5.282
13200TIP3   OH239542   1.152   4.332   2.990
13200TIP3    H139543   1.103   4.327   2.908
13200TIP3    H239544   1.105   4.274   3.050
13201TIP3   OH239545   2.473   4.463   2.979
13201TIP3    H139546   2.507   4.550   2.957
13201TIP3    H239547   2.544   4.403   2.957
13202TIP3   OH239548   4.326   2.580   1.341
13202TIP3    H139549   4.303   2.612   1.428
13202TIP3    H239550   4.419   2.599   1.331
13203TIP3   OH239551   4.970   5.016   6.215
13203TIP3    H139552   4.942   4.935   6.258
13203TIP3    H239553   4.892   5.049   6.171
13204TIP3   OH239554   7.433   3.472   3.310
13204TIP3    H139555   7.451   3.565   3.320
13204TIP3    H239556   7.447   3.435   3.397
13205TIP3   OH239557   1.271   6.612   5.704
13205TIP3    H139558   1.216   6.605   5.782
13205TIP3    H239559   1.210   6.639   5.635
13206TIP3   OH239560   7.314   2.984   6.082
13206TIP3    H139561   7.360   2.970   5.999
13206TIP3    H239562   7.276   3.072   6.074
13207TIP3   OH239563   5.745   2.640   5.169
13207TIP3    H139564   5.695   2.617   5.091
13207TIP3    H239565   5.742   2.561   5.224
13208TIP3   OH239566   6.037   0.158   2.568
13208TIP3    H139567   6.074   0.244   2.547
13208TIP3    H239568   6.104   0.096   2.540
13209TIP3   OH239569   2.545   3.770   1.942
13209TIP3    H139570   2.505   3.746   1.859
13209TIP3    H239571   2.613   3.833   1.919
13210TIP3   OH239572   4.856   7.309   1.617
13210TIP3    H139573   4.837   7.402   1.603
13210TIP3    H239574   4.894   7.280   1.534
13211TIP3   OH239575   8.155   5.402   4.384
13211TIP3    H139576   8.113   5.470   4.331
13211TIP3    H239577   8.094   5.328   4.381
13212TIP3   OH239578   2.847   4.711   1.962
13212TIP3    H139579   2.807   4.782   2.012
13212TIP3    H239580   2.941   4.721   1.978
13213TIP3   OH239581   0.667   3.517   1.966
13213TIP3    H139582   0.614   3.572   2.024
13213TIP3    H239583   0.624   3.523   1.881
13214TIP3   OH239584   1.226   0.148   1.850
13214TIP3    H139585   1.146   0.128   1.801
13214TIP3    H239586   1.232   0.080   1.917
13215TIP3   OH239587   0.050   2.242   3.259
13215TIP3    H139588  -0.003   2.199   3.192
13215TIP3    H239589   0.137   2.201   3.251
13216TIP3   OH239590   3.565   5.778   2.627
13216TIP3    H139591   3.532   5.786   2.716
13216TIP3    H239592   3.657   5.756   2.638
13217TIP3   OH239593   5.560   1.451   0.263
13217TIP3    H139594   5.571   1.506   0.185
13217TIP3    H239595   5.641   1.402   0.270
13218TIP3   OH239596   1.724   7.168   2.116
13218TIP3    H139597   1.670   7.210   2.050
13218TIP3    H239598   1.777   7.104   2.067
13219TIP3   OH239599   7.334   2.292   4.602
13219TIP3    H139600   7.389   2.218   4.578
13219TIP3    H239601   7.259   2.288   4.542
13220TIP3   OH239602   6.654   3.328   3.438
13220TIP3    H139603   6.574   3.375   3.460
13220TIP3    H239604   6.691   3.375   3.364
13221TIP3   OH239605   1.529   7.014   4.396
13221TIP3    H139606   1.522   7.029   4.490
13221TIP3    H239607   1.443   7.037   4.362
13222TIP3   OH239608   0.294   6.290   3.946
13222TIP3    H139609   0.219   6.328   3.900
13222TIP3    H239610   0.341   6.365   3.981
13223TIP3   OH239611   4.765   0.808   5.652
13223TIP3    H139612   4.683   0.805   5.603
13223TIP3    H239613   4.742   0.772   5.738
13224TIP3   OH239614   6.744   0.749   0.948
13224TIP3    H139615   6.651   0.765   0.959
13224TIP3    H239616   6.776   0.731   1.036
13225TIP3   OH239617   5.834   2.341   5.622
13225TIP3    H139618   5.761   2.299   5.577
13225TIP3    H239619   5.833   2.304   5.711
13226TIP3   OH239620   2.597   6.432   2.455
13226TIP3    H139621   2.543   6.437   2.535
13226TIP3    H239622   2.622   6.339   2.450
13227TIP3   OH239623   7.392   5.255   4.604
13227TIP3    H139624   7.405   5.166   4.570
13227TIP3    H239625   7.303   5.278   4.578
13228TIP3   OH239626   6.505   0.183   2.938
13228TIP3    H139627   6.438   0.237   2.897
13228TIP3    H239628   6.482   0.093   2.912
13229TIP3   OH239629   0.059   1.811   1.506
13229TIP3    H139630   0.070   1.769   1.421
13229TIP3    H239631   0.002   1.885   1.489
13230TIP3   OH239632   4.474   5.196   6.680
13230TIP3    H139633   4.448   5.104   6.693
13230TIP3    H239634   4.555   5.206   6.730
13231TIP3   OH239635   8.202   6.060   0.014
13231TIP3    H139636   8.140   5.993   0.042
13231TIP3    H239637   8.157   6.143   0.033
13232TIP3   OH239638   2.961   1.848   4.039
13232TIP3    H139639   2.997   1.805   4.116
13232TIP3    H239640   2.947   1.777   3.977
13233TIP3   OH239641   6.348   2.553   5.243
13233TIP3    H139642   6.279   2.562   5.308
13233TIP3    H239643   6.320   2.480   5.188
13234TIP3   OH239644   7.285   5.405   6.416
13234TIP3    H139645   7.235   5.480   6.386
13234TIP3    H239646   7.241   5.329   6.377
13235TIP3   OH239647   3.531   2.938   4.712
13235TIP3    H139648   3.598   2.917   4.778
13235TIP3    H239649   3.577   2.990   4.647
13236TIP3   OH239650   3.715   1.556   0.441
13236TIP3    H139651   3.742   1.513   0.360
13236TIP3    H239652   3.621   1.573   0.428
13237TIP3   OH239653   1.891   3.026   1.637
13237TIP3    H139654   1.932   2.970   1.571
13237TIP3    H239655   1.943   3.011   1.716
13238TIP3   OH239656   1.621   2.958   2.889
13238TIP3    H139657   1.656   2.882   2.843
13238TIP3    H239658   1.684   2.974   2.960
13239TIP3   OH239659   4.454   3.139   5.152
13239TIP3    H139660   4.487   3.189   5.226
13239TIP3    H239661   4.399   3.201   5.103
13240TIP3   OH239662   5.532   2.746   3.322
13240TIP3    H139663   5.568   2.676   3.267
13240TIP3    H239664   5.452   2.774   3.276
13241TIP3   OH239665   1.525   7.396   6.651
13241TIP3    H139666   1.517   7.404   6.556
13241TIP3    H239667   1.559   7.308   6.666
13242TIP3   OH239668   3.803   7.611   5.650
13242TIP3    H139669   3.733   7.632   5.588
13242TIP3    H239670   3.766   7.632   5.735
13243TIP3   OH239671   6.326   7.201   0.047
13243TIP3    H139672   6.344   7.137   0.116
13243TIP3    H239673   6.302   7.281   0.094
13244TIP3   OH239674   5.821   7.165   1.597
13244TIP3    H139675   5.910   7.192   1.616
13244TIP3    H239676   5.813   7.077   1.634
13245TIP3   OH239677   3.848   7.577   4.176
13245TIP3    H139678   3.804   7.493   4.162
13245TIP3    H239679   3.888   7.598   4.092
13246TIP3   OH239680   2.966   2.249   0.293
13246TIP3    H139681   3.044   2.230   0.240
13246TIP3    H239682   2.892   2.230   0.235
13247TIP3   OH239683   2.806   0.309   6.352
13247TIP3    H139684   2.791   0.389   6.302
13247TIP3    H239685   2.849   0.338   6.432
13248TIP3   OH239686   5.207   4.771   1.488
13248TIP3    H139687   5.154   4.789   1.566
13248TIP3    H239688   5.288   4.819   1.503
13249TIP3   OH239689   4.807   6.985   4.426
13249TIP3    H139690   4.752   6.966   4.502
13249TIP3    H239691   4.836   6.898   4.396
13250TIP3   OH239692   6.534   5.590   5.374
13250TIP3    H139693   6.485   5.658   5.328
13250TIP3    H239694   6.494   5.585   5.460
13251TIP3   OH239695   6.697   7.332   5.971
13251TIP3    H139696   6.786   7.327   5.938
13251TIP3    H239697   6.679   7.245   6.006
13252TIP3   OH239698   2.342   0.139   5.873
13252TIP3    H139699   2.420   0.123   5.926
13252TIP3    H239700   2.283   0.186   5.932
13253TIP3   OH239701   4.311   2.520   4.514
13253TIP3    H139702   4.389   2.573   4.505
13253TIP3    H239703   4.270   2.523   4.427
13254TIP3   OH239704   1.081   5.087   6.579
13254TIP3    H139705   1.139   5.101   6.654
13254TIP3    H239706   1.124   5.131   6.506
13255TIP3   OH239707   4.988   5.152   1.797
13255TIP3    H139708   4.923   5.205   1.751
13255TIP3    H239709   5.039   5.111   1.728
13256TIP3   OH239710   3.888   0.228   6.236
13256TIP3    H139711   3.947   0.267   6.300
13256TIP3    H239712   3.808   0.279   6.243
13257TIP3   OH239713   3.366   0.887   3.793
13257TIP3    H139714   3.274   0.897   3.819
13257TIP3    H239715   3.409   0.967   3.825
13258TIP3   OH239716   6.865   0.286   6.639
13258TIP3    H139717   6.943   0.297   6.585
13258TIP3    H239718   6.818   0.212   6.599
13259TIP3   OH239719   3.258   2.589   4.071
13259TIP3    H139720   3.181   2.633   4.106
13259TIP3    H239721   3.242   2.496   4.085
13260TIP3   OH239722   6.464   3.813   3.731
13260TIP3    H139723   6.521   3.772   3.797
13260TIP3    H239724   6.455   3.747   3.662
13261TIP3   OH239725   0.468   0.918   3.006
13261TIP3    H139726   0.438   0.976   3.076
13261TIP3    H239727   0.537   0.865   3.046
13262TIP3   OH239728   5.664   3.427   3.766
13262TIP3    H139729   5.605   3.416   3.840
13262TIP3    H239730   5.747   3.452   3.805
13263TIP3   OH239731   2.514   1.175   6.644
13263TIP3    H139732   2.444   1.110   6.635
13263TIP3    H239733   2.592   1.123   6.662
13264TIP3   OH239734   2.009   7.605   0.246
13264TIP3    H139735   2.054   7.525   0.218
13264TIP3    H239736   1.962   7.580   0.325
13265TIP3   OH239737   2.051   6.568   0.373
13265TIP3    H139738   2.047   6.565   0.468
13265TIP3    H239739   2.142   6.593   0.353
13266TIP3   OH239740   5.301   2.615   1.172
13266TIP3    H139741   5.293   2.562   1.251
13266TIP3    H239742   5.221   2.668   1.170
13267TIP3   OH239743   6.427   5.057   4.844
13267TIP3    H139744   6.338   5.022   4.845
13267TIP3    H239745   6.433   5.111   4.923
13268TIP3   OH239746   7.331   6.999   1.465
13268TIP3    H139747   7.268   6.938   1.428
13268TIP3    H239748   7.375   6.949   1.534
13269TIP3   OH239749   6.606   3.190   0.912
13269TIP3    H139750   6.624   3.096   0.912
13269TIP3    H239751   6.649   3.223   0.833
13270TIP3   OH239752   5.862   5.541   6.416
13270TIP3    H139753   5.797   5.473   6.433
13270TIP3    H239754   5.897   5.564   6.502
13271TIP3   OH239755   4.094   3.977   0.279
13271TIP3    H139756   4.187   3.968   0.299
13271TIP3    H239757   4.077   3.911   0.212
13272TIP3   OH239758   0.516   6.060   0.559
13272TIP3    H139759   0.438   6.024   0.517
13272TIP3    H239760   0.484   6.136   0.608
13273TIP3   OH239761   7.565   5.008   1.280
13273TIP3    H139762   7.495   4.953   1.316
13273TIP3    H239763   7.580   5.074   1.348
13274TIP3   OH239764   5.331   3.527   0.555
13274TIP3    H139765   5.331   3.444   0.508
13274TIP3    H239766   5.416   3.566   0.534
13275TIP3   OH239767   6.288   0.626   2.613
13275TIP3    H139768   6.382   0.624   2.599
13275TIP3    H239769   6.270   0.714   2.646
13276TIP3   OH239770   6.219   0.094   6.153
13276TIP3    H139771   6.175   0.020   6.195
13276TIP3    H239772   6.167   0.111   6.074
13277TIP3   OH239773   2.828   7.720   5.684
13277TIP3    H139774   2.770   7.765   5.622
13277TIP3    H239775   2.858   7.789   5.743
13278TIP3   OH239776   1.064   6.774   2.171
13278TIP3    H139777   1.098   6.841   2.112
13278TIP3    H239778   1.105   6.693   2.142
13279TIP3   OH239779   7.780   1.050   3.256
13279TIP3    H139780   7.836   1.108   3.205
13279TIP3    H239781   7.798   0.962   3.221
13280TIP3   OH239782   2.746   7.616   2.640
13280TIP3    H139783   2.668   7.653   2.682
13280TIP3    H239784   2.758   7.531   2.684
13281TIP3   OH239785   6.365   2.944   0.726
13281TIP3    H139786   6.368   2.849   0.722
13281TIP3    H239787   6.329   2.972   0.642
13282TIP3   OH239788   2.247   7.121   5.163
13282TIP3    H139789   2.237   7.216   5.155
13282TIP3    H239790   2.175   7.084   5.112
13283TIP3   OH239791   5.053   2.659   1.840
13283TIP3    H139792   4.999   2.675   1.918
13283TIP3    H239793   5.136   2.628   1.874
13284TIP3   OH239794   6.473   4.588   0.612
13284TIP3    H139795   6.400   4.541   0.570
13284TIP3    H239796   6.472   4.675   0.572
13285TIP3   OH239797   4.869   5.140   5.242
13285TIP3    H139798   4.901   5.184   5.321
13285TIP3    H239799   4.775   5.153   5.244
13286TIP3   OH239800   8.013   5.965   3.660
13286TIP3    H139801   8.104   5.992   3.673
13286TIP3    H239802   7.980   5.950   3.748
13287TIP3   OH239803   2.167   4.579   6.376
13287TIP3    H139804   2.122   4.514   6.429
13287TIP3    H239805   2.238   4.611   6.432
13288TIP3   OH239806   4.881   1.807   1.866
13288TIP3    H139807   4.926   1.891   1.874
13288TIP3    H239808   4.929   1.749   1.925
13289TIP3   OH239809   4.777   2.670   2.614
13289TIP3    H139810   4.683   2.692   2.615
13289TIP3    H239811   4.804   2.677   2.705
13290TIP3   OH239812   6.965   5.434   3.463
13290TIP3    H139813   6.931   5.473   3.544
13290TIP3    H239814   6.965   5.506   3.400
13291TIP3   OH239815   4.594   0.586   6.205
13291TIP3    H139816   4.573   0.520   6.139
13291TIP3    H239817   4.689   0.579   6.216
13292TIP3   OH239818   7.270   3.535   0.216
13292TIP3    H139819   7.316   3.620   0.220
13292TIP3    H239820   7.258   3.510   0.307
13293TIP3   OH239821   2.806   4.635   4.665
13293TIP3    H139822   2.743   4.699   4.698
13293TIP3    H239823   2.881   4.687   4.636
13294TIP3   OH239824   7.356   3.260   2.070
13294TIP3    H139825   7.355   3.201   2.144
13294TIP3    H239826   7.279   3.235   2.018
13295TIP3   OH239827   4.644   1.900   4.867
13295TIP3    H139828   4.624   1.808   4.884
13295TIP3    H239829   4.740   1.905   4.871
13296TIP3   OH239830   3.243   2.109   4.356
13296TIP3    H139831   3.234   2.073   4.445
13296TIP3    H239832   3.337   2.122   4.345
13297TIP3   OH239833   1.563   2.095   1.500
13297TIP3    H139834   1.558   2.084   1.595
13297TIP3    H239835   1.551   2.006   1.466
13298TIP3   OH239836   3.856   6.055   3.957
13298TIP3    H139837   3.788   6.118   3.980
13298TIP3    H239838   3.904   6.098   3.886
13299TIP3   OH239839   1.949   7.626   4.577
13299TIP3    H139840   1.965   7.569   4.502
13299TIP3    H239841   1.911   7.568   4.643
13300TIP3   OH239842   8.140   4.219   6.094
13300TIP3    H139843   8.203   4.147   6.094
13300TIP3    H239844   8.190   4.294   6.062
13301TIP3   OH239845   4.330   5.696   6.497
13301TIP3    H139846   4.353   5.765   6.560
13301TIP3    H239847   4.414   5.668   6.460
13302TIP3   OH239848   6.812   2.393   4.046
13302TIP3    H139849   6.728   2.367   4.008
13302TIP3    H239850   6.841   2.316   4.095
13303TIP3   OH239851   2.957   2.610   2.261
13303TIP3    H139852   2.951   2.684   2.322
13303TIP3    H239853   2.882   2.622   2.202
13304TIP3   OH239854   4.140   4.362   4.179
13304TIP3    H139855   4.128   4.405   4.264
13304TIP3    H239856   4.131   4.433   4.116
13305TIP3   OH239857   6.402   1.147   6.317
13305TIP3    H139858   6.380   1.165   6.408
13305TIP3    H239859   6.358   1.064   6.298
13306TIP3   OH239860   2.381   3.464   1.974
13306TIP3    H139861   2.350   3.544   1.931
13306TIP3    H239862   2.468   3.450   1.936
13307TIP3   OH239863   2.033   3.708   2.757
13307TIP3    H139864   2.090   3.634   2.772
13307TIP3    H239865   2.027   3.752   2.841
13308TIP3   OH239866   6.990   1.291   5.759
13308TIP3    H139867   7.052   1.290   5.686
13308TIP3    H239868   6.959   1.381   5.764
13309TIP3   OH239869   3.559   1.102   3.854
13309TIP3    H139870   3.579   1.134   3.767
13309TIP3    H239871   3.644   1.088   3.896
13310TIP3   OH239872   1.727   4.242   0.443
13310TIP3    H139873   1.773   4.320   0.476
13310TIP3    H239874   1.736   4.248   0.348
13311TIP3   OH239875   4.772   5.044   5.974
13311TIP3    H139876   4.720   5.123   5.993
13311TIP3    H239877   4.708   4.973   5.973
13312TIP3   OH239878   4.191   4.417   3.742
13312TIP3    H139879   4.180   4.327   3.773
13312TIP3    H239880   4.224   4.408   3.653
13313TIP3   OH239881   2.274   7.674   6.512
13313TIP3    H139882   2.211   7.732   6.556
13313TIP3    H239883   2.229   7.590   6.506
13314TIP3   OH239884   1.891   1.318   5.535
13314TIP3    H139885   1.810   1.368   5.529
13314TIP3    H239886   1.960   1.384   5.539
13315TIP3   OH239887   1.120   6.349   3.628
13315TIP3    H139888   1.144   6.334   3.719
13315TIP3    H239889   1.200   6.383   3.587
13316TIP3   OH239890   7.457   4.907   1.515
13316TIP3    H139891   7.542   4.864   1.523
13316TIP3    H239892   7.393   4.836   1.523
13317TIP3   OH239893   1.751   0.700   4.443
13317TIP3    H139894   1.719   0.720   4.531
13317TIP3    H239895   1.754   0.785   4.399
13318TIP3   OH239896   7.236   1.679   6.382
13318TIP3    H139897   7.160   1.683   6.440
13318TIP3    H239898   7.200   1.652   6.298
13319TIP3   OH239899   6.549   3.603   2.142
13319TIP3    H139900   6.637   3.636   2.162
13319TIP3    H239901   6.548   3.515   2.179
13320TIP3   OH239902   2.073   1.509   6.382
13320TIP3    H139903   1.995   1.459   6.358
13320TIP3    H239904   2.146   1.458   6.345
13321TIP3   OH239905   8.040   0.100   3.198
13321TIP3    H139906   8.094   0.043   3.143
13321TIP3    H239907   8.004   0.042   3.265
13322TIP3   OH239908   2.244   2.982   1.962
13322TIP3    H139909   2.149   2.993   1.955
13322TIP3    H239910   2.257   2.889   1.982
13323TIP3   OH239911   6.211   1.356  -0.001
13323TIP3    H139912   6.217   1.321   0.088
13323TIP3    H239913   6.123   1.332  -0.030
13324TIP3   OH239914   3.020   2.460   1.732
13324TIP3    H139915   3.106   2.458   1.775
13324TIP3    H239916   2.957   2.465   1.804
13325TIP3   OH239917   6.777   5.530   2.760
13325TIP3    H139918   6.688   5.560   2.740
13325TIP3    H239919   6.806   5.487   2.679
13326TIP3   OH239920   7.841   4.270   2.466
13326TIP3    H139921   7.825   4.253   2.374
13326TIP3    H239922   7.897   4.348   2.467
13327TIP3   OH239923   7.687   6.264   5.475
13327TIP3    H139924   7.696   6.211   5.396
13327TIP3    H239925   7.596   6.295   5.473
13328TIP3   OH239926   2.001   6.569   1.201
13328TIP3    H139927   1.993   6.650   1.151
13328TIP3    H239928   1.914   6.557   1.241
13329TIP3   OH239929   7.545   5.551   1.166
13329TIP3    H139930   7.491   5.478   1.197
13329TIP3    H239931   7.618   5.555   1.227
13330TIP3   OH239932   0.794   4.367   0.408
13330TIP3    H139933   0.857   4.319   0.354
13330TIP3    H239934   0.813   4.340   0.497
13331TIP3   OH239935   7.995   3.161   3.457
13331TIP3    H139936   7.934   3.107   3.506
13331TIP3    H239937   8.006   3.115   3.373
13332TIP3   OH239938   2.771   2.890   4.730
13332TIP3    H139939   2.862   2.883   4.761
13332TIP3    H239940   2.732   2.806   4.753
13333TIP3   OH239941   0.203   4.086   2.566
13333TIP3    H139942   0.160   4.086   2.652
13333TIP3    H239943   0.270   4.154   2.574
13334TIP3   OH239944   5.191   5.554   1.269
13334TIP3    H139945   5.198   5.459   1.256
13334TIP3    H239946   5.117   5.580   1.214
13335TIP3   OH239947   1.125   1.614   3.772
13335TIP3    H139948   1.205   1.582   3.730
13335TIP3    H239949   1.113   1.702   3.735
13336TIP3   OH239950   0.722   5.947   1.829
13336TIP3    H139951   0.802   5.953   1.880
13336TIP3    H239952   0.654   5.923   1.892
13337TIP3   OH239953   5.820   1.224   0.548
13337TIP3    H139954   5.766   1.159   0.504
13337TIP3    H239955   5.898   1.231   0.493
13338TIP3   OH239956   0.710   1.319   4.414
13338TIP3    H139957   0.645   1.271   4.464
13338TIP3    H239958   0.740   1.389   4.473
13339TIP3   OH239959   5.113   5.295   0.559
13339TIP3    H139960   5.055   5.305   0.483
13339TIP3    H239961   5.142   5.384   0.578
13340TIP3   OH239962   8.198   4.918   0.234
13340TIP3    H139963   8.163   5.005   0.253
13340TIP3    H239964   8.271   4.933   0.175
13341TIP3   OH239965   7.531   2.556   1.891
13341TIP3    H139966   7.523   2.461   1.879
13341TIP3    H239967   7.572   2.566   1.976
13342TIP3   OH239968   6.775   7.061   3.066
13342TIP3    H139969   6.864   7.093   3.054
13342TIP3    H239970   6.774   6.976   3.022
13343TIP3   OH239971   5.059   3.628   6.152
13343TIP3    H139972   4.992   3.626   6.083
13343TIP3    H239973   5.136   3.666   6.109
13344TIP3   OH239974   2.192   4.438   4.221
13344TIP3    H139975   2.124   4.503   4.203
13344TIP3    H239976   2.144   4.356   4.233
13345TIP3   OH239977   7.686   0.459   5.736
13345TIP3    H139978   7.644   0.499   5.811
13345TIP3    H239979   7.713   0.372   5.766
13346TIP3   OH239980   0.062   3.074   5.597
13346TIP3    H139981   0.059   3.010   5.526
13346TIP3    H239982   0.070   3.022   5.677
13347TIP3   OH239983   4.010   6.145   2.501
13347TIP3    H139984   4.085   6.097   2.466
13347TIP3    H239985   3.934   6.099   2.466
13348TIP3   OH239986   2.037   4.829   2.993
13348TIP3    H139987   2.125   4.793   3.009
13348TIP3    H239988   1.992   4.761   2.944
13349TIP3   OH239989   1.204   1.509   6.472
13349TIP3    H139990   1.210   1.460   6.390
13349TIP3    H239991   1.184   1.599   6.444
13350TIP3   OH239992   0.929   1.565   1.719
13350TIP3    H139993   0.934   1.600   1.808
13350TIP3    H239994   1.011   1.515   1.709
13351TIP3   OH239995   5.959   4.747   5.003
13351TIP3    H139996   5.881   4.790   4.968
13351TIP3    H239997   5.939   4.654   5.000
13352TIP3   OH239998   6.478   7.539   5.888
13352TIP3    H139999   6.568   7.508   5.892
13352TIP3    H240000   6.465   7.562   5.796
13353TIP3   OH240001   5.298   4.061   5.019
13353TIP3    H140002   5.318   4.153   5.035
13353TIP3    H240003   5.381   4.023   4.991
13354TIP3   OH240004   6.768   4.336   3.438
13354TIP3    H140005   6.800   4.303   3.522
13354TIP3    H240006   6.676   4.359   3.454
13355TIP3   OH240007   0.175   0.987   6.289
13355TIP3    H140008   0.109   0.929   6.250
13355TIP3    H240009   0.209   1.037   6.215
13356TIP3   OH240010   3.285   5.052   2.538
13356TIP3    H140011   3.325   5.134   2.567
13356TIP3    H240012   3.193   5.073   2.528
13357TIP3   OH240013   6.468   2.964   6.285
13357TIP3    H140014   6.412   2.893   6.253
13357TIP3    H240015   6.546   2.961   6.230
13358TIP3   OH240016   1.934   2.419   6.168
13358TIP3    H140017   1.848   2.379   6.178
13358TIP3    H240018   1.946   2.471   6.247
13359TIP3   OH240019   6.044   4.036   0.096
13359TIP3    H140020   5.952   4.032   0.121
13359TIP3    H240021   6.082   3.954   0.128
13360TIP3   OH240022   3.005   3.342   6.012
13360TIP3    H140023   2.971   3.261   5.975
13360TIP3    H240024   3.098   3.326   6.026
13361TIP3   OH240025   7.895   3.810   3.006
13361TIP3    H140026   7.939   3.726   3.014
13361TIP3    H240027   7.808   3.788   2.972
13362TIP3   OH240028   6.913   4.928   5.032
13362TIP3    H140029   6.864   4.887   5.103
13362TIP3    H240030   6.872   5.014   5.021
13363TIP3   OH240031   0.070   0.233   1.200
13363TIP3    H140032   0.162   0.244   1.223
13363TIP3    H240033   0.060   0.140   1.181
13364TIP3   OH240034   6.331   1.858   5.596
13364TIP3    H140035   6.320   1.840   5.689
13364TIP3    H240036   6.322   1.772   5.555
13365TIP3   OH240037   6.032   5.032   1.629
13365TIP3    H140038   6.117   5.033   1.672
13365TIP3    H240039   5.976   5.086   1.684
13366TIP3   OH240040   7.131   7.310   5.376
13366TIP3    H140041   7.126   7.374   5.305
13366TIP3    H240042   7.082   7.235   5.345
13367TIP3   OH240043   4.766   4.783   1.762
13367TIP3    H140044   4.696   4.754   1.821
13367TIP3    H240045   4.721   4.831   1.693
13368TIP3   OH240046   5.910   3.850   5.714
13368TIP3    H140047   5.857   3.924   5.685
13368TIP3    H240048   5.998   3.868   5.682
13369TIP3   OH240049   6.431   0.107   6.341
13369TIP3    H140050   6.346   0.101   6.298
13369TIP3    H240051   6.483   0.038   6.301
13370TIP3   OH240052   8.256   2.077   2.762
13370TIP3    H140053   8.171   2.049   2.798
13370TIP3    H240054   8.274   2.014   2.692
13371TIP3   OH240055   3.765   2.790   1.634
13371TIP3    H140056   3.707   2.733   1.684
13371TIP3    H240057   3.746   2.770   1.542
13372TIP3   OH240058   6.661   6.412   3.063
13372TIP3    H140059   6.740   6.459   3.089
13372TIP3    H240060   6.590   6.456   3.109
13373TIP3   OH240061   3.470   0.166   4.061
13373TIP3    H140062   3.480   0.071   4.049
13373TIP3    H240063   3.399   0.175   4.124
13374TIP3   OH240064   3.023   5.353   2.848
13374TIP3    H140065   2.941   5.309   2.828
13374TIP3    H240066   3.015   5.378   2.940
13375TIP3   OH240067   1.375   7.236   3.813
13375TIP3    H140068   1.324   7.165   3.774
13375TIP3    H240069   1.310   7.293   3.854
13376TIP3   OH240070   3.743   4.974   5.467
13376TIP3    H140071   3.814   4.998   5.406
13376TIP3    H240072   3.721   4.884   5.443
13377TIP3   OH240073   2.452   2.056   4.657
13377TIP3    H140074   2.372   2.083   4.702
13377TIP3    H240075   2.447   1.960   4.654
13378TIP3   OH240076   6.450   7.119   5.154
13378TIP3    H140077   6.498   7.170   5.089
13378TIP3    H240078   6.457   7.029   5.123
13379TIP3   OH240079   1.031   3.053   3.254
13379TIP3    H140080   0.947   3.011   3.238
13379TIP3    H240081   1.089   2.982   3.279
13380TIP3   OH240082   0.987   2.521   5.724
13380TIP3    H140083   0.901   2.562   5.717
13380TIP3    H240084   1.004   2.485   5.637
13381TIP3   OH240085   5.875   5.879   6.275
13381TIP3    H140086   5.831   5.964   6.268
13381TIP3    H240087   5.897   5.856   6.185
13382TIP3   OH240088   1.271   0.347   3.456
13382TIP3    H140089   1.202   0.321   3.396
13382TIP3    H240090   1.350   0.308   3.420
13383TIP3   OH240091   3.857   6.357   4.961
13383TIP3    H140092   3.883   6.448   4.975
13383TIP3    H240093   3.765   6.362   4.937
13384TIP3   OH240094   3.607   2.263   1.293
13384TIP3    H140095   3.519   2.264   1.254
13384TIP3    H240096   3.596   2.220   1.377
13385TIP3   OH240097   4.369   7.525   3.140
13385TIP3    H140098   4.331   7.544   3.226
13385TIP3    H240099   4.295   7.533   3.079
13386TIP3   OH240100   3.876   2.961   0.442
13386TIP3    H140101   3.846   2.872   0.424
13386TIP3    H240102   3.811   2.997   0.503
13387TIP3   OH240103   3.231   1.451   5.172
13387TIP3    H140104   3.194   1.512   5.108
13387TIP3    H240105   3.163   1.384   5.183
13388TIP3   OH240106   1.850   5.353   6.210
13388TIP3    H140107   1.931   5.335   6.258
13388TIP3    H240108   1.876   5.412   6.139
13389TIP3   OH240109   6.658   1.899   5.919
13389TIP3    H140110   6.613   1.814   5.926
13389TIP3    H240111   6.676   1.909   5.826
13390TIP3   OH240112   3.491   1.797   0.654
13390TIP3    H140113   3.531   1.747   0.724
13390TIP3    H240114   3.404   1.758   0.642
13391TIP3   OH240115   4.765   4.370   1.476
13391TIP3    H140116   4.830   4.387   1.544
13391TIP3    H240117   4.693   4.431   1.495
13392TIP3   OH240118   7.098   3.540   3.516
13392TIP3    H140119   7.043   3.476   3.470
13392TIP3    H240120   7.186   3.502   3.513
13393TIP3   OH240121   2.006   1.823   0.226
13393TIP3    H140122   2.027   1.769   0.149
13393TIP3    H240123   2.045   1.776   0.300
13394TIP3   OH240124   6.038   3.311   2.727
13394TIP3    H140125   6.052   3.294   2.820
13394TIP3    H240126   5.985   3.391   2.724
13395TIP3   OH240127   0.557   0.217   4.825
13395TIP3    H140128   0.521   0.194   4.912
13395TIP3    H240129   0.490   0.271   4.785
13396TIP3   OH240130   0.512   3.121   5.918
13396TIP3    H140131   0.558   3.132   6.001
13396TIP3    H240132   0.427   3.163   5.932
13397TIP3   OH240133   1.999   7.511   2.010
13397TIP3    H140134   2.077   7.503   1.956
13397TIP3    H240135   2.030   7.497   2.100
13398TIP3   OH240136   2.003   2.278   2.763
13398TIP3    H140137   2.032   2.217   2.831
13398TIP3    H240138   2.069   2.269   2.694
13399TIP3   OH240139   1.266   7.089   5.993
13399TIP3    H140140   1.330   7.147   5.952
13399TIP3    H240141   1.239   7.029   5.924
13400TIP3   OH240142   0.989   3.711   0.415
13400TIP3    H140143   0.943   3.749   0.340
13400TIP3    H240144   1.053   3.651   0.376
13401TIP3   OH240145   3.686   6.787   4.418
13401TIP3    H140146   3.672   6.694   4.400
13401TIP3    H240147   3.628   6.806   4.492
13402TIP3   OH240148   2.610   6.315   1.570
13402TIP3    H140149   2.514   6.310   1.568
13402TIP3    H240150   2.629   6.404   1.600
13403TIP3   OH240151   0.631   0.667   0.995
13403TIP3    H140152   0.574   0.723   0.942
13403TIP3    H240153   0.709   0.720   1.009
13404TIP3   OH240154   7.931   2.362   3.835
13404TIP3    H140155   7.927   2.279   3.883
13404TIP3    H240156   8.025   2.382   3.829
13405TIP3   OH240157   7.505   4.895   2.265
13405TIP3    H140158   7.449   4.842   2.320
13405TIP3    H240159   7.455   4.975   2.249
13406TIP3   OH240160   3.308   7.628   3.614
13406TIP3    H140161   3.354   7.595   3.537
13406TIP3    H240162   3.361   7.701   3.645
13407TIP3   OH240163   5.933   2.549   5.940
13407TIP3    H140164   5.840   2.535   5.956
13407TIP3    H240165   5.962   2.470   5.894
13408TIP3   OH240166   4.437   5.621   0.640
13408TIP3    H140167   4.490   5.548   0.672
13408TIP3    H240168   4.500   5.678   0.595
13409TIP3   OH240169   4.717   5.069   6.461
13409TIP3    H140170   4.777   5.002   6.427
13409TIP3    H240171   4.716   5.055   6.556
13410TIP3   OH240172   4.094   4.348   2.335
13410TIP3    H140173   4.028   4.340   2.267
13410TIP3    H240174   4.178   4.340   2.289
13411TIP3   OH240175   6.472   5.604   5.629
13411TIP3    H140176   6.402   5.655   5.670
13411TIP3    H240177   6.552   5.638   5.668
13412TIP3   OH240178   8.139   5.832   0.158
13412TIP3    H140179   8.070   5.776   0.193
13412TIP3    H240180   8.210   5.827   0.222
13413TIP3   OH240181   2.967   2.797   3.856
13413TIP3    H140182   3.058   2.786   3.828
13413TIP3    H240183   2.973   2.829   3.946
13414TIP3   OH240184   0.966   4.662   3.709
13414TIP3    H140185   0.943   4.672   3.801
13414TIP3    H240186   1.014   4.742   3.688
13415TIP3   OH240187   7.055   2.947   0.452
13415TIP3    H140188   6.995   3.015   0.481
13415TIP3    H240189   7.103   2.987   0.379
13416TIP3   OH240190   4.317   4.358   1.536
13416TIP3    H140191   4.303   4.405   1.454
13416TIP3    H240192   4.369   4.418   1.590
13417TIP3   OH240193   5.944   5.590   2.288
13417TIP3    H140194   5.908   5.675   2.312
13417TIP3    H240195   5.913   5.576   2.198
13418TIP3   OH240196   7.403   3.380   6.378
13418TIP3    H140197   7.312   3.352   6.375
13418TIP3    H240198   7.414   3.413   6.468
13419TIP3   OH240199   7.341   0.965   2.357
13419TIP3    H140200   7.272   0.988   2.294
13419TIP3    H240201   7.411   0.928   2.302
13420TIP3   OH240202   4.328   0.406   4.671
13420TIP3    H140203   4.279   0.481   4.638
13420TIP3    H240204   4.420   0.432   4.664
13421TIP3   OH240205   6.900   3.662   0.310
13421TIP3    H140206   6.978   3.718   0.303
13421TIP3    H240207   6.911   3.598   0.241
13422TIP3   OH240208   6.358   4.637   6.498
13422TIP3    H140209   6.320   4.709   6.547
13422TIP3    H240210   6.377   4.570   6.564
13423TIP3   OH240211   6.330   0.674   2.991
13423TIP3    H140212   6.261   0.641   2.933
13423TIP3    H240213   6.317   0.627   3.073
13424TIP3   OH240214   7.731   4.385   3.761
13424TIP3    H140215   7.757   4.446   3.830
13424TIP3    H240216   7.813   4.343   3.734
13425TIP3   OH240217   0.825   0.740   0.392
13425TIP3    H140218   0.787   0.654   0.371
13425TIP3    H240219   0.901   0.720   0.446
13426TIP3   OH240220   3.185   1.173   2.720
13426TIP3    H140221   3.183   1.227   2.799
13426TIP3    H240222   3.157   1.232   2.650
13427TIP3   OH240223   0.495   3.649   2.932
13427TIP3    H140224   0.407   3.685   2.928
13427TIP3    H240225   0.539   3.701   2.998
13428TIP3   OH240226   2.538   5.359   2.823
13428TIP3    H140227   2.507   5.304   2.894
13428TIP3    H240228   2.579   5.434   2.867
13429TIP3   OH240229   7.776   7.428   0.774
13429TIP3    H140230   7.824   7.441   0.692
13429TIP3    H240231   7.759   7.334   0.778
13430TIP3   OH240232   8.104   0.995   0.326
13430TIP3    H140233   8.019   0.992   0.370
13430TIP3    H240234   8.133   1.086   0.336
13431TIP3   OH240235   7.888   2.772   1.165
13431TIP3    H140236   7.924   2.687   1.140
13431TIP3    H240237   7.811   2.751   1.219
13432TIP3   OH240238   7.548   3.582   0.891
13432TIP3    H140239   7.523   3.490   0.898
13432TIP3    H240240   7.643   3.582   0.902
13433TIP3   OH240241   7.689   5.728   2.805
13433TIP3    H140242   7.653   5.705   2.720
13433TIP3    H240243   7.612   5.737   2.862
13434TIP3   OH240244   5.311   6.320   5.477
13434TIP3    H140245   5.221   6.301   5.453
13434TIP3    H240246   5.316   6.415   5.483
13435TIP3   OH240247   7.305   4.345   4.887
13435TIP3    H140248   7.236   4.371   4.949
13435TIP3    H240249   7.361   4.422   4.880
13436TIP3   OH240250   2.943   2.502   6.234
13436TIP3    H140251   3.014   2.492   6.298
13436TIP3    H240252   2.978   2.465   6.153
13437TIP3   OH240253   6.222   7.674   3.618
13437TIP3    H140254   6.277   7.607   3.659
13437TIP3    H240255   6.228   7.749   3.678
13438TIP3   OH240256   3.852   1.057   0.225
13438TIP3    H140257   3.842   0.963   0.212
13438TIP3    H240258   3.778   1.082   0.281
13439TIP3   OH240259   6.913   2.979   2.836
13439TIP3    H140260   6.927   3.066   2.873
13439TIP3    H240261   6.946   2.919   2.904
13440TIP3   OH240262   0.648   3.711   3.200
13440TIP3    H140263   0.656   3.701   3.295
13440TIP3    H240264   0.676   3.626   3.165
13441TIP3   OH240265   1.377   4.830   3.599
13441TIP3    H140266   1.409   4.742   3.620
13441TIP3    H240267   1.282   4.823   3.606
13442TIP3   OH240268   6.601   4.371   2.275
13442TIP3    H140269   6.539   4.355   2.204
13442TIP3    H240270   6.663   4.298   2.270
13443TIP3   OH240271   4.654   2.052   2.806
13443TIP3    H140272   4.643   1.995   2.730
13443TIP3    H240273   4.748   2.049   2.825
13444TIP3   OH240274   5.893   2.413   2.438
13444TIP3    H140275   5.940   2.398   2.356
13444TIP3    H240276   5.883   2.327   2.477
13445TIP3   OH240277   6.410   1.185   2.562
13445TIP3    H140278   6.493   1.183   2.610
13445TIP3    H240279   6.426   1.242   2.487
13446TIP3   OH240280   6.913   5.142   1.774
13446TIP3    H140281   6.844   5.161   1.837
13446TIP3    H240282   6.965   5.072   1.814
13447TIP3   OH240283   6.777   2.810   2.124
13447TIP3    H140284   6.766   2.797   2.030
13447TIP3    H240285   6.696   2.778   2.163
13448TIP3   OH240286   2.598   1.895   4.870
13448TIP3    H140287   2.565   1.895   4.960
13448TIP3    H240288   2.571   1.980   4.834
13449TIP3   OH240289   4.344   7.213   1.195
13449TIP3    H140290   4.344   7.289   1.136
13449TIP3    H240291   4.420   7.162   1.168
13450TIP3   OH240292   1.423   2.645   2.227
13450TIP3    H140293   1.470   2.578   2.278
13450TIP3    H240294   1.349   2.669   2.283
13451TIP3   OH240295   5.555   0.901   1.819
13451TIP3    H140296   5.485   0.840   1.795
13451TIP3    H240297   5.513   0.963   1.879
13452TIP3   OH240298   6.311   1.910   4.573
13452TIP3    H140299   6.247   1.914   4.502
13452TIP3    H240300   6.264   1.939   4.651
13453TIP3   OH240301   4.269   3.530   2.378
13453TIP3    H140302   4.194   3.525   2.437
13453TIP3    H240303   4.242   3.480   2.301
13454TIP3   OH240304   5.128   0.043   3.444
13454TIP3    H140305   5.161   0.120   3.491
13454TIP3    H240306   5.081  -0.008   3.510
13455TIP3   OH240307   2.257   4.823   1.053
13455TIP3    H140308   2.270   4.823   1.147
13455TIP3    H240309   2.344   4.802   1.017
13456TIP3   OH240310   3.549   7.214   2.566
13456TIP3    H140311   3.584   7.281   2.623
13456TIP3    H240312   3.624   7.157   2.547
13457TIP3   OH240313   1.749   0.622   4.013
13457TIP3    H140314   1.703   0.640   4.095
13457TIP3    H240315   1.689   0.568   3.962
13458TIP3   OH240316   2.833   2.833   1.435
13458TIP3    H140317   2.897   2.896   1.468
13458TIP3    H240318   2.752   2.854   1.481
13459TIP3   OH240319   6.413   1.659   2.180
13459TIP3    H140320   6.508   1.642   2.184
13459TIP3    H240321   6.404   1.750   2.205
13460TIP3   OH240322   5.056   7.704   5.858
13460TIP3    H140323   4.985   7.684   5.919
13460TIP3    H240324   5.112   7.765   5.906
13461TIP3   OH240325   7.448   0.852   0.597
13461TIP3    H140326   7.418   0.840   0.507
13461TIP3    H240327   7.411   0.936   0.623
13462TIP3   OH240328   5.630   2.007   2.864
13462TIP3    H140329   5.599   1.935   2.918
13462TIP3    H240330   5.726   2.001   2.869
13463TIP3   OH240331   7.841   1.205   4.896
13463TIP3    H140332   7.936   1.191   4.901
13463TIP3    H240333   7.816   1.236   4.983
13464TIP3   OH240334   6.110   6.094   4.282
13464TIP3    H140335   6.072   6.007   4.296
13464TIP3    H240336   6.127   6.097   4.188
13465TIP3   OH240337   4.249   7.059   5.245
13465TIP3    H140338   4.216   7.139   5.287
13465TIP3    H240339   4.199   6.988   5.286
13466TIP3   OH240340   6.148   6.425   0.152
13466TIP3    H140341   6.215   6.357   0.153
13466TIP3    H240342   6.066   6.379   0.169
13467TIP3   OH240343   1.693   7.778   6.270
13467TIP3    H140344   1.597   7.779   6.275
13467TIP3    H240345   1.713   7.846   6.205
13468TIP3   OH240346   4.858   2.847   3.391
13468TIP3    H140347   4.950   2.823   3.393
13468TIP3    H240348   4.844   2.898   3.470
13469TIP3   OH240349   5.629   1.460   0.601
13469TIP3    H140350   5.697   1.524   0.624
13469TIP3    H240351   5.677   1.378   0.586
13470TIP3   OH240352   1.265   6.394   0.708
13470TIP3    H140353   1.307   6.379   0.793
13470TIP3    H240354   1.244   6.306   0.676
13471TIP3   OH240355   2.704   7.753   1.009
13471TIP3    H140356   2.774   7.759   0.944
13471TIP3    H240357   2.628   7.722   0.960
13472TIP3   OH240358   4.254   7.777   3.740
13472TIP3    H140359   4.333   7.805   3.786
13472TIP3    H240360   4.182   7.813   3.791
13473TIP3   OH240361   5.618   0.231   0.051
13473TIP3    H140362   5.663   0.256   0.132
13473TIP3    H240363   5.588   0.313   0.014
13474TIP3   OH240364   6.891   0.236   0.065
13474TIP3    H140365   6.865   0.217   0.155
13474TIP3    H240366   6.985   0.254   0.070
13475TIP3   OH240367   7.105   4.376   5.065
13475TIP3    H140368   7.047   4.319   5.114
13475TIP3    H240369   7.088   4.463   5.099
13476TIP3   OH240370   4.280   3.031   2.590
13476TIP3    H140371   4.207   2.969   2.592
13476TIP3    H240372   4.341   2.998   2.655
13477TIP3   OH240373   2.673   3.053   2.425
13477TIP3    H140374   2.690   2.993   2.498
13477TIP3    H240375   2.740   3.121   2.434
13478TIP3   OH240376   7.575   2.553   4.984
13478TIP3    H140377   7.553   2.514   5.069
13478TIP3    H240378   7.520   2.632   4.979
13479TIP3   OH240379   3.744   2.046   4.209
13479TIP3    H140380   3.821   2.085   4.169
13479TIP3    H240381   3.730   1.965   4.160
13480TIP3   OH240382   2.768   6.624   4.074
13480TIP3    H140383   2.839   6.680   4.105
13480TIP3    H240384   2.691   6.654   4.123
13481TIP3   OH240385   7.405   0.232   6.054
13481TIP3    H140386   7.362   0.196   5.977
13481TIP3    H240387   7.433   0.320   6.027
13482TIP3   OH240388   7.922   4.500   0.492
13482TIP3    H140389   7.934   4.562   0.564
13482TIP3    H240390   7.912   4.415   0.536
13483TIP3   OH240391   0.813   4.603   4.462
13483TIP3    H140392   0.798   4.684   4.510
13483TIP3    H240393   0.810   4.535   4.530
13484TIP3   OH240394   3.108   1.392   0.904
13484TIP3    H140395   3.058   1.396   0.823
13484TIP3    H240396   3.198   1.372   0.876
13485TIP3   OH240397   2.094   6.640   5.457
13485TIP3    H140398   2.141   6.722   5.475
13485TIP3    H240399   2.151   6.572   5.493
13486TIP3   OH240400   1.713   6.073   0.739
13486TIP3    H140401   1.786   6.048   0.682
13486TIP3    H240402   1.681   6.155   0.701
13487TIP3   OH240403   0.641   5.469   1.581
13487TIP3    H140404   0.597   5.400   1.630
13487TIP3    H240405   0.701   5.423   1.523
13488TIP3   OH240406   2.661   1.762   0.342
13488TIP3    H140407   2.571   1.753   0.310
13488TIP3    H240408   2.659   1.840   0.398
13489TIP3   OH240409   0.207   7.395   3.402
13489TIP3    H140410   0.192   7.459   3.332
13489TIP3    H240411   0.166   7.315   3.371
13490TIP3   OH240412   5.177   3.771   4.734
13490TIP3    H140413   5.209   3.861   4.741
13490TIP3    H240414   5.251   3.717   4.761
13491TIP3   OH240415   3.565   1.647   2.547
13491TIP3    H140416   3.547   1.658   2.454
13491TIP3    H240417   3.534   1.559   2.568
13492TIP3   OH240418   0.862   3.469   2.490
13492TIP3    H140419   0.857   3.445   2.582
13492TIP3    H240420   0.796   3.415   2.447
13493TIP3   OH240421   5.547   2.246   4.364
13493TIP3    H140422   5.486   2.252   4.438
13493TIP3    H240423   5.490   2.247   4.287
13494TIP3   OH240424   8.111   3.329   2.907
13494TIP3    H140425   8.084   3.287   2.825
13494TIP3    H240426   8.053   3.404   2.916
13495TIP3   OH240427   5.601   4.260   2.723
13495TIP3    H140428   5.625   4.216   2.641
13495TIP3    H240429   5.647   4.344   2.719
13496TIP3   OH240430   0.208   0.997   4.699
13496TIP3    H140431   0.256   0.986   4.617
13496TIP3    H240432   0.276   1.013   4.765
13497TIP3   OH240433   1.159   2.941   4.766
13497TIP3    H140434   1.251   2.958   4.749
13497TIP3    H240435   1.154   2.927   4.860
13498TIP3   OH240436   7.739   3.897   4.961
13498TIP3    H140437   7.715   3.962   4.894
13498TIP3    H240438   7.800   3.838   4.916
13499TIP3   OH240439   3.895   3.689   0.526
13499TIP3    H140440   3.814   3.678   0.575
13499TIP3    H240441   3.910   3.783   0.524
13500TIP3   OH240442   8.176   6.308   4.241
13500TIP3    H140443   8.240   6.373   4.211
13500TIP3    H240444   8.151   6.338   4.329
13501TIP3   OH240445   2.728   3.895   3.990
13501TIP3    H140446   2.756   3.827   4.051
13501TIP3    H240447   2.804   3.911   3.935
13502TIP3   OH240448   6.092   7.314   3.664
13502TIP3    H140449   6.163   7.362   3.706
13502TIP3    H240450   6.110   7.222   3.686
13503TIP3   OH240451   4.847   5.283   2.209
13503TIP3    H140452   4.879   5.224   2.142
13503TIP3    H240453   4.903   5.266   2.285
13504TIP3   OH240454   7.820   5.801   3.518
13504TIP3    H140455   7.843   5.712   3.490
13504TIP3    H240456   7.905   5.847   3.522
13505TIP3   OH240457   3.281   7.242   0.188
13505TIP3    H140458   3.215   7.177   0.214
13505TIP3    H240459   3.243   7.326   0.214
13506TIP3   OH240460   8.022   0.366   0.420
13506TIP3    H140461   8.036   0.313   0.499
13506TIP3    H240462   8.074   0.445   0.435
13507TIP3   OH240463   5.285   3.489   5.850
13507TIP3    H140464   5.324   3.505   5.936
13507TIP3    H240465   5.347   3.529   5.788
13508TIP3   OH240466   2.517   4.439   4.438
13508TIP3    H140467   2.596   4.411   4.486
13508TIP3    H240468   2.457   4.366   4.447
13509TIP3   OH240469   3.383   0.031   2.448
13509TIP3    H140470   3.336   0.070   2.522
13509TIP3    H240471   3.466   0.077   2.445
13510TIP3   OH240472   3.704   6.157   5.910
13510TIP3    H140473   3.711   6.066   5.882
13510TIP3    H240474   3.701   6.153   6.005
13511TIP3   OH240475   3.039   0.953   4.712
13511TIP3    H140476   3.084   0.918   4.635
13511TIP3    H240477   3.046   0.883   4.777
13512TIP3   OH240478   3.537   1.144   1.163
13512TIP3    H140479   3.489   1.082   1.218
13512TIP3    H240480   3.471   1.185   1.107
13513TIP3   OH240481   1.462   5.242   5.435
13513TIP3    H140482   1.484   5.204   5.520
13513TIP3    H240483   1.406   5.177   5.393
13514TIP3   OH240484   1.098   5.806   2.346
13514TIP3    H140485   1.013   5.837   2.377
13514TIP3    H240486   1.149   5.794   2.426
13515TIP3   OH240487   4.301   1.681   0.039
13515TIP3    H140488   4.253   1.651  -0.038
13515TIP3    H240489   4.334   1.768   0.015
13516TIP3   OH240490   6.519   0.405   3.957
13516TIP3    H140491   6.445   0.388   4.015
13516TIP3    H240492   6.563   0.321   3.948
13517TIP3   OH240493   7.759   5.134   3.688
13517TIP3    H140494   7.729   5.061   3.634
13517TIP3    H240495   7.854   5.123   3.693
13518TIP3   OH240496   3.736   0.720   6.524
13518TIP3    H140497   3.769   0.647   6.577
13518TIP3    H240498   3.769   0.798   6.569
13519TIP3   OH240499   7.846   2.318   6.082
13519TIP3    H140500   7.900   2.385   6.124
13519TIP3    H240501   7.777   2.367   6.037
13520TIP3   OH240502   4.886   5.605   4.572
13520TIP3    H140503   4.792   5.587   4.579
13520TIP3    H240504   4.913   5.566   4.490
13521TIP3   OH240505   3.780   4.076   0.916
13521TIP3    H140506   3.825   4.103   0.995
13521TIP3    H240507   3.735   3.995   0.940
13522TIP3   OH240508   1.574   4.777   6.219
13522TIP3    H140509   1.535   4.863   6.203
13522TIP3    H240510   1.533   4.720   6.154
13523TIP3   OH240511   6.030   2.261   6.230
13523TIP3    H140512   6.118   2.226   6.214
13523TIP3    H240513   6.008   2.232   6.318
13524TIP3   OH240514   2.692   0.496   3.461
13524TIP3    H140515   2.768   0.554   3.462
13524TIP3    H240516   2.617   0.555   3.458
13525TIP3   OH240517   3.082   3.367   2.108
13525TIP3    H140518   3.063   3.314   2.186
13525TIP3    H240519   3.082   3.458   2.140
13526TIP3   OH240520   5.785   0.455   1.456
13526TIP3    H140521   5.785   0.536   1.406
13526TIP3    H240522   5.801   0.387   1.391
13527TIP3   OH240523   4.390   4.534   2.779
13527TIP3    H140524   4.328   4.586   2.728
13527TIP3    H240525   4.467   4.527   2.722
13528TIP3   OH240526   6.503   7.025   4.422
13528TIP3    H140527   6.435   7.013   4.355
13528TIP3    H240528   6.550   7.104   4.394
13529TIP3   OH240529   7.381   2.608   2.556
13529TIP3    H140530   7.357   2.658   2.634
13529TIP3    H240531   7.298   2.586   2.515
13530TIP3   OH240532   2.222   2.947   5.301
13530TIP3    H140533   2.167   3.011   5.346
13530TIP3    H240534   2.297   2.935   5.360
13531TIP3   OH240535   2.193   3.434   1.221
13531TIP3    H140536   2.204   3.522   1.184
13531TIP3    H240537   2.278   3.392   1.208
13532TIP3   OH240538   1.556   0.935   1.313
13532TIP3    H140539   1.474   0.974   1.282
13532TIP3    H240540   1.529   0.867   1.374
13533TIP3   OH240541   7.772   5.435   3.819
13533TIP3    H140542   7.764   5.351   3.772
13533TIP3    H240543   7.709   5.492   3.776
13534TIP3   OH240544   0.957   1.851   4.133
13534TIP3    H140545   0.915   1.928   4.094
13534TIP3    H240546   0.903   1.778   4.105
13535TIP3   OH240547   1.002   6.406   4.408
13535TIP3    H140548   0.995   6.498   4.432
13535TIP3    H240549   1.070   6.371   4.466
13536TIP3   OH240550   3.490   5.800   5.343
13536TIP3    H140551   3.512   5.891   5.360
13536TIP3    H240552   3.528   5.752   5.417
13537TIP3   OH240553   4.613   5.291   4.612
13537TIP3    H140554   4.674   5.219   4.628
13537TIP3    H240555   4.538   5.251   4.569
13538TIP3   OH240556   6.446   7.598   4.004
13538TIP3    H140557   6.365   7.645   3.988
13538TIP3    H240558   6.486   7.589   3.918
13539TIP3   OH240559   7.484   2.972   3.277
13539TIP3    H140560   7.529   3.054   3.261
13539TIP3    H240561   7.440   2.952   3.195
13540TIP3   OH240562   6.058   3.055   4.604
13540TIP3    H140563   6.011   2.972   4.610
13540TIP3    H240564   6.058   3.076   4.511
13541TIP3   OH240565   1.208   4.046   4.523
13541TIP3    H140566   1.180   3.977   4.583
13541TIP3    H240567   1.264   4.002   4.460
13542TIP3   OH240568   0.010   0.770   5.505
13542TIP3    H140569   0.040   0.716   5.432
13542TIP3    H240570   0.013   0.712   5.581
13543TIP3   OH240571   6.436   4.977   0.872
13543TIP3    H140572   6.358   5.031   0.885
13543TIP3    H240573   6.424   4.938   0.786
13544TIP3   OH240574   6.128   1.774   6.660
13544TIP3    H140575   6.119   1.854   6.607
13544TIP3    H240576   6.174   1.713   6.603
13545TIP3   OH240577   6.853   7.501   1.054
13545TIP3    H140578   6.804   7.493   0.972
13545TIP3    H240579   6.809   7.441   1.114
13546TIP3   OH240580   1.836   5.703   0.277
13546TIP3    H140581   1.794   5.698   0.363
13546TIP3    H240582   1.864   5.794   0.269
13547TIP3   OH240583   6.973   5.528   0.723
13547TIP3    H140584   6.927   5.542   0.640
13547TIP3    H240585   6.935   5.592   0.783
13548TIP3   OH240586   2.288   5.233   4.962
13548TIP3    H140587   2.364   5.226   5.019
13548TIP3    H240588   2.324   5.250   4.875
13549TIP3   OH240589   4.875   3.296   1.551
13549TIP3    H140590   4.913   3.212   1.577
13549TIP3    H240591   4.946   3.340   1.503
13550TIP3   OH240592   3.452   2.101   3.713
13550TIP3    H140593   3.454   2.197   3.714
13550TIP3    H240594   3.545   2.076   3.711
13551TIP3   OH240595   1.460   6.439   0.116
13551TIP3    H140596   1.452   6.492   0.196
13551TIP3    H240597   1.553   6.444   0.093
13552TIP3   OH240598   2.901   4.272   5.761
13552TIP3    H140599   2.926   4.269   5.668
13552TIP3    H240600   2.808   4.294   5.760
13553TIP3   OH240601   3.813   7.067   0.208
13553TIP3    H140602   3.771   6.982   0.213
13553TIP3    H240603   3.844   7.084   0.297
13554TIP3   OH240604   4.083   5.448   6.740
13554TIP3    H140605   4.072   5.354   6.754
13554TIP3    H240606   4.178   5.462   6.743
13555TIP3   OH240607   6.346   6.965   0.830
13555TIP3    H140608   6.374   6.896   0.890
13555TIP3    H240609   6.297   6.920   0.762
13556TIP3   OH240610   0.055   3.240   4.025
13556TIP3    H140611   0.150   3.230   4.026
13556TIP3    H240612   0.025   3.182   3.955
13557TIP3   OH240613   0.785   0.663   0.715
13557TIP3    H140614   0.849   0.619   0.658
13557TIP3    H240615   0.741   0.591   0.760
13558TIP3   OH240616   0.464   6.872   4.596
13558TIP3    H140617   0.408   6.898   4.523
13558TIP3    H240618   0.450   6.778   4.605
13559TIP3   OH240619   2.622   2.514   0.520
13559TIP3    H140620   2.717   2.502   0.516
13559TIP3    H240621   2.603   2.578   0.452
13560TIP3   OH240622   1.416   1.594   2.687
13560TIP3    H140623   1.424   1.597   2.592
13560TIP3    H240624   1.506   1.598   2.719
13561TIP3   OH240625   5.617   3.649   0.515
13561TIP3    H140626   5.543   3.709   0.523
13561TIP3    H240627   5.693   3.706   0.504
13562TIP3   OH240628   6.088   7.335   6.174
13562TIP3    H140629   6.119   7.303   6.089
13562TIP3    H240630   6.003   7.292   6.186
13563TIP3   OH240631   7.723   0.475   1.867
13563TIP3    H140632   7.799   0.438   1.913
13563TIP3    H240633   7.755   0.557   1.829
13564TIP3   OH240634   4.947   2.616   2.401
13564TIP3    H140635   5.029   2.654   2.432
13564TIP3    H240636   4.882   2.645   2.465
13565TIP3   OH240637   4.003   3.086   1.676
13565TIP3    H140638   3.912   3.063   1.656
13565TIP3    H240639   4.013   3.175   1.643
13566TIP3   OH240640   3.577   1.425   4.805
13566TIP3    H140641   3.532   1.479   4.740
13566TIP3    H240642   3.535   1.448   4.888
13567TIP3   OH240643   0.245   3.853   5.646
13567TIP3    H140644   0.248   3.937   5.693
13567TIP3    H240645   0.236   3.878   5.554
13568TIP3   OH240646   5.847   7.309   3.574
13568TIP3    H140647   5.820   7.218   3.560
13568TIP3    H240648   5.942   7.303   3.589
13569TIP3   OH240649   6.567   4.163   4.791
13569TIP3    H140650   6.563   4.068   4.805
13569TIP3    H240651   6.644   4.175   4.734
13570TIP3   OH240652   6.224   7.586   4.524
13570TIP3    H140653   6.208   7.660   4.583
13570TIP3    H240654   6.199   7.618   4.438
13571TIP3   OH240655   0.564   3.532   4.372
13571TIP3    H140656   0.505   3.479   4.318
13571TIP3    H240657   0.584   3.476   4.447
13572TIP3   OH240658   7.223   2.397   1.789
13572TIP3    H140659   7.254   2.453   1.718
13572TIP3    H240660   7.289   2.328   1.795
13573TIP3   OH240661   2.394   4.592   6.573
13573TIP3    H140662   2.480   4.556   6.551
13573TIP3    H240663   2.404   4.625   6.662
13574TIP3   OH240664   2.599   5.894   2.992
13574TIP3    H140665   2.634   5.953   3.059
13574TIP3    H240666   2.671   5.834   2.973
13575TIP3   OH240667   1.505   3.617   5.735
13575TIP3    H140668   1.448   3.689   5.764
13575TIP3    H240669   1.593   3.652   5.742
13576TIP3   OH240670   0.267   4.483   3.878
13576TIP3    H140671   0.302   4.411   3.826
13576TIP3    H240672   0.181   4.501   3.839
13577TIP3   OH240673   6.834   0.128   3.869
13577TIP3    H140674   6.841   0.218   3.838
13577TIP3    H240675   6.742   0.116   3.890
13578TIP3   OH240676   6.796   3.562   1.726
13578TIP3    H140677   6.711   3.536   1.691
13578TIP3    H240678   6.818   3.642   1.680
13579TIP3   OH240679   4.317   2.398   0.850
13579TIP3    H140680   4.286   2.483   0.819
13579TIP3    H240681   4.282   2.391   0.939
13580TIP3   OH240682   4.124   7.031   1.994
13580TIP3    H140683   4.060   7.011   2.062
13580TIP3    H240684   4.191   6.963   2.003
13581TIP3   OH240685   6.544   7.237   4.926
13581TIP3    H140686   6.481   7.309   4.920
13581TIP3    H240687   6.550   7.204   4.837
13582TIP3   OH240688   2.936   7.134   3.805
13582TIP3    H140689   2.989   7.058   3.829
13582TIP3    H240690   2.901   7.165   3.888
13583TIP3   OH240691   7.151   0.710   3.874
13583TIP3    H140692   7.088   0.687   3.806
13583TIP3    H240693   7.100   0.713   3.954
13584TIP3   OH240694   0.737   3.378   4.901
13584TIP3    H140695   0.827   3.345   4.902
13584TIP3    H240696   0.696   3.337   4.977
13585TIP3   OH240697   6.388   7.021   0.258
13585TIP3    H140698   6.450   7.061   0.318
13585TIP3    H240699   6.322   6.981   0.315
13586TIP3   OH240700   2.612   3.113   3.548
13586TIP3    H140701   2.685   3.097   3.489
13586TIP3    H240702   2.605   3.208   3.554
13587TIP3   OH240703   4.055   3.473   5.817
13587TIP3    H140704   4.048   3.380   5.800
13587TIP3    H240705   4.149   3.489   5.828
13588TIP3   OH240706   6.563   0.956   4.522
13588TIP3    H140707   6.580   0.988   4.611
13588TIP3    H240708   6.557   1.036   4.469
13589TIP3   OH240709   2.451   1.934   1.590
13589TIP3    H140710   2.500   1.972   1.516
13589TIP3    H240711   2.387   1.876   1.548
13590TIP3   OH240712   5.609   4.668   6.676
13590TIP3    H140713   5.537   4.626   6.723
13590TIP3    H240714   5.687   4.650   6.729
13591TIP3   OH240715   4.060   5.764   3.679
13591TIP3    H140716   4.132   5.802   3.731
13591TIP3    H240717   4.059   5.816   3.599
13592TIP3   OH240718   1.032   3.478   2.164
13592TIP3    H140719   0.979   3.556   2.177
13592TIP3    H240720   0.969   3.407   2.150
13593TIP3   OH240721   7.261   6.127   2.542
13593TIP3    H140722   7.297   6.216   2.543
13593TIP3    H240723   7.335   6.071   2.566
13594TIP3   OH240724   3.268   7.722   6.245
13594TIP3    H140725   3.293   7.666   6.319
13594TIP3    H240726   3.216   7.792   6.285
13595TIP3   OH240727   4.360   0.125   2.966
13595TIP3    H140728   4.408   0.192   2.917
13595TIP3    H240729   4.379   0.143   3.058
13596TIP3   OH240730   2.471   6.786   0.826
13596TIP3    H140731   2.490   6.702   0.785
13596TIP3    H240732   2.497   6.851   0.760
13597TIP3   OH240733   6.488   3.223   5.246
13597TIP3    H140734   6.413   3.165   5.235
13597TIP3    H240735   6.540   3.182   5.315
13598TIP3   OH240736   4.221   1.347   3.766
13598TIP3    H140737   4.275   1.403   3.821
13598TIP3    H240738   4.172   1.292   3.828
13599TIP3   OH240739   2.965   5.176   5.096
13599TIP3    H140740   2.953   5.229   5.175
13599TIP3    H240741   3.026   5.107   5.123
13600TIP3   OH240742   5.607   7.773   0.600
13600TIP3    H140743   5.674   7.723   0.554
13600TIP3    H240744   5.619   7.863   0.569
13601TIP3   OH240745   2.261   4.639   3.068
13601TIP3    H140746   2.314   4.611   2.992
13601TIP3    H240747   2.188   4.577   3.070
13602TIP3   OH240748   1.525   3.210   6.680
13602TIP3    H140749   1.482   3.244   6.602
13602TIP3    H240750   1.457   3.210   6.747
13603TIP3   OH240751   2.530   6.995   6.260
13603TIP3    H140752   2.474   7.055   6.310
13603TIP3    H240753   2.482   6.979   6.179
13604TIP3   OH240754   5.747   0.584   0.843
13604TIP3    H140755   5.760   0.571   0.749
13604TIP3    H240756   5.652   0.579   0.855
13605TIP3   OH240757   4.042   3.592   1.012
13605TIP3    H140758   4.109   3.598   1.080
13605TIP3    H240759   4.044   3.677   0.968
13606TIP3   OH240760   4.414   6.050   0.698
13606TIP3    H140761   4.403   5.997   0.777
13606TIP3    H240762   4.451   6.133   0.731
13607TIP3   OH240763   2.435   1.381   5.625
13607TIP3    H140764   2.426   1.405   5.533
13607TIP3    H240765   2.360   1.423   5.668
13608TIP3   OH240766   2.687   2.730   1.214
13608TIP3    H140767   2.735   2.736   1.131
13608TIP3    H240768   2.746   2.770   1.278
13609TIP3   OH240769   5.391   2.512   4.901
13609TIP3    H140770   5.372   2.477   4.814
13609TIP3    H240771   5.326   2.472   4.959
13610TIP3   OH240772   0.500   0.537   1.209
13610TIP3    H140773   0.565   0.526   1.140
13610TIP3    H240774   0.537   0.492   1.285
13611TIP3   OH240775   3.129   4.395   5.875
13611TIP3    H140776   3.176   4.319   5.909
13611TIP3    H240777   3.061   4.357   5.819
13612TIP3   OH240778   2.364   6.192   2.444
13612TIP3    H140779   2.448   6.146   2.446
13612TIP3    H240780   2.343   6.201   2.351
13613TIP3   OH240781   8.189   0.586   2.541
13613TIP3    H140782   8.170   0.579   2.634
13613TIP3    H240783   8.214   0.678   2.529
13614TIP3   OH240784   5.282   6.468   3.210
13614TIP3    H140785   5.232   6.390   3.187
13614TIP3    H240786   5.354   6.435   3.263
13615TIP3   OH240787   3.274   3.930   1.762
13615TIP3    H140788   3.274   3.932   1.858
13615TIP3    H240789   3.222   3.852   1.740
13616TIP3   OH240790   3.606   1.630   6.696
13616TIP3    H140791   3.543   1.580   6.748
13616TIP3    H240792   3.647   1.565   6.639
13617TIP3   OH240793   8.011   7.299   2.329
13617TIP3    H140794   7.933   7.255   2.363
13617TIP3    H240795   8.043   7.241   2.260
13618TIP3   OH240796   7.159   4.097   3.942
13618TIP3    H140797   7.109   4.020   3.918
13618TIP3    H240798   7.219   4.067   4.010
13619TIP3   OH240799   6.723   5.510   0.115
13619TIP3    H140800   6.707   5.564   0.037
13619TIP3    H240801   6.754   5.572   0.181
13620TIP3   OH240802   7.206   2.613   5.663
13620TIP3    H140803   7.161   2.698   5.658
13620TIP3    H240804   7.248   2.603   5.577
13621TIP3   OH240805   7.396   4.154   5.870
13621TIP3    H140806   7.456   4.170   5.797
13621TIP3    H240807   7.391   4.237   5.916
13622TIP3   OH240808   0.234   5.157   5.150
13622TIP3    H140809   0.193   5.118   5.227
13622TIP3    H240810   0.273   5.238   5.183
13623TIP3   OH240811   7.510   2.435   2.242
13623TIP3    H140812   7.573   2.497   2.205
13623TIP3    H240813   7.434   2.441   2.185
13624TIP3   OH240814   0.524   1.945   3.480
13624TIP3    H140815   0.474   2.020   3.511
13624TIP3    H240816   0.515   1.947   3.384
13625TIP3   OH240817   5.915   1.297   6.149
13625TIP3    H140818   5.936   1.211   6.114
13625TIP3    H240819   5.937   1.291   6.242
13626TIP3   OH240820   3.052   7.481   1.549
13626TIP3    H140821   3.136   7.436   1.555
13626TIP3    H240822   3.024   7.466   1.458
13627TIP3   OH240823   5.540   6.752   3.511
13627TIP3    H140824   5.463   6.796   3.476
13627TIP3    H240825   5.603   6.823   3.526
13628TIP3   OH240826   5.333   1.072   5.445
13628TIP3    H140827   5.322   1.140   5.511
13628TIP3    H240828   5.244   1.050   5.418
13629TIP3   OH240829   7.965   4.498   2.374
13629TIP3    H140830   8.038   4.554   2.402
13629TIP3    H240831   8.000   4.449   2.299
13630TIP3   OH240832   4.374   5.423   6.082
13630TIP3    H140833   4.312   5.461   6.021
13630TIP3    H240834   4.324   5.355   6.128
13631TIP3   OH240835   3.390   0.425   2.303
13631TIP3    H140836   3.476   0.412   2.342
13631TIP3    H240837   3.386   0.519   2.286
13632TIP3   OH240838   2.668   2.034   2.226
13632TIP3    H140839   2.591   1.992   2.188
13632TIP3    H240840   2.693   1.978   2.299
13633TIP3   OH240841   0.692   0.607   4.128
13633TIP3    H140842   0.602   0.618   4.099
13633TIP3    H240843   0.701   0.512   4.139
13634TIP3   OH240844   0.346   3.846   6.219
13634TIP3    H140845   0.363   3.931   6.259
13634TIP3    H240846   0.315   3.867   6.131
13635TIP3   OH240847   5.242   1.858   1.907
13635TIP3    H140848   5.239   1.880   1.814
13635TIP3    H240849   5.238   1.762   1.910
13636TIP3   OH240850   4.106   5.341   3.918
13636TIP3    H140851   4.095   5.277   3.848
13636TIP3    H240852   4.053   5.416   3.890
13637TIP3   OH240853   2.288   2.174   4.852
13637TIP3    H140854   2.241   2.249   4.816
13637TIP3    H240855   2.221   2.108   4.869
13638TIP3   OH240856   3.004   1.871   1.670
13638TIP3    H140857   3.017   1.923   1.591
13638TIP3    H240858   2.910   1.856   1.674
13639TIP3   OH240859   6.703   3.435   5.806
13639TIP3    H140860   6.678   3.522   5.836
13639TIP3    H240861   6.621   3.394   5.778
13640TIP3   OH240862   5.997   0.307   4.968
13640TIP3    H140863   6.043   0.355   5.037
13640TIP3    H240864   5.923   0.363   4.945
13641TIP3   OH240865   1.418   2.866   0.379
13641TIP3    H140866   1.430   2.772   0.393
13641TIP3    H240867   1.394   2.874   0.286
13642TIP3   OH240868   1.424   0.150   1.186
13642TIP3    H140869   1.467   0.201   1.118
13642TIP3    H240870   1.445   0.059   1.166
13643TIP3   OH240871   1.505   0.897   0.492
13643TIP3    H140872   1.559   0.847   0.554
13643TIP3    H240873   1.527   0.860   0.406
13644TIP3   OH240874   4.531   0.244   0.344
13644TIP3    H140875   4.586   0.321   0.330
13644TIP3    H240876   4.442   0.277   0.337
13645TIP3   OH240877   0.458   5.655   0.424
13645TIP3    H140878   0.489   5.604   0.498
13645TIP3    H240879   0.427   5.590   0.361
13646TIP3   OH240880   4.073   4.260   0.649
13646TIP3    H140881   4.164   4.263   0.619
13646TIP3    H240882   4.054   4.350   0.676
13647TIP3   OH240883   2.294   6.623   4.089
13647TIP3    H140884   2.245   6.704   4.074
13647TIP3    H240885   2.306   6.585   4.002
13648TIP3   OH240886   0.515   1.988   5.832
13648TIP3    H140887   0.488   1.954   5.747
13648TIP3    H240888   0.600   2.029   5.815
13649TIP3   OH240889   2.593   7.420   1.016
13649TIP3    H140890   2.539   7.483   0.967
13649TIP3    H240891   2.546   7.409   1.099
13650TIP3   OH240892   2.713   4.764   2.678
13650TIP3    H140893   2.699   4.790   2.587
13650TIP3    H240894   2.780   4.695   2.673
13651TIP3   OH240895   6.355   1.037   3.918
13651TIP3    H140896   6.286   1.026   3.983
13651TIP3    H240897   6.309   1.050   3.835
13652TIP3   OH240898   3.075   0.500   6.320
13652TIP3    H140899   2.987   0.537   6.314
13652TIP3    H240900   3.133   0.576   6.326
13653TIP3   OH240901   5.315   6.832   1.236
13653TIP3    H140902   5.257   6.885   1.290
13653TIP3    H240903   5.302   6.742   1.268
13654TIP3   OH240904   4.347   6.446   1.019
13654TIP3    H140905   4.308   6.415   0.938
13654TIP3    H240906   4.324   6.539   1.022
13655TIP3   OH240907   5.067   3.888   1.192
13655TIP3    H140908   4.999   3.884   1.125
13655TIP3    H240909   5.149   3.872   1.144
13656TIP3   OH240910   6.787   6.826   2.900
13656TIP3    H140911   6.734   6.821   2.820
13656TIP3    H240912   6.866   6.776   2.879
13657TIP3   OH240913   0.159   6.069   2.590
13657TIP3    H140914   0.221   6.016   2.540
13657TIP3    H240915   0.099   6.005   2.628
13658TIP3   OH240916   2.788   3.204   0.215
13658TIP3    H140917   2.768   3.268   0.284
13658TIP3    H240918   2.871   3.164   0.243
13659TIP3   OH240919   4.343   7.074   2.948
13659TIP3    H140920   4.332   6.987   2.909
13659TIP3    H240921   4.437   7.092   2.941
13660TIP3   OH240922   0.157   1.443   2.886
13660TIP3    H140923   0.214   1.368   2.902
13660TIP3    H240924   0.168   1.499   2.964
13661TIP3   OH240925   0.761   2.219   4.299
13661TIP3    H140926   0.730   2.216   4.389
13661TIP3    H240927   0.730   2.137   4.260
13662TIP3   OH240928   2.610   7.144   3.863
13662TIP3    H140929   2.601   7.070   3.922
13662TIP3    H240930   2.705   7.159   3.858
13663TIP3   OH240931   7.339   3.991   6.105
13663TIP3    H140932   7.259   4.035   6.136
13663TIP3    H240933   7.368   4.045   6.031
13664TIP3   OH240934   2.969   2.186   3.208
13664TIP3    H140935   2.917   2.216   3.283
13664TIP3    H240936   2.993   2.266   3.162
13665TIP3   OH240937   1.241   3.480   4.501
13665TIP3    H140938   1.218   3.489   4.594
13665TIP3    H240939   1.330   3.444   4.502
13666TIP3   OH240940   5.694   1.603   5.179
13666TIP3    H140941   5.707   1.555   5.097
13666TIP3    H240942   5.748   1.682   5.170
13667TIP3   OH240943   3.985   4.680   5.042
13667TIP3    H140944   3.947   4.763   5.015
13667TIP3    H240945   3.992   4.629   4.961
13668TIP3   OH240946   1.543   6.096   1.907
13668TIP3    H140947   1.566   6.003   1.910
13668TIP3    H240948   1.516   6.111   1.817
13669TIP3   OH240949   0.653   6.569   4.495
13669TIP3    H140950   0.660   6.665   4.488
13669TIP3    H240951   0.653   6.553   4.590
13670TIP3   OH240952   6.225   5.181   5.954
13670TIP3    H140953   6.233   5.130   5.874
13670TIP3    H240954   6.303   5.158   6.005
13671TIP3   OH240955   2.179   4.833   6.061
13671TIP3    H140956   2.270   4.806   6.062
13671TIP3    H240957   2.145   4.799   5.978
13672TIP3   OH240958   4.591   7.565   6.170
13672TIP3    H140959   4.525   7.630   6.197
13672TIP3    H240960   4.544   7.505   6.113
13673TIP3   OH240961   0.901   5.882   5.312
13673TIP3    H140962   0.966   5.865   5.243
13673TIP3    H240963   0.851   5.800   5.318
13674TIP3   OH240964   8.024   6.008   3.372
13674TIP3    H140965   8.051   5.916   3.372
13674TIP3    H240966   8.027   6.033   3.465
13675TIP3   OH240967   7.952   0.595   5.743
13675TIP3    H140968   7.890   0.584   5.671
13675TIP3    H240969   8.034   0.558   5.710
13676TIP3   OH240970   7.767   4.892   2.395
13676TIP3    H140971   7.826   4.949   2.346
13676TIP3    H240972   7.690   4.883   2.339
13677TIP3   OH240973   7.609   1.751   3.588
13677TIP3    H140974   7.627   1.658   3.604
13677TIP3    H240975   7.689   1.784   3.548
13678TIP3   OH240976   6.861   5.681   6.037
13678TIP3    H140977   6.911   5.751   5.995
13678TIP3    H240978   6.926   5.613   6.055
13679TIP3   OH240979   7.430   5.439   5.775
13679TIP3    H140980   7.517   5.476   5.760
13679TIP3    H240981   7.387   5.502   5.833
13680TIP3   OH240982   1.753   6.833   4.111
13680TIP3    H140983   1.743   6.878   4.027
13680TIP3    H240984   1.669   6.791   4.126
13681TIP3   OH240985   1.643   4.304   3.790
13681TIP3    H140986   1.581   4.273   3.724
13681TIP3    H240987   1.599   4.289   3.874
13682TIP3   OH240988   2.446   3.445   6.690
13682TIP3    H140989   2.538   3.422   6.690
13682TIP3    H240990   2.437   3.508   6.761
13683TIP3   OH240991   4.688   1.469   1.994
13683TIP3    H140992   4.700   1.460   1.899
13683TIP3    H240993   4.593   1.461   2.007
13684TIP3   OH240994   4.065   1.040   6.085
13684TIP3    H140995   4.040   1.081   6.002
13684TIP3    H240996   4.060   1.111   6.149
13685TIP3   OH240997   1.489   2.363   3.282
13685TIP3    H140998   1.500   2.425   3.353
13685TIP3    H240999   1.543   2.288   3.306
13686TIP3   OH241000   4.244   5.418   5.539
13686TIP3    H141001   4.168   5.376   5.499
13686TIP3    H241002   4.318   5.367   5.508
13687TIP3   OH241003   6.751   2.024   5.670
13687TIP3    H141004   6.839   2.061   5.674
13687TIP3    H241005   6.750   1.975   5.587
13688TIP3   OH241006   5.145   2.880   2.143
13688TIP3    H141007   5.236   2.851   2.141
13688TIP3    H241008   5.131   2.921   2.058
13689TIP3   OH241009   2.450   1.290   4.961
13689TIP3    H141010   2.454   1.196   4.945
13689TIP3    H241011   2.415   1.326   4.879
13690TIP3   OH241012   7.051   3.496   3.844
13690TIP3    H141013   7.034   3.552   3.919
13690TIP3    H241014   6.970   3.498   3.793
13691TIP3   OH241015   0.701   5.661   0.946
13691TIP3    H141016   0.654   5.698   0.872
13691TIP3    H241017   0.636   5.655   1.016
13692TIP3   OH241018   3.749   2.510   3.153
13692TIP3    H141019   3.807   2.452   3.203
13692TIP3    H241020   3.785   2.509   3.065
13693TIP3   OH241021   1.822   5.814   5.429
13693TIP3    H141022   1.821   5.893   5.375
13693TIP3    H241023   1.839   5.743   5.367
13694TIP3   OH241024   0.974   3.730   3.365
13694TIP3    H141025   1.038   3.671   3.325
13694TIP3    H241026   0.997   3.731   3.458
13695TIP3   OH241027   5.371   3.239   0.659
13695TIP3    H141028   5.420   3.273   0.584
13695TIP3    H241029   5.424   3.166   0.691
13696TIP3   OH241030   7.892   1.548   5.593
13696TIP3    H141031   7.873   1.493   5.517
13696TIP3    H241032   7.928   1.487   5.658
13697TIP3   OH241033   7.812   2.720   4.938
13697TIP3    H141034   7.799   2.626   4.951
13697TIP3    H241035   7.788   2.760   5.022
13698TIP3   OH241036   3.627   0.598   6.291
13698TIP3    H141037   3.597   0.654   6.219
13698TIP3    H241038   3.663   0.659   6.355
13699TIP3   OH241039   3.075   1.472   6.729
13699TIP3    H141040   3.037   1.528   6.796
13699TIP3    H241041   3.040   1.506   6.646
13700TIP3   OH241042   4.025   7.581   6.451
13700TIP3    H141043   4.090   7.522   6.412
13700TIP3    H241044   4.031   7.661   6.399
13701TIP3   OH241045   6.161   1.323   4.669
13701TIP3    H141046   6.172   1.370   4.752
13701TIP3    H241047   6.248   1.323   4.629
13702TIP3   OH241048   7.480   1.967   5.469
13702TIP3    H141049   7.389   1.940   5.457
13702TIP3    H241050   7.505   1.930   5.554
13703TIP3   OH241051   6.595   1.910   3.335
13703TIP3    H141052   6.654   1.985   3.341
13703TIP3    H241053   6.514   1.939   3.377
13704TIP3   OH241054   4.115   4.206   6.267
13704TIP3    H141055   4.155   4.212   6.180
13704TIP3    H241056   4.181   4.244   6.326
13705TIP3   OH241057   4.130   2.698   2.398
13705TIP3    H141058   4.038   2.675   2.400
13705TIP3    H241059   4.132   2.786   2.360
13706TIP3   OH241060   8.011   3.519   2.377
13706TIP3    H141061   7.948   3.587   2.400
13706TIP3    H241062   7.976   3.440   2.420
13707TIP3   OH241063   4.186   6.542   5.754
13707TIP3    H141064   4.182   6.520   5.660
13707TIP3    H241065   4.251   6.482   5.790
13708TIP3   OH241066   5.077   6.076   2.936
13708TIP3    H141067   5.062   6.048   3.026
13708TIP3    H241068   5.046   6.166   2.933
13709TIP3   OH241069   4.878   7.253   0.592
13709TIP3    H141070   4.969   7.232   0.571
13709TIP3    H241071   4.861   7.336   0.547
13710TIP3   OH241072   4.493   5.304   1.493
13710TIP3    H141073   4.432   5.251   1.442
13710TIP3    H241074   4.472   5.394   1.470
13711TIP3   OH241075   5.949   6.766   2.470
13711TIP3    H141076   5.877   6.745   2.528
13711TIP3    H241077   5.948   6.696   2.404
13712TIP3   OH241078   6.040   0.633   6.526
13712TIP3    H141079   6.115   0.580   6.550
13712TIP3    H241080   5.974   0.570   6.498
13713TIP3   OH241081   6.916   1.219   0.270
13713TIP3    H141082   6.944   1.309   0.252
13713TIP3    H241083   6.861   1.227   0.349
13714TIP3   OH241084   7.012   4.895   3.952
13714TIP3    H141085   7.096   4.923   3.989
13714TIP3    H241086   6.955   4.970   3.967
13715TIP3   OH241087   4.865   0.307   3.255
13715TIP3    H141088   4.823   0.373   3.200
13715TIP3    H241089   4.894   0.355   3.333
13716TIP3   OH241090   7.534   7.173   0.389
13716TIP3    H141091   7.517   7.177   0.483
13716TIP3    H241092   7.507   7.085   0.363
13717TIP3   OH241093   6.233   7.747   2.417
13717TIP3    H141094   6.327   7.727   2.410
13717TIP3    H241095   6.224   7.833   2.374
13718TIP3   OH241096   2.433   3.294   2.510
13718TIP3    H141097   2.495   3.243   2.457
13718TIP3    H241098   2.349   3.250   2.498
13719TIP3   OH241099   2.000   5.205   1.637
13719TIP3    H141100   2.078   5.258   1.653
13719TIP3    H241101   1.946   5.216   1.715
13720TIP3   OH241102   3.359   5.183   4.098
13720TIP3    H141103   3.440   5.205   4.143
13720TIP3    H241104   3.378   5.101   4.052
13721TIP3   OH241105   4.976   3.162   5.177
13721TIP3    H141106   5.052   3.219   5.187
13721TIP3    H241107   4.901   3.221   5.175
13722TIP3   OH241108   2.089   4.733   4.521
13722TIP3    H141109   2.020   4.704   4.582
13722TIP3    H241110   2.098   4.826   4.537
13723TIP3   OH241111   7.775   6.456   2.011
13723TIP3    H141112   7.766   6.431   2.103
13723TIP3    H241113   7.801   6.375   1.967
13724TIP3   OH241114   5.758   4.938   4.290
13724TIP3    H141115   5.737   4.974   4.204
13724TIP3    H241116   5.726   4.848   4.287
13725TIP3   OH241117   6.331   6.694   4.929
13725TIP3    H141118   6.335   6.657   4.841
13725TIP3    H241119   6.314   6.619   4.985
13726TIP3   OH241120   7.658   0.058   3.416
13726TIP3    H141121   7.603   0.020   3.484
13726TIP3    H241122   7.620   0.144   3.399
13727TIP3   OH241123   6.809   4.347   0.903
13727TIP3    H141124   6.867   4.397   0.846
13727TIP3    H241125   6.745   4.411   0.934
13728TIP3   OH241126   1.574   5.046   3.213
13728TIP3    H141127   1.608   5.010   3.131
13728TIP3    H241128   1.492   4.998   3.228
13729TIP3   OH241129   4.993   6.926   4.701
13729TIP3    H141130   5.050   6.926   4.624
13729TIP3    H241131   4.941   7.006   4.692
13730TIP3   OH241132   0.779   2.701   4.972
13730TIP3    H141133   0.813   2.628   5.024
13730TIP3    H241134   0.736   2.659   4.897
13731TIP3   OH241135   5.172   3.098   4.630
13731TIP3    H141136   5.187   3.066   4.719
13731TIP3    H241137   5.077   3.096   4.620
13732TIP3   OH241138   3.220   5.326   0.064
13732TIP3    H141139   3.131   5.307   0.037
13732TIP3    H241140   3.213   5.404   0.120
13733TIP3   OH241141   5.618   7.612   2.714
13733TIP3    H141142   5.556   7.680   2.741
13733TIP3    H241143   5.562   7.540   2.685
13734TIP3   OH241144   7.724   0.479   0.377
13734TIP3    H141145   7.801   0.519   0.335
13734TIP3    H241146   7.754   0.391   0.402
13735TIP3   OH241147   3.463   5.178   5.719
13735TIP3    H141148   3.431   5.147   5.634
13735TIP3    H241149   3.435   5.110   5.781
13736TIP3   OH241150   5.075   7.228   1.856
13736TIP3    H141151   5.037   7.186   1.779
13736TIP3    H241152   5.016   7.301   1.875
13737TIP3   OH241153   2.013   4.236   3.194
13737TIP3    H141154   2.096   4.226   3.242
13737TIP3    H241155   2.018   4.172   3.123
13738TIP3   OH241156   8.056   5.993   5.793
13738TIP3    H141157   8.106   5.970   5.715
13738TIP3    H241158   8.039   5.909   5.837
13739TIP3   OH241159   0.966   2.125   0.999
13739TIP3    H141160   0.967   2.217   1.025
13739TIP3    H241161   0.912   2.081   1.064
13740TIP3   OH241162   7.560   1.183   3.044
13740TIP3    H141163   7.567   1.150   2.955
13740TIP3    H241164   7.595   1.112   3.099
13741TIP3   OH241165   4.176   0.013   1.749
13741TIP3    H141166   4.221   0.094   1.725
13741TIP3    H241167   4.243  -0.039   1.793
13742TIP3   OH241168   7.601   5.826   0.607
13742TIP3    H141169   7.693   5.845   0.589
13742TIP3    H241170   7.603   5.748   0.662
13743TIP3   OH241171   3.105   4.715   1.746
13743TIP3    H141172   3.061   4.797   1.767
13743TIP3    H241173   3.158   4.735   1.668
13744TIP3   OH241174   3.782   1.988   3.009
13744TIP3    H141175   3.857   2.021   2.960
13744TIP3    H241176   3.809   1.991   3.101
13745TIP3   OH241177   5.163   6.770   0.150
13745TIP3    H141178   5.090   6.749   0.207
13745TIP3    H241179   5.191   6.858   0.178
13746TIP3   OH241180   0.110   5.354   5.958
13746TIP3    H141181   0.111   5.307   5.875
13746TIP3    H241182   0.157   5.435   5.940
13747TIP3   OH241183   4.431   1.410   5.081
13747TIP3    H141184   4.368   1.477   5.105
13747TIP3    H241185   4.429   1.347   5.154
13748TIP3   OH241186   1.444   3.641   1.600
13748TIP3    H141187   1.451   3.637   1.504
13748TIP3    H241188   1.513   3.584   1.632
13749TIP3   OH241189   5.652   1.761   0.713
13749TIP3    H141190   5.713   1.811   0.769
13749TIP3    H241191   5.575   1.748   0.768
13750TIP3   OH241192   7.259   6.240   1.834
13750TIP3    H141193   7.274   6.246   1.740
13750TIP3    H241194   7.278   6.327   1.868
13751TIP3   OH241195   7.154   2.476   4.141
13751TIP3    H141196   7.225   2.532   4.173
13751TIP3    H241197   7.102   2.533   4.085
13752TIP3   OH241198   1.595   6.399   6.575
13752TIP3    H141199   1.667   6.349   6.612
13752TIP3    H241200   1.627   6.428   6.490
13753TIP3   OH241201   1.300   2.607   1.993
13753TIP3    H141202   1.367   2.600   2.061
13753TIP3    H241203   1.233   2.664   2.032
13754TIP3   OH241204   3.344   3.678   3.185
13754TIP3    H141205   3.382   3.757   3.224
13754TIP3    H241206   3.378   3.606   3.238
13755TIP3   OH241207   1.597   5.449   6.741
13755TIP3    H141208   1.623   5.539   6.717
13755TIP3    H241209   1.556   5.415   6.662
13756TIP3   OH241210   4.110   7.171   6.697
13756TIP3    H141211   4.057   7.247   6.677
13756TIP3    H241212   4.080   7.142   6.783
13757TIP3   OH241213   2.307   1.747   5.388
13757TIP3    H141214   2.278   1.758   5.479
13757TIP3    H241215   2.226   1.742   5.337
13758TIP3   OH241216   4.300   4.418   5.434
13758TIP3    H141217   4.319   4.445   5.344
13758TIP3    H241218   4.293   4.500   5.482
13759TIP3   OH241219   2.877   4.363   0.951
13759TIP3    H141220   2.788   4.327   0.945
13759TIP3    H241221   2.930   4.289   0.981
13760TIP3   OH241222   2.440   2.516   4.880
13760TIP3    H141223   2.471   2.436   4.839
13760TIP3    H241224   2.420   2.491   4.970
13761TIP3   OH241225   4.657   6.822   3.616
13761TIP3    H141226   4.700   6.769   3.549
13761TIP3    H241227   4.723   6.831   3.685
13762TIP3   OH241228   1.030   3.723   4.875
13762TIP3    H141229   1.061   3.638   4.845
13762TIP3    H241230   1.078   3.787   4.822
13763TIP3   OH241231   3.262   0.952   5.179
13763TIP3    H141232   3.174   0.924   5.206
13763TIP3    H241233   3.247   1.010   5.105
13764TIP3   OH241234   5.077   1.849   3.047
13764TIP3    H141235   5.114   1.798   3.119
13764TIP3    H241236   5.019   1.787   3.001
13765TIP3   OH241237   2.788   6.038   3.642
13765TIP3    H141238   2.746   5.959   3.675
13765TIP3    H241239   2.868   6.046   3.693
13766TIP3   OH241240   3.255   0.145   5.751
13766TIP3    H141241   3.248   0.054   5.781
13766TIP3    H241242   3.349   0.164   5.755
13767TIP3   OH241243   2.946   2.819   5.790
13767TIP3    H141244   2.869   2.808   5.845
13767TIP3    H241245   3.015   2.771   5.835
13768TIP3   OH241246   6.233   1.458   2.103
13768TIP3    H141247   6.274   1.513   2.171
13768TIP3    H241248   6.304   1.403   2.070
13769TIP3   OH241249   6.879   7.016   1.744
13769TIP3    H141250   6.907   6.928   1.768
13769TIP3    H241251   6.827   7.004   1.665
13770TIP3   OH241252   4.302   3.310   0.387
13770TIP3    H141253   4.283   3.218   0.368
13770TIP3    H241254   4.396   3.318   0.374
13771TIP3   OH241255   1.255   2.377   0.338
13771TIP3    H141256   1.221   2.291   0.312
13771TIP3    H241257   1.286   2.364   0.427
13772TIP3   OH241258   4.975   0.449   2.086
13772TIP3    H141259   5.012   0.408   2.007
13772TIP3    H241260   4.983   0.381   2.154
13773TIP3   OH241261   4.639   5.669   0.212
13773TIP3    H141262   4.589   5.750   0.202
13773TIP3    H241263   4.713   5.679   0.153
13774TIP3   OH241264   5.077   6.325   3.865
13774TIP3    H141265   5.131   6.251   3.893
13774TIP3    H241266   4.987   6.293   3.868
13775TIP3   OH241267   3.413   1.309   6.648
13775TIP3    H141268   3.361   1.389   6.647
13775TIP3    H241269   3.470   1.318   6.724
13776TIP3   OH241270   6.652   6.772   0.837
13776TIP3    H141271   6.633   6.815   0.754
13776TIP3    H241272   6.566   6.753   0.874
13777TIP3   OH241273   1.417   6.421   0.935
13777TIP3    H141274   1.433   6.473   1.014
13777TIP3    H241275   1.416   6.330   0.966
13778TIP3   OH241276   2.762   1.651   3.363
13778TIP3    H141277   2.683   1.673   3.412
13778TIP3    H241278   2.768   1.718   3.295
13779TIP3   OH241279   4.645   1.133   2.396
13779TIP3    H141280   4.627   1.210   2.342
13779TIP3    H241281   4.652   1.062   2.332
13780TIP3   OH241282   4.201   6.877   3.805
13780TIP3    H141283   4.232   6.960   3.843
13780TIP3    H241284   4.282   6.833   3.777
13781TIP3   OH241285   0.224   7.191   0.760
13781TIP3    H141286   0.169   7.231   0.692
13781TIP3    H241287   0.311   7.188   0.721
13782TIP3   OH241288   7.281   1.707   1.658
13782TIP3    H141289   7.231   1.626   1.647
13782TIP3    H241290   7.299   1.737   1.569
13783TIP3   OH241291   4.268   2.638   3.163
13783TIP3    H141292   4.191   2.658   3.111
13783TIP3    H241293   4.309   2.564   3.119
13784TIP3   OH241294   4.259   3.539   3.163
13784TIP3    H141295   4.323   3.597   3.205
13784TIP3    H241296   4.250   3.466   3.223
13785TIP3   OH241297   5.188   2.319   5.378
13785TIP3    H141298   5.184   2.226   5.357
13785TIP3    H241299   5.231   2.323   5.463
13786TIP3   OH241300   5.968   3.876   3.924
13786TIP3    H141301   6.018   3.941   3.972
13786TIP3    H241302   5.885   3.919   3.904
13787TIP3   OH241303   0.381   2.925   3.371
13787TIP3    H141304   0.310   2.964   3.321
13787TIP3    H241305   0.337   2.875   3.440
13788TIP3   OH241306   1.943   0.041   2.000
13788TIP3    H141307   1.920   0.127   2.037
13788TIP3    H241308   2.027   0.020   2.042
13789TIP3   OH241309   3.411   0.510   4.380
13789TIP3    H141310   3.347   0.453   4.421
13789TIP3    H241311   3.377   0.523   4.291
13790TIP3   OH241312   8.131   5.451   3.883
13790TIP3    H141313   8.198   5.512   3.913
13790TIP3    H241314   8.139   5.376   3.942
13791TIP3   OH241315   2.780   2.763   3.519
13791TIP3    H141316   2.792   2.789   3.428
13791TIP3    H241317   2.686   2.751   3.529
13792TIP3   OH241318   5.996   6.950   2.278
13792TIP3    H141319   6.091   6.954   2.284
13792TIP3    H241320   5.970   6.887   2.345
13793TIP3   OH241321   4.112   3.830   0.909
13793TIP3    H141322   4.083   3.882   0.984
13793TIP3    H241323   4.095   3.887   0.833
13794TIP3   OH241324   3.882   3.761   4.490
13794TIP3    H141325   3.914   3.671   4.494
13794TIP3    H241326   3.848   3.771   4.401
13795TIP3   OH241327   6.219   1.437   5.959
13795TIP3    H141328   6.138   1.464   6.004
13795TIP3    H241329   6.225   1.343   5.975
13796TIP3   OH241330   4.105   1.703   1.496
13796TIP3    H141331   4.148   1.626   1.458
13796TIP3    H241332   4.046   1.667   1.562
13797TIP3   OH241333   2.094   2.503   1.403
13797TIP3    H141334   2.056   2.415   1.415
13797TIP3    H241335   2.017   2.561   1.397
13798TIP3   OH241336   2.348   3.173   2.125
13798TIP3    H141337   2.341   3.107   2.055
13798TIP3    H241338   2.345   3.257   2.079
13799TIP3   OH241339   4.346   4.741   1.019
13799TIP3    H141340   4.368   4.651   0.995
13799TIP3    H241341   4.426   4.775   1.060
13800TIP3   OH241342   7.725   6.608   5.650
13800TIP3    H141343   7.790   6.600   5.581
13800TIP3    H241344   7.648   6.562   5.617
13801TIP3   OH241345   6.446   4.268   5.493
13801TIP3    H141346   6.462   4.221   5.575
13801TIP3    H241347   6.450   4.361   5.518
13802TIP3   OH241348   8.115   7.349   5.186
13802TIP3    H141349   8.122   7.254   5.196
13802TIP3    H241350   8.199   7.375   5.151
13803TIP3   OH241351   3.246   0.507   5.371
13803TIP3    H141352   3.276   0.420   5.397
13803TIP3    H241353   3.308   0.567   5.414
13804TIP3   OH241354   2.924   0.353   3.026
13804TIP3    H141355   2.939   0.318   3.114
13804TIP3    H241356   3.003   0.403   3.006
13805TIP3   OH241357   4.870   1.686   2.872
13805TIP3    H141358   4.920   1.620   2.921
13805TIP3    H241359   4.787   1.643   2.851
13806TIP3   OH241360   7.161   6.711   6.294
13806TIP3    H141361   7.079   6.743   6.331
13806TIP3    H241362   7.142   6.621   6.268
13807TIP3   OH241363   1.894   3.542   2.593
13807TIP3    H141364   1.845   3.556   2.511
13807TIP3    H241365   1.906   3.631   2.628
13808TIP3   OH241366   7.022   5.322   6.331
13808TIP3    H141367   7.036   5.255   6.264
13808TIP3    H241368   6.978   5.393   6.285
13809TIP3   OH241369   4.404   2.453   6.574
13809TIP3    H141370   4.457   2.486   6.647
13809TIP3    H241371   4.339   2.523   6.559
13810TIP3   OH241372   5.136   2.521   0.897
13810TIP3    H141373   5.131   2.465   0.819
13810TIP3    H241374   5.066   2.585   0.885
13811TIP3   OH241375   2.192   5.333   4.616
13811TIP3    H141376   2.158   5.410   4.662
13811TIP3    H241377   2.286   5.334   4.633
13812TIP3   OH241378   3.592   4.653   6.382
13812TIP3    H141379   3.559   4.627   6.296
13812TIP3    H241380   3.687   4.644   6.374
13813TIP3   OH241381   3.650   0.107   2.453
13813TIP3    H141382   3.672   0.058   2.373
13813TIP3    H241383   3.675   0.197   2.433
13814TIP3   OH241384   5.953   5.225   6.192
13814TIP3    H141385   5.864   5.195   6.172
13814TIP3    H241386   5.964   5.304   6.140
13815TIP3   OH241387   2.615   5.578   1.422
13815TIP3    H141388   2.617   5.622   1.337
13815TIP3    H241389   2.540   5.616   1.467
13816TIP3   OH241390   5.847   5.631   3.318
13816TIP3    H141391   5.934   5.603   3.345
13816TIP3    H241392   5.822   5.570   3.249
13817TIP3   OH241393   7.883   4.266   3.297
13817TIP3    H141394   7.943   4.198   3.265
13817TIP3    H241395   7.797   4.226   3.292
13818TIP3   OH241396   6.164   4.304   3.528
13818TIP3    H141397   6.093   4.257   3.486
13818TIP3    H241398   6.156   4.394   3.497
13819TIP3   OH241399   6.878   7.569   4.443
13819TIP3    H141400   6.827   7.641   4.407
13819TIP3    H241401   6.829   7.541   4.521
13820TIP3   OH241402   4.433   0.473   5.281
13820TIP3    H141403   4.487   0.549   5.259
13820TIP3    H241404   4.417   0.430   5.197
13821TIP3   OH241405   4.018   0.317   2.167
13821TIP3    H141406   4.073   0.238   2.165
13821TIP3    H241407   3.943   0.295   2.111
13822TIP3   OH241408   0.282   0.600   1.472
13822TIP3    H141409   0.199   0.589   1.426
13822TIP3    H241410   0.284   0.529   1.535
13823TIP3   OH241411   0.594   1.937   3.989
13823TIP3    H141412   0.551   1.854   4.007
13823TIP3    H241413   0.601   1.980   4.074
13824TIP3   OH241414   1.198   0.923   5.378
13824TIP3    H141415   1.269   0.921   5.313
13824TIP3    H241416   1.160   1.010   5.368
13825TIP3   OH241417   0.580   5.398   3.983
13825TIP3    H141418   0.539   5.319   4.020
13825TIP3    H241419   0.601   5.452   4.059
13826TIP3   OH241420   2.519   2.763   5.156
13826TIP3    H141421   2.496   2.852   5.182
13826TIP3    H241422   2.510   2.711   5.235
13827TIP3   OH241423   6.918   6.511   4.686
13827TIP3    H141424   6.832   6.545   4.661
13827TIP3    H241425   6.974   6.531   4.611
13828TIP3   OH241426   5.127   3.386   6.669
13828TIP3    H141427   5.089   3.300   6.686
13828TIP3    H241428   5.189   3.371   6.598
13829TIP3   OH241429   4.152   7.309   5.329
13829TIP3    H141430   4.220   7.366   5.292
13829TIP3    H241431   4.074   7.364   5.332
13830TIP3   OH241432   7.114   5.640   4.041
13830TIP3    H141433   7.131   5.734   4.043
13830TIP3    H241434   7.187   5.601   4.089
13831TIP3   OH241435   7.050   4.754   5.366
13831TIP3    H141436   7.016   4.737   5.278
13831TIP3    H241437   7.143   4.772   5.353
13832TIP3   OH241438   6.112   6.544   1.767
13832TIP3    H141439   6.201   6.512   1.751
13832TIP3    H241440   6.115   6.580   1.856
13833TIP3   OH241441   6.932   6.816   6.014
13833TIP3    H141442   6.909   6.895   6.064
13833TIP3    H241443   6.899   6.833   5.926
13834TIP3   OH241444   7.156   7.506   0.779
13834TIP3    H141445   7.131   7.446   0.709
13834TIP3    H241446   7.137   7.458   0.860
13835TIP3   OH241447   2.237   4.305   0.061
13835TIP3    H141448   2.232   4.239   0.130
13835TIP3    H241449   2.266   4.256  -0.017
13836TIP3   OH241450   4.894   6.074   0.339
13836TIP3    H141451   4.806   6.110   0.336
13836TIP3    H241452   4.924   6.091   0.428
13837TIP3   OH241453   2.081   6.396   4.876
13837TIP3    H141454   2.140   6.338   4.924
13837TIP3    H241455   2.056   6.346   4.798
13838TIP3   OH241456   4.381   7.288   0.508
13838TIP3    H141457   4.295   7.331   0.503
13838TIP3    H241458   4.389   7.240   0.426
13839TIP3   OH241459   0.656   2.984   4.455
13839TIP3    H141460   0.570   2.958   4.423
13839TIP3    H241461   0.666   3.075   4.426
13840TIP3   OH241462   2.977   0.643   3.230
13840TIP3    H141463   2.990   0.734   3.205
13840TIP3    H241464   3.065   0.606   3.235
13841TIP3   OH241465   2.709   0.450   4.412
13841TIP3    H141466   2.728   0.381   4.476
13841TIP3    H241467   2.776   0.439   4.344
13842TIP3   OH241468   1.221   6.150   2.268
13842TIP3    H141469   1.255   6.235   2.241
13842TIP3    H241470   1.258   6.135   2.355
13843TIP3   OH241471   0.258   6.871   0.197
13843TIP3    H141472   0.271   6.776   0.196
13843TIP3    H241473   0.203   6.889   0.121
13844TIP3   OH241474   1.459   7.499   4.067
13844TIP3    H141475   1.400   7.557   4.019
13844TIP3    H241476   1.547   7.525   4.040
13845TIP3   OH241477   2.102   3.639   4.340
13845TIP3    H141478   2.076   3.702   4.274
13845TIP3    H241479   2.102   3.555   4.294
13846TIP3   OH241480   1.426   2.754   5.960
13846TIP3    H141481   1.438   2.661   5.979
13846TIP3    H241482   1.499   2.798   6.004
13847TIP3   OH241483   3.361   6.963   0.447
13847TIP3    H141484   3.290   6.962   0.383
13847TIP3    H241485   3.382   6.870   0.460
13848TIP3   OH241486   4.408   1.069   0.431
13848TIP3    H141487   4.334   1.115   0.393
13848TIP3    H241488   4.453   1.029   0.357
13849TIP3   OH241489   6.303   2.318   5.130
13849TIP3    H141490   6.247   2.267   5.070
13849TIP3    H241491   6.303   2.267   5.211
13850TIP3   OH241492   3.932   5.483   4.905
13850TIP3    H141493   3.950   5.418   4.837
13850TIP3    H241494   3.937   5.435   4.987
13851TIP3   OH241495   5.231   6.838   1.763
13851TIP3    H141496   5.178   6.766   1.798
13851TIP3    H241497   5.315   6.830   1.808
13852TIP3   OH241498   6.065   6.914   3.101
13852TIP3    H141499   6.148   6.872   3.126
13852TIP3    H241500   6.075   6.931   3.007
13853TIP3   OH241501   4.822   7.259   5.930
13853TIP3    H141502   4.758   7.330   5.927
13853TIP3    H241503   4.779   7.187   5.883
13854TIP3   OH241504   1.647   7.659   5.724
13854TIP3    H141505   1.699   7.633   5.800
13854TIP3    H241506   1.706   7.713   5.672
13855TIP3   OH241507   7.195   6.807   4.554
13855TIP3    H141508   7.155   6.769   4.632
13855TIP3    H241509   7.266   6.862   4.587
13856TIP3   OH241510   6.565   2.426   5.094
13856TIP3    H141511   6.579   2.500   5.034
13856TIP3    H241512   6.470   2.412   5.093
13857TIP3   OH241513   3.997   4.854   3.796
13857TIP3    H141514   3.995   4.773   3.744
13857TIP3    H241515   4.041   4.828   3.877
13858TIP3   OH241516   0.458   7.375   4.271
13858TIP3    H141517   0.478   7.390   4.363
13858TIP3    H241518   0.525   7.423   4.223
13859TIP3   OH241519   1.913   0.131   0.164
13859TIP3    H141520   1.923   0.036   0.170
13859TIP3    H241521   1.821   0.147   0.187
13860TIP3   OH241522   7.158   7.095   0.292
13860TIP3    H141523   7.085   7.075   0.351
13860TIP3    H241524   7.153   7.028   0.224
13861TIP3   OH241525   2.567   1.875   2.515
13861TIP3    H141526   2.649   1.868   2.465
13861TIP3    H241527   2.588   1.838   2.600
13862TIP3   OH241528   6.271   4.149   0.944
13862TIP3    H141529   6.355   4.151   0.990
13862TIP3    H241530   6.213   4.100   1.002
13863TIP3   OH241531   3.291   6.226   5.194
13863TIP3    H141532   3.254   6.218   5.282
13863TIP3    H241533   3.221   6.195   5.136
13864TIP3   OH241534   5.230   2.879   0.485
13864TIP3    H141535   5.290   2.812   0.518
13864TIP3    H241536   5.198   2.842   0.402
13865TIP3   OH241537   5.803   0.213   5.699
13865TIP3    H141538   5.736   0.265   5.656
13865TIP3    H241539   5.880   0.220   5.642
13866TIP3   OH241540   2.046   5.756   6.535
13866TIP3    H141541   2.024   5.833   6.588
13866TIP3    H241542   1.998   5.768   6.454
13867TIP3   OH241543   3.243   2.159   0.478
13867TIP3    H141544   3.233   2.078   0.527
13867TIP3    H241545   3.156   2.199   0.479
13868TIP3   OH241546   3.872   0.045   2.834
13868TIP3    H141547   3.953   0.092   2.814
13868TIP3    H241548   3.811   0.113   2.863
13869TIP3   OH241549   6.070   2.332   6.700
13869TIP3    H141550   6.085   2.387   6.623
13869TIP3    H241551   6.056   2.245   6.665
13870TIP3   OH241552   5.886   7.543   1.900
13870TIP3    H141553   5.805   7.494   1.885
13870TIP3    H241554   5.860   7.635   1.899
13871TIP3   OH241555   5.538   7.298   4.420
13871TIP3    H141556   5.554   7.385   4.457
13871TIP3    H241557   5.462   7.310   4.363
13872TIP3   OH241558   8.034   7.455   6.729
13872TIP3    H141559   8.025   7.484   6.819
13872TIP3    H241560   7.951   7.412   6.709
13873TIP3   OH241561   4.757   5.043   1.370
13873TIP3    H141562   4.726   4.953   1.375
13873TIP3    H241563   4.817   5.044   1.295
13874TIP3   OH241564   1.522   6.655   5.797
13874TIP3    H141565   1.523   6.707   5.878
13874TIP3    H241566   1.429   6.647   5.775
13875TIP3   OH241567   8.114   2.459   2.503
13875TIP3    H141568   8.163   2.472   2.584
13875TIP3    H241569   8.057   2.384   2.521
13876TIP3   OH241570   0.198   2.470   2.866
13876TIP3    H141571   0.187   2.519   2.947
13876TIP3    H241572   0.190   2.378   2.891
13877TIP3   OH241573   6.073   0.372   0.398
13877TIP3    H141574   5.989   0.326   0.395
13877TIP3    H241575   6.136   0.304   0.424
13878TIP3   OH241576   0.769   1.296   5.128
13878TIP3    H141577   0.692   1.347   5.154
13878TIP3    H241578   0.737   1.206   5.123
13879TIP3   OH241579   4.460   0.720   4.846
13879TIP3    H141580   4.531   0.784   4.839
13879TIP3    H241581   4.380   0.773   4.846
13880TIP3   OH241582   2.911   1.997   6.073
13880TIP3    H141583   2.981   1.933   6.085
13880TIP3    H241584   2.832   1.952   6.103
13881TIP3   OH241585   4.300   1.165   4.178
13881TIP3    H141586   4.363   1.211   4.234
13881TIP3    H241587   4.329   1.074   4.179
13882TIP3   OH241588   7.860   4.316   5.439
13882TIP3    H141589   7.858   4.246   5.505
13882TIP3    H241590   7.799   4.382   5.473
13883TIP3   OH241591   5.101   4.240   5.348
13883TIP3    H141592   5.020   4.286   5.369
13883TIP3    H241593   5.122   4.268   5.258
13884TIP3   OH241594   8.075   1.926   2.872
13884TIP3    H141595   7.991   1.964   2.898
13884TIP3    H241596   8.056   1.832   2.862
13885TIP3   OH241597   1.695   6.952   1.585
13885TIP3    H141598   1.717   7.000   1.505
13885TIP3    H241599   1.769   6.893   1.599
13886TIP3   OH241600   0.071   7.642   6.739
13886TIP3    H141601  -0.008   7.673   6.695
13886TIP3    H241602   0.038   7.593   6.814
13887TIP3   OH241603   4.609   3.990   4.436
13887TIP3    H141604   4.541   4.036   4.485
13887TIP3    H241605   4.691   4.029   4.467
13888TIP3   OH241606   3.493   4.525   3.847
13888TIP3    H141607   3.476   4.619   3.840
13888TIP3    H241608   3.424   4.485   3.795
13889TIP3   OH241609   5.759   6.245   0.530
13889TIP3    H141610   5.844   6.279   0.558
13889TIP3    H241611   5.722   6.315   0.477
13890TIP3   OH241612   1.844   3.854   2.569
13890TIP3    H141613   1.834   3.949   2.582
13890TIP3    H241614   1.782   3.833   2.500
13891TIP3   OH241615   2.863   2.055   6.422
13891TIP3    H141616   2.912   2.112   6.363
13891TIP3    H241617   2.923   2.038   6.495
13892TIP3   OH241618   5.087   6.882   2.295
13892TIP3    H141619   4.993   6.868   2.293
13892TIP3    H241620   5.107   6.897   2.388
13893TIP3   OH241621   2.868   7.151   4.051
13893TIP3    H141622   2.864   7.062   4.085
13893TIP3    H241623   2.846   7.207   4.125
13894TIP3   OH241624   4.515   0.975   3.954
13894TIP3    H141625   4.446   1.009   3.898
13894TIP3    H241626   4.470   0.918   4.016
13895TIP3   OH241627   2.017   5.956   0.993
13895TIP3    H141628   1.929   5.995   0.997
13895TIP3    H241629   2.005   5.875   0.943
13896TIP3   OH241630   6.653   0.673   6.279
13896TIP3    H141631   6.671   0.623   6.200
13896TIP3    H241632   6.646   0.764   6.249
13897TIP3   OH241633   7.227   6.224   5.120
13897TIP3    H141634   7.195   6.313   5.133
13897TIP3    H241635   7.321   6.232   5.109
13898TIP3   OH241636   7.507   4.127   2.619
13898TIP3    H141637   7.459   4.137   2.701
13898TIP3    H241638   7.557   4.208   2.611
13899TIP3   OH241639   1.823   6.975   2.628
13899TIP3    H141640   1.760   7.034   2.669
13899TIP3    H241641   1.782   6.951   2.545
13900TIP3   OH241642   6.288   2.287   2.284
13900TIP3    H141643   6.340   2.238   2.220
13900TIP3    H241644   6.340   2.286   2.364
13901TIP3   OH241645   6.544   6.044   2.837
13901TIP3    H141646   6.478   5.975   2.829
13901TIP3    H241647   6.613   6.018   2.775
13902TIP3   OH241648   3.553   3.866   3.581
13902TIP3    H141649   3.618   3.922   3.625
13902TIP3    H241650   3.579   3.777   3.603
13903TIP3   OH241651   1.582   5.306   3.313
13903TIP3    H141652   1.531   5.318   3.393
13903TIP3    H241653   1.579   5.211   3.297
13904TIP3   OH241654   4.765   2.159   6.606
13904TIP3    H141655   4.805   2.161   6.693
13904TIP3    H241656   4.793   2.241   6.565
13905TIP3   OH241657   2.835   7.382   2.738
13905TIP3    H141658   2.776   7.352   2.807
13905TIP3    H241659   2.923   7.366   2.771
13906TIP3   OH241660   7.346   0.878   1.544
13906TIP3    H141661   7.296   0.863   1.464
13906TIP3    H241662   7.436   0.860   1.519
13907TIP3   OH241663   4.977   2.091   1.507
13907TIP3    H141664   5.068   2.063   1.503
13907TIP3    H241665   4.976   2.161   1.571
13908TIP3   OH241666   8.150   0.301   2.214
13908TIP3    H141667   8.093   0.340   2.148
13908TIP3    H241668   8.097   0.232   2.254
13909TIP3   OH241669   7.664   2.402   3.098
13909TIP3    H141670   7.578   2.395   3.139
13909TIP3    H241671   7.717   2.337   3.145
13910TIP3   OH241672   3.861   0.759   5.408
13910TIP3    H141673   3.788   0.697   5.402
13910TIP3    H241674   3.911   0.745   5.328
13911TIP3   OH241675   6.277   2.385   5.487
13911TIP3    H141676   6.215   2.400   5.415
13911TIP3    H241677   6.317   2.471   5.501
13912TIP3   OH241678   1.533   3.853   0.763
13912TIP3    H141679   1.570   3.914   0.698
13912TIP3    H241680   1.549   3.895   0.847
13913TIP3   OH241681   1.921   1.010   0.607
13913TIP3    H141682   1.923   1.014   0.702
13913TIP3    H241683   2.013   1.018   0.581
13914TIP3   OH241684   4.598   1.983   5.792
13914TIP3    H141685   4.610   2.072   5.825
13914TIP3    H241686   4.668   1.933   5.834
13915TIP3   OH241687   4.305   4.609   5.875
13915TIP3    H141688   4.259   4.648   5.801
13915TIP3    H241689   4.303   4.677   5.943
13916TIP3   OH241690   3.925   7.160   5.156
13916TIP3    H141691   3.886   7.075   5.174
13916TIP3    H241692   3.902   7.214   5.231
13917TIP3   OH241693   4.792   2.764   5.660
13917TIP3    H141694   4.843   2.760   5.579
13917TIP3    H241695   4.707   2.725   5.637
13918TIP3   OH241696   7.671   2.857   5.141
13918TIP3    H141697   7.616   2.815   5.208
13918TIP3    H241698   7.612   2.916   5.095
13919TIP3   OH241699   3.242   4.266   1.997
13919TIP3    H141700   3.247   4.292   2.089
13919TIP3    H241701   3.192   4.337   1.955
13920TIP3   OH241702   7.589   5.136   3.233
13920TIP3    H141703   7.526   5.102   3.170
13920TIP3    H241704   7.660   5.173   3.180
13921TIP3   OH241705   7.836   5.644   4.684
13921TIP3    H141706   7.782   5.642   4.605
13921TIP3    H241707   7.910   5.587   4.664
13922TIP3   OH241708   4.313   5.090   3.730
13922TIP3    H141709   4.229   5.124   3.701
13922TIP3    H241710   4.311   4.997   3.706
13923TIP3   OH241711   4.668   0.748   4.069
13923TIP3    H141712   4.595   0.687   4.078
13923TIP3    H241713   4.631   0.823   4.023
13924TIP3   OH241714   4.996   6.687   1.295
13924TIP3    H141715   5.043   6.691   1.378
13924TIP3    H241716   4.903   6.694   1.319
13925TIP3   OH241717   4.619   6.562   1.875
13925TIP3    H141718   4.632   6.593   1.965
13925TIP3    H241719   4.639   6.468   1.880
13926TIP3   OH241720   1.666   4.117   4.687
13926TIP3    H141721   1.633   4.189   4.633
13926TIP3    H241722   1.717   4.159   4.756
13927TIP3   OH241723   4.565   6.182   2.074
13927TIP3    H141724   4.601   6.228   1.998
13927TIP3    H241725   4.536   6.252   2.133
13928TIP3   OH241726   5.793   4.692   3.659
13928TIP3    H141727   5.729   4.620   3.666
13928TIP3    H241728   5.873   4.656   3.698
13929TIP3   OH241729   1.131   7.338   3.870
13929TIP3    H141730   1.082   7.335   3.952
13929TIP3    H241731   1.068   7.310   3.804
13930TIP3   OH241732   8.084   4.623   5.601
13930TIP3    H141733   8.041   4.638   5.517
13930TIP3    H241734   8.055   4.696   5.656
13931TIP3   OH241735   2.357   7.014   3.840
13931TIP3    H141736   2.271   7.047   3.867
13931TIP3    H241737   2.416   7.089   3.850
13932TIP3   OH241738   2.735   2.692   4.484
13932TIP3    H141739   2.828   2.687   4.462
13932TIP3    H241740   2.703   2.603   4.473
13933TIP3   OH241741   7.961   3.970   0.509
13933TIP3    H141742   7.950   4.051   0.459
13933TIP3    H241743   8.043   3.982   0.557
13934TIP3   OH241744   0.253   2.017   5.841
13934TIP3    H141745   0.244   2.062   5.756
13934TIP3    H241746   0.346   2.021   5.861
13935TIP3   OH241747   5.274   5.991   3.913
13935TIP3    H141748   5.282   5.936   3.834
13935TIP3    H241749   5.315   5.939   3.982
13936TIP3   OH241750   0.001   1.012   0.904
13936TIP3    H141751   0.078   0.955   0.907
13936TIP3    H241752   0.037   1.100   0.891
13937TIP3   OH241753   2.452   1.589   2.402
13937TIP3    H141754   2.430   1.521   2.466
13937TIP3    H241755   2.398   1.664   2.428
13938TIP3   OH241756   5.169   1.923   3.977
13938TIP3    H141757   5.227   1.865   4.027
13938TIP3    H241758   5.215   1.937   3.895
13939TIP3   OH241759   3.750   3.466   4.230
13939TIP3    H141760   3.823   3.522   4.257
13939TIP3    H241761   3.686   3.477   4.300
13940TIP3   OH241762   1.754   6.370   0.069
13940TIP3    H141763   1.837   6.403   0.105
13940TIP3    H241764   1.747   6.412  -0.017
13941TIP3   OH241765   6.983   5.340   1.583
13941TIP3    H141766   6.961   5.275   1.649
13941TIP3    H241767   6.923   5.323   1.511
13942TIP3   OH241768   3.958   5.368   0.970
13942TIP3    H141769   3.875   5.410   0.992
13942TIP3    H241770   3.941   5.324   0.887
13943TIP3   OH241771   4.906   4.560   0.958
13943TIP3    H141772   4.845   4.558   1.032
13943TIP3    H241773   4.993   4.554   0.999
13944TIP3   OH241774   6.970   7.715   5.685
13944TIP3    H141775   7.036   7.675   5.629
13944TIP3    H241776   6.896   7.653   5.683
13945TIP3   OH241777   3.268   2.431   6.217
13945TIP3    H141778   3.348   2.396   6.256
13945TIP3    H241779   3.295   2.466   6.132
13946TIP3   OH241780   7.423   7.196   2.257
13946TIP3    H141781   7.454   7.132   2.193
13946TIP3    H241782   7.453   7.280   2.224
13947TIP3   OH241783   3.762   7.006   0.819
13947TIP3    H141784   3.853   6.978   0.815
13947TIP3    H241785   3.735   7.015   0.727
13948TIP3   OH241786   4.348   5.777   6.084
13948TIP3    H141787   4.379   5.732   6.163
13948TIP3    H241788   4.302   5.854   6.116
13949TIP3   OH241789   7.608   0.472   2.557
13949TIP3    H141790   7.542   0.428   2.503
13949TIP3    H241791   7.673   0.404   2.576
13950TIP3   OH241792   4.204   3.599   4.637
13950TIP3    H141793   4.178   3.640   4.720
13950TIP3    H241794   4.281   3.548   4.659
13951TIP3   OH241795   0.225   2.830   3.578
13951TIP3    H141796   0.159   2.762   3.564
13951TIP3    H241797   0.285   2.791   3.642
13952TIP3   OH241798   1.297   7.334   4.195
13952TIP3    H141799   1.386   7.307   4.177
13952TIP3    H241800   1.293   7.426   4.166
13953TIP3   OH241801   1.373   7.601   1.984
13953TIP3    H141802   1.313   7.606   2.058
13953TIP3    H241803   1.436   7.671   2.000
13954TIP3   OH241804   4.028   0.720   2.479
13954TIP3    H141805   3.971   0.677   2.415
13954TIP3    H241806   3.983   0.708   2.563
13955TIP3   OH241807   3.666   1.674   3.648
13955TIP3    H141808   3.645   1.732   3.721
13955TIP3    H241809   3.762   1.671   3.648
13956TIP3   OH241810   5.930   4.307   2.729
13956TIP3    H141811   5.900   4.260   2.651
13956TIP3    H241812   5.920   4.400   2.707
13957TIP3   OH241813   2.132   2.733   0.675
13957TIP3    H141814   2.089   2.782   0.745
13957TIP3    H241815   2.171   2.657   0.719
13958TIP3   OH241816   6.293   3.982   3.912
13958TIP3    H141817   6.323   3.928   3.838
13958TIP3    H241818   6.270   4.066   3.872
13959TIP3   OH241819   2.704   0.554   2.215
13959TIP3    H141820   2.782   0.531   2.265
13959TIP3    H241821   2.736   0.611   2.145
13960TIP3   OH241822   7.113   5.024   3.303
13960TIP3    H141823   7.159   4.958   3.355
13960TIP3    H241824   7.117   5.104   3.355
13961TIP3   OH241825   0.180   4.730   4.726
13961TIP3    H141826   0.130   4.662   4.770
13961TIP3    H241827   0.185   4.801   4.790
13962TIP3   OH241828   2.706   2.402   0.156
13962TIP3    H141829   2.745   2.489   0.165
13962TIP3    H241830   2.719   2.379   0.064
13963TIP3   OH241831   4.090   0.185   0.358
13963TIP3    H141832   4.152   0.133   0.307
13963TIP3    H241833   4.038   0.121   0.406
13964TIP3   OH241834   5.536   0.001   5.036
13964TIP3    H141835   5.536   0.084   5.082
13964TIP3    H241836   5.489  -0.059   5.094
13965TIP3   OH241837   2.828   4.679   5.414
13965TIP3    H141838   2.750   4.667   5.468
13965TIP3    H241839   2.794   4.710   5.330
13966TIP3   OH241840   0.428   4.634   1.823
13966TIP3    H141841   0.521   4.640   1.801
13966TIP3    H241842   0.387   4.600   1.743
13967TIP3   OH241843   5.899   4.272   0.390
13967TIP3    H141844   5.890   4.357   0.432
13967TIP3    H241845   5.965   4.287   0.321
13968TIP3   OH241846   4.281   1.310   0.280
13968TIP3    H141847   4.336   1.362   0.337
13968TIP3    H241848   4.209   1.369   0.256
13969TIP3   OH241849   4.587   3.850   0.874
13969TIP3    H141850   4.556   3.937   0.900
13969TIP3    H241851   4.506   3.800   0.858
13970TIP3   OH241852   8.207   2.905   4.914
13970TIP3    H141853   8.135   2.898   4.851
13970TIP3    H241854   8.262   2.975   4.880
13971TIP3   OH241855   5.671   4.278   1.298
13971TIP3    H141856   5.675   4.210   1.366
13971TIP3    H241857   5.587   4.264   1.255
13972TIP3   OH241858   5.663   7.229   0.478
13972TIP3    H141859   5.736   7.235   0.417
13972TIP3    H241860   5.689   7.281   0.554
13973TIP3   OH241861   5.569   0.454   4.741
13973TIP3    H141862   5.509   0.456   4.815
13973TIP3    H241863   5.574   0.362   4.716
13974TIP3   OH241864   0.902   3.191   5.584
13974TIP3    H141865   0.897   3.129   5.656
13974TIP3    H241866   0.969   3.255   5.611
13975TIP3   OH241867   6.399   5.427   3.905
13975TIP3    H141868   6.391   5.357   3.969
13975TIP3    H241869   6.367   5.389   3.823
13976TIP3   OH241870   5.931   5.590   6.683
13976TIP3    H141871   5.998   5.652   6.712
13976TIP3    H241872   5.877   5.575   6.761
13977TIP3   OH241873   4.393   6.184   3.457
13977TIP3    H141874   4.377   6.200   3.364
13977TIP3    H241875   4.350   6.257   3.502
13978TIP3   OH241876   3.435   0.386   1.828
13978TIP3    H141877   3.432   0.322   1.757
13978TIP3    H241878   3.394   0.341   1.902
13979TIP3   OH241879   3.581   5.839   5.099
13979TIP3    H141880   3.549   5.814   5.185
13979TIP3    H241881   3.503   5.843   5.044
13980TIP3   OH241882   6.940   3.057   5.128
13980TIP3    H141883   7.020   3.017   5.096
13980TIP3    H241884   6.926   3.132   5.069
13981TIP3   OH241885   4.167   0.764   2.187
13981TIP3    H141886   4.254   0.723   2.184
13981TIP3    H241887   4.125   0.723   2.262
13982TIP3   OH241888   8.107   0.932   5.380
13982TIP3    H141889   8.183   0.896   5.425
13982TIP3    H241890   8.112   0.897   5.292
13983TIP3   OH241891   4.964   5.251   4.559
13983TIP3    H141892   4.957   5.346   4.567
13983TIP3    H241893   5.022   5.225   4.630
13984TIP3   OH241894   6.035   0.268   3.631
13984TIP3    H141895   5.957   0.311   3.595
13984TIP3    H241896   6.104   0.285   3.567
13985TIP3   OH241897   4.202   7.448   6.302
13985TIP3    H141898   4.283   7.424   6.348
13985TIP3    H241899   4.231   7.476   6.216
13986TIP3   OH241900   4.390   4.848   4.660
13986TIP3    H141901   4.404   4.903   4.737
13986TIP3    H241902   4.320   4.787   4.686
13987TIP3   OH241903   7.360   7.300   5.488
13987TIP3    H141904   7.389   7.209   5.490
13987TIP3    H241905   7.277   7.297   5.441
13988TIP3   OH241906   3.149   0.665   3.473
13988TIP3    H141907   3.122   0.575   3.494
13988TIP3    H241908   3.203   0.691   3.548
13989TIP3   OH241909   1.077   2.755   0.153
13989TIP3    H141910   1.017   2.817   0.113
13989TIP3    H241911   1.022   2.680   0.177
13990TIP3   OH241912   2.851   4.816   0.495
13990TIP3    H141913   2.922   4.802   0.557
13990TIP3    H241914   2.852   4.739   0.439
13991TIP3   OH241915   5.125   2.551   5.554
13991TIP3    H141916   5.053   2.609   5.531
13991TIP3    H241917   5.135   2.493   5.478
13992TIP3   OH241918   0.899   2.986   0.108
13992TIP3    H141919   0.842   2.929   0.057
13992TIP3    H241920   0.842   3.057   0.138
13993TIP3   OH241921   6.034   1.864   0.090
13993TIP3    H141922   6.059   1.922   0.018
13993TIP3    H241923   6.028   1.921   0.166
13994TIP3   OH241924   5.241   6.992   0.270
13994TIP3    H141925   5.225   6.973   0.363
13994TIP3    H241926   5.316   7.051   0.270
13995TIP3   OH241927   0.670   6.672   4.906
13995TIP3    H141928   0.665   6.730   4.982
13995TIP3    H241929   0.659   6.584   4.942
13996TIP3   OH241930   1.868   3.736   0.038
13996TIP3    H141931   1.959   3.757   0.015
13996TIP3    H241932   1.847   3.798   0.108
13997TIP3   OH241933   1.591   0.633   5.619
13997TIP3    H141934   1.573   0.717   5.661
13997TIP3    H241935   1.507   0.608   5.581
13998TIP3   OH241936   1.211   1.912   3.939
13998TIP3    H141937   1.167   1.997   3.928
13998TIP3    H241938   1.141   1.848   3.932
13999TIP3   OH241939   7.328   1.695   5.696
13999TIP3    H141940   7.244   1.670   5.734
13999TIP3    H241941   7.313   1.693   5.601
14000TIP3   OH241942   5.776   6.975   3.446
14000TIP3    H141943   5.869   6.994   3.436
14000TIP3    H241944   5.735   7.007   3.366
14001TIP3   OH241945   7.195   3.246   3.588
14001TIP3    H141946   7.137   3.261   3.513
14001TIP3    H241947   7.240   3.164   3.567
14002TIP3   OH241948   0.237   6.089   3.636
14002TIP3    H141949   0.281   6.173   3.620
14002TIP3    H241950   0.285   6.050   3.708
14003TIP3   OH241951   5.205   3.721   3.445
14003TIP3    H141952   5.154   3.727   3.364
14003TIP3    H241953   5.219   3.627   3.458
14004TIP3   OH241954   3.545   0.895   3.564
14004TIP3    H141955   3.471   0.885   3.624
14004TIP3    H241956   3.522   0.971   3.510
14005TIP3   OH241957   5.041   5.602   2.401
14005TIP3    H141958   4.973   5.665   2.380
14005TIP3    H241959   4.994   5.523   2.429
14006TIP3   OH241960   4.122   1.012   0.583
14006TIP3    H141961   4.108   1.000   0.489
14006TIP3    H241962   4.173   1.092   0.589
14007TIP3   OH241963   2.934   0.247   0.731
14007TIP3    H141964   2.851   0.288   0.757
14007TIP3    H241965   2.982   0.316   0.686
14008TIP3   OH241966   0.999   6.222   5.825
14008TIP3    H141967   0.942   6.274   5.881
14008TIP3    H241968   0.974   6.245   5.735
14009TIP3   OH241969   4.101   2.839   5.706
14009TIP3    H141970   4.008   2.854   5.727
14009TIP3    H241971   4.109   2.744   5.705
14010TIP3   OH241972   2.274   5.762   4.712
14010TIP3    H141973   2.351   5.706   4.704
14010TIP3    H241974   2.207   5.719   4.661
14011TIP3   OH241975   6.847   7.664   4.798
14011TIP3    H141976   6.901   7.599   4.844
14011TIP3    H241977   6.795   7.612   4.736
14012TIP3   OH241978   0.712   5.533   6.653
14012TIP3    H141979   0.633   5.550   6.704
14012TIP3    H241980   0.737   5.444   6.677
14013TIP3   OH241981   4.391   1.675   0.310
14013TIP3    H141982   4.349   1.731   0.375
14013TIP3    H241983   4.361   1.710   0.226
14014TIP3   OH241984   3.037   0.823   5.175
14014TIP3    H141985   3.059   0.731   5.183
14014TIP3    H241986   2.946   0.829   5.205
14015TIP3   OH241987   1.433   5.049   0.489
14015TIP3    H141988   1.381   5.093   0.423
14015TIP3    H241989   1.371   5.030   0.560
14016TIP3   OH241990   6.027   6.728   4.057
14016TIP3    H141991   6.070   6.650   4.093
14016TIP3    H241992   5.935   6.702   4.047
14017TIP3   OH241993   0.152   0.606   0.888
14017TIP3    H141994   0.152   0.548   0.812
14017TIP3    H241995   0.098   0.561   0.953
14018TIP3   OH241996   8.123   4.346   5.721
14018TIP3    H141997   8.218   4.341   5.711
14018TIP3    H241998   8.098   4.426   5.675
14019TIP3   OH241999   6.688   3.665   3.472
14019TIP3    H142000   6.630   3.726   3.426
14019TIP3    H242001   6.696   3.590   3.413
14020TIP3   OH242002   6.127   1.808   6.111
14020TIP3    H142003   6.160   1.894   6.088
14020TIP3    H242004   6.100   1.817   6.203
14021TIP3   OH242005   6.656   1.393   5.031
14021TIP3    H142006   6.731   1.435   4.989
14021TIP3    H242007   6.650   1.435   5.117
14022TIP3   OH242008   3.639   0.173   5.926
14022TIP3    H142009   3.598   0.110   5.986
14022TIP3    H242010   3.579   0.179   5.852
14023TIP3   OH242011   8.256   7.379   5.452
14023TIP3    H142012   8.291   7.291   5.436
14023TIP3    H242013   8.215   7.403   5.369
14024TIP3   OH242014   6.597   6.308   5.328
14024TIP3    H142015   6.645   6.226   5.342
14024TIP3    H242016   6.506   6.285   5.344
14025TIP3   OH242017   4.960   7.045   2.079
14025TIP3    H142018   4.988   7.113   2.018
14025TIP3    H242019   5.041   6.997   2.099
14026TIP3   OH242020   5.733   1.729   2.897
14026TIP3    H142021   5.804   1.702   2.839
14026TIP3    H242022   5.655   1.729   2.842
14027TIP3   OH242023   8.235   3.436   5.937
14027TIP3    H142024   8.143   3.412   5.926
14027TIP3    H242025   8.258   3.405   6.025
14028TIP3   OH242026   4.232   4.675   1.902
14028TIP3    H142027   4.164   4.620   1.861
14028TIP3    H242028   4.212   4.672   1.995
14029TIP3   OH242029   6.451   0.761   0.864
14029TIP3    H142030   6.444   0.783   0.957
14029TIP3    H242031   6.369   0.791   0.826
14030TIP3   OH242032   6.705   4.610   6.086
14030TIP3    H142033   6.780   4.624   6.144
14030TIP3    H242034   6.659   4.534   6.123
14031TIP3   OH242035   0.016   0.757   0.485
14031TIP3    H142036   0.081   0.687   0.490
14031TIP3    H242037  -0.065   0.717   0.515
14032TIP3   OH242038   5.022   0.417   6.459
14032TIP3    H142039   5.068   0.500   6.455
14032TIP3    H242040   5.023   0.393   6.552
14033TIP3   OH242041   4.705   3.673   4.785
14033TIP3    H142042   4.628   3.730   4.792
14033TIP3    H242043   4.671   3.586   4.810
14034TIP3   OH242044   8.023   6.992   2.504
14034TIP3    H142045   7.946   6.961   2.457
14034TIP3    H242046   7.993   7.069   2.551
14035TIP3   OH242047   3.040   4.786   0.997
14035TIP3    H142048   3.035   4.728   1.072
14035TIP3    H242049   3.095   4.859   1.026
14036TIP3   OH242050   0.977   7.216   6.013
14036TIP3    H142051   0.963   7.250   5.925
14036TIP3    H242052   1.004   7.125   5.999
14037TIP3   OH242053   4.559   4.751   6.357
14037TIP3    H142054   4.654   4.766   6.362
14037TIP3    H242055   4.524   4.797   6.433
14038TIP3   OH242056   6.009   0.719   0.189
14038TIP3    H142057   5.957   0.684   0.261
14038TIP3    H242058   6.087   0.756   0.231
14039TIP3   OH242059   5.522   5.921   0.894
14039TIP3    H142060   5.534   6.015   0.908
14039TIP3    H242061   5.500   5.913   0.801
14040TIP3   OH242062   2.653   2.470   6.273
14040TIP3    H142063   2.742   2.492   6.246
14040TIP3    H242064   2.665   2.415   6.351
14041TIP3   OH242065   2.919   1.249   4.317
14041TIP3    H142066   2.957   1.314   4.257
14041TIP3    H242067   2.875   1.187   4.259
14042TIP3   OH242068   3.212   4.522   0.713
14042TIP3    H142069   3.258   4.514   0.796
14042TIP3    H242070   3.234   4.441   0.666
14043TIP3   OH242071   3.930   5.740   5.830
14043TIP3    H142072   3.985   5.817   5.849
14043TIP3    H242073   3.875   5.730   5.907
14044TIP3   OH242074   6.826   6.462   5.321
14044TIP3    H142075   6.877   6.390   5.360
14044TIP3    H242076   6.735   6.441   5.341
14045TIP3   OH242077   0.238   3.836   4.290
14045TIP3    H142078   0.240   3.885   4.372
14045TIP3    H242079   0.313   3.867   4.240
14046TIP3   OH242080   1.001   2.768   3.627
14046TIP3    H142081   1.021   2.704   3.558
14046TIP3    H242082   0.910   2.751   3.650
14047TIP3   OH242083   6.850   4.655   3.528
14047TIP3    H142084   6.798   4.620   3.601
14047TIP3    H242085   6.930   4.689   3.569
14048TIP3   OH242086   4.205   4.065   6.710
14048TIP3    H142087   4.156   3.993   6.750
14048TIP3    H242088   4.213   4.040   6.618
14049TIP3   OH242089   2.136   4.455   5.719
14049TIP3    H142090   2.128   4.550   5.721
14049TIP3    H242091   2.084   4.428   5.643
14050TIP3   OH242092   3.450   6.840   5.404
14050TIP3    H142093   3.447   6.896   5.326
14050TIP3    H242094   3.543   6.829   5.422
14051TIP3   OH242095   5.505   3.056   4.408
14051TIP3    H142096   5.484   3.148   4.424
14051TIP3    H242097   5.421   3.011   4.417
14052TIP3   OH242098   6.548   7.626   2.146
14052TIP3    H142099   6.548   7.688   2.074
14052TIP3    H242100   6.473   7.569   2.128
14053TIP3   OH242101   6.584   0.879   3.708
14053TIP3    H142102   6.652   0.941   3.736
14053TIP3    H242103   6.566   0.828   3.787
14054TIP3   OH242104   6.149   3.457   5.267
14054TIP3    H142105   6.137   3.514   5.191
14054TIP3    H242106   6.236   3.478   5.300
14055TIP3   OH242107   7.167   5.185   0.152
14055TIP3    H142108   7.212   5.179   0.068
14055TIP3    H242109   7.077   5.209   0.130
14056TIP3   OH242110   4.136   7.795   1.299
14056TIP3    H142111   4.157   7.714   1.346
14056TIP3    H242112   4.221   7.832   1.276
14057TIP3   OH242113   5.576   2.709   6.348
14057TIP3    H142114   5.579   2.803   6.366
14057TIP3    H242115   5.497   2.697   6.296
14058TIP3   OH242116   3.695   3.386   0.765
14058TIP3    H142117   3.791   3.386   0.762
14058TIP3    H242118   3.670   3.304   0.721
14059TIP3   OH242119   0.290   1.085   1.656
14059TIP3    H142120   0.223   1.134   1.608
14059TIP3    H242121   0.247   1.057   1.736
14060TIP3   OH242122   4.399   0.047   3.878
14060TIP3    H142123   4.407   0.092   3.795
14060TIP3    H242124   4.312   0.006   3.876
14061TIP3   OH242125   5.752   5.154   3.446
14061TIP3    H142126   5.758   5.060   3.430
14061TIP3    H242127   5.740   5.162   3.541
14062TIP3   OH242128   0.860   7.656   1.384
14062TIP3    H142129   0.834   7.564   1.383
14062TIP3    H242130   0.778   7.704   1.390
14063TIP3   OH242131   8.193   0.903   3.710
14063TIP3    H142132   8.239   0.826   3.742
14063TIP3    H242133   8.101   0.885   3.730
14064TIP3   OH242134   0.528   0.459   3.271
14064TIP3    H142135   0.511   0.377   3.224
14064TIP3    H242136   0.490   0.526   3.216
14065TIP3   OH242137   3.007   3.515   4.207
14065TIP3    H142138   2.959   3.434   4.192
14065TIP3    H242139   3.056   3.530   4.126
14066TIP3   OH242140   6.600   7.617   0.609
14066TIP3    H142141   6.514   7.660   0.604
14066TIP3    H242142   6.592   7.555   0.681
14067TIP3   OH242143   2.615   0.336   2.463
14067TIP3    H142144   2.692   0.353   2.517
14067TIP3    H242145   2.648   0.290   2.387
14068TIP3   OH242146   3.423   6.629   2.429
14068TIP3    H142147   3.336   6.601   2.400
14068TIP3    H242148   3.469   6.547   2.449
14069TIP3   OH242149   0.791   0.498   6.153
14069TIP3    H142150   0.703   0.460   6.154
14069TIP3    H242151   0.805   0.528   6.243
14070TIP3   OH242152   3.947   0.340   5.680
14070TIP3    H142153   3.861   0.298   5.684
14070TIP3    H242154   3.941   0.413   5.742
14071TIP3   OH242155   2.505   2.718   3.597
14071TIP3    H142156   2.457   2.797   3.573
14071TIP3    H242157   2.546   2.739   3.680
14072TIP3   OH242158   3.040   4.764   1.329
14072TIP3    H142159   2.963   4.799   1.373
14072TIP3    H242160   3.011   4.681   1.291
14073TIP3   OH242161   2.903   6.212   2.083
14073TIP3    H142162   2.808   6.203   2.086
14073TIP3    H242163   2.926   6.198   1.992
14074TIP3   OH242164   2.936   0.410   5.385
14074TIP3    H142165   3.020   0.435   5.347
14074TIP3    H242166   2.954   0.329   5.433
14075TIP3   OH242167   2.942   5.129   3.031
14075TIP3    H142168   3.035   5.108   3.023
14075TIP3    H242169   2.928   5.138   3.126
14076TIP3   OH242170   2.382   7.483   2.216
14076TIP3    H142171   2.361   7.519   2.130
14076TIP3    H242172   2.477   7.493   2.223
14077TIP3   OH242173   5.977   0.476   1.677
14077TIP3    H142174   5.983   0.540   1.747
14077TIP3    H242175   5.906   0.508   1.622
14078TIP3   OH242176   1.998   6.960   2.322
14078TIP3    H142177   1.954   6.879   2.296
14078TIP3    H242178   1.931   7.008   2.371
14079TIP3   OH242179   0.974   6.634   2.715
14079TIP3    H142180   1.016   6.621   2.630
14079TIP3    H242181   0.957   6.729   2.718
14080TIP3   OH242182   5.168   1.158   2.358
14080TIP3    H142183   5.236   1.118   2.303
14080TIP3    H242184   5.154   1.244   2.320
14081TIP3   OH242185   4.675   5.650   2.454
14081TIP3    H142186   4.672   5.575   2.395
14081TIP3    H242187   4.676   5.611   2.542
14082TIP3   OH242188   2.966   5.484   4.117
14082TIP3    H142189   2.904   5.557   4.114
14082TIP3    H242190   3.050   5.525   4.137
14083TIP3   OH242191   7.905   5.310   5.756
14083TIP3    H142192   7.915   5.389   5.808
14083TIP3    H242193   7.843   5.334   5.686
14084TIP3   OH242194   0.373   6.453   6.632
14084TIP3    H142195   0.284   6.419   6.620
14084TIP3    H242196   0.372   6.492   6.719
14085TIP3   OH242197   5.143   0.332   0.074
14085TIP3    H142198   5.128   0.244   0.041
14085TIP3    H242199   5.100   0.389   0.011
14086TIP3   OH242200   7.165   5.251   3.480
14086TIP3    H142201   7.103   5.323   3.470
14086TIP3    H242202   7.223   5.260   3.404
14087TIP3   OH242203   1.838   4.127   6.445
14087TIP3    H142204   1.766   4.088   6.494
14087TIP3    H242205   1.803   4.209   6.412
14088TIP3   OH242206   4.463   2.506   3.851
14088TIP3    H142207   4.531   2.493   3.918
14088TIP3    H242208   4.466   2.427   3.797
14089TIP3   OH242209   7.230   6.441   4.693
14089TIP3    H142210   7.211   6.347   4.697
14089TIP3    H242211   7.213   6.464   4.602
14090TIP3   OH242212   7.467   4.969   3.063
14090TIP3    H142213   7.384   4.964   3.016
14090TIP3    H242214   7.482   4.881   3.096
14091TIP3   OH242215   1.751   6.091   3.619
14091TIP3    H142216   1.696   6.140   3.557
14091TIP3    H242217   1.704   6.009   3.632
14092TIP3   OH242218   6.758   7.111   1.044
14092TIP3    H142219   6.676   7.148   1.075
14092TIP3    H242220   6.756   7.123   0.949
14093TIP3   OH242221   7.114   3.757   0.897
14093TIP3    H142222   7.047   3.825   0.904
14093TIP3    H242223   7.182   3.783   0.959
14094TIP3   OH242224   2.420   1.145   6.278
14094TIP3    H142225   2.465   1.081   6.333
14094TIP3    H242226   2.343   1.171   6.329
14095TIP3   OH242227   6.545   6.497   5.156
14095TIP3    H142228   6.591   6.432   5.210
14095TIP3    H242229   6.606   6.519   5.086
14096TIP3   OH242230   6.133   0.422   2.616
14096TIP3    H142231   6.046   0.450   2.587
14096TIP3    H242232   6.184   0.503   2.622
14097TIP3   OH242233   2.102   3.262   2.952
14097TIP3    H142234   2.192   3.238   2.932
14097TIP3    H242235   2.073   3.310   2.874
14098TIP3   OH242236   6.465   1.840   3.799
14098TIP3    H142237   6.478   1.748   3.776
14098TIP3    H242238   6.553   1.872   3.820
14099TIP3   OH242239   1.582   2.996   1.418
14099TIP3    H142240   1.574   3.086   1.447
14099TIP3    H242241   1.536   2.945   1.484
14100TIP3   OH242242   3.071   1.248   6.279
14100TIP3    H142243   3.163   1.251   6.305
14100TIP3    H242244   3.025   1.218   6.358
14101TIP3   OH242245   4.505   6.371   0.582
14101TIP3    H142246   4.499   6.465   0.594
14101TIP3    H242247   4.535   6.337   0.667
14102TIP3   OH242248   7.277   7.671   2.209
14102TIP3    H142249   7.200   7.674   2.266
14102TIP3    H242250   7.308   7.762   2.205
14103TIP3   OH242251   3.763   2.371   0.280
14103TIP3    H142252   3.736   2.349   0.369
14103TIP3    H242253   3.781   2.286   0.239
14104TIP3   OH242254   8.007   2.813   3.713
14104TIP3    H142255   8.037   2.842   3.627
14104TIP3    H242256   8.017   2.889   3.769
14105TIP3   OH242257   3.981   6.696   2.308
14105TIP3    H142258   3.967   6.650   2.391
14105TIP3    H242259   3.895   6.734   2.288
14106TIP3   OH242260   7.354   6.118   3.349
14106TIP3    H142261   7.287   6.146   3.412
14106TIP3    H242262   7.428   6.090   3.404
14107TIP3   OH242263   5.931   3.824   6.708
14107TIP3    H142264   5.993   3.857   6.642
14107TIP3    H242265   5.878   3.900   6.731
14108TIP3   OH242266   6.751   5.524   6.293
14108TIP3    H142267   6.671   5.566   6.323
14108TIP3    H242268   6.772   5.568   6.211
14109TIP3   OH242269   0.770   6.772   0.461
14109TIP3    H142270   0.675   6.776   0.465
14109TIP3    H242271   0.788   6.699   0.401
14110TIP3   OH242272   4.068   3.769   0.120
14110TIP3    H142273   3.974   3.756   0.128
14110TIP3    H242274   4.086   3.757   0.026
14111TIP3   OH242275   5.243   2.403   5.132
14111TIP3    H142276   5.160   2.422   5.088
14111TIP3    H242277   5.219   2.361   5.214
14112TIP3   OH242278   6.614   6.138   0.056
14112TIP3    H142279   6.564   6.066   0.095
14112TIP3    H242280   6.589   6.138  -0.036
14113TIP3   OH242281   5.639   1.354   6.190
14113TIP3    H142282   5.732   1.338   6.181
14113TIP3    H242283   5.597   1.281   6.145
14114TIP3   OH242284   0.562   7.337   2.095
14114TIP3    H142285   0.479   7.370   2.128
14114TIP3    H242286   0.543   7.246   2.070
14115TIP3   OH242287   0.047   7.726   2.351
14115TIP3    H142288   0.067   7.817   2.372
14115TIP3    H242289   0.114   7.675   2.397
14116TIP3   OH242290   2.582   5.773   1.712
14116TIP3    H142291   2.500   5.758   1.664
14116TIP3    H242292   2.599   5.867   1.702
14117TIP3   OH242293   8.168   5.958   2.643
14117TIP3    H142294   8.163   5.973   2.548
14117TIP3    H242295   8.080   5.931   2.667
14118TIP3   OH242296   1.103   4.276   4.025
14118TIP3    H142297   1.054   4.267   3.943
14118TIP3    H242298   1.080   4.364   4.056
14119TIP3   OH242299   2.343   4.419   2.001
14119TIP3    H142300   2.380   4.345   2.050
14119TIP3    H242301   2.366   4.496   2.052
14120TIP3   OH242302   7.855   2.556   3.674
14120TIP3    H142303   7.913   2.624   3.707
14120TIP3    H242304   7.870   2.481   3.731
14121TIP3   OH242305   2.609   7.620   3.881
14121TIP3    H142306   2.617   7.547   3.819
14121TIP3    H242307   2.639   7.584   3.964
14122TIP3   OH242308   5.356   2.515   2.489
14122TIP3    H142309   5.309   2.447   2.441
14122TIP3    H242310   5.447   2.483   2.494
14123TIP3   OH242311   3.852   4.123  -0.003
14123TIP3    H142312   3.844   4.094   0.087
14123TIP3    H242313   3.765   4.109  -0.041
14124TIP3   OH242314   5.637   1.460   5.768
14124TIP3    H142315   5.561   1.471   5.710
14124TIP3    H242316   5.613   1.507   5.848
14125TIP3   OH242317   4.396   6.813   6.203
14125TIP3    H142318   4.369   6.747   6.139
14125TIP3    H242319   4.468   6.773   6.251
14126TIP3   OH242320   0.481   6.601   5.406
14126TIP3    H142321   0.436   6.611   5.322
14126TIP3    H242322   0.468   6.509   5.429
14127TIP3   OH242323   7.883   3.996   3.272
14127TIP3    H142324   7.928   3.957   3.347
14127TIP3    H242325   7.881   3.926   3.207
14128TIP3   OH242326   2.531   6.823   5.434
14128TIP3    H142327   2.472   6.749   5.419
14128TIP3    H242328   2.503   6.890   5.372
14129TIP3   OH242329   2.495   4.082   4.617
14129TIP3    H142330   2.429   4.106   4.553
14129TIP3    H242331   2.576   4.077   4.568
14130TIP3   OH242332   2.408   4.758   5.288
14130TIP3    H142333   2.394   4.673   5.329
14130TIP3    H242334   2.321   4.795   5.275
14131TIP3   OH242335   2.892   0.490   5.938
14131TIP3    H142336   2.937   0.502   5.854
14131TIP3    H242337   2.948   0.535   6.001
14132TIP3   OH242338   5.768   0.431   4.310
14132TIP3    H142339   5.832   0.473   4.253
14132TIP3    H242340   5.699   0.497   4.321
14133TIP3   OH242341   4.054   0.639   0.174
14133TIP3    H142342   4.137   0.680   0.199
14133TIP3    H242343   4.052   0.556   0.222
14134TIP3   OH242344   0.172   6.439   3.738
14134TIP3    H142345   0.227   6.403   3.668
14134TIP3    H242346   0.160   6.531   3.714
14135TIP3   OH242347   7.743   6.378   3.006
14135TIP3    H142348   7.721   6.421   2.923
14135TIP3    H242349   7.658   6.359   3.046
14136TIP3   OH242350   8.164   5.621   4.580
14136TIP3    H142351   8.165   5.563   4.657
14136TIP3    H242352   8.156   5.562   4.506
14137TIP3   OH242353   7.168   5.969   0.049
14137TIP3    H142354   7.088   6.010   0.082
14137TIP3    H242355   7.182   6.009  -0.037
14138TIP3   OH242356   5.661  -0.003   0.800
14138TIP3    H142357   5.743  -0.027   0.757
14138TIP3    H242358   5.652   0.091   0.782
14139TIP3   OH242359   0.205   3.971   6.515
14139TIP3    H142360   0.237   4.060   6.526
14139TIP3    H242361   0.110   3.980   6.514
14140TIP3   OH242362   2.026   6.442   0.119
14140TIP3    H142363   2.079   6.503   0.068
14140TIP3    H242364   2.033   6.474   0.209
14141TIP3   OH242365   3.745   2.687   6.052
14141TIP3    H142366   3.746   2.607   6.000
14141TIP3    H242367   3.764   2.658   6.141
14142TIP3   OH242368   0.369   7.519   2.840
14142TIP3    H142369   0.448   7.509   2.787
14142TIP3    H242370   0.365   7.613   2.858
14143TIP3   OH242371   2.777   4.350   2.472
14143TIP3    H142372   2.777   4.256   2.455
14143TIP3    H242373   2.695   4.381   2.432
14144TIP3   OH242374   0.881   4.625   6.220
14144TIP3    H142375   0.926   4.613   6.304
14144TIP3    H242376   0.791   4.648   6.244
14145TIP3   OH242377   1.952   3.094   4.375
14145TIP3    H142378   2.030   3.071   4.425
14145TIP3    H242379   1.982   3.095   4.284
14146TIP3   OH242380   6.397   4.953   1.259
14146TIP3    H142381   6.350   4.906   1.190
14146TIP3    H242382   6.334   5.018   1.291
14147TIP3   OH242383   0.140   5.681   0.365
14147TIP3    H142384   0.079   5.730   0.420
14147TIP3    H242385   0.163   5.741   0.295
14148TIP3   OH242386   5.498   5.165   2.229
14148TIP3    H142387   5.498   5.220   2.150
14148TIP3    H242388   5.445   5.089   2.205
14149TIP3   OH242389   5.580   7.027   0.038
14149TIP3    H142390   5.495   7.019  -0.005
14149TIP3    H242391   5.559   7.052   0.128
14150TIP3   OH242392   0.599   4.828   2.925
14150TIP3    H142393   0.664   4.807   2.993
14150TIP3    H242394   0.649   4.829   2.844
14151TIP3   OH242395   7.198   6.520   6.528
14151TIP3    H142396   7.139   6.539   6.601
14151TIP3    H242397   7.250   6.601   6.518
14152TIP3   OH242398   1.768   0.458   1.356
14152TIP3    H142399   1.777   0.398   1.281
14152TIP3    H242400   1.827   0.422   1.422
14153TIP3   OH242401   4.232   1.314   0.834
14153TIP3    H142402   4.285   1.237   0.853
14153TIP3    H242403   4.221   1.358   0.918
14154TIP3   OH242404   4.268   0.502   5.510
14154TIP3    H142405   4.248   0.595   5.524
14154TIP3    H242406   4.329   0.502   5.435
14155TIP3   OH242407   1.364   3.831   3.258
14155TIP3    H142408   1.324   3.848   3.173
14155TIP3    H242409   1.318   3.889   3.318
14156TIP3   OH242410   6.410   5.002   0.025
14156TIP3    H142411   6.367   4.916   0.035
14156TIP3    H242412   6.503   4.983   0.027
14157TIP3   OH242413   8.173   7.492   3.318
14157TIP3    H142414   8.258   7.496   3.274
14157TIP3    H242415   8.109   7.484   3.247
14158TIP3   OH242416   7.746   5.984   2.583
14158TIP3    H142417   7.814   5.923   2.613
14158TIP3    H242418   7.741   6.050   2.651
14159TIP3   OH242419   2.596   3.076   0.070
14159TIP3    H142420   2.671   3.104   0.122
14159TIP3    H242421   2.538   3.033   0.132
14160TIP3   OH242422   7.073   3.867   0.206
14160TIP3    H142423   7.032   3.820   0.133
14160TIP3    H242424   7.166   3.870   0.183
14161TIP3   OH242425   5.129   3.961   5.399
14161TIP3    H142426   5.117   3.973   5.493
14161TIP3    H242427   5.112   4.047   5.361
14162TIP3   OH242428   5.582   3.777   3.610
14162TIP3    H142429   5.562   3.763   3.702
14162TIP3    H242430   5.588   3.872   3.600
14163TIP3   OH242431   6.102   5.160   3.598
14163TIP3    H142432   6.064   5.141   3.684
14163TIP3    H242433   6.134   5.075   3.567
14164TIP3   OH242434   4.314   5.124   0.897
14164TIP3    H142435   4.389   5.173   0.864
14164TIP3    H242436   4.278   5.179   0.967
14165TIP3   OH242437   7.719   3.829   2.234
14165TIP3    H142438   7.674   3.746   2.219
14165TIP3    H242439   7.680   3.863   2.315
14166TIP3   OH242440   0.554   4.408   4.436
14166TIP3    H142441   0.636   4.382   4.480
14166TIP3    H242442   0.556   4.504   4.436
14167TIP3   OH242443   3.707   4.427   1.962
14167TIP3    H142444   3.656   4.385   2.031
14167TIP3    H242445   3.751   4.354   1.917
14168TIP3   OH242446   0.609   6.736   6.310
14168TIP3    H142447   0.531   6.683   6.323
14168TIP3    H242448   0.576   6.824   6.293
14169TIP3   OH242449   5.118   5.723   0.128
14169TIP3    H142450   5.074   5.662   0.069
14169TIP3    H242451   5.195   5.675   0.159
14170TIP3   OH242452   6.938   1.081   6.163
14170TIP3    H142453   6.858   1.080   6.215
14170TIP3    H242454   7.005   1.116   6.222
14171TIP3   OH242455   1.298   3.905   5.186
14171TIP3    H142456   1.387   3.938   5.200
14171TIP3    H242457   1.245   3.984   5.174
14172TIP3   OH242458   8.103   2.260   2.197
14172TIP3    H142459   8.102   2.177   2.149
14172TIP3    H242460   8.115   2.234   2.289
14173TIP3   OH242461   4.737   3.709   3.066
14173TIP3    H142462   4.686   3.676   2.992
14173TIP3    H242463   4.824   3.672   3.053
14174TIP3   OH242464   0.956   7.268   2.673
14174TIP3    H142465   1.050   7.261   2.688
14174TIP3    H242466   0.916   7.213   2.740
14175TIP3   OH242467   2.991   4.304   4.499
14175TIP3    H142468   3.017   4.389   4.465
14175TIP3    H242469   3.006   4.243   4.426
14176TIP3   OH242470   5.646   6.176   0.792
14176TIP3    H142471   5.724   6.124   0.770
14176TIP3    H242472   5.649   6.250   0.731
14177TIP3   OH242473   3.829   0.385   3.790
14177TIP3    H142474   3.893   0.422   3.850
14177TIP3    H242475   3.760   0.350   3.846
14178TIP3   OH242476   2.279   3.989   1.340
14178TIP3    H142477   2.346   4.039   1.292
14178TIP3    H242478   2.289   4.018   1.431
14179TIP3   OH242479   5.561   6.378   1.593
14179TIP3    H142480   5.620   6.340   1.528
14179TIP3    H242481   5.553   6.470   1.568
14180TIP3   OH242482   4.805   0.629   2.982
14180TIP3    H142483   4.759   0.545   2.989
14180TIP3    H242484   4.818   0.642   2.888
14181TIP3   OH242485   6.054   2.055   2.189
14181TIP3    H142486   6.041   2.146   2.215
14181TIP3    H242487   6.132   2.057   2.134
14182TIP3   OH242488   3.576   1.975   2.230
14182TIP3    H142489   3.652   2.025   2.199
14182TIP3    H242490   3.555   2.014   2.315
14183TIP3   OH242491   5.496   2.742   0.665
14183TIP3    H142492   5.464   2.682   0.732
14183TIP3    H242493   5.481   2.829   0.701
14184TIP3   OH242494   2.677   6.546   1.995
14184TIP3    H142495   2.647   6.612   2.057
14184TIP3    H242496   2.761   6.579   1.963
14185TIP3   OH242497   3.496   3.262   0.041
14185TIP3    H142498   3.422   3.244  -0.017
14185TIP3    H242499   3.504   3.358   0.039
14186TIP3   OH242500   0.511   0.132   2.050
14186TIP3    H142501   0.505   0.138   1.955
14186TIP3    H242502   0.502   0.039   2.069
14187TIP3   OH242503   2.228   0.410   2.021
14187TIP3    H142504   2.293   0.369   1.963
14187TIP3    H242505   2.252   0.378   2.108
14188TIP3   OH242506   6.059   5.390   1.734
14188TIP3    H142507   6.066   5.460   1.669
14188TIP3    H242508   6.127   5.411   1.799
14189TIP3   OH242509   7.469   4.107   2.035
14189TIP3    H142510   7.436   4.078   2.120
14189TIP3    H242511   7.502   4.196   2.051
14190TIP3   OH242512   6.887   7.076   0.548
14190TIP3    H142513   6.798   7.100   0.573
14190TIP3    H242514   6.915   7.014   0.615
14191TIP3   OH242515   6.316   6.791   3.059
14191TIP3    H142516   6.384   6.843   3.103
14191TIP3    H242517   6.365   6.738   2.996
14192TIP3   OH242518   8.227   2.569   4.674
14192TIP3    H142519   8.202   2.649   4.720
14192TIP3    H242520   8.319   2.582   4.652
14193TIP3   OH242521   0.504   3.132   0.908
14193TIP3    H142522   0.449   3.211   0.906
14193TIP3    H242523   0.594   3.166   0.910
14194TIP3   OH242524   3.108   0.832   1.670
14194TIP3    H142525   3.199   0.862   1.668
14194TIP3    H242526   3.103   0.775   1.746
14195TIP3   OH242527   0.981   6.889   0.204
14195TIP3    H142528   1.029   6.906   0.123
14195TIP3    H242529   1.040   6.833   0.255
14196TIP3   OH242530   8.121   4.186   3.165
14196TIP3    H142531   8.163   4.143   3.239
14196TIP3    H242532   8.094   4.114   3.108
14197TIP3   OH242533   6.012   6.378   0.523
14197TIP3    H142534   6.071   6.453   0.516
14197TIP3    H242535   6.070   6.302   0.532
14198TIP3   OH242536   6.008   1.981   4.356
14198TIP3    H142537   5.951   1.922   4.406
14198TIP3    H242538   6.058   1.923   4.299
14199TIP3   OH242539   2.334   5.915   2.762
14199TIP3    H142540   2.310   5.957   2.845
14199TIP3    H242541   2.276   5.954   2.697
14200TIP3   OH242542   2.866   2.102   0.069
14200TIP3    H142543   2.897   2.125  -0.019
14200TIP3    H242544   2.774   2.080   0.057
14201TIP3   OH242545   0.819   1.437   4.887
14201TIP3    H142546   0.856   1.526   4.894
14201TIP3    H242547   0.746   1.437   4.948
14202TIP3   OH242548   2.245   1.997   5.522
14202TIP3    H142549   2.268   1.932   5.456
14202TIP3    H242550   2.223   2.075   5.471
14203TIP3   OH242551   6.983   2.949   6.490
14203TIP3    H142552   7.020   2.967   6.576
14203TIP3    H242553   6.890   2.932   6.506
14204TIP3   OH242554   1.842   6.720   1.698
14204TIP3    H142555   1.800   6.654   1.754
14204TIP3    H242556   1.910   6.758   1.754
14205TIP3   OH242557   5.827   3.875   1.403
14205TIP3    H142558   5.922   3.873   1.390
14205TIP3    H242559   5.795   3.803   1.349
14206TIP3   OH242560   1.231   2.508   3.289
14206TIP3    H142561   1.296   2.491   3.221
14206TIP3    H242562   1.266   2.581   3.338
14207TIP3   OH242563   8.288   3.161   5.245
14207TIP3    H142564   8.246   3.075   5.232
14207TIP3    H242565   8.219   3.215   5.284
14208TIP3   OH242566   4.610   0.322   5.440
14208TIP3    H142567   4.562   0.243   5.418
14208TIP3    H242568   4.563   0.393   5.396
14209TIP3   OH242569   3.078   0.274   5.120
14209TIP3    H142570   3.016   0.206   5.094
14209TIP3    H242571   3.161   0.246   5.082
14210TIP3   OH242572   1.435   5.769   0.857
14210TIP3    H142573   1.432   5.851   0.807
14210TIP3    H242574   1.344   5.751   0.880
14211TIP3   OH242575   1.001   5.667   2.146
14211TIP3    H142576   1.044   5.649   2.062
14211TIP3    H242577   1.061   5.724   2.193
14212TIP3   OH242578   1.883   5.490   0.786
14212TIP3    H142579   1.872   5.442   0.704
14212TIP3    H242580   1.930   5.429   0.844
14213TIP3   OH242581   0.882   4.811   5.696
14213TIP3    H142582   0.875   4.898   5.734
14213TIP3    H242583   0.839   4.819   5.611
14214TIP3   OH242584   6.894   6.449   4.017
14214TIP3    H142585   6.884   6.482   4.106
14214TIP3    H242586   6.839   6.507   3.964
14215TIP3   OH242587   3.124   0.900   6.468
14215TIP3    H142588   3.206   0.934   6.504
14215TIP3    H242589   3.063   0.973   6.472
14216TIP3   OH242590   7.891   4.589   6.121
14216TIP3    H142591   7.811   4.573   6.071
14216TIP3    H242592   7.962   4.574   6.059
14217TIP3   OH242593   3.903   3.988   1.401
14217TIP3    H142594   3.895   3.894   1.386
14217TIP3    H242595   3.980   3.997   1.457
14218TIP3   OH242596   1.016   6.044   2.152
14218TIP3    H142597   1.099   6.087   2.175
14218TIP3    H242598   0.999   5.986   2.226
14219TIP3   OH242599   7.179   6.667   0.901
14219TIP3    H142600   7.092   6.678   0.940
14219TIP3    H242601   7.220   6.753   0.909
14220TIP3   OH242602   3.114   3.578   2.719
14220TIP3    H142603   3.024   3.557   2.743
14220TIP3    H242604   3.161   3.583   2.802
14221TIP3   OH242605   0.906   5.504   0.406
14221TIP3    H142606   0.869   5.461   0.484
14221TIP3    H242607   0.833   5.505   0.343
14222TIP3   OH242608   5.080   1.747   2.698
14222TIP3    H142609   5.070   1.827   2.646
14222TIP3    H242610   4.997   1.738   2.744
14223TIP3   OH242611   0.823   5.585   5.190
14223TIP3    H142612   0.891   5.639   5.151
14223TIP3    H242613   0.858   5.560   5.275
14224TIP3   OH242614   3.541   0.516   2.634
14224TIP3    H142615   3.596   0.592   2.620
14224TIP3    H242616   3.566   0.454   2.566
14225TIP3   OH242617   4.125   2.063   5.001
14225TIP3    H142618   4.070   2.009   5.058
14225TIP3    H242619   4.209   2.017   4.997
14226TIP3   OH242620   4.318   6.682   0.340
14226TIP3    H142621   4.338   6.658   0.431
14226TIP3    H242622   4.403   6.687   0.297
14227TIP3   OH242623   6.186   6.150   0.555
14227TIP3    H142624   6.275   6.164   0.522
14227TIP3    H242625   6.193   6.165   0.650
14228TIP3   OH242626   4.693   7.720   6.450
14228TIP3    H142627   4.749   7.766   6.387
14228TIP3    H242628   4.616   7.776   6.459
14229TIP3   OH242629   0.742   6.422   2.742
14229TIP3    H142630   0.739   6.396   2.834
14229TIP3    H242631   0.818   6.479   2.735
14230TIP3   OH242632   5.361   3.741   2.750
14230TIP3    H142633   5.415   3.757   2.828
14230TIP3    H242634   5.273   3.726   2.784
14231TIP3   OH242635   1.548   5.175   2.523
14231TIP3    H142636   1.473   5.117   2.531
14231TIP3    H242637   1.513   5.262   2.542
14232TIP3   OH242638   4.156   2.927   4.474
14232TIP3    H142639   4.065   2.933   4.444
14232TIP3    H242640   4.153   2.864   4.546
14233TIP3   OH242641   4.689   3.755   6.610
14233TIP3    H142642   4.642   3.727   6.531
14233TIP3    H242643   4.699   3.675   6.661
14234TIP3   OH242644   5.858   2.641   0.938
14234TIP3    H142645   5.821   2.589   1.009
14234TIP3    H242646   5.939   2.677   0.973
14235TIP3   OH242647   4.584   4.285   4.291
14235TIP3    H142648   4.531   4.350   4.245
14235TIP3    H242649   4.668   4.328   4.304
14236TIP3   OH242650   3.489   7.657   4.277
14236TIP3    H142651   3.472   7.672   4.184
14236TIP3    H242652   3.486   7.562   4.287
14237TIP3   OH242653   0.586   2.445   5.954
14237TIP3    H142654   0.524   2.401   6.012
14237TIP3    H242655   0.671   2.431   5.995
14238TIP3   OH242656   2.691   3.660   2.341
14238TIP3    H142657   2.638   3.679   2.418
14238TIP3    H242658   2.640   3.594   2.293
14239TIP3   OH242659   6.866   0.000   6.288
14239TIP3    H142660   6.876   0.095   6.298
14239TIP3    H242661   6.903  -0.019   6.202
14240TIP3   OH242662   8.006   1.738   6.344
14240TIP3    H142663   7.993   1.648   6.372
14240TIP3    H242664   7.999   1.789   6.425
14241TIP3   OH242665   6.648   2.891   3.269
14241TIP3    H142666   6.626   2.960   3.206
14241TIP3    H242667   6.658   2.812   3.216
14242TIP3   OH242668   5.072   1.031   3.702
14242TIP3    H142669   5.056   0.975   3.778
14242TIP3    H242670   4.985   1.047   3.666
14243TIP3   OH242671   4.345   0.292   5.870
14243TIP3    H142672   4.335   0.218   5.929
14243TIP3    H242673   4.300   0.266   5.790
14244TIP3   OH242674   5.620   7.458   4.952
14244TIP3    H142675   5.627   7.364   4.934
14244TIP3    H242676   5.658   7.500   4.875
14245TIP3   OH242677   3.952   6.015   2.755
14245TIP3    H142678   4.003   6.007   2.674
14245TIP3    H242679   4.006   5.976   2.822
14246TIP3   OH242680   7.965   5.104   4.918
14246TIP3    H142681   7.986   5.183   4.968
14246TIP3    H242682   7.870   5.105   4.911
14247TIP3   OH242683   2.411   4.216   2.164
14247TIP3    H142684   2.456   4.255   2.239
14247TIP3    H242685   2.348   4.155   2.203
14248TIP3   OH242686   2.583   7.201   4.909
14248TIP3    H142687   2.678   7.199   4.893
14248TIP3    H242688   2.555   7.286   4.874
14249TIP3   OH242689   2.840   6.628   0.854
14249TIP3    H142690   2.847   6.686   0.778
14249TIP3    H242691   2.764   6.573   0.835
14250TIP3   OH242692   0.800   7.088   0.282
14250TIP3    H142693   0.852   7.011   0.257
14250TIP3    H242694   0.710   7.055   0.289
14251TIP3   OH242695   4.601   5.854   5.608
14251TIP3    H142696   4.695   5.866   5.618
14251TIP3    H242697   4.566   5.856   5.697
14252TIP3   OH242698   3.981   3.163   5.848
14252TIP3    H142699   4.042   3.150   5.775
14252TIP3    H242700   3.918   3.092   5.839
14253TIP3   OH242701   1.417   3.471   6.239
14253TIP3    H142702   1.470   3.467   6.159
14253TIP3    H242703   1.328   3.450   6.209
14254TIP3   OH242704   1.867   6.130   1.751
14254TIP3    H142705   1.906   6.211   1.717
14254TIP3    H242706   1.860   6.145   1.845
14255TIP3   OH242707   5.603   3.751   4.298
14255TIP3    H142708   5.676   3.738   4.237
14255TIP3    H242709   5.527   3.712   4.253
14256TIP3   OH242710   4.577   4.949   1.615
14256TIP3    H142711   4.493   4.923   1.652
14256TIP3    H242712   4.561   4.954   1.521
14257TIP3   OH242713   4.838   1.183   2.864
14257TIP3    H142714   4.927   1.216   2.849
14257TIP3    H242715   4.848   1.088   2.864
14258TIP3   OH242716   3.750   2.875   4.306
14258TIP3    H142717   3.756   2.964   4.272
14258TIP3    H242718   3.694   2.829   4.242
14259TIP3   OH242719   4.138   2.267   4.330
14259TIP3    H142720   4.090   2.235   4.254
14259TIP3    H242721   4.072   2.273   4.399
14260TIP3   OH242722   2.610   5.326   5.265
14260TIP3    H142723   2.562   5.387   5.209
14260TIP3    H242724   2.640   5.257   5.205
14261TIP3   OH242725   4.051   3.336   1.870
14261TIP3    H142726   4.067   3.336   1.775
14261TIP3    H242727   3.964   3.297   1.879
14262TIP3   OH242728   2.302   5.856   4.980
14262TIP3    H142729   2.264   5.826   4.897
14262TIP3    H242730   2.356   5.783   5.010
14263TIP3   OH242731   3.803   1.119   4.288
14263TIP3    H142732   3.818   1.042   4.342
14263TIP3    H242733   3.736   1.169   4.336
14264TIP3   OH242734   3.076   3.368   3.216
14264TIP3    H142735   3.159   3.323   3.228
14264TIP3    H242736   3.016   3.301   3.184
14265TIP3   OH242737   5.652   6.491   3.008
14265TIP3    H142738   5.572   6.481   2.956
14265TIP3    H242739   5.714   6.429   2.970
14266TIP3   OH242740   5.370   3.154   6.004
14266TIP3    H142741   5.449   3.176   6.052
14266TIP3    H242742   5.400   3.141   5.913
14267TIP3   OH242743   7.247   0.219   5.804
14267TIP3    H142744   7.275   0.278   5.733
14267TIP3    H242745   7.176   0.168   5.766
14268TIP3   OH242746   6.031   0.024   1.608
14268TIP3    H142747   6.045   0.065   1.523
14268TIP3    H242748   5.939  -0.003   1.608
14269TIP3   OH242749   1.701   5.223   0.877
14269TIP3    H142750   1.647   5.247   0.952
14269TIP3    H242751   1.788   5.208   0.915
14270TIP3   OH242752   4.201   6.200   1.108
14270TIP3    H142753   4.238   6.285   1.084
14270TIP3    H242754   4.276   6.149   1.138
14271TIP3   OH242755   1.334   6.059   5.982
14271TIP3    H142756   1.375   6.103   5.908
14271TIP3    H242757   1.393   5.987   6.004
14272TIP3   OH242758   5.710   0.177   2.847
14272TIP3    H142759   5.750   0.225   2.920
14272TIP3    H242760   5.692   0.091   2.883
14273TIP3   OH242761   6.310   3.404   4.761
14273TIP3    H142762   6.249   3.478   4.761
14273TIP3    H242763   6.356   3.411   4.844
14274TIP3   OH242764   7.196   3.711   5.281
14274TIP3    H142765   7.233   3.634   5.238
14274TIP3    H242766   7.267   3.748   5.333
14275TIP3   OH242767   4.170   6.774   2.988
14275TIP3    H142768   4.093   6.812   3.031
14275TIP3    H242769   4.229   6.750   3.059
14276TIP3   OH242770   5.787   3.224   6.692
14276TIP3    H142771   5.746   3.150   6.736
14276TIP3    H242772   5.832   3.271   6.762
14277TIP3   OH242773   0.457   4.903   3.596
14277TIP3    H142774   0.401   4.827   3.584
14277TIP3    H242775   0.426   4.944   3.677
14278TIP3   OH242776   5.337   1.688   6.433
14278TIP3    H142777   5.383   1.721   6.510
14278TIP3    H242778   5.380   1.605   6.413
14279TIP3   OH242779   1.297   5.569   4.489
14279TIP3    H142780   1.372   5.620   4.519
14279TIP3    H242781   1.229   5.633   4.471
14280TIP3   OH242782   4.740   4.179   0.318
14280TIP3    H142783   4.703   4.189   0.230
14280TIP3    H242784   4.739   4.084   0.334
14281TIP3   OH242785   0.067   7.726   2.049
14281TIP3    H142786  -0.019   7.686   2.066
14281TIP3    H242787   0.102   7.744   2.136
14282TIP3   OH242788   7.926   1.135   2.358
14282TIP3    H142789   7.895   1.070   2.421
14282TIP3    H242790   8.017   1.151   2.383
14283TIP3   OH242791   0.811   1.055   2.548
14283TIP3    H142792   0.879   1.036   2.614
14283TIP3    H242793   0.859   1.067   2.467
14284TIP3   OH242794   8.114   0.889   3.161
14284TIP3    H142795   8.159   0.969   3.188
14284TIP3    H242796   8.146   0.873   3.072
14285TIP3   OH242797   1.859   4.743   1.862
14285TIP3    H142798   1.943   4.734   1.909
14285TIP3    H242799   1.882   4.788   1.781
14286TIP3   OH242800   2.178   3.556   5.067
14286TIP3    H142801   2.264   3.555   5.026
14286TIP3    H242802   2.131   3.483   5.027
14287TIP3   OH242803   6.675   0.145   6.482
14287TIP3    H142804   6.732   0.161   6.406
14287TIP3    H242805   6.588   0.130   6.444
14288TIP3   OH242806   8.201   7.286   3.666
14288TIP3    H142807   8.130   7.322   3.613
14288TIP3    H242808   8.187   7.322   3.753
14289TIP3   OH242809   6.700   1.367   3.077
14289TIP3    H142810   6.680   1.294   3.134
14289TIP3    H242811   6.624   1.424   3.083
14290TIP3   OH242812   0.595   7.771   1.343
14290TIP3    H142813   0.618   7.823   1.266
14290TIP3    H242814   0.502   7.750   1.331
14291TIP3   OH242815   7.054   3.808   4.617
14291TIP3    H142816   7.144   3.810   4.584
14291TIP3    H242817   7.051   3.733   4.676
14292TIP3   OH242818   6.692   6.761   0.103
14292TIP3    H142819   6.636   6.732   0.175
14292TIP3    H242820   6.691   6.688   0.041
14293TIP3   OH242821   1.423   4.490   5.412
14293TIP3    H142822   1.359   4.543   5.365
14293TIP3    H242823   1.371   4.443   5.477
14294TIP3   OH242824   0.302   0.143   3.399
14294TIP3    H142825   0.355   0.207   3.352
14294TIP3    H242826   0.321   0.060   3.356
14295TIP3   OH242827   1.225   6.495   5.987
14295TIP3    H142828   1.141   6.450   5.998
14295TIP3    H242829   1.228   6.558   6.059
14296TIP3   OH242830   4.372   4.155   0.147
14296TIP3    H142831   4.443   4.193   0.095
14296TIP3    H242832   4.316   4.113   0.083
14297TIP3   OH242833   0.371   2.503   6.118
14297TIP3    H142834   0.331   2.511   6.204
14297TIP3    H242835   0.390   2.410   6.108
14298TIP3   OH242836   5.656   4.128   6.341
14298TIP3    H142837   5.723   4.160   6.402
14298TIP3    H242838   5.704   4.108   6.261
14299TIP3   OH242839   2.282   5.016   3.882
14299TIP3    H142840   2.212   5.054   3.935
14299TIP3    H242841   2.263   4.922   3.881
14300TIP3   OH242842   6.439   1.378   1.508
14300TIP3    H142843   6.476   1.337   1.429
14300TIP3    H242844   6.344   1.370   1.497
14301TIP3   OH242845   1.707   5.294   1.144
14301TIP3    H142846   1.692   5.246   1.225
14301TIP3    H242847   1.802   5.299   1.135
14302TIP3   OH242848   1.043   1.438   6.694
14302TIP3    H142849   0.975   1.502   6.671
14302TIP3    H242850   1.103   1.439   6.620
14303TIP3   OH242851   6.528   6.761   2.130
14303TIP3    H142852   6.579   6.803   2.061
14303TIP3    H242853   6.594   6.728   2.191
14304TIP3   OH242854   5.758   4.622   4.444
14304TIP3    H142855   5.852   4.628   4.431
14304TIP3    H242856   5.720   4.639   4.357
14305TIP3   OH242857   4.433   7.767   0.221
14305TIP3    H142858   4.526   7.760   0.244
14305TIP3    H242859   4.406   7.677   0.203
14306TIP3   OH242860   2.234   5.541   3.622
14306TIP3    H142861   2.304   5.479   3.642
14306TIP3    H242862   2.225   5.594   3.701
14307TIP3   OH242863   1.826   3.725   6.547
14307TIP3    H142864   1.908   3.752   6.589
14307TIP3    H242865   1.789   3.660   6.607
14308TIP3   OH242866   0.144   1.394   1.984
14308TIP3    H142867   0.176   1.457   2.048
14308TIP3    H242868   0.202   1.406   1.909
14309TIP3   OH242869   6.165   0.320   2.283
14309TIP3    H142870   6.104   0.249   2.260
14309TIP3    H242871   6.109   0.394   2.304
14310TIP3   OH242872   5.167   3.344   2.902
14310TIP3    H142873   5.075   3.356   2.881
14310TIP3    H242874   5.194   3.267   2.852
14311TIP3   OH242875   6.379   4.815   1.904
14311TIP3    H142876   6.409   4.786   1.991
14311TIP3    H242877   6.292   4.851   1.920
14312TIP3   OH242878   1.141   1.102   1.918
14312TIP3    H142879   1.077   1.171   1.931
14312TIP3    H242880   1.116   1.060   1.836
14313TIP3   OH242881   1.411   4.428   1.832
14313TIP3    H142882   1.363   4.396   1.909
14313TIP3    H242883   1.417   4.352   1.775
14314TIP3   OH242884   8.127   0.673   2.855
14314TIP3    H142885   8.166   0.621   2.925
14314TIP3    H242886   8.134   0.764   2.886
14315TIP3   OH242887   7.965   5.588   1.575
14315TIP3    H142888   7.899   5.527   1.607
14315TIP3    H242889   7.969   5.573   1.481
14316TIP3   OH242890   0.444   2.548   1.693
14316TIP3    H142891   0.379   2.508   1.751
14316TIP3    H242892   0.448   2.639   1.721
14317TIP3   OH242893   2.226   6.557   2.142
14317TIP3    H142894   2.267   6.608   2.072
14317TIP3    H242895   2.251   6.602   2.223
14318TIP3   OH242896   3.143   6.407   6.100
14318TIP3    H142897   3.187   6.383   6.181
14318TIP3    H242898   3.204   6.381   6.031
14319TIP3   OH242899   6.844   6.721   5.294
14319TIP3    H142900   6.850   6.626   5.291
14319TIP3    H242901   6.842   6.748   5.202
14320TIP3   OH242902   0.993   5.923   2.758
14320TIP3    H142903   1.015   5.943   2.849
14320TIP3    H242904   0.920   5.982   2.737
14321TIP3   OH242905   4.418   4.511   0.487
14321TIP3    H142906   4.416   4.606   0.503
14321TIP3    H242907   4.379   4.500   0.401
14322TIP3   OH242908   5.430   1.772   2.780
14322TIP3    H142909   5.381   1.696   2.747
14322TIP3    H242910   5.363   1.839   2.793
14323TIP3   OH242911   0.010   6.237   5.479
14323TIP3    H142912  -0.010   6.147   5.456
14323TIP3    H242913   0.097   6.252   5.442
14324TIP3   OH242914   2.314   3.106   2.828
14324TIP3    H142915   2.305   3.111   2.733
14324TIP3    H242916   2.260   3.030   2.853
14325TIP3   OH242917   3.232   6.670   4.706
14325TIP3    H142918   3.229   6.658   4.801
14325TIP3    H242919   3.284   6.596   4.674
14326TIP3   OH242920   7.414   4.574   4.605
14326TIP3    H142921   7.409   4.585   4.700
14326TIP3    H242922   7.325   4.550   4.579
14327TIP3   OH242923   2.634   2.732   1.653
14327TIP3    H142924   2.617   2.638   1.651
14327TIP3    H242925   2.553   2.771   1.686
14328TIP3   OH242926   1.569   0.238   3.676
14328TIP3    H142927   1.544   0.146   3.668
14328TIP3    H242928   1.597   0.263   3.588
14329TIP3   OH242929   0.563   2.294   2.445
14329TIP3    H142930   0.640   2.321   2.394
14329TIP3    H242931   0.585   2.207   2.478
14330TIP3   OH242932   6.284   2.855   3.796
14330TIP3    H142933   6.375   2.884   3.798
14330TIP3    H242934   6.238   2.924   3.749
14331TIP3   OH242935   5.801   5.817   2.298
14331TIP3    H142936   5.755   5.803   2.380
14331TIP3    H242937   5.732   5.815   2.231
14332TIP3   OH242938   2.605   4.437   5.283
14332TIP3    H142939   2.585   4.384   5.205
14332TIP3    H242940   2.522   4.477   5.308
14333TIP3   OH242941   0.961   6.405   6.029
14333TIP3    H142942   0.955   6.350   6.108
14333TIP3    H242943   0.935   6.492   6.059
14334TIP3   OH242944   5.572   4.877   3.770
14334TIP3    H142945   5.526   4.857   3.688
14334TIP3    H242946   5.662   4.849   3.754
14335TIP3   OH242947   7.668   7.638   1.659
14335TIP3    H142948   7.584   7.618   1.617
14335TIP3    H242949   7.733   7.607   1.597
14336TIP3   OH242950   7.750   6.918   6.242
14336TIP3    H142951   7.723   6.827   6.230
14336TIP3    H242952   7.845   6.917   6.231
14337TIP3   OH242953   5.520   3.313   0.044
14337TIP3    H142954   5.481   3.324  -0.043
14337TIP3    H242955   5.481   3.232   0.077
14338TIP3   OH242956   5.541   2.977   3.969
14338TIP3    H142957   5.582   2.926   4.039
14338TIP3    H242958   5.527   3.063   4.007
14339TIP3   OH242959   0.294   1.641   1.369
14339TIP3    H142960   0.337   1.726   1.356
14339TIP3    H242961   0.286   1.604   1.281
14340TIP3   OH242962   1.146   7.456   2.246
14340TIP3    H142963   1.136   7.363   2.230
14340TIP3    H242964   1.070   7.497   2.205
14341TIP3   OH242965   4.818   1.130   3.170
14341TIP3    H142966   4.840   1.145   3.078
14341TIP3    H242967   4.866   1.198   3.218
14342TIP3   OH242968   5.436   5.763   4.636
14342TIP3    H142969   5.495   5.787   4.565
14342TIP3    H242970   5.486   5.702   4.690
14343TIP3   OH242971   6.132   3.665   4.685
14343TIP3    H142972   6.126   3.664   4.589
14343TIP3    H242973   6.088   3.747   4.710
14344TIP3   OH242974   8.263   3.607   3.096
14344TIP3    H142975   8.242   3.700   3.106
14344TIP3    H242976   8.181   3.562   3.114
14345TIP3   OH242977   0.218   0.513   2.500
14345TIP3    H142978   0.233   0.605   2.520
14345TIP3    H242979   0.159   0.514   2.425
14346TIP3   OH242980   4.970   4.737   2.905
14346TIP3    H142981   4.896   4.724   2.963
14346TIP3    H242982   4.989   4.649   2.871
14347TIP3   OH242983   1.085   1.986   1.212
14347TIP3    H142984   1.161   1.942   1.250
14347TIP3    H242985   1.023   1.915   1.193
14348TIP3   OH242986   1.143   3.956   6.698
14348TIP3    H142987   1.221   3.940   6.646
14348TIP3    H242988   1.167   4.028   6.757
14349TIP3   OH242989   3.010   1.650   0.164
14349TIP3    H142990   2.930   1.606   0.136
14349TIP3    H242991   3.041   1.598   0.238
14350TIP3   OH242992   1.366   2.105   0.479
14350TIP3    H142993   1.421   2.035   0.514
14350TIP3    H242994   1.365   2.090   0.384
14351TIP3   OH242995   6.438   4.713   5.055
14351TIP3    H142996   6.363   4.770   5.036
14351TIP3    H242997   6.499   4.728   4.983
14352TIP3   OH242998   4.491   0.421   0.661
14352TIP3    H142999   4.438   0.358   0.612
14352TIP3    H243000   4.437   0.444   0.737
14353TIP3   OH243001   5.111   0.317   2.674
14353TIP3    H143002   5.096   0.336   2.581
14353TIP3    H243003   5.206   0.321   2.684
14354TIP3   OH243004   0.141   3.636   1.842
14354TIP3    H143005   0.191   3.682   1.909
14354TIP3    H243006   0.158   3.684   1.762
14355TIP3   OH243007   3.624   2.860   4.972
14355TIP3    H143008   3.600   2.924   5.038
14355TIP3    H243009   3.666   2.789   5.020
14356TIP3   OH243010   8.082   1.277   3.524
14356TIP3    H143011   8.009   1.266   3.584
14356TIP3    H243012   8.101   1.189   3.493
14357TIP3   OH243013   2.982   4.909   3.280
14357TIP3    H143014   3.019   4.856   3.351
14357TIP3    H243015   2.981   4.850   3.204
14358TIP3   OH243016   0.945   3.611   6.369
14358TIP3    H143017   1.011   3.620   6.437
14358TIP3    H243018   0.879   3.677   6.389
14359TIP3   OH243019   4.697   1.541   1.446
14359TIP3    H143020   4.757   1.543   1.520
14359TIP3    H243021   4.735   1.603   1.383
14360TIP3   OH243022   0.448   3.753   5.305
14360TIP3    H143023   0.443   3.695   5.381
14360TIP3    H243024   0.492   3.701   5.238
14361TIP3   OH243025   7.408   5.494   3.472
14361TIP3    H143026   7.366   5.490   3.558
14361TIP3    H243027   7.348   5.448   3.414
14362TIP3   OH243028   4.119   2.305   5.980
14362TIP3    H143029   4.121   2.216   6.015
14362TIP3    H243030   4.054   2.301   5.910
14363TIP3   OH243031   6.839   2.373   3.005
14363TIP3    H143032   6.891   2.442   3.046
14363TIP3    H243033   6.752   2.412   2.993
14364TIP3   OH243034   4.285   3.467   3.714
14364TIP3    H143035   4.212   3.483   3.655
14364TIP3    H243036   4.243   3.448   3.799
14365TIP3   OH243037   3.371   3.850   5.388
14365TIP3    H143038   3.426   3.863   5.465
14365TIP3    H243039   3.375   3.756   5.372
14366TIP3   OH243040   1.684   4.348   6.397
14366TIP3    H143041   1.687   4.422   6.459
14366TIP3    H243042   1.621   4.375   6.331
14367TIP3   OH243043   7.528   0.698   3.252
14367TIP3    H143044   7.436   0.702   3.277
14367TIP3    H243045   7.553   0.606   3.266
14368TIP3   OH243046   7.472   5.208   0.438
14368TIP3    H143047   7.527   5.130   0.429
14368TIP3    H243048   7.404   5.182   0.500
14369TIP3   OH243049   3.711   7.002   3.404
14369TIP3    H143050   3.770   6.929   3.424
14369TIP3    H243051   3.625   6.962   3.392
14370TIP3   OH243052   7.942   3.534   2.849
14370TIP3    H143053   8.005   3.538   2.777
14370TIP3    H243054   7.858   3.555   2.808
14371TIP3   OH243055   1.900   6.616   3.346
14371TIP3    H143056   1.957   6.693   3.355
14371TIP3    H243057   1.898   6.599   3.251
14372TIP3   OH243058   6.897   4.227   1.612
14372TIP3    H143059   6.859   4.143   1.638
14372TIP3    H243060   6.928   4.266   1.693
14373TIP3   OH243061   0.665   2.046   3.054
14373TIP3    H143062   0.730   2.014   3.117
14373TIP3    H243063   0.711   2.113   3.004
14374TIP3   OH243064   3.627   2.992   5.228
14374TIP3    H143065   3.720   2.978   5.245
14374TIP3    H243066   3.617   3.087   5.223
14375TIP3   OH243067   1.621   7.342   1.894
14375TIP3    H143068   1.709   7.339   1.855
14375TIP3    H243069   1.634   7.387   1.978
14376TIP3   OH243070   7.156   2.283   4.359
14376TIP3    H143071   7.157   2.346   4.286
14376TIP3    H243072   7.208   2.209   4.327
14377TIP3   OH243073   8.277   5.021   0.878
14377TIP3    H143074   8.211   4.972   0.926
14377TIP3    H243075   8.240   5.108   0.868
14378TIP3   OH243076   1.142   0.319   5.697
14378TIP3    H143077   1.176   0.361   5.776
14378TIP3    H243078   1.214   0.264   5.666
14379TIP3   OH243079   6.657   2.454   1.806
14379TIP3    H143080   6.715   2.488   1.738
14379TIP3    H243081   6.669   2.359   1.803
14380TIP3   OH243082   7.656   4.717   1.550
14380TIP3    H143083   7.663   4.641   1.608
14380TIP3    H243084   7.737   4.718   1.500
14381TIP3   OH243085   8.184   5.527   0.966
14381TIP3    H143086   8.260   5.585   0.974
14381TIP3    H243087   8.116   5.569   1.018
14382TIP3   OH243088   0.400   0.884   0.416
14382TIP3    H143089   0.474   0.917   0.465
14382TIP3    H243090   0.383   0.951   0.350
14383TIP3   OH243091   3.097   2.377   4.567
14383TIP3    H143092   3.031   2.350   4.630
14383TIP3    H243093   3.180   2.358   4.609
14384TIP3   OH243094   0.077   4.346   0.439
14384TIP3    H143095   0.142   4.292   0.393
14384TIP3    H243096   0.058   4.417   0.378
14385TIP3   OH243097   2.226   5.093   3.094
14385TIP3    H143098   2.163   5.068   3.027
14385TIP3    H243099   2.174   5.107   3.173
14386TIP3   OH243100   4.342   2.409   3.000
14386TIP3    H143101   4.393   2.395   2.920
14386TIP3    H243102   4.294   2.327   3.012
14387TIP3   OH243103   1.253   5.128   1.533
14387TIP3    H143104   1.273   5.091   1.619
14387TIP3    H243105   1.331   5.179   1.509
14388TIP3   OH243106   5.782   0.261   3.109
14388TIP3    H143107   5.831   0.213   3.177
14388TIP3    H243108   5.703   0.292   3.154
14389TIP3   OH243109   6.222   5.827   4.295
14389TIP3    H143110   6.284   5.823   4.368
14389TIP3    H243111   6.137   5.806   4.335
14390TIP3   OH243112   1.091   2.169   4.771
14390TIP3    H143113   1.093   2.166   4.676
14390TIP3    H243114   1.060   2.257   4.792
14391TIP3   OH243115   6.814   1.406   1.439
14391TIP3    H143116   6.906   1.396   1.414
14391TIP3    H243117   6.772   1.441   1.360
14392TIP3   OH243118   1.947   6.500   5.849
14392TIP3    H143119   1.914   6.471   5.764
14392TIP3    H243120   1.869   6.509   5.904
14393TIP3   OH243121   4.638   3.948   2.606
14393TIP3    H143122   4.583   3.921   2.679
14393TIP3    H243123   4.726   3.917   2.630
14394TIP3   OH243124   3.207   2.017   4.610
14394TIP3    H143125   3.279   2.046   4.666
14394TIP3    H243126   3.154   1.959   4.666
14395TIP3   OH243127   7.208   2.713   1.082
14395TIP3    H143128   7.182   2.749   0.997
14395TIP3    H243129   7.188   2.620   1.075
14396TIP3   OH243130   2.649   0.826   3.170
14396TIP3    H143131   2.663   0.732   3.155
14396TIP3    H243132   2.690   0.843   3.255
14397TIP3   OH243133   5.243   4.310   1.538
14397TIP3    H143134   5.325   4.356   1.521
14397TIP3    H243135   5.176   4.378   1.538
14398TIP3   OH243136   2.526   4.044   6.409
14398TIP3    H143137   2.583   4.118   6.430
14398TIP3    H243138   2.533   4.034   6.315
14399TIP3   OH243139   3.748   5.101   3.534
14399TIP3    H143140   3.685   5.073   3.600
14399TIP3    H243141   3.829   5.055   3.558
14400TIP3   OH243142   4.030   1.250   4.338
14400TIP3    H143143   3.943   1.210   4.329
14400TIP3    H243144   4.084   1.184   4.380
14401TIP3   OH243145   6.748   5.142   4.312
14401TIP3    H143146   6.799   5.069   4.349
14401TIP3    H243147   6.757   5.212   4.376
14402TIP3   OH243148   3.131   7.477   0.257
14402TIP3    H143149   3.116   7.527   0.177
14402TIP3    H243150   3.049   7.485   0.306
14403TIP3   OH243151   6.307   5.548   4.461
14403TIP3    H143152   6.318   5.509   4.375
14403TIP3    H243153   6.361   5.627   4.459
14404TIP3   OH243154   2.277   6.663   0.279
14404TIP3    H143155   2.338   6.604   0.236
14404TIP3    H243156   2.323   6.691   0.359
14405TIP3   OH243157   5.145   0.061   0.222
14405TIP3    H143158   5.195  -0.019   0.208
14405TIP3    H243159   5.150   0.108   0.138
14406TIP3   OH243160   2.155   3.490   2.266
14406TIP3    H143161   2.103   3.414   2.241
14406TIP3    H243162   2.110   3.564   2.226
14407TIP3   OH243163   0.896   2.884   0.863
14407TIP3    H143164   0.935   2.932   0.790
14407TIP3    H243165   0.889   2.794   0.831
14408TIP3   OH243166   3.611   2.629   1.782
14408TIP3    H143167   3.641   2.561   1.843
14408TIP3    H243168   3.598   2.583   1.699
14409TIP3   OH243169   4.889   2.177   3.814
14409TIP3    H143170   4.844   2.202   3.894
14409TIP3    H243171   4.854   2.090   3.792
14410TIP3   OH243172   5.655   0.262   0.707
14410TIP3    H143173   5.628   0.218   0.627
14410TIP3    H243174   5.691   0.346   0.677
14411TIP3   OH243175   1.895   2.591   2.489
14411TIP3    H143176   1.900   2.628   2.577
14411TIP3    H243177   1.949   2.511   2.494
14412TIP3   OH243178   5.146   2.184   6.721
14412TIP3    H143179   5.196   2.241   6.779
14412TIP3    H243180   5.075   2.149   6.776
14413TIP3   OH243181   2.367   4.897   2.978
14413TIP3    H143182   2.339   4.972   3.030
14413TIP3    H243183   2.328   4.821   3.022
14414TIP3   OH243184   4.908   5.295   6.680
14414TIP3    H143185   4.922   5.253   6.595
14414TIP3    H243186   4.971   5.252   6.739
14415TIP3   OH243187   3.322   1.705   2.965
14415TIP3    H143188   3.314   1.683   3.057
14415TIP3    H243189   3.399   1.761   2.959
14416TIP3   OH243190   3.091   4.017   4.038
14416TIP3    H143191   3.053   3.940   4.081
14416TIP3    H243192   3.022   4.047   3.978
14417TIP3   OH243193   5.661   7.499   5.452
14417TIP3    H143194   5.653   7.515   5.358
14417TIP3    H243195   5.746   7.455   5.461
14418TIP3   OH243196   3.999   5.694   4.694
14418TIP3    H143197   3.961   5.616   4.736
14418TIP3    H243198   4.088   5.667   4.671
14419TIP3   OH243199   3.352   3.718   0.787
14419TIP3    H143200   3.398   3.800   0.767
14419TIP3    H243201   3.267   3.746   0.821
14420TIP3   OH243202   7.212   1.490   0.500
14420TIP3    H143203   7.150   1.512   0.431
14420TIP3    H243204   7.243   1.574   0.533
14421TIP3   OH243205   2.721   3.197   1.703
14421TIP3    H143206   2.779   3.167   1.633
14421TIP3    H243207   2.759   3.160   1.783
14422TIP3   OH243208   7.972   3.250   1.649
14422TIP3    H143209   7.917   3.327   1.630
14422TIP3    H243210   8.002   3.264   1.739
14423TIP3   OH243211   2.136   7.422   2.282
14423TIP3    H143212   2.145   7.328   2.300
14423TIP3    H243213   2.226   7.453   2.274
14424TIP3   OH243214   5.573   1.048   6.346
14424TIP3    H143215   5.579   1.127   6.399
14424TIP3    H243216   5.657   1.043   6.300
14425TIP3   OH243217   1.981   3.279   2.050
14425TIP3    H143218   2.028   3.258   1.969
14425TIP3    H243219   1.927   3.355   2.027
14426TIP3   OH243220   1.677   0.193   6.406
14426TIP3    H143221   1.742   0.155   6.465
14426TIP3    H243222   1.678   0.286   6.426
14427TIP3   OH243223   6.900   0.287   2.484
14427TIP3    H143224   6.846   0.311   2.409
14427TIP3    H243225   6.838   0.269   2.554
14428TIP3   OH243226   6.993   3.523   0.570
14428TIP3    H143227   7.075   3.531   0.619
14428TIP3    H243228   6.987   3.431   0.547
14429TIP3   OH243229   6.248   2.134   0.715
14429TIP3    H143230   6.252   2.039   0.703
14429TIP3    H243231   6.309   2.169   0.651
14430TIP3   OH243232   3.015   5.161   4.825
14430TIP3    H143233   2.958   5.134   4.897
14430TIP3    H243234   3.103   5.146   4.858
14431TIP3   OH243235   1.603   3.676   3.520
14431TIP3    H143236   1.571   3.616   3.453
14431TIP3    H243237   1.590   3.630   3.602
14432TIP3   OH243238   5.351   1.022   2.774
14432TIP3    H143239   5.429   0.972   2.801
14432TIP3    H243240   5.301   1.033   2.854
14433TIP3   OH243241   3.940   2.256   6.343
14433TIP3    H143242   3.942   2.243   6.248
14433TIP3    H243243   3.926   2.169   6.379
14434TIP3   OH243244   4.602   4.836   5.945
14434TIP3    H143245   4.607   4.752   5.901
14434TIP3    H243246   4.513   4.839   5.980
14435TIP3   OH243247   4.493   7.603   5.677
14435TIP3    H143248   4.515   7.647   5.759
14435TIP3    H243249   4.415   7.553   5.697
14436TIP3   OH243250   7.299   5.531   0.479
14436TIP3    H143251   7.260   5.474   0.545
14436TIP3    H243252   7.278   5.490   0.395
14437TIP3   OH243253   6.813   1.222   4.415
14437TIP3    H143254   6.866   1.233   4.336
14437TIP3    H243255   6.735   1.275   4.398
14438TIP3   OH243256   8.218   3.850   3.240
14438TIP3    H143257   8.250   3.831   3.328
14438TIP3    H243258   8.124   3.834   3.244
14439TIP3   OH243259   1.112   5.742   1.381
14439TIP3    H143260   1.198   5.746   1.338
14439TIP3    H243261   1.078   5.831   1.376
14440TIP3   OH243262   5.487   0.911   3.180
14440TIP3    H143263   5.418   0.946   3.236
14440TIP3    H243264   5.552   0.876   3.241
14441TIP3   OH243265   7.451   5.043   4.448
14441TIP3    H143266   7.500   5.111   4.401
14441TIP3    H243267   7.500   4.962   4.430
14442TIP3   OH243268   4.763   3.550   6.264
14442TIP3    H143269   4.713   3.631   6.265
14442TIP3    H243270   4.773   3.529   6.171
14443TIP3   OH243271   5.356   7.590   5.012
14443TIP3    H143272   5.331   7.528   5.080
14443TIP3    H243273   5.448   7.570   4.994
14444TIP3   OH243274   6.477   7.074   2.660
14444TIP3    H143275   6.533   7.108   2.729
14444TIP3    H243276   6.399   7.043   2.706
14445TIP3   OH243277   1.833   7.694   1.878
14445TIP3    H143278   1.853   7.683   1.785
14445TIP3    H243279   1.886   7.627   1.922
14446TIP3   OH243280   4.318   7.020   0.814
14446TIP3    H143281   4.389   7.081   0.833
14446TIP3    H243282   4.238   7.071   0.826
14447TIP3   OH243283   3.857   6.570   3.886
14447TIP3    H143284   3.786   6.529   3.838
14447TIP3    H243285   3.817   6.600   3.968
14448TIP3   OH243286   2.883   6.012   1.044
14448TIP3    H143287   2.881   6.071   1.119
14448TIP3    H243288   2.809   5.952   1.059
14449TIP3   OH243289   4.393   5.806   2.686
14449TIP3    H143290   4.319   5.749   2.668
14449TIP3    H243291   4.414   5.846   2.601
14450TIP3   OH243292   8.042   1.164   4.047
14450TIP3    H143293   7.984   1.239   4.062
14450TIP3    H243294   7.999   1.091   4.092
14451TIP3   OH243295   1.729   6.088   4.413
14451TIP3    H143296   1.655   6.140   4.383
14451TIP3    H243297   1.803   6.147   4.410
14452TIP3   OH243298   7.473   2.327   2.725
14452TIP3    H143299   7.466   2.362   2.636
14452TIP3    H243300   7.433   2.240   2.720
14453TIP3   OH243301   7.998   7.734   3.981
14453TIP3    H143302   8.074   7.732   3.924
14453TIP3    H243303   8.030   7.771   4.063
14454TIP3   OH243304   0.263   5.997   5.572
14454TIP3    H143305   0.262   6.069   5.509
14454TIP3    H243306   0.179   5.954   5.561
14455TIP3   OH243307   2.021   2.887   0.913
14455TIP3    H143308   1.987   2.905   1.000
14455TIP3    H243309   2.079   2.961   0.894
14456TIP3   OH243310   4.979   6.440   3.486
14456TIP3    H143311   5.010   6.529   3.464
14456TIP3    H243312   4.900   6.429   3.432
14457TIP3   OH243313   1.577   3.651   6.053
14457TIP3    H143314   1.597   3.695   6.136
14457TIP3    H243315   1.520   3.712   6.007
14458TIP3   OH243316   7.793   4.284   0.662
14458TIP3    H143317   7.701   4.268   0.685
14458TIP3    H243318   7.843   4.245   0.734
14459TIP3   OH243319   0.109   4.614   5.659
14459TIP3    H143320   0.017   4.623   5.632
14459TIP3    H243321   0.111   4.647   5.749
14460TIP3   OH243322   4.702   0.691   5.034
14460TIP3    H143323   4.700   0.666   4.942
14460TIP3    H243324   4.791   0.668   5.063
14461TIP3   OH243325   5.312   5.288   2.795
14461TIP3    H143326   5.372   5.226   2.837
14461TIP3    H243327   5.348   5.300   2.707
14462TIP3   OH243328   3.351   5.221   5.301
14462TIP3    H143329   3.356   5.304   5.349
14462TIP3    H243330   3.376   5.155   5.366
14463TIP3   OH243331   2.810   2.678   6.567
14463TIP3    H143332   2.895   2.709   6.536
14463TIP3    H243333   2.747   2.715   6.505
14464TIP3   OH243334   5.441   5.885   2.706
14464TIP3    H143335   5.472   5.916   2.621
14464TIP3    H243336   5.425   5.965   2.756
14465TIP3   OH243337   2.049   0.412   3.231
14465TIP3    H143338   2.011   0.495   3.200
14465TIP3    H243339   2.112   0.388   3.163
14466TIP3   OH243340   3.155   0.094   2.243
14466TIP3    H143341   3.247   0.088   2.268
14466TIP3    H243342   3.144   0.025   2.177
14467TIP3   OH243343   0.199   4.721   1.500
14467TIP3    H143344   0.253   4.800   1.492
14467TIP3    H243345   0.263   4.651   1.514
14468TIP3   OH243346   7.272   1.241   0.200
14468TIP3    H143347   7.269   1.182   0.276
14468TIP3    H243348   7.221   1.195   0.133
14469TIP3   OH243349   6.978   4.416   0.297
14469TIP3    H143350   7.061   4.430   0.344
14469TIP3    H243351   6.969   4.493   0.240
14470TIP3   OH243352   2.373   7.728   3.907
14470TIP3    H143353   2.458   7.685   3.901
14470TIP3    H243354   2.392   7.821   3.893
14471TIP3   OH243355   0.912   0.932   2.828
14471TIP3    H143356   0.953   0.885   2.901
14471TIP3    H243357   0.979   0.933   2.759
14472TIP3   OH243358   5.432   2.902   2.488
14472TIP3    H143359   5.496   2.835   2.511
14472TIP3    H243360   5.463   2.939   2.406
14473TIP3   OH243361   7.537   5.409   2.298
14473TIP3    H143362   7.588   5.337   2.261
14473TIP3    H243363   7.602   5.478   2.313
14474TIP3   OH243364   7.072   6.380   2.158
14474TIP3    H143365   6.978   6.386   2.178
14474TIP3    H243366   7.097   6.293   2.189
14475TIP3   OH243367   2.580   4.525   0.374
14475TIP3    H143368   2.594   4.486   0.288
14475TIP3    H243369   2.640   4.600   0.377
14476TIP3   OH243370   4.901   4.482   0.706
14476TIP3    H143371   4.819   4.479   0.658
14476TIP3    H243372   4.876   4.511   0.794
14477TIP3   OH243373   1.436   4.912   5.904
14477TIP3    H143374   1.356   4.915   5.852
14477TIP3    H243375   1.442   4.822   5.933
14478TIP3   OH243376   6.655   4.765   3.385
14478TIP3    H143377   6.713   4.709   3.435
14478TIP3    H243378   6.663   4.734   3.295
14479TIP3   OH243379   6.833   0.499   6.431
14479TIP3    H143380   6.766   0.567   6.436
14479TIP3    H243381   6.871   0.496   6.519
14480TIP3   OH243382   7.976   6.455   1.751
14480TIP3    H143383   7.924   6.508   1.690
14480TIP3    H243384   8.001   6.515   1.821
14481TIP3   OH243385   0.926   7.221   0.058
14481TIP3    H143386   0.864   7.192   0.125
14481TIP3    H243387   0.947   7.311   0.082
14482TIP3   OH243388   0.515   2.324   0.129
14482TIP3    H143389   0.564   2.406   0.138
14482TIP3    H243390   0.581   2.256   0.121
14483TIP3   OH243391   0.770   6.346   1.302
14483TIP3    H143392   0.836   6.298   1.252
14483TIP3    H243393   0.814   6.368   1.385
14484TIP3   OH243394   2.238   4.481   1.171
14484TIP3    H143395   2.243   4.560   1.118
14484TIP3    H243396   2.248   4.409   1.109
14485TIP3   OH243397   5.555   0.794   6.435
14485TIP3    H143398   5.470   0.782   6.477
14485TIP3    H243399   5.550   0.881   6.395
14486TIP3   OH243400   1.628   2.687   0.096
14486TIP3    H143401   1.546   2.677   0.145
14486TIP3    H243402   1.641   2.602   0.054
14487TIP3   OH243403   0.379   5.575   0.049
14487TIP3    H143404   0.381   5.575   0.144
14487TIP3    H243405   0.465   5.607   0.023
14488TIP3   OH243406   3.131   7.732   4.025
14488TIP3    H143407   3.139   7.680   4.106
14488TIP3    H243408   3.043   7.769   4.029
14489TIP3   OH243409   8.002   0.161   4.052
14489TIP3    H143410   7.930   0.217   4.080
14489TIP3    H243411   8.041   0.127   4.133
14490TIP3   OH243412   0.860   5.400   4.944
14490TIP3    H143413   0.931   5.464   4.932
14490TIP3    H243414   0.876   5.334   4.876
14491TIP3   OH243415   1.096   0.164   5.357
14491TIP3    H143416   1.167   0.149   5.419
14491TIP3    H243417   1.114   0.250   5.320
14492TIP3   OH243418   6.244   7.645   4.251
14492TIP3    H143419   6.256   7.739   4.264
14492TIP3    H243420   6.237   7.634   4.156
14493TIP3   OH243421   7.560   6.147   5.692
14493TIP3    H143422   7.610   6.186   5.620
14493TIP3    H243423   7.626   6.107   5.749
14494TIP3   OH243424   4.958   3.821   6.639
14494TIP3    H143425   4.867   3.794   6.628
14494TIP3    H243426   4.983   3.856   6.554
14495TIP3   OH243427   6.776   1.279   1.678
14495TIP3    H143428   6.867   1.251   1.690
14495TIP3    H243429   6.779   1.336   1.601
14496TIP3   OH243430   5.105   5.952   1.618
14496TIP3    H143431   5.075   5.940   1.528
14496TIP3    H243432   5.187   6.000   1.610
14497TIP3   OH243433   7.882   7.500   0.523
14497TIP3    H143434   7.892   7.469   0.433
14497TIP3    H243435   7.971   7.501   0.558
14498TIP3   OH243436   0.748   7.682   3.489
14498TIP3    H143437   0.831   7.674   3.443
14498TIP3    H243438   0.694   7.611   3.454
14499TIP3   OH243439   4.673   0.382   6.695
14499TIP3    H143440   4.599   0.435   6.727
14499TIP3    H243441   4.643   0.347   6.612
14500TIP3   OH243442   5.048   6.753   6.140
14500TIP3    H143443   5.035   6.818   6.071
14500TIP3    H243444   5.048   6.805   6.221
14501TIP3   OH243445   2.996   7.755   1.577
14501TIP3    H143446   3.015   7.662   1.591
14501TIP3    H243447   2.955   7.783   1.658
14502TIP3   OH243448   1.501   2.457   6.755
14502TIP3    H143449   1.440   2.384   6.749
14502TIP3    H243450   1.545   2.460   6.670
14503TIP3   OH243451   7.493   4.405   3.586
14503TIP3    H143452   7.413   4.449   3.613
14503TIP3    H243453   7.558   4.432   3.650
14504TIP3   OH243454   1.154   3.189   1.963
14504TIP3    H143455   1.205   3.120   2.005
14504TIP3    H243456   1.196   3.201   1.877
14505TIP3   OH243457   4.852   7.780   5.420
14505TIP3    H143458   4.937   7.784   5.376
14505TIP3    H243459   4.868   7.726   5.498
14506TIP3   OH243460   0.236   4.536   2.289
14506TIP3    H143461   0.295   4.592   2.240
14506TIP3    H243462   0.213   4.586   2.367
14507TIP3   OH243463   4.342   0.579   5.852
14507TIP3    H143464   4.334   0.487   5.878
14507TIP3    H243465   4.374   0.624   5.931
14508TIP3   OH243466   4.050   6.258   1.814
14508TIP3    H143467   4.026   6.277   1.905
14508TIP3    H243468   3.968   6.268   1.766
14509TIP3   OH243469   1.661   5.647   2.417
14509TIP3    H143470   1.730   5.669   2.480
14509TIP3    H243471   1.600   5.592   2.466
14510TIP3   OH243472   0.901   2.518   3.920
14510TIP3    H143473   0.929   2.473   3.999
14510TIP3    H243474   0.957   2.484   3.851
14511TIP3   OH243475   2.243   3.705   3.233
14511TIP3    H143476   2.228   3.735   3.322
14511TIP3    H243477   2.279   3.781   3.187
14512TIP3   OH243478   4.246   3.167   3.617
14512TIP3    H143479   4.194   3.183   3.538
14512TIP3    H243480   4.328   3.214   3.602
14513TIP3   OH243481   5.512   2.878   5.650
14513TIP3    H143482   5.590   2.826   5.631
14513TIP3    H243483   5.443   2.813   5.666
14514TIP3   OH243484   2.619   6.399   6.572
14514TIP3    H143485   2.524   6.384   6.572
14514TIP3    H243486   2.649   6.360   6.654
14515TIP3   OH243487   6.781   1.119   2.002
14515TIP3    H143488   6.864   1.106   1.957
14515TIP3    H243489   6.771   1.214   2.007
14516TIP3   OH243490   6.023   1.377   4.377
14516TIP3    H143491   6.056   1.421   4.455
14516TIP3    H243492   5.999   1.289   4.407
14517TIP3   OH243493   5.887   0.871   4.388
14517TIP3    H143494   5.843   0.826   4.316
14517TIP3    H243495   5.901   0.804   4.454
14518TIP3   OH243496   7.004   6.452   1.816
14518TIP3    H143497   7.016   6.431   1.724
14518TIP3    H243498   6.989   6.368   1.858
14519TIP3   OH243499   0.163   7.627   4.755
14519TIP3    H143500   0.218   7.551   4.736
14519TIP3    H243501   0.195   7.660   4.839
14520TIP3   OH243502   8.254   5.919   1.290
14520TIP3    H143503   8.331   5.864   1.308
14520TIP3    H243504   8.209   5.925   1.374
14521TIP3   OH243505   6.500   0.290   1.546
14521TIP3    H143506   6.582   0.242   1.545
14521TIP3    H243507   6.450   0.251   1.617
14522TIP3   OH243508   6.401   5.961   3.823
14522TIP3    H143509   6.380   5.922   3.907
14522TIP3    H243510   6.344   5.916   3.761
14523TIP3   OH243511   6.842   1.052   5.587
14523TIP3    H143512   6.817   1.090   5.503
14523TIP3    H243513   6.920   1.000   5.568
14524TIP3   OH243514   2.956   6.395   4.229
14524TIP3    H143515   2.987   6.470   4.178
14524TIP3    H243516   2.959   6.425   4.320
14525TIP3   OH243517   1.168   4.674   2.875
14525TIP3    H143518   1.143   4.767   2.875
14525TIP3    H243519   1.088   4.628   2.898
14526TIP3   OH243520   2.662   2.255   5.927
14526TIP3    H143521   2.675   2.336   5.976
14526TIP3    H243522   2.577   2.266   5.885
14527TIP3   OH243523   4.488   6.469   3.397
14527TIP3    H143524   4.411   6.444   3.448
14527TIP3    H243525   4.473   6.431   3.311
14528TIP3   OH243526   0.860   4.614   4.745
14528TIP3    H143527   0.767   4.611   4.769
14528TIP3    H243528   0.889   4.701   4.773
14529TIP3   OH243529   4.760   0.441   4.448
14529TIP3    H143530   4.690   0.476   4.393
14529TIP3    H243531   4.825   0.408   4.385
14530TIP3   OH243532   2.225   5.590   6.138
14530TIP3    H143533   2.263   5.542   6.212
14530TIP3    H243534   2.237   5.532   6.063
14531TIP3   OH243535   6.872   5.401   5.102
14531TIP3    H143536   6.843   5.321   5.146
14531TIP3    H243537   6.963   5.382   5.077
14532TIP3   OH243538   4.621   0.042   5.135
14532TIP3    H143539   4.551  -0.004   5.088
14532TIP3    H243540   4.647   0.113   5.076
14533TIP3   OH243541   2.879   5.467   3.860
14533TIP3    H143542   2.910   5.446   3.948
14533TIP3    H243543   2.954   5.508   3.817
14534TIP3   OH243544   3.512   1.645   0.904
14534TIP3    H143545   3.501   1.550   0.894
14534TIP3    H243546   3.437   1.672   0.957
14535TIP3   OH243547   5.248   6.826   3.613
14535TIP3    H143548   5.257   6.736   3.582
14535TIP3    H243549   5.213   6.874   3.537
14536TIP3   OH243550   8.302   1.478   6.020
14536TIP3    H143551   8.282   1.385   6.019
14536TIP3    H243552   8.250   1.514   5.949
14537TIP3   OH243553   1.685   1.077   2.639
14537TIP3    H143554   1.661   1.130   2.563
14537TIP3    H243555   1.625   1.105   2.708
14538TIP3   OH243556   4.041   6.607   1.634
14538TIP3    H143557   3.996   6.690   1.625
14538TIP3    H243558   3.976   6.548   1.673
14539TIP3   OH243559   2.597   2.242   0.348
14539TIP3    H143560   2.582   2.313   0.411
14539TIP3    H243561   2.661   2.278   0.286
14540TIP3   OH243562   5.850   2.676   2.352
14540TIP3    H143563   5.862   2.585   2.380
14540TIP3    H243564   5.886   2.729   2.424
14541TIP3   OH243565   0.656   1.946   4.304
14541TIP3    H143566   0.578   1.945   4.360
14541TIP3    H243567   0.684   1.854   4.303
14542TIP3   OH243568   4.118   1.816   3.056
14542TIP3    H143569   4.124   1.784   3.146
14542TIP3    H243570   4.206   1.809   3.021
14543TIP3   OH243571   3.274   7.078   3.741
14543TIP3    H143572   3.268   7.169   3.711
14543TIP3    H243573   3.285   7.085   3.836
14544TIP3   OH243574   4.773   6.663   4.555
14544TIP3    H143575   4.778   6.703   4.642
14544TIP3    H243576   4.864   6.643   4.533
14545TIP3   OH243577   1.210   3.027   5.279
14545TIP3    H143578   1.256   3.039   5.362
14545TIP3    H243579   1.118   3.039   5.300
14546TIP3   OH243580   2.535   3.522   5.080
14546TIP3    H143581   2.607   3.548   5.137
14546TIP3    H243582   2.574   3.463   5.017
14547TIP3   OH243583   6.910   0.680   1.526
14547TIP3    H143584   6.939   0.612   1.587
14547TIP3    H243585   6.991   0.710   1.484
14548TIP3   OH243586   2.135   6.296   3.711
14548TIP3    H143587   2.072   6.314   3.640
14548TIP3    H243588   2.092   6.229   3.764
14549TIP3   OH243589   5.952   5.708   5.309
14549TIP3    H143590   5.880   5.689   5.369
14549TIP3    H243591   5.927   5.665   5.227
14550TIP3   OH243592   4.929   6.935   3.256
14550TIP3    H143593   4.880   7.012   3.228
14550TIP3    H243594   4.888   6.909   3.339
14551TIP3   OH243595   5.347   1.845   6.051
14551TIP3    H143596   5.287   1.775   6.079
14551TIP3    H243597   5.324   1.920   6.105
14552TIP3   OH243598   4.392   4.216   3.140
14552TIP3    H143599   4.471   4.270   3.130
14552TIP3    H243600   4.424   4.134   3.177
14553TIP3   OH243601   1.511   3.591   1.032
14553TIP3    H143602   1.519   3.557   0.943
14553TIP3    H243603   1.445   3.659   1.027
14554TIP3   OH243604   6.019   4.840   0.668
14554TIP3    H143605   5.992   4.932   0.668
14554TIP3    H243606   6.103   4.841   0.715
14555TIP3   OH243607   7.340   4.058   0.764
14555TIP3    H143608   7.290   4.075   0.843
14555TIP3    H243609   7.276   4.026   0.701
14556TIP3   OH243610   5.256   2.216   4.773
14556TIP3    H143611   5.264   2.130   4.733
14556TIP3    H243612   5.214   2.200   4.857
14557TIP3   OH243613   7.787   3.360   4.004
14557TIP3    H143614   7.849   3.340   4.075
14557TIP3    H243615   7.764   3.274   3.969
14558TIP3   OH243616   1.653   6.105   2.895
14558TIP3    H143617   1.573   6.137   2.937
14558TIP3    H243618   1.670   6.168   2.825
14559TIP3   OH243619   3.349   2.315   1.448
14559TIP3    H143620   3.345   2.323   1.352
14559TIP3    H243621   3.258   2.316   1.476
14560TIP3   OH243622   6.404   0.294   6.535
14560TIP3    H143623   6.396   0.228   6.466
14560TIP3    H243624   6.432   0.373   6.490
14561TIP3   OH243625   3.877   7.489   4.900
14561TIP3    H143626   3.880   7.396   4.926
14561TIP3    H243627   3.910   7.490   4.810
14562TIP3   OH243628   3.341   6.024   1.305
14562TIP3    H143629   3.313   5.936   1.278
14562TIP3    H243630   3.378   6.063   1.225
14563TIP3   OH243631   2.205   3.109   1.649
14563TIP3    H143632   2.181   3.153   1.730
14563TIP3    H243633   2.300   3.096   1.656
14564TIP3   OH243634   0.971   3.878   0.981
14564TIP3    H143635   1.000   3.897   1.070
14564TIP3    H243636   0.979   3.783   0.973
14565TIP3   OH243637   2.613   0.565   5.121
14565TIP3    H143638   2.535   0.621   5.125
14565TIP3    H243639   2.633   0.546   5.213
14566TIP3   OH243640   5.961   7.447   0.992
14566TIP3    H143641   5.991   7.396   1.067
14566TIP3    H243642   5.949   7.381   0.923
14567TIP3   OH243643   6.861   3.605   4.777
14567TIP3    H143644   6.926   3.538   4.758
14567TIP3    H243645   6.878   3.630   4.868
14568TIP3   OH243646   4.826   3.323   3.406
14568TIP3    H143647   4.854   3.332   3.498
14568TIP3    H243648   4.905   3.296   3.360
14569TIP3   OH243649   4.121   5.599   1.038
14569TIP3    H143650   4.095   5.513   1.005
14569TIP3    H243651   4.085   5.661   0.974
14570TIP3   OH243652   8.026   6.531   6.097
14570TIP3    H143653   8.044   6.566   6.010
14570TIP3    H243654   7.942   6.571   6.121
14571TIP3   OH243655   6.757   4.682   6.676
14571TIP3    H143656   6.785   4.630   6.751
14571TIP3    H243657   6.667   4.707   6.697
14572TIP3   OH243658   3.974   2.888   6.162
14572TIP3    H143659   3.988   2.809   6.109
14572TIP3    H243660   4.016   2.868   6.246
14573TIP3   OH243661   3.807   2.168   2.283
14573TIP3    H143662   3.875   2.160   2.350
14573TIP3    H243663   3.856   2.173   2.200
14574TIP3   OH243664   1.256   3.783   6.176
14574TIP3    H143665   1.247   3.870   6.215
14574TIP3    H243666   1.319   3.795   6.105
14575TIP3   OH243667   5.613   5.536   6.176
14575TIP3    H143668   5.540   5.563   6.121
14575TIP3    H243669   5.573   5.481   6.244
14576TIP3   OH243670   3.999   3.260   6.676
14576TIP3    H143671   3.905   3.250   6.662
14576TIP3    H243672   4.022   3.339   6.627
14577TIP3   OH243673   7.177   0.405   6.511
14577TIP3    H143674   7.257   0.456   6.525
14577TIP3    H243675   7.202   0.340   6.445
14578TIP3   OH243676   7.310   6.225   6.540
14578TIP3    H143677   7.223   6.197   6.511
14578TIP3    H243678   7.303   6.320   6.549
14579TIP3   OH243679   0.742   4.922   6.749
14579TIP3    H143680   0.824   4.929   6.798
14579TIP3    H243681   0.768   4.888   6.663
14580TIP3   OH243682   4.677   4.309   1.885
14580TIP3    H143683   4.732   4.302   1.964
14580TIP3    H243684   4.607   4.369   1.910
14581TIP3   OH243685   1.030   0.944   3.659
14581TIP3    H143686   1.013   0.899   3.576
14581TIP3    H243687   1.013   0.878   3.726
14582TIP3   OH243688   5.808   7.066   5.603
14582TIP3    H143689   5.871   7.075   5.532
14582TIP3    H243690   5.825   6.980   5.640
14583TIP3   OH243691   3.658   3.116   3.839
14583TIP3    H143692   3.730   3.153   3.891
14583TIP3    H243693   3.693   3.032   3.807
14584TIP3   OH243694   7.246   3.168   5.420
14584TIP3    H143695   7.195   3.240   5.384
14584TIP3    H243696   7.203   3.089   5.387
14585TIP3   OH243697   6.211   2.066   6.101
14585TIP3    H143698   6.305   2.084   6.110
14585TIP3    H243699   6.200   2.044   6.009
14586TIP3   OH243700   2.084   3.884   6.156
14586TIP3    H143701   2.017   3.953   6.158
14586TIP3    H243702   2.154   3.917   6.211
14587TIP3   OH243703   1.416   0.742   3.952
14587TIP3    H143704   1.472   0.796   3.895
14587TIP3    H243705   1.340   0.798   3.969
14588TIP3   OH243706   1.526   0.598   1.410
14588TIP3    H143707   1.486   0.514   1.390
14588TIP3    H243708   1.617   0.589   1.383
14589TIP3   OH243709   1.696   4.443   4.066
14589TIP3    H143710   1.764   4.436   4.000
14589TIP3    H243711   1.629   4.381   4.038
14590TIP3   OH243712   0.964   7.768   2.226
14590TIP3    H143713   1.056   7.749   2.208
14590TIP3    H243714   0.935   7.695   2.282
14591TIP3   OH243715   3.256   7.199   1.474
14591TIP3    H143716   3.242   7.227   1.564
14591TIP3    H243717   3.257   7.103   1.479
14592TIP3   OH243718   7.182   2.190   5.503
14592TIP3    H143719   7.144   2.160   5.421
14592TIP3    H243720   7.226   2.273   5.480
14593TIP3   OH243721   0.681   6.912   5.973
14593TIP3    H143722   0.592   6.879   5.978
14593TIP3    H243723   0.681   6.992   6.025
14594TIP3   OH243724   6.299   6.980   2.845
14594TIP3    H143725   6.298   6.921   2.920
14594TIP3    H243726   6.237   6.942   2.783
14595TIP3   OH243727   5.919   7.200   5.842
14595TIP3    H143728   5.890   7.160   5.760
14595TIP3    H243729   6.006   7.162   5.857
14596TIP3   OH243730   5.851   0.736   1.530
14596TIP3    H143731   5.882   0.800   1.594
14596TIP3    H243732   5.755   0.738   1.539
14597TIP3   OH243733   2.413   2.273   0.089
14597TIP3    H143734   2.328   2.314   0.075
14597TIP3    H243735   2.466   2.340   0.133
14598TIP3   OH243736   6.917   1.317   6.407
14598TIP3    H143737   6.961   1.402   6.405
14598TIP3    H243738   6.984   1.256   6.438
14599TIP3   OH243739   0.183   7.015   0.477
14599TIP3    H143740   0.147   7.073   0.410
14599TIP3    H243741   0.271   7.048   0.493
14600TIP3   OH243742   2.560   7.374   4.468
14600TIP3    H143743   2.560   7.372   4.564
14600TIP3    H243744   2.651   7.363   4.443
14601TIP3   OH243745   2.678   6.714   2.512
14601TIP3    H143746   2.676   6.745   2.421
14601TIP3    H243747   2.603   6.654   2.518
14602TIP3   OH243748   1.974   5.887   5.638
14602TIP3    H143749   1.919   5.858   5.566
14602TIP3    H243750   2.063   5.862   5.613
14603TIP3   OH243751   1.729   1.492   6.707
14603TIP3    H143752   1.642   1.458   6.684
14603TIP3    H243753   1.756   1.542   6.630
14604TIP3   OH243754   0.315   3.882   5.953
14604TIP3    H143755   0.399   3.919   5.927
14604TIP3    H243756   0.250   3.931   5.903
14605TIP3   OH243757   6.425   6.223   5.912
14605TIP3    H143758   6.337   6.209   5.876
14605TIP3    H243759   6.483   6.214   5.837
14606TIP3   OH243760   7.389   6.357   0.774
14606TIP3    H143761   7.349   6.356   0.688
14606TIP3    H243762   7.479   6.328   0.759
14607TIP3   OH243763   5.061   0.378   4.472
14607TIP3    H143764   5.038   0.373   4.379
14607TIP3    H243765   5.153   0.401   4.472
14608TIP3   OH243766   4.003   2.018   3.711
14608TIP3    H143767   4.041   2.106   3.711
14608TIP3    H243768   4.043   1.975   3.636
14609TIP3   OH243769   5.456   2.329   1.159
14609TIP3    H143770   5.383   2.344   1.099
14609TIP3    H243771   5.418   2.341   1.246
14610TIP3   OH243772   1.742   3.550   1.539
14610TIP3    H143773   1.751   3.510   1.625
14610TIP3    H243774   1.703   3.482   1.485
14611TIP3   OH243775   0.325   0.731   0.066
14611TIP3    H143776   0.275   0.716  -0.014
14611TIP3    H243777   0.268   0.786   0.120
14612TIP3   OH243778   0.543   3.947   0.504
14612TIP3    H143779   0.580   3.877   0.558
14612TIP3    H243780   0.616   3.978   0.451
14613TIP3   OH243781   7.762   0.100   4.594
14613TIP3    H143782   7.710   0.159   4.539
14613TIP3    H243783   7.702   0.029   4.616
14614TIP3   OH243784   7.565   3.089   1.787
14614TIP3    H143785   7.633   3.047   1.734
14614TIP3    H243786   7.606   3.170   1.819
14615TIP3   OH243787   2.737   4.294   4.898
14615TIP3    H143788   2.780   4.264   4.818
14615TIP3    H243789   2.788   4.371   4.924
14616TIP3   OH243790   6.110   6.642   3.363
14616TIP3    H143791   6.024   6.674   3.388
14616TIP3    H243792   6.165   6.720   3.359
14617TIP3   OH243793   7.605   2.696   2.397
14617TIP3    H143794   7.555   2.776   2.414
14617TIP3    H243795   7.553   2.626   2.437
14618TIP3   OH243796   0.946   7.265   0.462
14618TIP3    H143797   1.025   7.305   0.428
14618TIP3    H243798   0.945   7.177   0.425
14619TIP3   OH243799   3.023   2.307   2.734
14619TIP3    H143800   2.999   2.244   2.667
14619TIP3    H243801   3.038   2.389   2.686
14620TIP3   OH243802   1.701   1.393   2.020
14620TIP3    H143803   1.610   1.367   2.007
14620TIP3    H243804   1.707   1.413   2.113
14621TIP3   OH243805   0.833   2.496   5.152
14621TIP3    H143806   0.780   2.438   5.207
14621TIP3    H243807   0.924   2.471   5.173
14622TIP3   OH243808   7.034   5.220   5.294
14622TIP3    H143809   6.963   5.160   5.316
14622TIP3    H243810   7.058   5.260   5.377
14623TIP3   OH243811   4.348   1.880   5.247
14623TIP3    H143812   4.428   1.929   5.229
14623TIP3    H243813   4.279   1.947   5.253
14624TIP3   OH243814   3.799   6.456   6.410
14624TIP3    H143815   3.816   6.438   6.317
14624TIP3    H243816   3.886   6.458   6.451
14625TIP3   OH243817   7.881   4.365   2.008
14625TIP3    H143818   7.816   4.317   2.059
14625TIP3    H243819   7.941   4.401   2.073
14626TIP3   OH243820   6.077   7.822   5.030
14626TIP3    H143821   6.139   7.834   4.958
14626TIP3    H243822   6.081   7.728   5.050
14627TIP3   OH243823   0.305   6.528   4.495
14627TIP3    H143824   0.341   6.575   4.569
14627TIP3    H243825   0.306   6.436   4.521
14628TIP3   OH243826   3.325   4.014   2.078
14628TIP3    H143827   3.316   4.103   2.045
14628TIP3    H243828   3.235   3.983   2.090
14629TIP3   OH243829   4.960   6.648   0.822
14629TIP3    H143830   5.031   6.637   0.885
14629TIP3    H243831   4.880   6.644   0.875
14630TIP3   OH243832   6.219   1.425   6.302
14630TIP3    H143833   6.124   1.417   6.311
14630TIP3    H243834   6.248   1.471   6.380
14631TIP3   OH243835   6.280   7.109   1.067
14631TIP3    H143836   6.289   7.054   1.145
14631TIP3    H243837   6.336   7.067   1.001
14632TIP3   OH243838   1.292   6.497   3.448
14632TIP3    H143839   1.339   6.559   3.392
14632TIP3    H243840   1.338   6.501   3.532
14633TIP3   OH243841   0.435   5.378   5.997
14633TIP3    H143842   0.364   5.433   5.964
14633TIP3    H243843   0.444   5.402   6.089
14634TIP3   OH243844   1.250   3.254   3.317
14634TIP3    H143845   1.212   3.249   3.229
14634TIP3    H243846   1.341   3.226   3.305
14635TIP3   OH243847   4.232   2.725   2.641
14635TIP3    H143848   4.197   2.638   2.659
14635TIP3    H243849   4.200   2.745   2.552
14636TIP3   OH243850   7.349   2.935   6.636
14636TIP3    H143851   7.437   2.947   6.600
14636TIP3    H243852   7.300   3.010   6.604
14637TIP3   OH243853   1.715   2.893   4.403
14637TIP3    H143854   1.629   2.933   4.395
14637TIP3    H243855   1.777   2.966   4.393
14638TIP3   OH243856   4.769   4.578   3.335
14638TIP3    H143857   4.747   4.608   3.423
14638TIP3    H243858   4.860   4.607   3.322
14639TIP3   OH243859   0.222   4.440   3.188
14639TIP3    H143860   0.308   4.439   3.146
14639TIP3    H243861   0.240   4.429   3.281
14640TIP3   OH243862   5.286   4.080   4.231
14640TIP3    H143863   5.353   4.050   4.293
14640TIP3    H243864   5.204   4.078   4.281
14641TIP3   OH243865   0.886   6.551   2.332
14641TIP3    H143866   0.811   6.584   2.381
14641TIP3    H243867   0.915   6.626   2.280
14642TIP3   OH243868   1.331   2.862   0.118
14642TIP3    H143869   1.364   2.830   0.034
14642TIP3    H243870   1.236   2.853   0.111
14643TIP3   OH243871   1.676   0.459   0.265
14643TIP3    H143872   1.767   0.435   0.279
14643TIP3    H243873   1.656   0.426   0.177
14644TIP3   OH243874   3.952   3.106   0.779
14644TIP3    H143875   3.985   3.196   0.767
14644TIP3    H243876   4.023   3.061   0.826
14645TIP3   OH243877   6.689   2.723   0.190
14645TIP3    H143878   6.763   2.665   0.208
14645TIP3    H243879   6.612   2.666   0.199
14646TIP3   OH243880   4.896   2.909   3.077
14646TIP3    H143881   4.933   2.997   3.075
14646TIP3    H243882   4.894   2.886   3.170
14647TIP3   OH243883   4.350   1.561   5.963
14647TIP3    H143884   4.414   1.632   5.958
14647TIP3    H243885   4.270   1.599   5.925
14648TIP3   OH243886   7.704   2.041   2.655
14648TIP3    H143887   7.719   2.114   2.715
14648TIP3    H243888   7.617   2.057   2.618
14649TIP3   OH243889   5.164   4.147   0.948
14649TIP3    H143890   5.158   4.228   0.898
14649TIP3    H243891   5.183   4.175   1.038
14650TIP3   OH243892   1.085   7.749   5.727
14650TIP3    H143893   1.149   7.814   5.756
14650TIP3    H243894   1.121   7.665   5.756
14651TIP3   OH243895   5.202   3.619   2.512
14651TIP3    H143896   5.260   3.567   2.456
14651TIP3    H243897   5.233   3.602   2.601
14652TIP3   OH243898   5.713   3.278   2.565
14652TIP3    H143899   5.727   3.190   2.602
14652TIP3    H243900   5.793   3.297   2.517
14653TIP3   OH243901   4.318   0.932   5.629
14653TIP3    H143902   4.246   0.869   5.633
14653TIP3    H243903   4.397   0.878   5.629
14654TIP3   OH243904   6.682   2.150   5.325
14654TIP3    H143905   6.659   2.243   5.326
14654TIP3    H243906   6.778   2.149   5.332
14655TIP3   OH243907   4.775   1.066   0.898
14655TIP3    H143908   4.838   1.137   0.892
14655TIP3    H243909   4.792   1.024   0.982
14656TIP3   OH243910   3.732   1.620   1.692
14656TIP3    H143911   3.726   1.711   1.663
14656TIP3    H243912   3.824   1.606   1.712
14657TIP3   OH243913   1.969   0.190   4.244
14657TIP3    H143914   2.011   0.272   4.273
14657TIP3    H243915   1.881   0.217   4.218
14658TIP3   OH243916   6.015   4.731   6.609
14658TIP3    H143917   6.062   4.735   6.692
14658TIP3    H243918   6.080   4.757   6.544
14659TIP3   OH243919   1.800   5.219   2.711
14659TIP3    H143920   1.716   5.245   2.749
14659TIP3    H243921   1.782   5.134   2.671
14660TIP3   OH243922   0.689   6.435   6.246
14660TIP3    H143923   0.766   6.492   6.241
14660TIP3    H243924   0.663   6.440   6.338
14661TIP3   OH243925   0.456   1.660   2.996
14661TIP3    H143926   0.527   1.702   3.045
14661TIP3    H243927   0.484   1.568   2.987
14662TIP3   OH243928   4.024   4.498   1.754
14662TIP3    H143929   3.991   4.411   1.777
14662TIP3    H243930   4.016   4.502   1.659
14663TIP3   OH243931   5.859   1.565   6.528
14663TIP3    H143932   5.884   1.591   6.617
14663TIP3    H243933   5.880   1.641   6.474
14664TIP3   OH243934   5.584   4.374   5.693
14664TIP3    H143935   5.612   4.325   5.770
14664TIP3    H243936   5.499   4.335   5.670
14665TIP3   OH243937   6.316   7.781   1.168
14665TIP3    H143938   6.405   7.775   1.133
14665TIP3    H243939   6.259   7.781   1.091
14666TIP3   OH243940   8.160   4.671   2.483
14666TIP3    H143941   8.234   4.703   2.534
14666TIP3    H243942   8.084   4.715   2.521
14667TIP3   OH243943   6.626   0.355   6.733
14667TIP3    H143944   6.714   0.341   6.697
14667TIP3    H243945   6.569   0.360   6.657
14668TIP3   OH243946   1.927   7.239   3.311
14668TIP3    H143947   1.838   7.208   3.295
14668TIP3    H243948   1.920   7.295   3.388
14669TIP3   OH243949   5.017   7.350   5.087
14669TIP3    H143950   4.949   7.313   5.144
14669TIP3    H243951   4.975   7.359   5.002
14670TIP3   OH243952   4.336   1.651   4.165
14670TIP3    H143953   4.312   1.573   4.215
14670TIP3    H243954   4.282   1.721   4.202
14671TIP3   OH243955   3.490   2.600   0.512
14671TIP3    H143956   3.458   2.689   0.527
14671TIP3    H243957   3.436   2.567   0.439
14672TIP3   OH243958   4.637   2.488   4.687
14672TIP3    H143959   4.641   2.425   4.615
14672TIP3    H243960   4.569   2.454   4.745
14673TIP3   OH243961   8.134   7.255   6.567
14673TIP3    H143962   8.130   7.343   6.604
14673TIP3    H243963   8.053   7.247   6.516
14674TIP3   OH243964   5.429   4.850   3.284
14674TIP3    H143965   5.442   4.756   3.274
14674TIP3    H243966   5.491   4.890   3.223
14675TIP3   OH243967   4.101   3.818   3.468
14675TIP3    H143968   4.102   3.865   3.551
14675TIP3    H243969   4.187   3.834   3.430
14676TIP3   OH243970   6.971   0.985   0.505
14676TIP3    H143971   6.883   0.987   0.542
14676TIP3    H243972   6.983   1.073   0.469
14677TIP3   OH243973   7.464   3.565   5.249
14677TIP3    H143974   7.543   3.558   5.302
14677TIP3    H243975   7.482   3.638   5.189
14678TIP3   OH243976   8.011   2.807   6.122
14678TIP3    H143977   7.920   2.835   6.132
14678TIP3    H243978   8.019   2.787   6.029
14679TIP3   OH243979   5.258   2.473   6.448
14679TIP3    H143980   5.327   2.419   6.408
14679TIP3    H243981   5.273   2.561   6.414
14680TIP3   OH243982   3.559   4.897   6.518
14680TIP3    H143983   3.468   4.919   6.500
14680TIP3    H243984   3.576   4.821   6.462
14681TIP3   OH243985   1.962   5.550   0.074
14681TIP3    H143986   1.940   5.616   0.140
14681TIP3    H243987   1.936   5.589  -0.009
14682TIP3   OH243988   4.849   7.161   3.893
14682TIP3    H143989   4.913   7.115   3.838
14682TIP3    H243990   4.878   7.145   3.982
14683TIP3   OH243991   7.153   6.849   5.365
14683TIP3    H143992   7.079   6.818   5.418
14683TIP3    H243993   7.224   6.788   5.385
14684TIP3   OH243994   3.166   3.169   6.382
14684TIP3    H143995   3.143   3.108   6.313
14684TIP3    H243996   3.096   3.235   6.380
14685TIP3   OH243997   3.671   3.721   4.648
14685TIP3    H143998   3.751   3.760   4.611
14685TIP3    H243999   3.700   3.637   4.683
14686TIP3   OH244000   8.103   4.103   2.057
14686TIP3    H144001   8.039   4.076   1.992
14686TIP3    H244002   8.070   4.069   2.140
14687TIP3   OH244003   1.204   5.618   0.385
14687TIP3    H144004   1.254   5.540   0.406
14687TIP3    H244005   1.113   5.594   0.404
14688TIP3   OH244006   0.226   1.554   5.728
14688TIP3    H144007   0.179   1.627   5.769
14688TIP3    H244008   0.174   1.477   5.749
14689TIP3   OH244009   0.222   2.512   1.867
14689TIP3    H144010   0.154   2.535   1.931
14689TIP3    H244011   0.174   2.495   1.786
14690TIP3   OH244012   1.065   5.469   2.626
14690TIP3    H144013   1.158   5.447   2.625
14690TIP3    H244014   1.062   5.564   2.615
14691TIP3   OH244015   2.631   2.533   3.225
14691TIP3    H144016   2.705   2.588   3.250
14691TIP3    H244017   2.672   2.457   3.182
14692TIP3   OH244018   7.439   0.939   0.039
14692TIP3    H144019   7.395   0.882   0.101
14692TIP3    H244020   7.524   0.898   0.023
14693TIP3   OH244021   4.609   7.703   5.904
14693TIP3    H144022   4.568   7.776   5.950
14693TIP3    H244023   4.646   7.649   5.973
14694TIP3   OH244024   6.592   1.876   0.784
14694TIP3    H144025   6.517   1.820   0.764
14694TIP3    H244026   6.633   1.835   0.860
14695TIP3   OH244027   6.211   0.150   1.099
14695TIP3    H144028   6.210   0.210   1.174
14695TIP3    H244029   6.245   0.068   1.134
14696TIP3   OH244030   4.725   7.786   1.960
14696TIP3    H144031   4.735   7.696   1.992
14696TIP3    H244032   4.642   7.816   1.998
14697TIP3   OH244033   6.434   1.734   0.097
14697TIP3    H144034   6.434   1.648   0.140
14697TIP3    H244035   6.383   1.721   0.017
14698TIP3   OH244036   4.373   7.233   0.231
14698TIP3    H144037   4.451   7.191   0.196
14698TIP3    H244038   4.300   7.184   0.194
14699TIP3   OH244039   1.663   5.786   3.842
14699TIP3    H144040   1.588   5.806   3.898
14699TIP3    H244041   1.636   5.816   3.755
14700TIP3   OH244042   1.404   6.907   0.477
14700TIP3    H144043   1.410   6.875   0.567
14700TIP3    H244044   1.360   6.992   0.484
14701TIP3   OH244045   0.296   5.490   4.037
14701TIP3    H144046   0.370   5.430   4.034
14701TIP3    H244047   0.224   5.438   4.072
14702TIP3   OH244048   6.727   3.579   0.064
14702TIP3    H144049   6.694   3.558  -0.024
14702TIP3    H244050   6.772   3.500   0.092
14703TIP3   OH244051   7.879   1.284   6.685
14703TIP3    H144052   7.902   1.218   6.751
14703TIP3    H244053   7.864   1.364   6.735
14704TIP3   OH244054   3.296   1.629   3.254
14704TIP3    H144055   3.258   1.593   3.334
14704TIP3    H244056   3.269   1.721   3.255
14705TIP3   OH244057   4.652   7.072   3.445
14705TIP3    H144058   4.735   7.107   3.478
14705TIP3    H244059   4.640   6.990   3.493
14706TIP3   OH244060   3.676   0.401   0.210
14706TIP3    H144061   3.644   0.455   0.138
14706TIP3    H244062   3.760   0.367   0.179
14707TIP3   OH244063   2.476   2.912   2.701
14707TIP3    H144064   2.426   2.988   2.729
14707TIP3    H244065   2.501   2.868   2.783
14708TIP3   OH244066   6.136   1.910   3.079
14708TIP3    H144067   6.166   1.819   3.089
14708TIP3    H244068   6.135   1.945   3.168
14709TIP3   OH244069   5.237   3.955   1.515
14709TIP3    H144070   5.279   3.973   1.430
14709TIP3    H244071   5.221   3.860   1.513
14710TIP3   OH244072   7.775   5.574   4.159
14710TIP3    H144073   7.751   5.492   4.116
14710TIP3    H244074   7.870   5.578   4.154
14711TIP3   OH244075   5.198   1.740   4.787
14711TIP3    H144076   5.242   1.710   4.707
14711TIP3    H244077   5.236   1.688   4.857
14712TIP3   OH244078   3.795   5.337   6.345
14712TIP3    H144079   3.728   5.323   6.411
14712TIP3    H244080   3.792   5.258   6.291
14713TIP3   OH244081   0.574   1.101   1.051
14713TIP3    H144082   0.484   1.070   1.055
14713TIP3    H244083   0.584   1.158   1.127
14714TIP3   OH244084   1.427   2.848   4.309
14714TIP3    H144085   1.426   2.795   4.388
14714TIP3    H244086   1.344   2.827   4.265
14715TIP3   OH244087   0.163   0.361   5.116
14715TIP3    H144088   0.127   0.448   5.107
14715TIP3    H244089   0.220   0.367   5.193
14716TIP3   OH244090   4.398   5.931   4.000
14716TIP3    H144091   4.320   5.954   4.050
14716TIP3    H244092   4.422   5.844   4.032
14717TIP3   OH244093   4.597   1.329   4.033
14717TIP3    H144094   4.687   1.356   4.012
14717TIP3    H244095   4.606   1.267   4.105
14718TIP3   OH244096   3.517   6.821   0.666
14718TIP3    H144097   3.580   6.877   0.621
14718TIP3    H244098   3.463   6.881   0.718
14719TIP3   OH244099   4.810   0.309   2.415
14719TIP3    H144100   4.904   0.288   2.413
14719TIP3    H244101   4.805   0.399   2.383
14720TIP3   OH244102   2.116   5.295   0.270
14720TIP3    H144103   2.029   5.295   0.229
14720TIP3    H244104   2.137   5.202   0.282
14721TIP3   OH244105   0.004   7.798   1.164
14721TIP3    H144106   0.014   7.880   1.212
14721TIP3    H244107   0.037   7.731   1.223
14722TIP3   OH244108   6.432   2.654   0.679
14722TIP3    H144109   6.376   2.596   0.731
14722TIP3    H244110   6.521   2.632   0.707
14723TIP3   OH244111   4.464   2.965   2.368
14723TIP3    H144112   4.398   2.952   2.436
14723TIP3    H244113   4.445   3.051   2.332
14724TIP3   OH244114   3.751   1.887   1.633
14724TIP3    H144115   3.793   1.972   1.644
14724TIP3    H244116   3.657   1.908   1.624
14725TIP3   OH244117   7.214   7.175   4.060
14725TIP3    H144118   7.228   7.152   3.968
14725TIP3    H244119   7.119   7.183   4.068
14726TIP3   OH244120   3.730   4.554   5.084
14726TIP3    H144121   3.745   4.500   5.161
14726TIP3    H244122   3.817   4.576   5.052
14727TIP3   OH244123   7.849   1.592   0.548
14727TIP3    H144124   7.888   1.570   0.632
14727TIP3    H244125   7.908   1.553   0.483
14728TIP3   OH244126   4.164   1.326   4.875
14728TIP3    H144127   4.159   1.420   4.859
14728TIP3    H244128   4.234   1.316   4.939
14729TIP3   OH244129   4.429   0.684   1.385
14729TIP3    H144130   4.455   0.662   1.474
14729TIP3    H244131   4.350   0.634   1.369
14730TIP3   OH244132   6.228   4.533   1.217
14730TIP3    H144133   6.186   4.497   1.138
14730TIP3    H244134   6.222   4.462   1.281
14731TIP3   OH244135   2.090   5.238   5.669
14731TIP3    H144136   2.031   5.162   5.660
14731TIP3    H244137   2.145   5.216   5.745
14732TIP3   OH244138   6.277   0.221   4.765
14732TIP3    H144139   6.264   0.193   4.675
14732TIP3    H244140   6.208   0.286   4.780
14733TIP3   OH244141   8.224   4.063   6.494
14733TIP3    H144142   8.168   4.013   6.435
14733TIP3    H244143   8.174   4.143   6.512
14734TIP3   OH244144   2.428   4.528   1.487
14734TIP3    H144145   2.505   4.484   1.451
14734TIP3    H244146   2.434   4.513   1.582
14735TIP3   OH244147   4.693   5.491   2.687
14735TIP3    H144148   4.767   5.451   2.733
14735TIP3    H244149   4.653   5.419   2.638
14736TIP3   OH244150   4.669   6.021   4.997
14736TIP3    H144151   4.686   5.945   4.942
14736TIP3    H244152   4.611   5.989   5.066
14737TIP3   OH244153   1.770   6.882   3.607
14737TIP3    H144154   1.724   6.869   3.524
14737TIP3    H244155   1.816   6.800   3.623
14738TIP3   OH244156   1.253   2.942   5.621
14738TIP3    H144157   1.220   2.919   5.708
14738TIP3    H244158   1.249   2.860   5.572
14739TIP3   OH244159   4.878   3.568   2.859
14739TIP3    H144160   4.837   3.486   2.886
14739TIP3    H244161   4.815   3.608   2.800
14740TIP3   OH244162   4.763   2.766   6.651
14740TIP3    H144163   4.726   2.850   6.677
14740TIP3    H244164   4.707   2.736   6.580
14741TIP3   OH244165   7.664   4.675   5.921
14741TIP3    H144166   7.580   4.671   5.875
14741TIP3    H244167   7.668   4.765   5.954
14742TIP3   OH244168   1.608   3.945   2.408
14742TIP3    H144169   1.683   4.004   2.418
14742TIP3    H244170   1.601   3.932   2.314
14743TIP3   OH244171   3.054   3.326   1.635
14743TIP3    H144172   3.067   3.284   1.720
14743TIP3    H244173   2.993   3.397   1.652
14744TIP3   OH244174   6.758   4.051   0.561
14744TIP3    H144175   6.682   4.056   0.503
14744TIP3    H244176   6.812   3.981   0.524
14745TIP3   OH244177   1.470   0.277   1.828
14745TIP3    H144178   1.383   0.241   1.847
14745TIP3    H244179   1.471   0.287   1.733
14746TIP3   OH244180   2.305   6.162   0.308
14746TIP3    H144181   2.214   6.174   0.335
14746TIP3    H244182   2.356   6.180   0.387
14747TIP3   OH244183   4.413   7.447   2.119
14747TIP3    H144184   4.379   7.481   2.202
14747TIP3    H244185   4.334   7.429   2.067
14748TIP3   OH244186   0.905   4.768   3.056
14748TIP3    H144187   0.832   4.806   3.106
14748TIP3    H244188   0.952   4.845   3.022
14749TIP3   OH244189   6.862   2.201   0.723
14749TIP3    H144190   6.871   2.252   0.643
14749TIP3    H244191   6.779   2.154   0.712
14750TIP3   OH244192   3.058   7.065   6.414
14750TIP3    H144193   2.982   7.019   6.378
14750TIP3    H244194   3.133   7.019   6.376
14751TIP3   OH244195   6.566   3.329   1.550
14751TIP3    H144196   6.618   3.324   1.470
14751TIP3    H244197   6.489   3.275   1.531
14752TIP3   OH244198   6.679   7.401   2.262
14752TIP3    H144199   6.618   7.455   2.212
14752TIP3    H244200   6.756   7.393   2.206
14753TIP3   OH244201   3.205   2.551   6.669
14753TIP3    H144202   3.205   2.471   6.617
14753TIP3    H244203   3.189   2.521   6.759
14754TIP3   OH244204   7.801   6.908   1.072
14754TIP3    H144205   7.769   6.839   1.130
14754TIP3    H244206   7.844   6.970   1.130
14755TIP3   OH244207   4.096   7.567   0.833
14755TIP3    H144208   4.005   7.548   0.855
14755TIP3    H244209   4.104   7.662   0.842
14756TIP3   OH244210   7.006   4.471   5.813
14756TIP3    H144211   7.084   4.512   5.851
14756TIP3    H244212   6.948   4.454   5.888
14757TIP3   OH244213   4.006   6.784   6.333
14757TIP3    H144214   3.925   6.817   6.373
14757TIP3    H244215   4.067   6.857   6.339
14758TIP3   OH244216   4.578   5.210   1.136
14758TIP3    H144217   4.517   5.169   1.198
14758TIP3    H244218   4.599   5.141   1.074
14759TIP3   OH244219   0.785   0.671   2.775
14759TIP3    H144220   0.851   0.737   2.797
14759TIP3    H244221   0.812   0.592   2.822
14760TIP3   OH244222   5.713   2.416   1.163
14760TIP3    H144223   5.734   2.484   1.228
14760TIP3    H244224   5.619   2.405   1.170
14761TIP3   OH244225   0.644   3.348   2.350
14761TIP3    H144226   0.588   3.420   2.380
14761TIP3    H244227   0.602   3.269   2.383
14762TIP3   OH244228   7.194   2.464   5.991
14762TIP3    H144229   7.253   2.531   6.025
14762TIP3    H244230   7.181   2.489   5.899
14763TIP3   OH244231   2.694   0.058   0.494
14763TIP3    H144232   2.639   0.005   0.435
14763TIP3    H244233   2.691   0.146   0.456
14764TIP3   OH244234   1.201   5.597   3.851
14764TIP3    H144235   1.213   5.521   3.794
14764TIP3    H244236   1.138   5.652   3.805
14765TIP3   OH244237   5.418   1.384   5.130
14765TIP3    H144238   5.462   1.346   5.206
14765TIP3    H244239   5.476   1.365   5.056
14766TIP3   OH244240   6.013   0.101   2.252
14766TIP3    H144241   5.945   0.063   2.306
14766TIP3    H244242   6.087   0.041   2.261
14767TIP3   OH244243   0.850   1.154   6.194
14767TIP3    H144244   0.852   1.197   6.109
14767TIP3    H244245   0.851   1.226   6.258
14768TIP3   OH244246   0.910   1.702   4.935
14768TIP3    H144247   0.925   1.773   4.998
14768TIP3    H244248   0.962   1.726   4.859
14769TIP3   OH244249   5.016   3.346   4.773
14769TIP3    H144250   4.931   3.354   4.816
14769TIP3    H244251   5.030   3.251   4.765
14770TIP3   OH244252   3.176   6.192   2.167
14770TIP3    H144253   3.080   6.190   2.169
14770TIP3    H244254   3.200   6.119   2.109
14771TIP3   OH244255   7.145   6.470   1.059
14771TIP3    H144256   7.066   6.514   1.090
14771TIP3    H244257   7.176   6.524   0.986
14772TIP3   OH244258   5.309   4.988   4.484
14772TIP3    H144259   5.324   4.991   4.389
14772TIP3    H244260   5.303   5.080   4.510
14773TIP3   OH244261   5.641   1.523   2.008
14773TIP3    H144262   5.665   1.590   1.944
14773TIP3    H244263   5.724   1.492   2.043
14774TIP3   OH244264   5.586   0.624   2.226
14774TIP3    H144265   5.513   0.646   2.284
14774TIP3    H244266   5.648   0.577   2.283
14775TIP3   OH244267   3.158   6.598   4.335
14775TIP3    H144268   3.237   6.651   4.326
14775TIP3    H244269   3.178   6.537   4.407
14776TIP3   OH244270   2.990   5.031   5.983
14776TIP3    H144271   2.951   5.112   6.015
14776TIP3    H244272   3.082   5.037   6.008
14777TIP3   OH244273   8.060   4.789   3.390
14777TIP3    H144274   7.979   4.840   3.401
14777TIP3    H244275   8.034   4.713   3.337
14778TIP3   OH244276   2.201   7.307   4.540
14778TIP3    H144277   2.231   7.339   4.455
14778TIP3    H244278   2.264   7.240   4.565
14779TIP3   OH244279   4.224   6.289   2.628
14779TIP3    H144280   4.157   6.220   2.619
14779TIP3    H244281   4.302   6.252   2.587
14780TIP3   OH244282   0.847   3.704   2.116
14780TIP3    H144283   0.919   3.767   2.101
14780TIP3    H244284   0.811   3.689   2.029
14781TIP3   OH244285   3.477   3.663   4.433
14781TIP3    H144286   3.548   3.716   4.469
14781TIP3    H244287   3.455   3.601   4.502
14782TIP3   OH244288   5.485   7.298   2.858
14782TIP3    H144289   5.521   7.354   2.789
14782TIP3    H244290   5.483   7.354   2.935
14783TIP3   OH244291   0.641   2.788   3.883
14783TIP3    H144292   0.727   2.787   3.925
14783TIP3    H244293   0.578   2.780   3.955
14784TIP3   OH244294   2.580   0.059   1.387
14784TIP3    H144295   2.535   0.110   1.454
14784TIP3    H244296   2.637   0.122   1.342
14785TIP3   OH244297   4.845   2.584   5.880
14785TIP3    H144298   4.839   2.593   5.785
14785TIP3    H244299   4.783   2.515   5.902
14786TIP3   OH244300   3.930   6.974   6.058
14786TIP3    H144301   4.010   7.020   6.083
14786TIP3    H244302   3.931   6.895   6.112
14787TIP3   OH244303   3.448   4.530   3.192
14787TIP3    H144304   3.508   4.571   3.254
14787TIP3    H244305   3.497   4.454   3.159
14788TIP3   OH244306   7.293   6.255   1.128
14788TIP3    H144307   7.239   6.332   1.107
14788TIP3    H244308   7.379   6.291   1.150
14789TIP3   OH244309   5.830   3.140   2.013
14789TIP3    H144310   5.815   3.088   1.934
14789TIP3    H244311   5.922   3.126   2.035
14790TIP3   OH244312   3.221   0.325   6.146
14790TIP3    H144313   3.290   0.305   6.209
14790TIP3    H244314   3.170   0.394   6.187
14791TIP3   OH244315   0.815   5.293   3.124
14791TIP3    H144316   0.899   5.337   3.125
14791TIP3    H244317   0.756   5.354   3.080
14792TIP3   OH244318   4.291   3.782   4.448
14792TIP3    H144319   4.318   3.864   4.490
14792TIP3    H244320   4.265   3.725   4.521
14793TIP3   OH244321   7.177   5.256   3.029
14793TIP3    H144322   7.206   5.296   2.947
14793TIP3    H244323   7.235   5.294   3.095
14794TIP3   OH244324   2.106   7.506   0.574
14794TIP3    H144325   2.193   7.534   0.547
14794TIP3    H244326   2.120   7.419   0.612
14795TIP3   OH244327   6.451   5.180   5.514
14795TIP3    H144328   6.510   5.229   5.457
14795TIP3    H244329   6.497   5.176   5.598
14796TIP3   OH244330   2.677   2.028   0.821
14796TIP3    H144331   2.584   2.048   0.817
14796TIP3    H244332   2.689   1.959   0.755
14797TIP3   OH244333   3.291   1.395   0.662
14797TIP3    H144334   3.244   1.315   0.638
14797TIP3    H244335   3.383   1.368   0.667
14798TIP3   OH244336   6.150   1.143   3.778
14798TIP3    H144337   6.128   1.231   3.748
14798TIP3    H244338   6.066   1.105   3.804
14799TIP3   OH244339   7.633   3.074   2.515
14799TIP3    H144340   7.656   2.997   2.567
14799TIP3    H244341   7.576   3.041   2.445
14800TIP3   OH244342   7.746   0.941   6.414
14800TIP3    H144343   7.663   0.963   6.456
14800TIP3    H244344   7.785   1.025   6.391
14801TIP3   OH244345   1.218   7.633   0.595
14801TIP3    H144346   1.204   7.641   0.689
14801TIP3    H244347   1.130   7.637   0.557
14802TIP3   OH244348   2.645   6.972   2.319
14802TIP3    H144349   2.634   7.064   2.297
14802TIP3    H244350   2.616   6.965   2.410
14803TIP3   OH244351   3.941   1.734   4.475
14803TIP3    H144352   3.983   1.799   4.419
14803TIP3    H244353   3.869   1.699   4.422
14804TIP3   OH244354   6.818   1.627   0.312
14804TIP3    H144355   6.807   1.718   0.283
14804TIP3    H244356   6.882   1.632   0.383
14805TIP3   OH244357   6.663   2.573   3.505
14805TIP3    H144358   6.669   2.490   3.457
14805TIP3    H244359   6.623   2.549   3.589
14806TIP3   OH244360   4.662   4.169   6.176
14806TIP3    H144361   4.740   4.221   6.161
14806TIP3    H244362   4.640   4.183   6.268
14807TIP3   OH244363   0.059   1.833   4.391
14807TIP3    H144364   0.081   1.801   4.303
14807TIP3    H244365   0.084   1.761   4.449
14808TIP3   OH244366   6.320   3.669   1.333
14808TIP3    H144367   6.394   3.699   1.386
14808TIP3    H244368   6.354   3.594   1.285
14809TIP3   OH244369   7.581   7.126   4.304
14809TIP3    H144370   7.652   7.073   4.340
14809TIP3    H244371   7.501   7.076   4.323
14810TIP3   OH244372   1.853   2.684   1.829
14810TIP3    H144373   1.804   2.617   1.875
14810TIP3    H244374   1.818   2.682   1.740
14811TIP3   OH244375   3.801   2.158   5.154
14811TIP3    H144376   3.847   2.075   5.144
14811TIP3    H244377   3.797   2.195   5.066
14812TIP3   OH244378   7.341   2.068   1.002
14812TIP3    H144379   7.308   1.990   0.958
14812TIP3    H244380   7.263   2.123   1.015
14813TIP3   OH244381   3.210   7.256   6.760
14813TIP3    H144382   3.228   7.349   6.770
14813TIP3    H244383   3.179   7.247   6.670
14814TIP3   OH244384   5.445   0.830   4.829
14814TIP3    H144385   5.492   0.794   4.754
14814TIP3    H244386   5.434   0.756   4.889
14815TIP3   OH244387   5.354   0.827   1.342
14815TIP3    H144388   5.369   0.902   1.284
14815TIP3    H244389   5.259   0.825   1.354
   8.28016   7.80661   6.76072   0.00000   0.00000  -2.76005   0.00000  -2.76005  -3.90331
