Title
19927
    1ASP      N    1   6.318   4.079   1.513  0.2497 -0.0342 -0.3257
    1ASP    HT1    2   6.415   4.075   1.552  0.0365  1.7236  0.4799
    1ASP    HT2    3   6.253   4.019   1.568 -1.0825  0.9697 -0.7544
    1ASP    HT3    4   6.291   4.178   1.527  2.2086  0.7996 -2.0393
    1ASP     CA    5   6.316   4.044   1.368 -0.2546  0.2207  0.1659
    1ASP     HA    6   6.363   3.947   1.359 -0.2150  0.4040 -2.5558
    1ASP     CB    7   6.171   4.038   1.309  0.3324  0.1846 -0.5875
    1ASP    HB1    8   6.175   4.023   1.199  1.3230 -0.3563 -0.4925
    1ASP    HB2    9   6.117   4.134   1.326  2.1290  1.1782 -0.1542
    1ASP     CG   10   6.085   3.923   1.365 -0.6233 -1.1455 -0.3586
    1ASP    OD1   11   6.129   3.869   1.468 -0.3411 -0.5693  0.0700
    1ASP    OD2   12   5.988   3.885   1.297  0.3064 -0.1355 -0.6549
    1ASP      C   13   6.405   4.132   1.286 -0.5750  0.4312 -0.8283
    1ASP      O   14   6.523   4.098   1.266  0.1116  0.0342 -0.2831
    2ALA      N   15   6.357   4.252   1.250  0.8852 -0.3572 -0.1969
    2ALA     HN   16   6.265   4.289   1.259  1.2445  0.4780  0.1872
    2ALA     CA   17   6.449   4.342   1.184  0.0211 -0.0216 -0.6198
    2ALA     HA   18   6.526   4.280   1.140  0.0220  0.4168 -1.2513
    2ALA     CB   19   6.398   4.422   1.057 -0.1641 -0.0757  0.3126
    2ALA    HB1   20   6.351   4.362   0.976 -0.5879 -0.9745  1.2118
    2ALA    HB2   21   6.481   4.483   1.014  0.2957  1.5719  3.2809
    2ALA    HB3   22   6.325   4.496   1.097 -0.6030 -0.4781  0.2627
    2ALA      C   23   6.524   4.446   1.275 -0.0045 -0.2386  0.3347
    2ALA      O   24   6.473   4.555   1.305 -0.7525 -0.0446 -0.4529
    3ASP      N   25   6.650   4.405   1.315  0.3712 -0.2823 -0.3241
    3ASP     HN   26   6.673   4.310   1.294  0.5099 -0.0605 -1.2219
    3ASP     CA   27   6.746   4.480   1.390 -0.8230  0.1459 -0.4681
    3ASP     HA   28   6.696   4.526   1.474  0.3943  0.1814  0.2717
    3ASP     CB   29   6.863   4.390   1.440  0.2090  1.0883  0.0328
    3ASP    HB1   30   6.945   4.445   1.490  1.9163 -1.6316  0.4240
    3ASP    HB2   31   6.906   4.333   1.355 -1.5354 -0.3863  0.0699
    3ASP     CG   32   6.818   4.282   1.537  0.2255 -0.7142 -0.4010
    3ASP    OD1   33   6.890   4.180   1.564 -0.2998  0.2497 -0.3293
    3ASP    OD2   34   6.705   4.304   1.599 -0.1622  0.1987  0.8804
    3ASP      C   35   6.810   4.595   1.317  0.0517 -0.3445  0.1105
    3ASP      O   36   6.841   4.589   1.197 -0.0086 -0.0578 -0.0213
    4GLY      N   37   6.840   4.701   1.397 -0.9393  0.3019 -0.0689
    4GLY     HN   38   6.837   4.695   1.497  1.1229 -0.2067  0.0045
    4GLY     CA   39   6.892   4.831   1.353  0.2924  0.1724 -0.2638
    4GLY    HA1   40   6.997   4.819   1.333 -0.0077 -1.0776 -1.1928
    4GLY    HA2   41   6.864   4.889   1.440 -1.3366  0.0602 -0.6870
    4GLY      C   42   6.824   4.890   1.230 -0.7857 -0.8152  0.1782
    4GLY      O   43   6.719   4.855   1.187 -0.2038 -0.0171  0.2393
    5PRO      N   44   6.885   4.997   1.170  0.6724 -0.0358 -1.1134
    5PRO     CD   45   6.999   5.067   1.231  0.2859 -0.4376  0.2158
    5PRO    HD1   46   7.083   5.000   1.203  0.3173  0.1175 -1.1349
    5PRO    HD2   47   6.986   5.084   1.340  0.9799  0.4772  0.1588
    5PRO     CA   48   6.833   5.069   1.055  0.0197  0.3862  0.1472
    5PRO     HA   49   6.742   5.119   1.085  0.2300  0.2827  0.9826
    5PRO     CB   50   6.945   5.164   1.018  0.4407  0.2349  0.1034
    5PRO    HB1   51   6.903   5.260   0.982  2.6880  1.3314  0.2190
    5PRO    HB2   52   7.011   5.122   0.939  1.2199 -1.9406  1.7976
    5PRO     CG   53   7.018   5.197   1.149 -0.0215 -0.2507  0.8691
    5PRO    HG1   54   7.124   5.222   1.127 -0.2941  0.2374  0.0329
    5PRO    HG2   55   6.968   5.282   1.200 -1.6484  0.2550 -1.3850
    5PRO      C   56   6.788   4.988   0.936 -0.1808  0.2505  0.2232
    5PRO      O   57   6.827   4.874   0.915 -0.2877 -0.1540  0.4059
    6GLY      N   58   6.690   5.039   0.860  0.0001 -0.8685  0.0502
    6GLY     HN   59   6.658   5.129   0.887  0.0868 -0.3599 -1.4406
    6GLY     CA   60   6.627   4.980   0.739  0.3270 -0.6771 -0.5074
    6GLY    HA1   61   6.537   5.036   0.715 -1.3845 -2.6983  0.8839
    6GLY    HA2   62   6.612   4.875   0.758 -0.3735 -0.5223 -0.1824
    6GLY      C   63   6.708   4.988   0.616 -0.3514 -0.4227 -0.5420
    6GLY      O   64   6.825   4.958   0.614 -0.2329  0.5516  0.5927
    7ASP      N   65   6.643   5.011   0.500  0.2507 -0.5306  0.0877
    7ASP     HN   66   6.543   5.018   0.495  0.3102 -0.4806 -2.1216
    7ASP     CA   67   6.698   5.018   0.364  0.1360 -0.6147 -0.0364
    7ASP     HA   68   6.752   4.926   0.354  0.7293 -0.2990  0.1918
    7ASP     CB   69   6.586   5.038   0.257 -0.4766 -0.1534  0.4275
    7ASP    HB1   70   6.630   5.063   0.158 -0.3165  1.8231  0.9562
    7ASP    HB2   71   6.517   5.120   0.289  0.6137 -0.3505  3.6120
    7ASP     CG   72   6.518   4.901   0.247  0.8802 -0.2537  0.4342
    7ASP    OD1   73   6.582   4.805   0.197  0.1042 -0.2524 -0.3640
    7ASP    OD2   74   6.400   4.891   0.292  0.0540  0.1901  0.2715
    7ASP      C   75   6.803   5.130   0.352 -0.9082 -0.0817 -0.2893
    7ASP      O   76   6.798   5.236   0.423  0.0097 -0.5601 -0.0624
    8PRO      N   77   6.911   5.118   0.269 -0.0219 -0.1700  0.1990
    8PRO     CD   78   6.947   4.994   0.203  0.1900  0.0261 -0.0227
    8PRO    HD1   79   6.883   4.991   0.112 -1.7269  0.7417  1.2375
    8PRO    HD2   80   6.923   4.908   0.268  0.3729 -0.4428 -0.5708
    8PRO     CA   81   7.015   5.222   0.254 -0.2918  0.3232  0.3605
    8PRO     HA   82   7.066   5.243   0.346 -2.2783  2.3982  1.0712
    8PRO     CB   83   7.096   5.146   0.143 -0.7729  0.1714  0.8141
    8PRO    HB1   84   7.199   5.188   0.135  0.2562 -2.3063  0.0585
    8PRO    HB2   85   7.049   5.153   0.042 -0.4629 -0.1424  0.6464
    8PRO     CG   86   7.088   4.999   0.170  0.0911  0.1955  0.4717
    8PRO    HG1   87   7.108   4.944   0.075 -3.0541  0.6428 -0.5587
    8PRO    HG2   88   7.157   4.976   0.254 -0.3815  0.7416  1.0110
    8PRO      C   89   6.954   5.354   0.195  0.0232  0.5875  0.3537
    8PRO      O   90   6.844   5.344   0.131  0.4533  0.2775  0.1926
    9ASP      N   91   7.008   5.482   0.206  0.4556 -0.1952 -0.0304
    9ASP     HN   92   7.080   5.507   0.271 -0.1053  2.2014 -0.2594
    9ASP     CA   93   6.932   5.601   0.161 -0.2592  0.0755 -0.0916
    9ASP     HA   94   6.835   5.592   0.207 -0.2164 -1.4440 -0.2720
    9ASP     CB   95   7.006   5.732   0.205 -0.7378  0.5761  0.4763
    9ASP    HB1   96   6.962   5.816   0.146  0.6078  2.5008  2.0723
    9ASP    HB2   97   7.112   5.739   0.171 -1.4073 -0.3304 -2.0466
    9ASP     CG   98   6.987   5.762   0.350  0.6010  0.1518  0.1308
    9ASP    OD1   99   6.930   5.672   0.423 -0.1160 -0.3988 -0.2581
    9ASP    OD2  100   7.029   5.872   0.398  0.4965 -0.3245 -0.1087
    9ASP      C  101   6.904   5.605   0.008  0.1603 -0.6324 -0.3039
    9ASP      O  102   6.993   5.579  -0.069 -0.5579  0.0522 -0.0618
   10ALA      N  103   6.781   5.631  -0.040 -0.3577  0.0837 -0.4098
   10ALA     HN  104   6.708   5.629   0.027  1.3260  1.1743  1.5786
   10ALA     CA  105   6.744   5.650  -0.181  0.2198 -0.1193  0.0325
   10ALA     HA  106   6.739   5.548  -0.217 -0.3547 -1.6843  3.9629
   10ALA     CB  107   6.609   5.714  -0.186  0.6713  0.0258  0.1429
   10ALA    HB1  108   6.539   5.669  -0.112  1.9266 -0.5429  1.0148
   10ALA    HB2  109   6.559   5.705  -0.285  0.3978  1.0518  0.1747
   10ALA    HB3  110   6.614   5.819  -0.152  0.5158 -0.3454  1.3859
   10ALA      C  111   6.840   5.717  -0.274  0.0731 -0.1035 -0.0541
   10ALA      O  112   6.899   5.826  -0.245  0.4848  0.1449  0.1826
   11GLY      N  113   6.863   5.655  -0.395  1.0196 -0.2547 -0.0573
   11GLY     HN  114   6.822   5.566  -0.414  0.5994  0.0268 -0.5022
   11GLY     CA  115   6.915   5.720  -0.514  0.2100 -0.4474 -0.3328
   11GLY    HA1  116   6.928   5.825  -0.492  1.7038 -0.4553 -1.0737
   11GLY    HA2  117   6.848   5.703  -0.597  3.2456  0.0483 -3.0798
   11GLY      C  118   7.044   5.665  -0.564  0.3248  0.3805  0.0305
   11GLY    OT1  119   7.086   5.559  -0.518 -0.4523  0.6575  0.1392
   11GLY    OT2  120   7.109   5.725  -0.650  0.8397 -0.2070  0.1975
   12SOD    SOD  121   3.485   1.200   1.500  0.0044  0.1928 -0.1198
   13SOD    SOD  122   3.863   3.622   1.982 -0.2701  0.0557 -0.1143
   14SOD    SOD  123   4.840   0.234   2.275  0.0339  0.0847  0.0215
   15SOD    SOD  124   4.806   1.905   4.059  0.0519  0.2823  0.2950
   16SOD    SOD  125   5.357   3.240   4.222  0.0712  0.2546  0.2582
   17SOD    SOD  126   2.403   5.122   3.099  0.4980  0.3687 -0.1116
   18SOD    SOD  127   4.864   0.327   1.179 -0.3081 -0.1705  0.1310
   19SOD    SOD  128   3.115   2.200   4.483  0.2327 -0.3521  0.2297
   20SOD    SOD  129   2.425   0.553   3.271  0.4010  0.6969  0.0040
   21SOD    SOD  130   1.764   1.389   4.780 -0.3179 -0.5162  0.1535
   22SOD    SOD  131   5.204   1.820   0.920 -0.0172 -0.2774  0.2029
   23SOD    SOD  132   6.066   2.016   2.704 -0.1836 -0.4478 -0.0970
   24SOD    SOD  133   0.833   3.540   2.215  0.2045  0.4874  0.4642
   25SOD    SOD  134   1.948   4.029   1.838 -0.5552 -0.1795  0.2747
   26SOD    SOD  135   3.091   0.368   0.553 -0.1505 -0.2879 -0.0059
   27SOD    SOD  136   5.328   2.178   3.251  0.3926 -0.0022  0.4084
   28SOD    SOD  137   5.579   4.169   3.679  0.0210  0.4997 -0.0916
   29SOD    SOD  138   1.963   3.960   2.828  0.1970 -0.0918 -0.0567
   30SOD    SOD  139   5.045   4.219   3.317  0.0288 -0.1042  0.4018
   31SOD    SOD  140   6.114   2.717   1.277 -0.3669 -0.0473 -0.6105
   32SOD    SOD  141   4.611   4.053   4.882 -0.5698  0.0371  0.3636
   33SOD    SOD  142   1.207   4.330   3.905  0.2378  0.1282 -0.1607
   34CLA    CLA  143   0.053   5.774   3.277 -0.1880 -0.2306 -0.1562
   35CLA    CLA  144   1.467   4.509   2.045  0.6140  0.1855 -0.2695
   36CLA    CLA  145   4.145   2.430   4.556 -0.1604  0.1042 -0.0991
   37CLA    CLA  146   3.871   1.469   1.405  0.0762 -0.2324 -0.2444
   38CLA    CLA  147   1.781   4.881   3.145 -0.1362 -0.0017 -0.3376
   39CLA    CLA  148   4.771   1.496   1.580 -0.0162  0.0540 -0.1243
   40CLA    CLA  149   1.479   4.166   4.404  0.1408 -0.0676  0.2017
   41CLA    CLA  150   1.711   1.566   1.768 -0.4452 -0.6397 -0.2188
   42CLA    CLA  151   1.565   5.261   0.891  0.2267 -0.4486 -0.2513
   43CLA    CLA  152   3.268   4.705   4.183 -0.1935 -0.4127 -0.1996
   44CLA    CLA  153   3.007   4.910   3.537  0.0493  0.0093  0.3967
   45CLA    CLA  154   3.070   3.816   3.375 -0.6097 -0.2932 -0.3787
   46CLA    CLA  155   6.013   4.630   2.966  0.2105  0.3492 -0.0097
   47CLA    CLA  156   0.985   3.394   3.217  0.0630  0.0472 -0.1536
   48CLA    CLA  157   1.223   4.865   2.685  0.1945 -0.0088 -0.0291
   49CLA    CLA  158   1.532   2.910   1.392 -0.4803  0.1317 -0.1352
   50CLA    CLA  159   0.698   4.294   2.868  0.0997  0.2527  0.1370
   51CLA    CLA  160   5.334   3.482   3.185  0.3673 -0.2864 -0.0379
   52TIP3   OH2  161   5.608   4.905   2.034 -0.1762  0.0499  0.2518
   52TIP3    H1  162   5.562   4.836   2.080 -0.9690 -1.5684 -2.6761
   52TIP3    H2  163   5.559   4.916   1.952  2.4233  0.9608 -1.3068
   53TIP3   OH2  164   5.638   1.046   0.684  0.2457 -0.3357 -0.7175
   53TIP3    H1  165   5.686   0.972   0.720  0.6607  0.5306  0.5971
   53TIP3    H2  166   5.701   1.118   0.683 -0.5269  0.3644 -0.6543
   54TIP3   OH2  167   4.000   0.998   1.968  0.5105 -0.3529  0.4726
   54TIP3    H1  168   4.047   1.076   1.939 -0.7786  0.2572 -0.0547
   54TIP3    H2  169   4.030   0.928   1.909 -0.9399  0.5392 -1.4220
   55TIP3   OH2  170   0.147   5.312   0.631  0.3667 -0.6642 -0.0234
   55TIP3    H1  171   0.054   5.294   0.612  0.8212 -2.9957 -0.3966
   55TIP3    H2  172   0.149   5.325   0.726 -0.8780  3.8544 -0.3923
   56TIP3   OH2  173   6.074   3.958   4.847 -0.2679  0.4507 -0.3949
   56TIP3    H1  174   6.018   4.035   4.841  1.8677  1.9708 -2.7758
   56TIP3    H2  175   6.163   3.993   4.851  0.7210 -1.8827 -0.3023
   57TIP3   OH2  176   5.469   2.057   2.645  0.5066 -0.4443  0.3995
   57TIP3    H1  177   5.430   2.142   2.626 -0.6218 -0.9201  0.5157
   57TIP3    H2  178   5.464   2.049   2.740  2.5287  0.2353  0.6096
   58TIP3   OH2  179   1.236   0.123   4.984 -0.2146  0.1983  0.1678
   58TIP3    H1  180   1.328   0.123   4.958  0.0219 -2.4458  0.6744
   58TIP3    H2  181   1.188   0.112   4.902 -0.0067  0.3636  0.0223
   59TIP3   OH2  182   3.922   4.970   3.767  0.0538 -0.1425  0.0610
   59TIP3    H1  183   3.962   5.043   3.814 -1.0897 -0.2314  1.2263
   59TIP3    H2  184   3.962   4.973   3.680  3.1859 -0.7461  1.3389
   60TIP3   OH2  185   4.667   1.569   2.314 -0.5423  0.1327  0.2767
   60TIP3    H1  186   4.595   1.619   2.353 -0.9612 -0.1712 -0.1037
   60TIP3    H2  187   4.711   1.632   2.256 -0.4456  0.3419  0.5736
   61TIP3   OH2  188   3.969   5.115   1.410  0.0740 -0.1113 -0.1013
   61TIP3    H1  189   4.024   5.043   1.379 -0.4526 -0.1926 -0.8888
   61TIP3    H2  190   4.000   5.192   1.361 -2.1666 -0.6366 -2.5899
   62TIP3   OH2  191   5.184   1.104   1.883 -0.3263 -0.7811  0.3437
   62TIP3    H1  192   5.232   1.132   1.960 -0.6007 -1.8880  0.9343
   62TIP3    H2  193   5.222   1.155   1.811  1.0195 -0.8865  0.9576
   63TIP3   OH2  194   1.453   3.332   5.032 -0.0407  0.0575 -0.2134
   63TIP3    H1  195   1.514   3.393   5.073 -0.3216 -0.5373  1.1689
   63TIP3    H2  196   1.507   3.276   4.977  0.3365  0.9726 -0.7896
   64TIP3   OH2  197   1.906   5.467   3.987 -0.3558  0.2874 -0.1816
   64TIP3    H1  198   1.946   5.381   3.978 -0.7216 -0.1081  1.4922
   64TIP3    H2  199   1.871   5.467   4.077 -3.6292  0.7704 -1.3113
   65TIP3   OH2  200   2.585   0.191   1.040  0.3033  0.5455  0.1586
   65TIP3    H1  201   2.595   0.251   0.966  1.7356  0.1829  0.0130
   65TIP3    H2  202   2.491   0.184   1.053  0.0672  1.6297 -0.7984
   66TIP3   OH2  203   5.248   2.054   3.459 -0.2733  0.6281  0.0297
   66TIP3    H1  204   5.274   1.962   3.464  0.4280  0.7852 -0.4711
   66TIP3    H2  205   5.156   2.051   3.431  0.2205  0.0810 -1.6929
   67TIP3   OH2  206   3.498   0.245   4.680  0.0910  0.0531  0.4561
   67TIP3    H1  207   3.486   0.153   4.659 -0.1767  0.2195 -0.1570
   67TIP3    H2  208   3.562   0.276   4.616 -0.2380  0.4211  0.3042
   68TIP3   OH2  209   3.118   4.114   3.301  0.2116  0.1610 -0.3777
   68TIP3    H1  210   3.212   4.104   3.288  0.3098 -0.0494  0.4491
   68TIP3    H2  211   3.087   4.027   3.325 -0.0532  0.3942  0.1478
   69TIP3   OH2  212   3.483   0.051   3.627  0.4311 -0.0043  0.1848
   69TIP3    H1  213   3.568   0.037   3.585  0.9348 -0.1378  1.2043
   69TIP3    H2  214   3.504   0.094   3.710 -0.4949 -0.1229  0.4954
   70TIP3   OH2  215   0.089   5.736   1.364  0.2757  0.1158  0.5195
   70TIP3    H1  216  -0.006   5.730   1.350  0.3135 -1.1924  0.6775
   70TIP3    H2  217   0.110   5.827   1.344 -1.1550  0.6724  1.3586
   71TIP3   OH2  218   2.441   3.772   2.708 -0.2555 -0.3724 -0.2433
   71TIP3    H1  219   2.469   3.860   2.732 -0.2174 -0.2927 -0.5787
   71TIP3    H2  220   2.469   3.717   2.781 -1.9743  0.1749  0.8727
   72TIP3   OH2  221   6.056   3.017   2.648 -0.3307 -0.0358  0.2868
   72TIP3    H1  222   6.145   3.047   2.666 -0.2718 -0.3822  0.5963
   72TIP3    H2  223   6.016   3.005   2.734 -0.2576 -1.0954  0.1976
   73TIP3   OH2  224   0.938   3.006   4.794  0.3858 -0.5629 -0.1292
   73TIP3    H1  225   0.941   2.996   4.889  1.7879 -2.0347 -0.2937
   73TIP3    H2  226   0.965   3.097   4.779  0.9757 -0.5660  0.8388
   74TIP3   OH2  227   4.216   0.671   2.688 -0.3330  0.2084  0.5522
   74TIP3    H1  228   4.121   0.687   2.694 -0.4951 -0.8813  1.4091
   74TIP3    H2  229   4.231   0.598   2.748  0.9190 -0.2241 -0.2503
   75TIP3   OH2  230   4.489   4.774   0.849  0.3752 -0.0204 -0.1677
   75TIP3    H1  231   4.481   4.686   0.811 -1.2593  0.4251 -0.8976
   75TIP3    H2  232   4.410   4.820   0.823  1.5890  1.9832 -0.5457
   76TIP3   OH2  233   4.828   2.807   0.237  0.2039  0.5833  0.1686
   76TIP3    H1  234   4.912   2.821   0.280  0.7637 -0.9965 -0.3505
   76TIP3    H2  235   4.819   2.882   0.178  0.6761  1.3752  1.0616
   77TIP3   OH2  236   6.126   1.158   3.710 -0.4055 -0.1953  0.4568
   77TIP3    H1  237   6.080   1.074   3.717 -1.2919  0.0281 -1.7051
   77TIP3    H2  238   6.059   1.218   3.676  0.6251  0.9909  0.4804
   78TIP3   OH2  239   1.672   4.728   2.770 -0.1432  0.2257 -0.1300
   78TIP3    H1  240   1.595   4.693   2.815 -0.8965  1.0578 -0.7362
   78TIP3    H2  241   1.656   4.822   2.764  2.1415  0.8797  2.0774
   79TIP3   OH2  242   5.567   5.985   4.683  0.0446 -0.3642 -0.9166
   79TIP3    H1  243   5.649   5.938   4.697  0.1875  0.5391  2.0204
   79TIP3    H2  244   5.499   5.925   4.712 -0.0454  0.0319 -0.2963
   80TIP3   OH2  245   3.172   5.383   1.845  0.0159 -0.1830  0.0326
   80TIP3    H1  246   3.193   5.349   1.932 -1.1557  2.2697  1.3878
   80TIP3    H2  247   3.172   5.479   1.856  0.9156  0.2751 -2.9605
   81TIP3   OH2  248   2.845   5.470   1.979  0.2576  0.9158 -0.0682
   81TIP3    H1  249   2.919   5.528   1.963  0.2337  1.1298  0.5707
   81TIP3    H2  250   2.831   5.426   1.895  0.9040  1.1042 -0.2842
   82TIP3   OH2  251   3.250   2.487   1.141  0.1780 -0.1193 -0.3548
   82TIP3    H1  252   3.322   2.475   1.203  1.7977 -0.4639 -2.2147
   82TIP3    H2  253   3.199   2.406   1.148  0.8338 -0.5224 -0.0808
   83TIP3   OH2  254   3.827   2.709   2.721 -0.1024  0.0300 -0.4107
   83TIP3    H1  255   3.786   2.624   2.705  1.2661 -0.5058 -1.3055
   83TIP3    H2  256   3.772   2.772   2.674 -1.1571 -0.3434  0.3029
   84TIP3   OH2  257   2.808   2.828   3.473  0.0241 -0.7928 -0.2380
   84TIP3    H1  258   2.797   2.744   3.428  1.6198 -1.0458 -0.2038
   84TIP3    H2  259   2.721   2.847   3.508 -0.7758 -1.5847 -1.6814
   85TIP3   OH2  260   5.208   2.324   1.137  0.3650  0.1278  0.2868
   85TIP3    H1  261   5.228   2.402   1.085 -1.4085 -0.3326 -1.2063
   85TIP3    H2  262   5.120   2.341   1.173 -0.1395 -1.2518 -0.2473
   86TIP3   OH2  263   1.432   1.600   0.291  0.3455 -0.1784  0.2321
   86TIP3    H1  264   1.456   1.517   0.250  0.0555 -0.4831  0.6690
   86TIP3    H2  265   1.458   1.590   0.383 -0.0170  0.0801  0.3645
   87TIP3   OH2  266   4.325   5.516   2.246  0.8509 -0.3945 -0.1577
   87TIP3    H1  267   4.317   5.429   2.286 -0.2478 -0.3695 -0.2918
   87TIP3    H2  268   4.325   5.499   2.152 -4.8347 -0.0657 -0.5614
   88TIP3   OH2  269   2.347   0.360   2.025 -0.8087  0.0932  0.2309
   88TIP3    H1  270   2.327   0.389   2.114  0.9915 -0.4607  0.8662
   88TIP3    H2  271   2.441   0.343   2.026 -1.1728 -2.4853 -1.0185
   89TIP3   OH2  272   3.927   4.386   4.658 -0.2308  0.2553 -0.1186
   89TIP3    H1  273   3.880   4.448   4.714  0.0035 -0.4477  0.9043
   89TIP3    H2  274   3.938   4.308   4.714 -0.8065 -0.8306 -1.4633
   90TIP3   OH2  275   3.544   5.890   2.409  0.1804  0.0583  0.2745
   90TIP3    H1  276   3.538   5.798   2.432  1.1669  0.4866  2.5014
   90TIP3    H2  277   3.636   5.913   2.421 -0.2158  1.5429  0.7763
   91TIP3   OH2  278   1.671   1.024   0.461  0.4003  0.1023 -0.2252
   91TIP3    H1  279   1.732   1.056   0.395  0.9907 -0.5779 -0.0282
   91TIP3    H2  280   1.712   0.945   0.495 -0.1366  0.1630  0.5991
   92TIP3   OH2  281   2.912   3.187   0.418 -0.7717  0.5399  1.0356
   92TIP3    H1  282   2.909   3.149   0.330 -0.0574  2.5224  0.0741
   92TIP3    H2  283   2.903   3.113   0.477  0.7939 -1.1408 -0.6882
   93TIP3   OH2  284   0.152   1.098   2.227 -0.0789 -0.0457 -0.0746
   93TIP3    H1  285   0.074   1.059   2.186 -0.9463  1.6203 -0.0995
   93TIP3    H2  286   0.129   1.105   2.319  1.2426 -2.2787  0.5010
   94TIP3   OH2  287   5.315   0.751   4.879 -0.4322  0.3317  0.0020
   94TIP3    H1  288   5.364   0.740   4.797  2.0874  1.1114  1.2888
   94TIP3    H2  289   5.378   0.730   4.948 -2.6199 -0.7927  1.7828
   95TIP3   OH2  290   0.443   4.657   0.146  0.3812  0.0697 -0.1615
   95TIP3    H1  291   0.360   4.703   0.162  0.5831  0.4658 -0.2370
   95TIP3    H2  292   0.428   4.568   0.179 -0.6712 -0.3942 -1.7519
   96TIP3   OH2  293   3.234   3.100   3.511  0.2918 -0.0340 -0.2286
   96TIP3    H1  294   3.242   3.188   3.474  0.5093 -0.5349 -1.4328
   96TIP3    H2  295   3.231   3.114   3.606  0.7903  1.2322 -0.3774
   97TIP3   OH2  296   1.811   2.832   3.187 -0.1701  0.6920 -0.3046
   97TIP3    H1  297   1.797   2.785   3.270  0.8252  0.5216 -0.2240
   97TIP3    H2  298   1.792   2.924   3.208 -3.5203  0.2475 -0.7991
   98TIP3   OH2  299   6.184   4.069   0.956 -0.4946  0.1246  0.4312
   98TIP3    H1  300   6.147   4.153   0.984 -0.7053  0.2057 -0.0900
   98TIP3    H2  301   6.236   4.090   0.878  1.8811  0.2777  1.9338
   99TIP3   OH2  302   2.329   2.680   3.680  0.5796  0.2107 -0.3997
   99TIP3    H1  303   2.235   2.683   3.660 -0.9407  0.0904  5.0989
   99TIP3    H2  304   2.366   2.619   3.616 -3.0211  0.2344 -2.7843
  100TIP3   OH2  305   3.451   2.152   3.532 -0.0307  0.4852 -0.7734
  100TIP3    H1  306   3.476   2.164   3.623  0.6721  0.3859 -0.9532
  100TIP3    H2  307   3.417   2.237   3.505  0.5741  0.7599 -0.6756
  101TIP3   OH2  308   6.301   0.431  -0.001 -0.4739  0.2633 -0.0341
  101TIP3    H1  309   6.327   0.519   0.028  0.4433 -0.6824  2.2783
  101TIP3    H2  310   6.383   0.388  -0.024 -0.7515 -0.4003  0.1814
  102TIP3   OH2  311   2.913   4.829   4.655  0.0809  0.5555 -0.0007
  102TIP3    H1  312   2.867   4.749   4.680  1.2419  0.2123  1.1258
  102TIP3    H2  313   3.003   4.801   4.638  0.6511  1.7049  0.9923
  103TIP3   OH2  314   6.301   2.222   1.204  0.0482 -0.0891  0.9795
  103TIP3    H1  315   6.242   2.252   1.135 -0.1618 -3.2825 -0.3950
  103TIP3    H2  316   6.389   2.243   1.172 -0.1437  0.9579  1.1075
  104TIP3   OH2  317   1.622   0.420   4.431  0.2292  0.5993  0.2007
  104TIP3    H1  318   1.685   0.462   4.490  1.6855  0.7336 -1.3581
  104TIP3    H2  319   1.672   0.352   4.387 -1.8040 -2.1908  1.8647
  105TIP3   OH2  320   3.988   3.102   0.955  0.1061  0.4587  0.8303
  105TIP3    H1  321   3.944   3.034   1.006 -0.6827  0.1532 -0.2217
  105TIP3    H2  322   4.079   3.073   0.949 -0.6473 -1.8314 -1.6169
  106TIP3   OH2  323   6.171   2.389   2.169 -0.3031  0.1575  0.0787
  106TIP3    H1  324   6.202   2.298   2.174 -1.2434 -0.1220  1.5871
  106TIP3    H2  325   6.187   2.415   2.079  0.0812 -1.4833 -0.3577
  107TIP3   OH2  326   3.391   4.736   1.334  1.0176 -0.4339 -0.3668
  107TIP3    H1  327   3.366   4.807   1.275  1.4760  0.6133  0.6628
  107TIP3    H2  328   3.342   4.753   1.414 -0.3175 -2.3651 -0.7097
  108TIP3   OH2  329   5.727   4.656   0.544  0.0266  0.5733  0.4448
  108TIP3    H1  330   5.727   4.605   0.463  2.7162 -0.4138  0.9641
  108TIP3    H2  331   5.786   4.729   0.526  0.8711  0.1969  1.5551
  109TIP3   OH2  332   1.762   4.561   0.324  0.0839  0.0180 -0.4327
  109TIP3    H1  333   1.786   4.654   0.324 -1.9219  0.6049  0.6752
  109TIP3    H2  334   1.714   4.549   0.406 -2.0710 -1.3056 -1.7869
  110TIP3   OH2  335   2.774   1.710   4.525  0.0036  0.4807  0.5712
  110TIP3    H1  336   2.855   1.753   4.499  0.5295 -0.1069  1.2266
  110TIP3    H2  337   2.731   1.689   4.442 -0.0083  1.7546  0.2288
  111TIP3   OH2  338   0.140   5.392   2.205  0.0763  0.4698 -0.2589
  111TIP3    H1  339   0.103   5.304   2.196 -0.5939  0.6993  0.1235
  111TIP3    H2  340   0.064   5.448   2.218  0.6032  0.8365  1.5212
  112TIP3   OH2  341   2.015   4.988   0.814  0.1605  0.1510 -0.1152
  112TIP3    H1  342   1.938   5.002   0.870 -0.5209 -0.7827 -0.7727
  112TIP3    H2  343   1.978   4.964   0.729  1.1752  1.3853 -0.9279
  113TIP3   OH2  344   2.002   5.216   3.962  0.4127 -0.0199 -0.0801
  113TIP3    H1  345   2.065   5.173   4.021 -1.1463 -0.4151  1.3886
  113TIP3    H2  346   2.038   5.203   3.875  2.1924 -0.5204  0.6872
  114TIP3   OH2  347   2.306   2.177   2.660 -0.8593 -0.0182 -0.0824
  114TIP3    H1  348   2.225   2.128   2.643 -1.2306  0.6219 -0.1833
  114TIP3    H2  349   2.282   2.269   2.648 -0.9596  0.4707  3.1984
  115TIP3   OH2  350   3.724   2.991   4.931 -0.0076  0.6724 -0.5000
  115TIP3    H1  351   3.754   2.903   4.953  1.3054  1.4686  1.1426
  115TIP3    H2  352   3.669   3.016   5.005  0.7400  1.7066 -0.2684
  116TIP3   OH2  353   4.052   5.559   2.394 -0.3573  0.0197 -0.0644
  116TIP3    H1  354   4.099   5.626   2.344  0.2236  0.9413  1.6633
  116TIP3    H2  355   4.086   5.476   2.359  1.5762  0.6477  0.2049
  117TIP3   OH2  356   3.265   3.277   4.756 -0.0916  0.6697  0.0144
  117TIP3    H1  357   3.201   3.229   4.704 -0.1509  2.5040 -1.7041
  117TIP3    H2  358   3.350   3.245   4.724 -0.0396 -1.3940  1.9455
  118TIP3   OH2  359   3.505   5.344   4.008 -0.1734  0.6632  0.1670
  118TIP3    H1  360   3.494   5.389   4.092 -1.5286 -0.4753  0.6326
  118TIP3    H2  361   3.493   5.251   4.029  1.7200  0.1190 -0.9084
  119TIP3   OH2  362   6.140   5.217   4.235  0.4364 -0.3905 -0.0440
  119TIP3    H1  363   6.231   5.235   4.211  0.9348 -0.5960  1.5834
  119TIP3    H2  364   6.089   5.284   4.190  1.6013  1.0109  0.6504
  120TIP3   OH2  365   6.301   2.822   0.352  0.3912  0.3463  0.3324
  120TIP3    H1  366   6.279   2.910   0.380  2.8882  0.9718  0.5583
  120TIP3    H2  367   6.289   2.824   0.257 -1.3613  0.3122  0.5185
  121TIP3   OH2  368   5.072   5.012   1.432  0.4996  0.1097  0.0643
  121TIP3    H1  369   5.068   4.976   1.521 -0.5565 -0.5376 -0.2363
  121TIP3    H2  370   5.014   5.088   1.435  1.7029  1.0488  0.3400
  122TIP3   OH2  371   3.526   0.627   1.889  0.5497 -0.1708  0.5107
  122TIP3    H1  372   3.526   0.695   1.822  2.3386  0.0132  0.6540
  122TIP3    H2  373   3.576   0.555   1.851 -1.0529 -1.3193  0.4846
  123TIP3   OH2  374   5.423   5.265   0.787 -0.4994 -0.4212 -0.1012
  123TIP3    H1  375   5.438   5.185   0.737 -1.2875  0.1490 -1.3029
  123TIP3    H2  376   5.363   5.238   0.857  1.0404 -1.3443  0.9199
  124TIP3   OH2  377   4.026   1.136   3.439 -0.9578 -0.5485  0.2280
  124TIP3    H1  378   4.117   1.166   3.442 -0.6021 -1.2055 -1.9659
  124TIP3    H2  379   3.976   1.214   3.417 -0.9771 -0.1577  1.5628
  125TIP3   OH2  380   2.757   1.085   1.044 -0.0103 -0.4317  0.2483
  125TIP3    H1  381   2.704   1.143   1.098 -2.7545 -2.5379  0.0564
  125TIP3    H2  382   2.758   1.126   0.957  0.0466  0.4453  0.6606
  126TIP3   OH2  383   0.448   0.115   3.821  0.2707  0.6166 -0.3361
  126TIP3    H1  384   0.399   0.032   3.821  0.1521  0.6681 -1.2322
  126TIP3    H2  385   0.395   0.173   3.766  0.3717  1.2768  0.2584
  127TIP3   OH2  386   2.670   3.345   0.335  0.1315 -0.0352 -0.0586
  127TIP3    H1  387   2.743   3.284   0.346  0.5188  0.6133  1.1435
  127TIP3    H2  388   2.712   3.431   0.331 -0.5729  0.4112  1.3787
  128TIP3   OH2  389   5.242   4.239   1.592  0.1620  0.2799 -0.2922
  128TIP3    H1  390   5.265   4.156   1.549  0.8420  0.4916 -0.3553
  128TIP3    H2  391   5.164   4.219   1.644 -2.3136  0.6145 -3.5812
  129TIP3   OH2  392   4.486   4.563   1.491 -0.5753 -0.2831 -0.1905
  129TIP3    H1  393   4.536   4.489   1.526  0.1080 -0.3550 -1.2896
  129TIP3    H2  394   4.411   4.571   1.551  1.1721  0.4043  2.0339
  130TIP3   OH2  395   2.727   0.038   2.125 -0.8008  0.1522 -0.1062
  130TIP3    H1  396   2.774  -0.045   2.120 -0.4004  0.4286 -1.2709
  130TIP3    H2  397   2.789   0.098   2.167 -0.6224  0.1614 -0.3775
  131TIP3   OH2  398   1.247   3.572   4.944 -0.3232 -0.1427  0.0070
  131TIP3    H1  399   1.337   3.552   4.919 -0.2140  1.5539 -1.1279
  131TIP3    H2  400   1.205   3.601   4.863 -0.7457  2.9466  1.1723
  132TIP3   OH2  401   5.360   1.817   1.635 -0.5936 -0.7740 -0.2498
  132TIP3    H1  402   5.431   1.882   1.636 -0.6004 -0.7397  1.6931
  132TIP3    H2  403   5.295   1.853   1.575 -0.9311  1.4149  1.3280
  133TIP3   OH2  404   3.660   4.236   3.833 -0.1187  0.0663 -0.0813
  133TIP3    H1  405   3.625   4.236   3.922 -1.5273 -0.1588 -0.6087
  133TIP3    H2  406   3.622   4.313   3.792  0.0229 -0.1724 -0.6735
  134TIP3   OH2  407   1.047   1.056   0.334 -0.0156 -0.1758  0.3285
  134TIP3    H1  408   1.090   1.135   0.365  0.2785 -0.2263  0.0418
  134TIP3    H2  409   1.023   1.009   0.415  1.4665 -0.6975  0.4904
  135TIP3   OH2  410   4.847   3.111   0.662  0.4621 -0.0763  0.5180
  135TIP3    H1  411   4.921   3.068   0.619  0.6206 -0.9944  1.6560
  135TIP3    H2  412   4.802   3.156   0.591  0.6991 -1.5568 -0.6397
  136TIP3   OH2  413   1.779   5.333   4.196  0.1510  0.4263 -0.3996
  136TIP3    H1  414   1.823   5.251   4.216 -0.7101 -0.3596 -1.5824
  136TIP3    H2  415   1.687   5.309   4.184 -0.6567  1.9761  1.8389
  137TIP3   OH2  416   3.454   2.444   1.318 -0.0168 -0.4890 -0.4201
  137TIP3    H1  417   3.521   2.511   1.334  0.1285 -0.3887 -1.3523
  137TIP3    H2  418   3.503   2.363   1.308 -0.1726 -0.7000  0.4552
  138TIP3   OH2  419   6.044   4.996   0.456  0.6301  0.3077 -0.0511
  138TIP3    H1  420   6.089   4.920   0.494  2.2832  1.4836  0.4719
  138TIP3    H2  421   5.990   4.959   0.386  0.8926 -1.4110  0.5863
  139TIP3   OH2  422   4.005   4.446   1.068 -0.1218  0.0291 -0.1149
  139TIP3    H1  423   4.020   4.452   0.973  0.4545  1.4849  0.0455
  139TIP3    H2  424   4.000   4.537   1.097 -1.6170 -0.3956  1.0679
  140TIP3   OH2  425   5.706   1.175   0.219 -0.0476 -0.0593 -0.5826
  140TIP3    H1  426   5.775   1.175   0.152  0.4669  1.9849 -0.1183
  140TIP3    H2  427   5.649   1.247   0.193  0.1857  0.8007  1.1604
  141TIP3   OH2  428   5.773   1.658   2.816  0.2940  0.2188 -0.1630
  141TIP3    H1  429   5.770   1.645   2.911  1.5190 -0.2612 -0.1746
  141TIP3    H2  430   5.842   1.599   2.786  0.3177  0.7949 -1.2852
  142TIP3   OH2  431   3.790   0.047   1.576 -0.3530  0.6356 -0.2032
  142TIP3    H1  432   3.711   0.038   1.524  0.0957  2.7636 -1.3613
  142TIP3    H2  433   3.857  -0.002   1.527 -0.8524 -1.0800  0.7265
  143TIP3   OH2  434   3.499   2.194   2.469 -0.1465  0.9457 -0.1002
  143TIP3    H1  435   3.552   2.187   2.549 -0.2664  2.7586  0.1845
  143TIP3    H2  436   3.414   2.224   2.500 -0.4278  0.9095 -0.8375
  144TIP3   OH2  437   5.703   4.013   0.539  0.1191  0.3429  0.2709
  144TIP3    H1  438   5.677   3.953   0.609 -2.8190  0.8447 -0.2459
  144TIP3    H2  439   5.650   3.987   0.464  0.2395  2.3232 -0.5721
  145TIP3   OH2  440   3.971   4.126   1.267 -0.1360 -0.6929 -0.3981
  145TIP3    H1  441   3.932   4.040   1.284 -1.8967  0.1711  0.2575
  145TIP3    H2  442   3.898   4.177   1.231  0.8731  0.5381 -0.7364
  146TIP3   OH2  443   1.113   1.817   2.907  0.5210  0.3556  0.3273
  146TIP3    H1  444   1.173   1.802   2.834 -0.6420 -0.3163 -0.5406
  146TIP3    H2  445   1.118   1.736   2.958  1.0649  0.6828  0.7994
  147TIP3   OH2  446   5.795   4.471   1.490  0.3337  0.2583  0.1419
  147TIP3    H1  447   5.706   4.448   1.461 -0.0144  1.1864  0.4461
  147TIP3    H2  448   5.847   4.470   1.410 -0.2507  1.1061 -0.2632
  148TIP3   OH2  449   0.736   1.553   3.629  0.3371  0.0246  0.1720
  148TIP3    H1  450   0.770   1.467   3.653 -0.4184  0.0064  1.2587
  148TIP3    H2  451   0.710   1.592   3.712 -1.7463  0.2523 -0.5387
  149TIP3   OH2  452   2.951   3.751   2.483 -0.5405 -0.1077  0.2579
  149TIP3    H1  453   3.011   3.763   2.410 -0.5127 -2.2122 -0.1232
  149TIP3    H2  454   3.007   3.723   2.555 -0.6863  1.0815  0.8666
  150TIP3   OH2  455   2.048   2.929   4.328 -0.0010  0.3596  0.0162
  150TIP3    H1  456   1.994   2.953   4.403 -0.3734  1.3299 -0.5448
  150TIP3    H2  457   2.076   3.013   4.291  1.2026 -0.1187 -0.2020
  151TIP3   OH2  458   3.675   2.585   3.481  0.1357  0.7255 -0.2075
  151TIP3    H1  459   3.670   2.668   3.529  3.1008  0.3240  1.0271
  151TIP3    H2  460   3.734   2.603   3.409  0.8139 -0.3049  0.0812
  152TIP3   OH2  461   1.561   1.591   4.341 -0.3314 -0.6360  0.5205
  152TIP3    H1  462   1.520   1.542   4.270 -0.5360 -2.3232  1.7549
  152TIP3    H2  463   1.620   1.652   4.297 -0.1659 -1.8897 -1.0763
  153TIP3   OH2  464   1.414   3.391   1.583  0.0773  0.1614 -0.3402
  153TIP3    H1  465   1.324   3.423   1.586 -1.8054 -4.4811  2.5160
  153TIP3    H2  466   1.420   3.341   1.502 -0.4519 -0.6467  0.1036
  154TIP3   OH2  467   2.786   1.546   2.742  0.0057  0.0640 -0.1509
  154TIP3    H1  468   2.819   1.636   2.730  0.0277  0.0895  0.0891
  154TIP3    H2  469   2.858   1.501   2.787 -0.9324  0.5910  2.0374
  155TIP3   OH2  470   3.549   3.546   0.294  0.7115 -0.1595 -0.0644
  155TIP3    H1  471   3.564   3.508   0.207 -0.3281  1.3060 -0.9266
  155TIP3    H2  472   3.499   3.480   0.341  2.0761 -1.3553 -0.2292
  156TIP3   OH2  473   2.414   4.951   2.925  0.2090  0.3466  0.1672
  156TIP3    H1  474   2.332   4.902   2.916 -0.8055  2.1742 -1.3004
  156TIP3    H2  475   2.482   4.889   2.897 -0.7683 -0.8889  0.4401
  157TIP3   OH2  476   5.431   5.005   1.841 -0.1626 -0.2748 -0.5309
  157TIP3    H1  477   5.337   5.008   1.855 -0.0068  0.5823  0.4665
  157TIP3    H2  478   5.446   5.066   1.768 -0.2137  0.9352  0.4427
  158TIP3   OH2  479   3.917   3.858   1.097  0.2669  0.3525 -0.1789
  158TIP3    H1  480   3.878   3.793   1.154 -0.4936 -0.7325 -1.8419
  158TIP3    H2  481   4.001   3.879   1.137 -0.1430 -0.5234  1.1877
  159TIP3   OH2  482   3.260   0.969   4.481 -0.0616  0.1612 -0.4956
  159TIP3    H1  483   3.188   0.971   4.544 -0.3977 -1.2309 -0.8150
  159TIP3    H2  484   3.294   1.059   4.481  0.5014  0.0600  2.3155
  160TIP3   OH2  485   0.111   4.337   2.515 -0.0237 -0.0661  0.6541
  160TIP3    H1  486   0.026   4.317   2.477 -0.1249 -1.6919  1.6106
  160TIP3    H2  487   0.145   4.409   2.463 -1.7462  0.2495 -0.0865
  161TIP3   OH2  488   1.964   2.250   0.420 -0.5400 -0.4239 -0.0684
  161TIP3    H1  489   2.001   2.330   0.384  0.7657 -1.1396 -0.3919
  161TIP3    H2  490   1.896   2.279   0.481 -1.2725  0.8758 -1.4274
  162TIP3   OH2  491   5.731   2.997   0.124 -0.4535  0.0156 -0.3446
  162TIP3    H1  492   5.669   2.993   0.051 -0.4572  0.7753 -0.3810
  162TIP3    H2  493   5.707   2.923   0.180 -1.0216 -0.0359 -0.6540
  163TIP3   OH2  494   4.101   0.209   1.013 -0.2525 -0.2392 -0.3239
  163TIP3    H1  495   4.100   0.236   1.105  1.0891 -1.2777  0.0325
  163TIP3    H2  496   4.194   0.203   0.991 -0.5324 -1.2548 -1.3650
  164TIP3   OH2  497   0.504   1.336   0.846  0.1626 -0.8863  0.0163
  164TIP3    H1  498   0.446   1.404   0.810  0.1356 -0.8876  0.0566
  164TIP3    H2  499   0.461   1.254   0.822  1.1094 -0.9443 -1.5864
  165TIP3   OH2  500   4.704   2.897   1.948  0.1484 -0.3412  0.3643
  165TIP3    H1  501   4.793   2.864   1.959 -0.1778 -0.5378  3.2279
  165TIP3    H2  502   4.679   2.929   2.035 -2.2012  0.6836 -0.5942
  166TIP3   OH2  503   4.035   3.883   2.618 -0.2754  0.1962  0.1803
  166TIP3    H1  504   3.991   3.936   2.685  1.5612  1.9641  0.0842
  166TIP3    H2  505   4.077   3.812   2.667 -1.4980 -0.3620  0.4797
  167TIP3   OH2  506   0.344   0.773   2.035  0.0731 -0.0227 -0.5711
  167TIP3    H1  507   0.279   0.703   2.047 -1.2712  1.5184  2.3629
  167TIP3    H2  508   0.305   0.831   1.970 -1.0087  0.2655  0.2923
  168TIP3   OH2  509   3.981   2.936   1.809 -0.1436 -0.4791 -0.5563
  168TIP3    H1  510   3.908   2.972   1.759 -0.3547 -0.9525 -0.5981
  168TIP3    H2  511   4.055   2.939   1.749 -0.4120 -1.1125 -0.9395
  169TIP3   OH2  512   5.723   2.615   2.850  0.4114  0.5212  0.4138
  169TIP3    H1  513   5.641   2.602   2.803 -0.0818 -0.0913  1.4247
  169TIP3    H2  514   5.707   2.692   2.905  0.9323  1.1323 -0.2608
  170TIP3   OH2  515   2.558   2.459   5.030  0.1478 -0.5715  0.3028
  170TIP3    H1  516   2.622   2.491   5.093 -0.7657  1.9912  0.0706
  170TIP3    H2  517   2.501   2.401   5.079  0.3766  0.1602  1.4577
  171TIP3   OH2  518   1.248   4.715   5.055  0.9774 -0.1715  0.3536
  171TIP3    H1  519   1.159   4.707   5.089  1.4056 -0.9159  1.3640
  171TIP3    H2  520   1.241   4.777   4.983 -0.7050 -1.5682 -0.7925
  172TIP3   OH2  521   5.683   5.157   5.134  0.7258 -0.0213 -1.0359
  172TIP3    H1  522   5.762   5.117   5.171  1.1417  0.9577 -0.8468
  172TIP3    H2  523   5.685   5.248   5.165 -0.5270 -0.0055 -0.9516
  173TIP3   OH2  524   5.049   2.325   4.747  0.5675 -0.5940 -0.1364
  173TIP3    H1  525   5.019   2.413   4.724  0.1710 -0.5499  0.5207
  173TIP3    H2  526   4.971   2.281   4.781  1.2447 -0.4017  1.8331
  174TIP3   OH2  527   3.304   0.728   5.004 -0.2495 -0.1527  0.3008
  174TIP3    H1  528   3.239   0.783   4.961  1.3373  0.5710 -1.3215
  174TIP3    H2  529   3.385   0.745   4.956  1.2717 -0.6264  2.5291
  175TIP3   OH2  530   0.142   1.090   0.340  0.1393  0.5146 -0.1732
  175TIP3    H1  531   0.083   1.165   0.331  0.4496  0.9367  1.0114
  175TIP3    H2  532   0.171   1.071   0.251  0.2940  2.0099 -0.4736
  176TIP3   OH2  533   0.559   4.863   2.937 -0.3463 -0.2882 -0.1046
  176TIP3    H1  534   0.601   4.949   2.929 -1.1218 -0.0275 -1.7542
  176TIP3    H2  535   0.599   4.810   2.868 -0.8076 -0.8557  0.0587
  177TIP3   OH2  536   2.128   4.119   5.055  0.4345 -0.4722  0.2740
  177TIP3    H1  537   2.049   4.132   5.003 -0.7086  0.2259  2.0810
  177TIP3    H2  538   2.197   4.164   5.006 -0.5239 -0.0441 -0.7377
  178TIP3   OH2  539   6.108   0.736   0.837 -0.2163  0.4077  0.2226
  178TIP3    H1  540   6.107   0.718   0.743  0.4226 -0.8429  0.4385
  178TIP3    H2  541   6.200   0.742   0.860 -0.3494 -0.1500  0.9255
  179TIP3   OH2  542   3.063   3.127   4.616 -0.1857  0.3560  0.1751
  179TIP3    H1  543   3.000   3.137   4.545 -1.5151 -0.1994  1.2290
  179TIP3    H2  544   3.032   3.051   4.665  0.4386  0.9859  1.5996
  180TIP3   OH2  545   5.380   5.482   2.416  0.0229 -0.5035  0.6089
  180TIP3    H1  546   5.332   5.550   2.368  0.2717  0.0528  1.1418
  180TIP3    H2  547   5.413   5.424   2.348 -0.3567 -0.1998  0.1577
  181TIP3   OH2  548   0.090   2.372   1.898 -0.2799  0.2737  0.1100
  181TIP3    H1  549   0.066   2.449   1.949 -2.0604 -0.4518  0.4198
  181TIP3    H2  550   0.039   2.380   1.817 -0.2498 -0.4226  0.0182
  182TIP3   OH2  551   5.527   1.925   2.301 -0.1544 -0.0081  0.2218
  182TIP3    H1  552   5.450   1.868   2.308  0.2387 -0.5799 -0.0543
  182TIP3    H2  553   5.491   2.013   2.287 -0.7763 -0.6194 -2.7667
  183TIP3   OH2  554   6.094   3.336   4.552 -0.3467  0.1642  0.2395
  183TIP3    H1  555   6.119   3.262   4.606  0.5055 -0.5773 -1.1080
  183TIP3    H2  556   6.170   3.353   4.497 -0.8145  1.5332 -0.0303
  184TIP3   OH2  557   4.865   0.865   4.447 -0.0948  0.2457 -0.2046
  184TIP3    H1  558   4.798   0.849   4.514  0.0011 -0.1367 -0.1990
  184TIP3    H2  559   4.817   0.908   4.376 -0.4246 -0.3188 -0.3377
  185TIP3   OH2  560   3.919   1.487   3.929 -0.5489  0.8707  0.0630
  185TIP3    H1  561   3.915   1.416   3.992 -0.1163  0.8003  0.0125
  185TIP3    H2  562   3.842   1.541   3.949 -0.6996  0.5688  0.3101
  186TIP3   OH2  563   5.416   2.185   4.717 -0.4840  0.3504  0.0265
  186TIP3    H1  564   5.413   2.204   4.811  0.9593  1.6295 -0.1605
  186TIP3    H2  565   5.394   2.092   4.712  2.1520 -0.5108  1.9301
  187TIP3   OH2  566   4.801   2.309   5.055 -0.6627 -0.1924 -0.0652
  187TIP3    H1  567   4.860   2.384   5.061 -0.0001 -0.6762 -0.3971
  187TIP3    H2  568   4.775   2.292   5.145 -1.0856  0.6364 -0.0153
  188TIP3   OH2  569   3.936   1.509   3.649 -0.1260 -0.3197  0.0455
  188TIP3    H1  570   3.941   1.502   3.745  1.2768 -1.1192 -0.0558
  188TIP3    H2  571   4.027   1.500   3.620 -0.6203 -0.8365 -1.4039
  189TIP3   OH2  572   5.054   3.792   0.423  0.6715 -0.1551 -0.3956
  189TIP3    H1  573   5.075   3.838   0.504 -2.3722  0.8431 -0.0511
  189TIP3    H2  574   5.039   3.701   0.450 -0.2583  0.1597  0.1954
  190TIP3   OH2  575   2.308   1.097   3.824  0.0799  0.2767 -0.5394
  190TIP3    H1  576   2.234   1.112   3.764  0.9745  2.2175 -1.2463
  190TIP3    H2  577   2.361   1.031   3.779 -0.1495  0.4363 -1.0605
  191TIP3   OH2  578   3.579   3.675   2.402  0.5962  0.3060  0.0023
  191TIP3    H1  579   3.515   3.683   2.332  1.0480  1.2915 -0.3163
  191TIP3    H2  580   3.615   3.587   2.392  0.0111  0.1114 -0.4317
  192TIP3   OH2  581   2.169   1.549   1.992 -0.0474  0.2322 -0.9855
  192TIP3    H1  582   2.112   1.611   2.038 -1.6291 -1.2004 -0.8866
  192TIP3    H2  583   2.109   1.483   1.957  1.5697 -1.4871 -0.6962
  193TIP3   OH2  584   5.465   2.902   2.798 -0.0559 -0.2756 -0.1550
  193TIP3    H1  585   5.398   2.917   2.731  0.1238  1.6384  0.0327
  193TIP3    H2  586   5.537   2.958   2.771  0.3200 -0.0658  1.2474
  194TIP3   OH2  587   5.741   3.211   3.051  0.4375  0.3012 -0.2464
  194TIP3    H1  588   5.650   3.197   3.026  0.1418  2.2780 -0.3790
  194TIP3    H2  589   5.737   3.250   3.138  1.1472  0.7022 -0.3811
  195TIP3   OH2  590   5.747   1.465   2.015  0.6297 -0.7916 -0.1434
  195TIP3    H1  591   5.692   1.536   2.046 -0.0741 -0.1426 -2.6851
  195TIP3    H2  592   5.690   1.388   2.012  0.2832 -0.4962 -1.2519
  196TIP3   OH2  593   2.066   4.822   2.368  0.4445  0.6081  0.5772
  196TIP3    H1  594   1.976   4.804   2.393  0.6681 -0.8948  0.3752
  196TIP3    H2  595   2.093   4.894   2.425 -0.9681  1.3202  0.3998
  197TIP3   OH2  596   5.658   0.111   0.280 -0.3040 -0.2617  0.0469
  197TIP3    H1  597   5.667   0.163   0.360  2.2529 -3.9041  2.4559
  197TIP3    H2  598   5.573   0.067   0.289 -0.9944  0.9441 -0.3884
  198TIP3   OH2  599   4.199   0.058   3.960 -0.5056 -0.2947  0.2110
  198TIP3    H1  600   4.181   0.039   3.868 -1.2951 -0.0820  0.3146
  198TIP3    H2  601   4.128   0.116   3.987 -2.0877 -2.7891  1.7886
  199TIP3   OH2  602   5.081   3.929   0.649  0.0859 -0.4796 -0.1883
  199TIP3    H1  603   5.166   3.923   0.692  0.1518 -0.5055 -0.3205
  199TIP3    H2  604   5.026   3.867   0.697  0.2787 -0.8295 -0.4144
  200TIP3   OH2  605   3.248   1.494   1.697  0.4058 -0.2944 -0.2615
  200TIP3    H1  606   3.339   1.510   1.722  1.1541 -1.3535 -2.1493
  200TIP3    H2  607   3.202   1.482   1.781  1.7688  1.2742  0.7631
  201TIP3   OH2  608   3.809   1.425   2.772 -0.5969 -1.0148  0.5784
  201TIP3    H1  609   3.752   1.349   2.762 -0.1527 -1.2768 -0.0316
  201TIP3    H2  610   3.761   1.484   2.830 -1.4999 -1.2109  0.0452
  202TIP3   OH2  611   1.427   1.955   0.340 -0.5582  0.1274  0.0477
  202TIP3    H1  612   1.517   1.931   0.360 -0.2464  1.5853  0.5348
  202TIP3    H2  613   1.374   1.883   0.375  0.3848 -0.5657  0.0869
  203TIP3   OH2  614   3.338   5.160   1.947  0.1440 -0.5509  0.1820
  203TIP3    H1  615   3.400   5.229   1.922  0.1146 -0.9035 -0.9223
  203TIP3    H2  616   3.344   5.156   2.042 -0.9198  1.9946  0.4463
  204TIP3   OH2  617   3.300   2.043   3.142  0.7916  0.0965 -0.1941
  204TIP3    H1  618   3.319   1.997   3.060  0.6879  0.8188 -0.6370
  204TIP3    H2  619   3.367   2.013   3.203  0.5963 -0.7914 -0.4088
  205TIP3   OH2  620   2.126   2.430   2.636 -0.3034 -0.5720  0.3241
  205TIP3    H1  621   2.151   2.469   2.553  0.2407  0.9228  1.1558
  205TIP3    H2  622   2.030   2.428   2.634 -0.3031 -0.2392 -0.1960
  206TIP3   OH2  623   5.949   4.349   3.952 -0.4037 -0.2574  0.0099
  206TIP3    H1  624   6.031   4.394   3.933 -0.6461  0.2451  0.1198
  206TIP3    H2  625   5.973   4.258   3.965 -0.1162 -0.5444 -2.1106
  207TIP3   OH2  626   4.076   3.408   4.725 -0.0719 -0.4528  0.1677
  207TIP3    H1  627   4.100   3.323   4.763 -0.7064 -1.7207 -2.0368
  207TIP3    H2  628   3.995   3.432   4.769  0.1951 -0.9021  0.9310
  208TIP3   OH2  629   5.545   1.735   4.607 -0.0845 -0.3568  0.1055
  208TIP3    H1  630   5.454   1.749   4.631  0.6718  0.3250  3.0938
  208TIP3    H2  631   5.567   1.809   4.550 -2.0261 -2.0532 -3.1415
  209TIP3   OH2  632   0.793   5.415   1.396 -0.0323  0.2082  0.4628
  209TIP3    H1  633   0.815   5.403   1.304 -0.1783 -2.3179  0.6881
  209TIP3    H2  634   0.874   5.444   1.437  1.0109 -1.9874  0.0747
  210TIP3   OH2  635   5.628   4.077   3.880 -0.2071  0.3138 -0.1534
  210TIP3    H1  636   5.623   3.982   3.875 -2.3864  0.1846  2.5581
  210TIP3    H2  637   5.643   4.096   3.973  0.3173  2.6276 -0.6454
  211TIP3   OH2  638   0.705   1.750   1.970 -0.0048 -0.3757 -0.5065
  211TIP3    H1  639   0.690   1.734   1.876  1.7368 -2.0749 -0.5546
  211TIP3    H2  640   0.674   1.670   2.012  0.6368 -0.2547  0.2088
  212TIP3   OH2  641   2.395   1.673   1.056  0.1659 -0.1234  0.0339
  212TIP3    H1  642   2.411   1.579   1.057  0.2818 -0.1067 -0.1773
  212TIP3    H2  643   2.361   1.691   0.968 -1.4453 -0.2274  0.6159
  213TIP3   OH2  644   2.386   4.903   3.915 -0.1685 -0.0485  0.1660
  213TIP3    H1  645   2.436   4.962   3.972 -0.6365  0.9506 -0.4213
  213TIP3    H2  646   2.434   4.905   3.832 -0.5981  0.1021 -0.0832
  214TIP3   OH2  647   0.791   5.001   3.604 -0.7286 -0.1673  0.1332
  214TIP3    H1  648   0.705   4.960   3.601 -1.1890  0.8245 -1.2223
  214TIP3    H2  649   0.772   5.095   3.595  0.4679  0.1091  0.3741
  215TIP3   OH2  650   3.917   2.449   1.461 -0.4410 -0.3994  0.3646
  215TIP3    H1  651   3.957   2.367   1.433  0.8932 -0.1602  1.4669
  215TIP3    H2  652   3.897   2.437   1.553 -0.3437  0.4631  0.5134
  216TIP3   OH2  653   3.299   5.151   2.885 -0.8613 -0.2764  0.3995
  216TIP3    H1  654   3.325   5.065   2.917 -0.7243 -0.8094 -1.0849
  216TIP3    H2  655   3.359   5.212   2.927  0.5617 -1.1495 -0.3086
  217TIP3   OH2  656   4.440   5.478   3.976  0.1694 -0.4028  0.2164
  217TIP3    H1  657   4.380   5.407   3.954  0.1911 -0.4107  0.1818
  217TIP3    H2  658   4.459   5.521   3.892  1.0267 -1.0393  0.0679
  218TIP3   OH2  659   3.284   2.831   3.551 -0.0006  0.6903 -0.5153
  218TIP3    H1  660   3.268   2.925   3.541 -0.0157  0.9132  1.2874
  218TIP3    H2  661   3.206   2.789   3.514 -0.3056  1.4151 -0.6966
  219TIP3   OH2  662   3.443   3.571   3.417 -0.6622  0.2008  0.5674
  219TIP3    H1  663   3.518   3.553   3.473  0.1474 -2.2797 -1.1563
  219TIP3    H2  664   3.481   3.603   3.335 -1.6895  1.6440  0.6147
  220TIP3   OH2  665   2.823   0.515   3.203 -0.3848 -0.2160 -0.0374
  220TIP3    H1  666   2.899   0.563   3.169 -1.1871  0.9080 -0.2952
  220TIP3    H2  667   2.860   0.456   3.270  0.7733 -0.0771 -0.5298
  221TIP3   OH2  668   1.283   1.912   1.961 -0.5999 -0.3016 -0.4716
  221TIP3    H1  669   1.353   1.901   2.026 -1.4376 -1.4904  0.2606
  221TIP3    H2  670   1.230   1.984   1.995  0.5003  0.9236 -1.2696
  222TIP3   OH2  671   4.197   3.768   0.157  0.1504 -0.0840  0.0312
  222TIP3    H1  672   4.139   3.731   0.223  1.9619 -1.4816  0.9285
  222TIP3    H2  673   4.164   3.857   0.143 -1.4067 -0.3989  1.4108
  223TIP3   OH2  674   0.540   2.686   0.250 -0.6918  0.0784 -0.1996
  223TIP3    H1  675   0.596   2.620   0.290 -0.4353  0.3474 -0.1146
  223TIP3    H2  676   0.516   2.744   0.322 -1.9417 -0.6215 -0.0133
  224TIP3   OH2  677   3.532   3.513   3.707  0.1990  0.2979  0.3959
  224TIP3    H1  678   3.475   3.589   3.715  2.2193  1.7718  1.7126
  224TIP3    H2  679   3.541   3.481   3.797  1.1679 -0.1253  0.1525
  225TIP3   OH2  680   3.371   3.898   3.420  0.1257  0.4992  0.0106
  225TIP3    H1  681   3.295   3.858   3.378 -0.2178  1.0094  0.1362
  225TIP3    H2  682   3.334   3.967   3.476  0.5022 -0.6643  1.7833
  226TIP3   OH2  683   0.405   4.203   1.833 -0.2485  0.9604 -0.0824
  226TIP3    H1  684   0.429   4.235   1.746  0.1246  1.0254  0.0404
  226TIP3    H2  685   0.338   4.264   1.863 -1.4572  0.0699 -0.9250
  227TIP3   OH2  686   3.679   1.576   3.594 -0.3511  0.3201 -0.5462
  227TIP3    H1  687   3.634   1.491   3.600  0.1234  0.1586  1.0146
  227TIP3    H2  688   3.770   1.556   3.615 -0.6739  1.5765  2.5279
  228TIP3   OH2  689   0.984   5.619   1.293  0.1200 -0.0490  0.3653
  228TIP3    H1  690   0.903   5.669   1.300 -0.4686 -0.8329 -0.6824
  228TIP3    H2  691   0.980   5.576   1.208  0.7565 -1.6310  1.0822
  229TIP3   OH2  692   3.321   4.552   1.667 -0.1447 -0.0663  0.2567
  229TIP3    H1  693   3.315   4.491   1.593 -0.2899  0.7561 -0.4294
  229TIP3    H2  694   3.274   4.630   1.637  1.8184  1.1890  0.2843
  230TIP3   OH2  695   0.329   2.254   0.406 -0.2577  0.1088 -1.1908
  230TIP3    H1  696   0.348   2.182   0.346  0.6133  1.0946 -2.1415
  230TIP3    H2  697   0.310   2.328   0.349 -0.0832  0.8959 -0.2447
  231TIP3   OH2  698   3.054   0.849   0.616  0.3951 -0.2356 -0.3195
  231TIP3    H1  699   3.067   0.921   0.555 -2.5814  0.8631  0.1656
  231TIP3    H2  700   3.106   0.873   0.693  0.8999  0.4737 -0.8773
  232TIP3   OH2  701   0.613   0.607   3.137 -0.0344  0.2110  0.0512
  232TIP3    H1  702   0.627   0.605   3.042  1.5136 -1.0839  0.2726
  232TIP3    H2  703   0.592   0.517   3.160 -0.8881  0.6104  0.8985
  233TIP3   OH2  704   1.588   3.340   3.740 -0.5052 -0.7206  0.4121
  233TIP3    H1  705   1.555   3.335   3.650  1.5742 -1.9961 -0.3732
  233TIP3    H2  706   1.650   3.413   3.739 -1.8927  0.5036  1.3667
  234TIP3   OH2  707   5.040   0.307   3.942  0.0868  0.1605  0.5826
  234TIP3    H1  708   5.133   0.289   3.929  0.0665  0.9941 -0.9172
  234TIP3    H2  709   5.013   0.354   3.863 -1.5086  0.3301  1.1888
  235TIP3   OH2  710   0.338   0.199   1.260  0.2057 -0.5078 -0.1515
  235TIP3    H1  711   0.318   0.234   1.347  0.4449 -0.8479  0.0425
  235TIP3    H2  712   0.418   0.148   1.272 -1.5901 -3.4784  0.1925
  236TIP3   OH2  713   4.133   4.652   5.127  0.3905  0.2598  0.2611
  236TIP3    H1  714   4.045   4.628   5.154  0.8420 -0.8900  0.7627
  236TIP3    H2  715   4.185   4.651   5.207  1.1171 -0.2954 -0.1970
  237TIP3   OH2  716   3.964   5.202   2.977  0.0831  0.3867  0.2598
  237TIP3    H1  717   3.983   5.173   2.887  0.1258 -0.2791  0.4798
  237TIP3    H2  718   3.906   5.134   3.012  0.8011  0.1513  1.0424
  238TIP3   OH2  719   3.242   0.219   2.012  0.4580  0.1594  0.1582
  238TIP3    H1  720   3.230   0.127   2.034  2.2022  0.1204  1.1206
  238TIP3    H2  721   3.285   0.217   1.927 -0.5937  0.1471 -0.3937
  239TIP3   OH2  722   1.030   4.429   0.506 -0.4422 -0.1138  0.1703
  239TIP3    H1  723   1.073   4.346   0.527 -0.5091 -0.2120 -0.0728
  239TIP3    H2  724   1.067   4.454   0.421 -1.5178 -0.6558 -0.4838
  240TIP3   OH2  725   6.204   5.722   1.687 -0.1325  0.0182  0.2077
  240TIP3    H1  726   6.213   5.772   1.768 -1.2735  0.2441  0.2026
  240TIP3    H2  727   6.279   5.663   1.688 -0.1844 -0.0609  1.4827
  241TIP3   OH2  728   1.020   4.633   4.173 -0.1080 -0.0843 -0.0556
  241TIP3    H1  729   0.935   4.641   4.216 -0.9981  1.9148 -2.0279
  241TIP3    H2  730   1.066   4.714   4.195  0.1908  0.0764 -1.2159
  242TIP3   OH2  731   2.546   5.268   0.670 -0.1051 -0.3386 -0.6175
  242TIP3    H1  732   2.559   5.350   0.718  1.4668 -0.9124 -0.0282
  242TIP3    H2  733   2.585   5.201   0.725 -0.1431 -1.3066 -1.7294
  243TIP3   OH2  734   3.093   3.935   0.092 -0.5046 -0.2610 -0.4877
  243TIP3    H1  735   3.015   3.966   0.048  0.3605  1.1133 -1.1319
  243TIP3    H2  736   3.066   3.923   0.183 -1.2735  1.0160 -0.5149
  244TIP3   OH2  737   3.163   5.780   3.803  0.0767  0.1644 -0.3508
  244TIP3    H1  738   3.080   5.827   3.813  0.7489  1.2003  0.5766
  244TIP3    H2  739   3.174   5.732   3.885  1.1601  1.3384  0.2298
  245TIP3   OH2  740   2.970   2.795   0.573  0.2895 -0.3083  0.3667
  245TIP3    H1  741   2.976   2.764   0.664  1.7235 -1.2851 -0.0199
  245TIP3    H2  742   2.903   2.863   0.575 -2.4372 -2.8226  1.4467
  246TIP3   OH2  743   1.318   1.032   3.349  0.4295  0.3686 -0.3307
  246TIP3    H1  744   1.223   1.019   3.359  0.6273 -0.2102  0.9316
  246TIP3    H2  745   1.356   0.998   3.430  1.7788  0.0092 -1.0844
  247TIP3   OH2  746   3.019   5.200   1.097 -0.1791  0.2466  0.0340
  247TIP3    H1  747   3.025   5.155   1.013  1.9579  0.4995 -0.0006
  247TIP3    H2  748   2.936   5.169   1.134 -0.2689 -1.3188 -1.3277
  248TIP3   OH2  749   3.130   4.722   0.834  0.3962 -0.3978  0.4542
  248TIP3    H1  750   3.160   4.631   0.841  1.0603 -0.1489  0.9247
  248TIP3    H2  751   3.107   4.747   0.924 -0.2257 -0.2423  0.2587
  249TIP3   OH2  752   4.908   2.770   1.693  0.1611  0.3847  0.2822
  249TIP3    H1  753   4.932   2.801   1.780  1.5579 -1.8179  0.7675
  249TIP3    H2  754   4.961   2.822   1.633  1.8054 -0.3912  1.0026
  250TIP3   OH2  755   5.844   4.181   1.544 -0.3117  0.2047  0.7696
  250TIP3    H1  756   5.791   4.221   1.613  0.5383  2.4551  0.2202
  250TIP3    H2  757   5.841   4.244   1.472  2.5052  0.1602  0.4784
  251TIP3   OH2  758   1.003   1.652   3.650 -0.8683  0.5953  0.0885
  251TIP3    H1  759   1.037   1.635   3.738  1.2472  0.3795 -0.7008
  251TIP3    H2  760   0.923   1.702   3.664  0.0982  1.6851  2.1072
  252TIP3   OH2  761   2.667   4.467   3.931  0.7146  0.1892  0.0229
  252TIP3    H1  762   2.610   4.394   3.954  2.2833 -1.0876  0.0372
  252TIP3    H2  763   2.648   4.484   3.839  0.9667 -0.8683 -0.2385
  253TIP3   OH2  764   3.840   4.712   3.604  0.9591  0.2574 -0.1796
  253TIP3    H1  765   3.885   4.796   3.588 -0.9653  1.7172  1.5364
  253TIP3    H2  766   3.755   4.722   3.561  0.8209 -0.9826 -0.2278
  254TIP3   OH2  767   4.305   2.153   3.000  0.0122  0.5744 -0.1335
  254TIP3    H1  768   4.269   2.109   2.923 -0.0304  1.0557 -0.3891
  254TIP3    H2  769   4.243   2.223   3.019  0.2867  0.7754  0.0283
  255TIP3   OH2  770   6.317   2.008   2.240 -0.0704  0.2216 -0.2164
  255TIP3    H1  771   6.294   2.062   2.164 -1.8586  3.9047  2.6432
  255TIP3    H2  772   6.410   2.022   2.253 -0.2584  1.6384 -0.2848
  256TIP3   OH2  773   2.888   2.417   4.043 -0.2850  0.4656  0.0590
  256TIP3    H1  774   2.858   2.326   4.042  1.3376 -0.1029  0.2792
  256TIP3    H2  775   2.909   2.436   3.952  1.0502  0.0146  0.2578
  257TIP3   OH2  776   3.205   2.136   1.569  0.8198 -0.6500  0.4137
  257TIP3    H1  777   3.164   2.070   1.514 -1.7710  0.5366  0.8054
  257TIP3    H2  778   3.145   2.147   1.642  1.1533  2.1196  0.3651
  258TIP3   OH2  779   4.349   1.738   0.996 -0.2142  0.0362 -0.3057
  258TIP3    H1  780   4.257   1.726   0.973 -0.4298 -0.5408  0.7589
  258TIP3    H2  781   4.348   1.746   1.091  0.6527  1.9943 -0.4223
  259TIP3   OH2  782   5.013   0.536   4.139 -0.2579  0.1280 -0.3581
  259TIP3    H1  783   4.994   0.469   4.073  0.9429 -1.2248  0.5945
  259TIP3    H2  784   4.983   0.498   4.221 -1.7191  1.7867 -0.0598
  260TIP3   OH2  785   5.971   4.141   3.613 -0.0472 -0.6342  0.2209
  260TIP3    H1  786   5.984   4.114   3.522  3.1355 -2.1003  0.9955
  260TIP3    H2  787   5.940   4.062   3.658  1.1221 -0.7100  0.9198
  261TIP3   OH2  788   3.136   0.473   2.126 -0.0199  0.7201 -0.7291
  261TIP3    H1  789   3.232   0.477   2.132  0.0665  0.3122 -1.6405
  261TIP3    H2  790   3.117   0.504   2.038 -0.6173 -0.6595 -1.1122
  262TIP3   OH2  791   3.947   0.828   2.915  0.0999 -0.3963 -0.1677
  262TIP3    H1  792   3.869   0.867   2.874 -0.4176 -0.9340  0.2812
  262TIP3    H2  793   3.944   0.736   2.887 -1.2901 -1.2646  2.4700
  263TIP3   OH2  794   1.856   5.352   4.801  0.2029  0.0209 -0.2146
  263TIP3    H1  795   1.942   5.369   4.763  0.7168  0.2616  1.0132
  263TIP3    H2  796   1.817   5.438   4.812  0.2343 -0.0143  0.1905
  264TIP3   OH2  797   6.165   0.695   2.239  0.2733 -0.0239  0.0178
  264TIP3    H1  798   6.099   0.633   2.272  1.1396 -1.4890 -0.8833
  264TIP3    H2  799   6.161   0.686   2.144  0.1481  1.6590 -0.1726
  265TIP3   OH2  800   2.633   5.417   3.232  0.1105 -0.1593 -0.1913
  265TIP3    H1  801   2.661   5.347   3.291  1.2634  0.5497  0.1531
  265TIP3    H2  802   2.687   5.406   3.154  1.0917  0.9569  0.2945
  266TIP3   OH2  803   3.862   0.907   4.141 -0.1515 -0.5778  0.1172
  266TIP3    H1  804   3.800   0.912   4.213  0.0732 -1.4374  0.3903
  266TIP3    H2  805   3.936   0.857   4.177  0.7917  0.5922 -0.1377
  267TIP3   OH2  806   5.303   5.422   3.903  0.0330 -0.1865 -0.1961
  267TIP3    H1  807   5.227   5.367   3.926 -0.0341 -0.2459 -0.5544
  267TIP3    H2  808   5.279   5.461   3.819 -0.1411  0.8126  0.3119
  268TIP3   OH2  809   5.836   4.739   1.224 -0.3755 -0.0422  0.1040
  268TIP3    H1  810   5.855   4.814   1.281 -2.6805  0.7759 -0.0882
  268TIP3    H2  811   5.741   4.742   1.212 -0.1788 -1.2917 -2.3041
  269TIP3   OH2  812   1.858   1.568   3.343  0.7478  0.2519  0.2765
  269TIP3    H1  813   1.907   1.547   3.422  0.0499 -0.3784  0.5464
  269TIP3    H2  814   1.801   1.492   3.328  0.7987  0.3990 -0.7744
  270TIP3   OH2  815   4.479   5.214   0.770  0.1851 -0.0819  0.1587
  270TIP3    H1  816   4.411   5.152   0.744  0.9943 -1.2583  0.7743
  270TIP3    H2  817   4.439   5.266   0.839 -0.2967 -0.3417  0.0804
  271TIP3   OH2  818   2.423   4.973   3.511  0.4834  0.5588 -0.0220
  271TIP3    H1  819   2.341   4.954   3.556 -0.6368 -1.7584 -2.7596
  271TIP3    H2  820   2.491   4.936   3.568 -0.7735 -1.4251  0.2629
  272TIP3   OH2  821   0.256   0.234   5.018 -0.0784  0.2302  0.5484
  272TIP3    H1  822   0.342   0.200   4.993  0.7561  1.5483  1.5000
  272TIP3    H2  823   0.262   0.329   5.002 -1.5859  0.2710  0.0317
  273TIP3   OH2  824   2.561   4.856   0.908  0.6420 -0.7245 -0.4501
  273TIP3    H1  825   2.595   4.945   0.921  1.0273 -0.3411 -3.3788
  273TIP3    H2  826   2.466   4.866   0.910  0.6851 -0.2725 -0.5800
  274TIP3   OH2  827   1.868   2.596   4.519 -0.0963 -0.2621 -0.5183
  274TIP3    H1  828   1.792   2.642   4.557 -0.8923 -0.8289 -1.3927
  274TIP3    H2  829   1.866   2.619   4.426  2.7000  2.3262 -0.1011
  275TIP3   OH2  830   1.543   2.839   1.839  0.1641 -0.0528 -0.2173
  275TIP3    H1  831   1.522   2.823   1.931 -1.3488  1.8119 -0.1643
  275TIP3    H2  832   1.635   2.864   1.839  0.2467 -0.3258  0.7455
  276TIP3   OH2  833   5.012   3.537   1.496  0.2114 -0.2251 -0.3175
  276TIP3    H1  834   4.983   3.474   1.430 -1.4149  2.8122 -2.7553
  276TIP3    H2  835   5.104   3.552   1.477  0.7907 -2.1640  0.6768
  277TIP3   OH2  836   3.050   2.104   1.808 -0.1114  0.5205  0.4152
  277TIP3    H1  837   2.957   2.126   1.815  0.4336  3.3573  0.1894
  277TIP3    H2  838   3.093   2.163   1.870  1.4998 -1.5366  1.3959
  278TIP3   OH2  839   0.359   1.253   4.054  0.0884 -0.0702 -0.0925
  278TIP3    H1  840   0.368   1.172   4.004 -0.4644  0.0207 -0.3540
  278TIP3    H2  841   0.264   1.265   4.062  0.1519 -0.3698  1.4528
  279TIP3   OH2  842   4.717   0.254   1.616  0.7172  0.2930  0.4560
  279TIP3    H1  843   4.772   0.266   1.538 -0.2385 -1.1488 -0.4920
  279TIP3    H2  844   4.633   0.292   1.592 -0.9928 -3.8218 -1.0114
  280TIP3   OH2  845   5.202   1.119   2.825 -0.8198  0.6047 -0.1221
  280TIP3    H1  846   5.170   1.053   2.764 -0.4595  0.4362 -0.1347
  280TIP3    H2  847   5.132   1.185   2.830 -2.4339 -1.1174  2.0303
  281TIP3   OH2  848   2.287   5.872   4.396 -1.1217 -0.6837  0.1267
  281TIP3    H1  849   2.360   5.915   4.353 -0.6258 -1.4310  0.2007
  281TIP3    H2  850   2.299   5.779   4.378 -1.7578 -0.8685  0.5834
  282TIP3   OH2  851   6.253   5.758   1.938 -0.4451  0.6024  0.0605
  282TIP3    H1  852   6.221   5.836   1.983  1.7894  1.4063  0.3886
  282TIP3    H2  853   6.279   5.699   2.009 -0.9569  0.0599 -0.1952
  283TIP3   OH2  854   2.937   1.358   4.917 -0.4863 -0.7923  0.0263
  283TIP3    H1  855   2.892   1.371   4.834 -0.7046  0.4111  0.3125
  283TIP3    H2  856   3.023   1.324   4.893  0.4271  1.8966 -0.9214
  284TIP3   OH2  857   1.708   5.843   3.714  0.1925 -0.1932 -0.4387
  284TIP3    H1  858   1.641   5.830   3.647  1.4611 -0.7038 -1.6427
  284TIP3    H2  859   1.748   5.758   3.726  0.5965  0.0912  0.3292
  285TIP3   OH2  860   2.953   5.680   1.162 -0.1436  0.0051  0.0896
  285TIP3    H1  861   2.890   5.690   1.090  0.2055  0.2666 -0.1825
  285TIP3    H2  862   3.006   5.605   1.138 -0.4259 -0.2926  0.3804
  286TIP3   OH2  863   5.577   4.652   4.295  0.1714 -0.4074 -0.0881
  286TIP3    H1  864   5.633   4.574   4.295  0.9780  0.1627  0.1922
  286TIP3    H2  865   5.531   4.648   4.379 -0.0333 -0.7513 -0.2148
  287TIP3   OH2  866   5.147   1.584   3.933 -0.0059 -0.6315 -0.3401
  287TIP3    H1  867   5.223   1.526   3.932 -1.3542 -2.5022 -0.6386
  287TIP3    H2  868   5.157   1.638   3.855  1.3703 -0.3202  0.0227
  288TIP3   OH2  869   1.619   4.467   4.698 -0.1201  0.1822 -0.1281
  288TIP3    H1  870   1.695   4.428   4.656 -1.3178 -0.4450 -1.8056
  288TIP3    H2  871   1.555   4.478   4.628 -0.0849  4.8183  0.2851
  289TIP3   OH2  872   0.630   5.081   2.694  0.3530  0.4943 -0.4221
  289TIP3    H1  873   0.665   5.007   2.643  2.7560  1.1645  0.1191
  289TIP3    H2  874   0.706   5.138   2.708 -0.4621  0.9549  2.8242
  290TIP3   OH2  875   2.669   3.543   2.639  0.4177 -0.0833 -0.0448
  290TIP3    H1  876   2.575   3.529   2.653 -0.0736  2.0794 -0.7778
  290TIP3    H2  877   2.710   3.509   2.718 -0.8591 -1.9323 -0.1008
  291TIP3   OH2  878   4.381   1.898   3.105 -0.2344  0.8651 -0.8768
  291TIP3    H1  879   4.377   1.994   3.105  0.1405  0.8833 -0.8440
  291TIP3    H2  880   4.300   1.871   3.063 -1.0081  1.1714  0.3553
  292TIP3   OH2  881   1.583   5.065   4.505  0.6243 -0.1059 -0.0917
  292TIP3    H1  882   1.660   5.121   4.515  1.2895 -0.6875 -1.6689
  292TIP3    H2  883   1.565   5.065   4.411 -1.0993 -0.2874  0.1981
  293TIP3   OH2  884   4.443   3.399   4.478  0.6653 -0.0332  0.3768
  293TIP3    H1  885   4.479   3.355   4.555  1.5543  0.3256  0.1774
  293TIP3    H2  886   4.381   3.336   4.441  1.4984 -0.8961  0.4240
  294TIP3   OH2  887   4.580   1.610   1.905 -0.9116 -0.5209  0.0641
  294TIP3    H1  888   4.599   1.637   1.815  1.7584  0.4064  0.7996
  294TIP3    H2  889   4.645   1.541   1.922  0.0109  0.7157  1.8587
  295TIP3   OH2  890   0.360   5.282   5.165  0.6218  0.0470 -0.0070
  295TIP3    H1  891   0.307   5.214   5.206  0.5180  1.5016  2.5334
  295TIP3    H2  892   0.450   5.248   5.169  0.5237 -0.1346  0.8808
  296TIP3   OH2  893   4.193   4.967   1.326 -0.1935 -0.1544  0.0707
  296TIP3    H1  894   4.171   4.877   1.350  0.4359 -0.2375  0.3520
  296TIP3    H2  895   4.261   4.993   1.388  0.2951  0.1937 -0.5928
  297TIP3   OH2  896   5.338   2.269   2.516  0.2777 -0.6733 -0.5163
  297TIP3    H1  897   5.260   2.261   2.461 -0.2707  1.6233 -0.2072
  297TIP3    H2  898   5.409   2.287   2.455  0.1453 -0.6080 -0.6514
  298TIP3   OH2  899   1.042   1.720   4.575  0.1045  0.2044 -0.1585
  298TIP3    H1  900   1.003   1.650   4.627  1.4935 -0.1546  0.4477
  298TIP3    H2  901   0.972   1.784   4.565 -0.3627  0.0619  1.7587
  299TIP3   OH2  902   2.050   5.792   2.378  0.2203  0.3221  0.4321
  299TIP3    H1  903   2.140   5.823   2.387 -0.1352  1.1477  1.4001
  299TIP3    H2  904   2.006   5.826   2.456 -0.8470 -0.3644  0.1410
  300TIP3   OH2  905   0.699   4.396   2.336  0.1438 -0.1653  0.0020
  300TIP3    H1  906   0.657   4.445   2.266  0.2144  1.1142  0.8217
  300TIP3    H2  907   0.629   4.377   2.398  0.5213  0.9543  0.8059
  301TIP3   OH2  908   1.970   2.048   1.444 -0.1841  0.4274 -0.3086
  301TIP3    H1  909   2.059   2.073   1.467  0.3655 -1.0898 -0.6261
  301TIP3    H2  910   1.980   1.963   1.401 -1.7723  0.3122 -0.5059
  302TIP3   OH2  911   1.252   2.271   1.393 -0.2930 -0.2649 -0.2010
  302TIP3    H1  912   1.251   2.177   1.410  0.0220 -0.0332  1.1520
  302TIP3    H2  913   1.166   2.302   1.422 -0.7030 -0.2412 -1.3836
  303TIP3   OH2  914   0.618   0.598   2.317 -0.1293 -0.8276 -0.0879
  303TIP3    H1  915   0.626   0.693   2.329  0.4444 -0.8048 -0.5754
  303TIP3    H2  916   0.529   0.578   2.345  0.7127 -0.6483  3.1087
  304TIP3   OH2  917   1.457   5.903   0.729  0.5408  0.0923  0.5856
  304TIP3    H1  918   1.493   5.896   0.817 -1.2965  1.9215  1.5720
  304TIP3    H2  919   1.414   5.989   0.727 -0.9965 -0.6299 -1.4995
  305TIP3   OH2  920   5.494   0.281   2.473  0.0593  0.8326  0.2093
  305TIP3    H1  921   5.406   0.320   2.466 -0.8123 -1.0695  0.0372
  305TIP3    H2  922   5.508   0.239   2.388  1.0799  0.9871  0.2986
  306TIP3   OH2  923   0.922   4.427   2.043 -0.2003  0.2007  0.0293
  306TIP3    H1  924   0.862   4.500   2.052  3.0884  3.3662 -1.2374
  306TIP3    H2  925   0.918   4.403   1.950  0.6789  0.7032 -0.1541
  307TIP3   OH2  926   3.043   0.235   1.011  0.0108 -0.1047  0.6345
  307TIP3    H1  927   3.067   0.145   1.031 -2.0981 -0.7758  0.3498
  307TIP3    H2  928   2.949   0.240   1.032  0.2633  2.2641  1.4745
  308TIP3   OH2  929   3.537   0.676   4.686 -0.5682 -0.4725  0.6064
  308TIP3    H1  930   3.616   0.630   4.716 -0.5239 -0.6664  0.2088
  308TIP3    H2  931   3.514   0.632   4.604  0.5282  1.3772 -0.7792
  309TIP3   OH2  932   3.882   5.376   4.240  0.3782  0.1550 -0.2381
  309TIP3    H1  933   3.825   5.447   4.268  0.3873 -0.3936  1.2749
  309TIP3    H2  934   3.933   5.413   4.168 -1.2018  0.9499 -1.0097
  310TIP3   OH2  935   3.096   0.439   1.228  0.1740 -1.1087  0.3359
  310TIP3    H1  936   3.067   0.357   1.187 -0.6593  0.1645 -1.8101
  310TIP3    H2  937   3.015   0.489   1.240  0.7534 -0.2733  0.8184
  311TIP3   OH2  938   5.945   4.880   4.437  0.7436 -0.2907  0.7952
  311TIP3    H1  939   5.977   4.916   4.354  0.5120  0.6458  1.1092
  311TIP3    H2  940   5.849   4.886   4.430  0.7380  0.7351  1.5310
  312TIP3   OH2  941   1.497   3.049   4.946 -0.0355  0.1120  0.2955
  312TIP3    H1  942   1.474   3.062   5.038 -2.6981 -0.9125 -0.1304
  312TIP3    H2  943   1.463   2.962   4.925  0.2107  0.4585 -1.7511
  313TIP3   OH2  944   1.739   4.074   1.083  0.1403 -0.3214 -0.4024
  313TIP3    H1  945   1.746   4.169   1.074  0.3644 -0.1779  1.0371
  313TIP3    H2  946   1.760   4.040   0.996  1.4303  0.8866 -0.6061
  314TIP3   OH2  947   3.849   0.961   4.521 -0.3646 -0.4332 -0.1389
  314TIP3    H1  948   3.868   0.926   4.608  1.2569  0.9513  0.1441
  314TIP3    H2  949   3.902   1.041   4.517 -0.3265 -0.5240 -2.4388
  315TIP3   OH2  950   0.440   1.988   0.311  0.4742  0.1071 -0.3974
  315TIP3    H1  951   0.421   1.931   0.386 -0.6314 -0.2166 -0.8954
  315TIP3    H2  952   0.532   1.972   0.291  0.2422 -1.3702 -0.3886
  316TIP3   OH2  953   1.271   0.034   4.401 -0.0519 -0.2295 -0.6902
  316TIP3    H1  954   1.198   0.096   4.407  0.2904  0.0803  0.5037
  316TIP3    H2  955   1.314   0.040   4.486  1.2082 -0.6131 -1.2910
  317TIP3   OH2  956   2.068   2.591   3.328 -0.0092 -0.6039  0.1587
  317TIP3    H1  957   2.097   2.667   3.278 -0.7386 -1.1530 -1.1319
  317TIP3    H2  958   2.110   2.516   3.286 -1.5375 -1.1921 -0.4059
  318TIP3   OH2  959   1.379   0.649   4.102 -0.5963  0.1734 -0.0217
  318TIP3    H1  960   1.324   0.671   4.178 -1.1411  2.0606 -0.9025
  318TIP3    H2  961   1.469   0.661   4.133 -0.5707 -2.6237  1.3390
  319TIP3   OH2  962   3.780   2.970   2.418  0.7195  0.4085 -0.4669
  319TIP3    H1  963   3.861   2.937   2.379  0.1616 -0.8485 -0.6119
  319TIP3    H2  964   3.809   3.016   2.497  1.4990 -1.4924  0.4417
  320TIP3   OH2  965   2.833   3.519   3.145 -0.1489  0.0029  0.4959
  320TIP3    H1  966   2.877   3.604   3.139  2.4259 -1.0689  2.3103
  320TIP3    H2  967   2.904   3.455   3.148 -1.9574 -2.1341  0.5017
  321TIP3   OH2  968   3.497   4.069   2.262 -0.2775  0.2746  0.3058
  321TIP3    H1  969   3.460   4.136   2.204 -0.8900 -0.6393 -0.3920
  321TIP3    H2  970   3.423   4.041   2.316 -0.5937 -1.3707 -0.9092
  322TIP3   OH2  971   4.712   1.130   3.862  0.5223 -0.2189  0.4166
  322TIP3    H1  972   4.735   1.217   3.830 -1.5854 -0.1754 -1.1306
  322TIP3    H2  973   4.795   1.082   3.862  1.0982  0.5335 -2.8570
  323TIP3   OH2  974   3.009   3.464   2.606 -0.2886 -0.1445 -0.3514
  323TIP3    H1  975   3.080   3.438   2.665 -0.1292  0.7003 -0.1647
  323TIP3    H2  976   2.951   3.387   2.604  0.5056 -0.7605 -0.3359
  324TIP3   OH2  977   3.306   4.991   5.163  0.0480 -0.0412  0.1078
  324TIP3    H1  978   3.257   5.004   5.244  0.0586 -1.3935  0.3540
  324TIP3    H2  979   3.277   5.062   5.106 -0.3615  0.6168  1.0981
  325TIP3   OH2  980   3.697   2.392   0.111 -0.5394 -0.4070  0.1460
  325TIP3    H1  981   3.770   2.453   0.097  0.4716 -1.3703  1.0283
  325TIP3    H2  982   3.619   2.446   0.100  0.2628  0.4878 -1.6446
  326TIP3   OH2  983   3.497   3.123   5.041  0.2278  0.3495  0.6257
  326TIP3    H1  984   3.428   3.188   5.056  1.4594  1.6669  0.7582
  326TIP3    H2  985   3.474   3.084   4.957  0.5202  2.4082 -0.4908
  327TIP3   OH2  986   1.206   1.594   2.125 -0.0642  0.1732  0.1617
  327TIP3    H1  987   1.158   1.511   2.126 -1.3553  0.8206 -1.7200
  327TIP3    H2  988   1.292   1.571   2.088 -0.5939 -0.2718 -0.8303
  328TIP3   OH2  989   2.158   1.602   2.806  0.1828  0.6074  0.0916
  328TIP3    H1  990   2.221   1.607   2.734  1.1620  0.4258  0.9198
  328TIP3    H2  991   2.199   1.650   2.878 -0.8596  0.9276  0.4888
  329TIP3   OH2  992   4.057   4.491   2.458 -0.5272  0.0035 -0.0852
  329TIP3    H1  993   4.111   4.412   2.464  0.3554  0.6641  1.6245
  329TIP3    H2  994   4.046   4.506   2.364  2.0409 -0.3472 -0.5329
  330TIP3   OH2  995   1.475   3.482   0.027 -0.4798 -0.1201  0.3018
  330TIP3    H1  996   1.493   3.392   0.054 -0.3728  0.1854  1.2649
  330TIP3    H2  997   1.465   3.531   0.108  2.1242  1.3097 -0.1080
  331TIP3   OH2  998   4.003   1.061   5.010  0.4221  0.8348  0.0930
  331TIP3    H1  999   3.917   1.031   5.040  1.0153 -0.9265  0.1514
  331TIP3    H2 1000   4.050   1.084   5.090  0.1809  1.3310  0.0951
  332TIP3   OH2 1001   2.838   3.934   2.984  0.4125  0.4452  0.3547
  332TIP3    H1 1002   2.775   3.945   3.055  0.1601  1.9839 -0.0583
  332TIP3    H2 1003   2.853   4.023   2.952  1.0430 -0.1426 -1.0625
  333TIP3   OH2 1004   4.681   5.989   0.298 -0.1820 -0.3297 -0.1409
  333TIP3    H1 1005   4.625   5.919   0.261 -0.5026  0.9561 -2.2657
  333TIP3    H2 1006   4.692   6.051   0.225  2.4635  0.4213  0.8151
  334TIP3   OH2 1007   5.325   0.179   3.938  0.5682  0.4673  0.4460
  334TIP3    H1 1008   5.367   0.108   3.986  2.0029  1.3744  0.5760
  334TIP3    H2 1009   5.368   0.179   3.852 -1.0766 -0.3153 -0.4160
  335TIP3   OH2 1010   3.505   4.496   1.866  0.1392 -0.0699 -0.1555
  335TIP3    H1 1011   3.564   4.429   1.831 -1.8557 -1.5333 -0.9340
  335TIP3    H2 1012   3.442   4.512   1.795  0.1690  2.1700  0.2657
  336TIP3   OH2 1013   3.613   5.676   1.546 -0.4892 -0.2196 -0.6900
  336TIP3    H1 1014   3.651   5.673   1.458  1.9016 -0.6789  0.2755
  336TIP3    H2 1015   3.588   5.767   1.559  0.0322  0.0511 -1.5025
  337TIP3   OH2 1016   4.068   5.825   0.829 -0.7841  0.4411  0.0467
  337TIP3    H1 1017   4.082   5.760   0.897  0.0785 -0.2463 -0.7635
  337TIP3    H2 1018   4.131   5.895   0.849  0.3471 -0.3238 -0.7113
  338TIP3   OH2 1019   0.635   1.372   1.091  1.1416 -0.0657 -0.3275
  338TIP3    H1 1020   0.644   1.337   1.002  0.8252  0.5810 -0.6205
  338TIP3    H2 1021   0.621   1.466   1.078 -0.1310 -0.1447  0.3459
  339TIP3   OH2 1022   4.681   3.354   2.729 -0.3412  0.1585 -0.0919
  339TIP3    H1 1023   4.755   3.330   2.785 -0.6094  0.8623  0.5884
  339TIP3    H2 1024   4.714   3.345   2.640  0.4455  0.0928  0.1998
  340TIP3   OH2 1025   3.616   3.252   4.488 -0.0834  0.7402 -0.4967
  340TIP3    H1 1026   3.651   3.337   4.460  0.5049  0.6836  0.0349
  340TIP3    H2 1027   3.650   3.241   4.577  0.1080 -0.1871 -0.6795
  341TIP3   OH2 1028   3.161   5.165   4.969 -0.3235 -0.1602  0.6808
  341TIP3    H1 1029   3.071   5.135   4.982 -0.5398  0.4664  0.6534
  341TIP3    H2 1030   3.152   5.254   4.934  0.3116  0.1618  1.3096
  342TIP3   OH2 1031   0.169   2.003   2.596 -0.2880  0.5438 -0.3953
  342TIP3    H1 1032   0.250   1.953   2.591 -0.7951 -0.6481  1.9114
  342TIP3    H2 1033   0.168   2.056   2.516  1.8306 -0.7732 -1.3707
  343TIP3   OH2 1034   5.881   3.001   1.025  0.5545 -0.3342 -0.1681
  343TIP3    H1 1035   5.859   2.985   0.933 -2.4020 -0.2812  0.4326
  343TIP3    H2 1036   5.907   2.915   1.058  1.3957 -0.4056 -0.9859
  344TIP3   OH2 1037   1.111   2.234   4.443  0.1627  0.2235  0.3783
  344TIP3    H1 1038   1.205   2.229   4.459  0.7781 -2.0680 -2.8685
  344TIP3    H2 1039   1.080   2.144   4.452 -2.0761  1.1102  2.6614
  345TIP3   OH2 1040   0.268   1.763   3.514  0.0923  0.4816 -0.7858
  345TIP3    H1 1041   0.312   1.848   3.512  2.5772 -0.5747 -5.1209
  345TIP3    H2 1042   0.191   1.775   3.459  0.2413  0.0486 -1.0915
  346TIP3   OH2 1043   5.506   4.641   0.986 -0.5584 -0.0103 -0.1107
  346TIP3    H1 1044   5.500   4.721   0.933  0.6727  0.8210  0.9421
  346TIP3    H2 1045   5.565   4.584   0.936 -1.0116 -0.0654 -0.5992
  347TIP3   OH2 1046   0.781   0.212   4.677 -1.0154 -0.0062 -0.1433
  347TIP3    H1 1047   0.816   0.301   4.676 -1.4710  0.2184  1.2408
  347TIP3    H2 1048   0.758   0.197   4.769 -0.0538 -1.9191 -0.1748
  348TIP3   OH2 1049   5.490   1.777   3.128 -0.9941 -0.2907 -0.8234
  348TIP3    H1 1050   5.415   1.751   3.182  0.0771  0.5705  1.1641
  348TIP3    H2 1051   5.539   1.696   3.115 -2.1362 -0.8421 -2.0409
  349TIP3   OH2 1052   2.756   2.501   0.938 -0.3686  0.4074 -0.3456
  349TIP3    H1 1053   2.694   2.565   0.903  1.0510  0.9783 -1.9499
  349TIP3    H2 1054   2.748   2.425   0.881  0.7939  0.7120 -0.9445
  350TIP3   OH2 1055   5.615   0.169   1.875  0.1384 -0.3334  0.1817
  350TIP3    H1 1056   5.686   0.138   1.818  0.2664 -1.3569  0.8660
  350TIP3    H2 1057   5.566   0.089   1.896  0.4785 -0.0906  2.0325
  351TIP3   OH2 1058   1.893   2.798   2.772  0.1162  0.2379 -0.0486
  351TIP3    H1 1059   1.908   2.729   2.837  0.3483 -0.1123 -0.4708
  351TIP3    H2 1060   1.803   2.827   2.788  0.8210  1.6241  1.8082
  352TIP3   OH2 1061   3.448   3.830   0.306  0.4009 -0.0375 -0.5315
  352TIP3    H1 1062   3.522   3.773   0.325 -0.0377 -0.1904  0.8202
  352TIP3    H2 1063   3.399   3.784   0.238  0.2413 -1.1177  0.2950
  353TIP3   OH2 1064   1.234   3.930   1.399  0.0115  0.1897  0.2196
  353TIP3    H1 1065   1.272   3.857   1.351 -3.4551 -1.5735 -0.1744
  353TIP3    H2 1066   1.277   3.928   1.484  1.2167 -1.2092 -0.3885
  354TIP3   OH2 1067   5.932   4.093   2.685  0.4734  0.3573 -0.7239
  354TIP3    H1 1068   5.846   4.061   2.658  0.5808 -0.0205 -0.6259
  354TIP3    H2 1069   5.916   4.183   2.714 -0.0222  0.0383  0.0100
  355TIP3   OH2 1070   3.522   5.426   0.287  0.0432  0.0802  0.6132
  355TIP3    H1 1071   3.556   5.485   0.354 -0.1348  2.1957 -1.0788
  355TIP3    H2 1072   3.438   5.464   0.261 -0.3513 -1.2343 -0.1704
  356TIP3   OH2 1073   2.767   3.340   3.411  1.0392  0.3213  0.8081
  356TIP3    H1 1074   2.792   3.250   3.431 -1.2196 -0.4276  0.5948
  356TIP3    H2 1075   2.838   3.374   3.357  1.1192 -1.9821 -0.6770
  357TIP3   OH2 1076   4.703   1.263   3.514  1.2879 -0.0143  0.1447
  357TIP3    H1 1077   4.795   1.269   3.489  0.8905 -0.9669 -1.7300
  357TIP3    H2 1078   4.686   1.169   3.520  0.8074  0.1496  2.1469
  358TIP3   OH2 1079   4.065   1.078   3.897 -0.1764 -0.4675 -0.5799
  358TIP3    H1 1080   4.134   1.063   3.962  0.2653 -0.3424 -1.0111
  358TIP3    H2 1081   4.070   1.002   3.840 -0.4086 -0.4631 -0.6070
  359TIP3   OH2 1082   4.492   4.122   1.391  0.0148 -0.3843 -0.4117
  359TIP3    H1 1083   4.407   4.133   1.433  0.1677 -1.0486  0.0853
  359TIP3    H2 1084   4.523   4.036   1.420  1.5622  0.4940  0.7030
  360TIP3   OH2 1085   0.208   2.551   0.716  0.7508  0.2497  0.2157
  360TIP3    H1 1086   0.232   2.641   0.739  0.8235  0.6127 -1.1935
  360TIP3    H2 1087   0.288   2.512   0.682  0.4968 -0.0474 -0.0491
  361TIP3   OH2 1088   1.920   2.070   4.900  0.0388 -0.7556  0.1954
  361TIP3    H1 1089   1.913   1.982   4.863 -3.5110 -0.0234 -1.2983
  361TIP3    H2 1090   1.871   2.065   4.982 -0.1012 -0.1948  0.1453
  362TIP3   OH2 1091   0.640   4.524   3.494 -0.0493  0.7314 -0.1819
  362TIP3    H1 1092   0.581   4.488   3.428  0.9377 -0.4299 -0.4655
  362TIP3    H2 1093   0.724   4.532   3.450  0.5413  0.2700  0.8066
  363TIP3   OH2 1094   1.040   5.080   2.010  0.1597 -0.4871  0.8607
  363TIP3    H1 1095   1.088   5.024   2.071  0.8086 -1.3316 -0.3745
  363TIP3    H2 1096   1.105   5.146   1.982  0.7208 -1.7270 -0.9369
  364TIP3   OH2 1097   4.950   1.221   1.560 -0.0456 -1.1227 -0.3924
  364TIP3    H1 1098   4.915   1.169   1.633 -1.9887 -2.2444 -2.0205
  364TIP3    H2 1099   4.919   1.310   1.578  0.3458 -1.1766  0.6342
  365TIP3   OH2 1100   2.183   5.072   5.104  0.3364  0.1173  1.1002
  365TIP3    H1 1101   2.184   5.125   5.184  0.1363 -1.1459  1.9624
  365TIP3    H2 1102   2.091   5.074   5.076  0.1478 -0.4894  1.6413
  366TIP3   OH2 1103   3.867   1.632   3.237 -0.0810  0.3026  0.3175
  366TIP3    H1 1104   3.914   1.699   3.286 -0.2216  0.6926 -0.0706
  366TIP3    H2 1105   3.916   1.624   3.155  0.4981 -0.7592  0.7358
  367TIP3   OH2 1106   1.774   0.973   4.577 -0.0781 -0.4350 -0.3657
  367TIP3    H1 1107   1.748   0.892   4.533  1.6133 -0.9381 -0.5028
  367TIP3    H2 1108   1.693   1.006   4.616 -0.6539 -2.7665  0.6058
  368TIP3   OH2 1109   5.436   0.441   2.703 -0.3923 -0.2446 -0.1578
  368TIP3    H1 1110   5.434   0.377   2.632 -0.3790  0.4797 -0.8293
  368TIP3    H2 1111   5.411   0.523   2.662  0.7274  0.4264  0.4238
  369TIP3   OH2 1112   5.925   2.128   2.159 -0.1049 -0.3335 -0.3941
  369TIP3    H1 1113   5.940   2.107   2.067  1.3353  0.7989 -0.4420
  369TIP3    H2 1114   5.897   2.045   2.198  1.2423 -1.3160 -1.4381
  370TIP3   OH2 1115   0.877   3.466   4.789  0.4594 -0.8454  0.3375
  370TIP3    H1 1116   0.902   3.548   4.831 -1.5699 -0.7756  1.5514
  370TIP3    H2 1117   0.951   3.408   4.802  1.9936  0.7722 -0.6313
  371TIP3   OH2 1118   2.938   4.100   2.420 -0.5737 -0.3989  0.6808
  371TIP3    H1 1119   2.867   4.142   2.371  0.3205  0.8663  0.4284
  371TIP3    H2 1120   2.893   4.047   2.486 -1.7646 -0.5310 -0.1987
  372TIP3   OH2 1121   3.575   4.671   0.484  0.1411  0.1227 -0.2523
  372TIP3    H1 1122   3.591   4.577   0.472  2.2740  0.5656 -1.3117
  372TIP3    H2 1123   3.496   4.688   0.432  0.4338 -0.8518 -1.0425
  373TIP3   OH2 1124   6.375   2.012   4.381  0.4238  0.4426  0.5808
  373TIP3    H1 1125   6.375   1.933   4.436  0.2303 -0.0779 -0.1452
  373TIP3    H2 1126   6.292   2.055   4.402 -0.4659 -0.6505 -0.5193
  374TIP3   OH2 1127   1.167   1.284   3.462  0.0444 -0.0439 -0.6189
  374TIP3    H1 1128   1.252   1.279   3.506 -0.1241  2.3602  0.1292
  374TIP3    H2 1129   1.188   1.311   3.373  0.1104 -0.7060 -0.8136
  375TIP3   OH2 1130   5.598   0.395   3.280 -0.1357 -0.6801  0.5580
  375TIP3    H1 1131   5.621   0.344   3.203 -0.1608  1.2030 -0.7722
  375TIP3    H2 1132   5.677   0.395   3.334  1.5609  1.6693 -1.6523
  376TIP3   OH2 1133   1.734   1.853   1.278  0.1477 -0.4703  0.4449
  376TIP3    H1 1134   1.728   1.809   1.363  1.1820 -1.1725  0.1762
  376TIP3    H2 1135   1.644   1.877   1.257 -0.2081 -0.8904  1.4270
  377TIP3   OH2 1136   2.768   4.379   3.047  0.3670 -0.1834 -0.0297
  377TIP3    H1 1137   2.740   4.422   3.128 -0.8688  0.0272 -0.5501
  377TIP3    H2 1138   2.862   4.365   3.059  0.3148  0.3632  1.1984
  378TIP3   OH2 1139   1.438   3.044   0.357  0.4571  0.3020 -0.2814
  378TIP3    H1 1140   1.500   3.062   0.428 -1.1531  1.3832  0.9327
  378TIP3    H2 1141   1.363   3.004   0.401 -0.1649  0.0428 -1.5360
  379TIP3   OH2 1142   2.283   3.241   2.527  0.1776  0.1616  0.0087
  379TIP3    H1 1143   2.198   3.204   2.553  1.2890 -1.4651  1.5163
  379TIP3    H2 1144   2.276   3.250   2.432 -0.3796 -3.5826 -0.4640
  380TIP3   OH2 1145   4.483   4.014   0.843  0.5710 -0.0953 -0.7682
  380TIP3    H1 1146   4.412   4.076   0.830  0.7414 -0.1704 -2.3168
  380TIP3    H2 1147   4.562   4.061   0.816  0.8191 -0.6818 -1.0877
  381TIP3   OH2 1148   5.791   5.401   1.811 -0.1004  0.4764  0.0017
  381TIP3    H1 1149   5.773   5.458   1.737 -2.0134 -0.1196 -0.0469
  381TIP3    H2 1150   5.787   5.312   1.775 -0.2410  0.2108  0.6412
  382TIP3   OH2 1151   1.937   4.891   3.680  0.8007  0.3332  0.1990
  382TIP3    H1 1152   1.883   4.843   3.743  3.4009 -3.2966 -0.0450
  382TIP3    H2 1153   1.912   4.855   3.595  0.6773  1.7365 -0.3889
  383TIP3   OH2 1154   6.158   0.412   3.690 -0.7898  0.0829  0.3521
  383TIP3    H1 1155   6.188   0.322   3.679 -1.5158 -0.4211  2.0668
  383TIP3    H2 1156   6.237   0.466   3.686 -0.5033 -0.4167 -2.2562
  384TIP3   OH2 1157   4.236   5.296   4.477  0.1018 -0.1389  0.3652
  384TIP3    H1 1158   4.284   5.337   4.405 -0.4684  1.6838  0.9544
  384TIP3    H2 1159   4.161   5.253   4.434 -1.1532  2.3026 -0.0859
  385TIP3   OH2 1160   3.330   3.911   5.064 -0.0688 -0.0122 -0.6775
  385TIP3    H1 1161   3.264   3.901   5.132  1.1505  0.4255  0.6034
  385TIP3    H2 1162   3.286   3.960   4.994 -1.3117 -0.4035 -0.1945
  386TIP3   OH2 1163   4.788   0.715   1.872  0.0841 -0.2674 -0.0726
  386TIP3    H1 1164   4.852   0.784   1.888 -0.8412  0.2448  1.7817
  386TIP3    H2 1165   4.788   0.703   1.777  0.9041  1.6725 -0.3651
  387TIP3   OH2 1166   4.779   4.618   2.706 -0.2404 -0.3983  0.7559
  387TIP3    H1 1167   4.874   4.615   2.692 -0.3597 -1.2104  0.1069
  387TIP3    H2 1168   4.742   4.573   2.631 -1.2877  2.0734 -0.3397
  388TIP3   OH2 1169   3.728   1.516   2.022  0.2409 -0.4631 -0.0096
  388TIP3    H1 1170   3.752   1.434   1.979  0.8487 -1.1456  1.5513
  388TIP3    H2 1171   3.682   1.489   2.102 -0.1347  0.7290  0.1981
  389TIP3   OH2 1172   3.343   2.481   3.837  0.1496 -0.1415  0.4393
  389TIP3    H1 1173   3.298   2.557   3.874  2.4128  0.9684  1.1401
  389TIP3    H2 1174   3.389   2.517   3.761 -0.2340 -1.2559 -0.3409
  390TIP3   OH2 1175   2.810   0.103   4.305  0.1192  0.1583  0.0672
  390TIP3    H1 1176   2.867   0.180   4.298  1.6288 -0.9504 -0.6422
  390TIP3    H2 1177   2.787   0.083   4.214  1.0288 -1.1099  0.0962
  391TIP3   OH2 1178   1.954   4.583   4.401  0.5130  0.8844 -0.4594
  391TIP3    H1 1179   1.874   4.631   4.376 -0.2060 -0.9247 -1.9153
  391TIP3    H2 1180   1.998   4.640   4.463 -1.5022  2.3288 -0.2567
  392TIP3   OH2 1181   6.084   3.712   2.963 -0.1800  0.0621 -0.1337
  392TIP3    H1 1182   6.093   3.788   2.906  1.2768 -1.8786 -2.7506
  392TIP3    H2 1183   6.167   3.706   3.009  0.2417 -0.6416 -0.9540
  393TIP3   OH2 1184   2.065   2.108   2.598  0.5802  0.2463 -0.4682
  393TIP3    H1 1185   2.058   2.140   2.508 -0.6462  0.2927 -0.3773
  393TIP3    H2 1186   1.992   2.149   2.644  0.2147 -1.0390  0.1566
  394TIP3   OH2 1187   1.906   4.053   0.139  0.5829 -0.5222  0.3491
  394TIP3    H1 1188   1.881   4.005   0.218  1.1263 -1.9257 -0.2895
  394TIP3    H2 1189   1.878   3.997   0.067  3.5363 -1.2128 -0.4080
  395TIP3   OH2 1190   4.542   4.723   1.121  0.2909  0.1601  0.0334
  395TIP3    H1 1191   4.540   4.740   1.027 -2.1014  0.3598  0.0616
  395TIP3    H2 1192   4.533   4.628   1.129  0.2681  0.1640  0.0556
  396TIP3   OH2 1193   0.386   1.304   1.168  0.3520  0.1144 -0.4651
  396TIP3    H1 1194   0.482   1.311   1.164  0.3979 -0.2810 -0.1392
  396TIP3    H2 1195   0.367   1.219   1.129  0.2373 -0.3734  0.5982
  397TIP3   OH2 1196   1.609   2.426   2.974  0.3033 -0.2409  0.4034
  397TIP3    H1 1197   1.538   2.374   2.937  0.9818 -0.3032 -0.8918
  397TIP3    H2 1198   1.644   2.373   3.045  0.0606 -0.9117  0.0332
  398TIP3   OH2 1199   2.960   2.426   3.783 -0.2604  0.0021 -0.5050
  398TIP3    H1 1200   2.879   2.427   3.733  0.8762  0.2934 -2.4312
  398TIP3    H2 1201   3.028   2.404   3.719  1.4591  1.8219  0.5676
  399TIP3   OH2 1202   4.199   4.903   4.463  0.3538  0.1686  0.2209
  399TIP3    H1 1203   4.146   4.964   4.515  1.5598  0.2086  1.4796
  399TIP3    H2 1204   4.167   4.816   4.487  0.5449  0.2081  0.6230
  400TIP3   OH2 1205   1.608   3.806   0.131  0.4607 -0.1199  0.4741
  400TIP3    H1 1206   1.616   3.813   0.036 -1.6938 -1.2614  0.1245
  400TIP3    H2 1207   1.640   3.889   0.165  1.4798  0.2222 -1.2271
  401TIP3   OH2 1208   3.830   5.739   4.932 -0.0424  0.2658 -0.2182
  401TIP3    H1 1209   3.808   5.676   5.000 -0.9637  1.6570  0.8426
  401TIP3    H2 1210   3.890   5.693   4.874  0.7552 -0.9971  1.5231
  402TIP3   OH2 1211   5.021   3.806   1.283  0.2989  0.4815 -0.1164
  402TIP3    H1 1212   5.001   3.885   1.332 -0.5232 -0.3862  0.9955
  402TIP3    H2 1213   5.090   3.763   1.334  0.3894  0.2328 -0.4442
  403TIP3   OH2 1214   2.434   3.037   4.026 -0.5879  0.6103 -0.2103
  403TIP3    H1 1215   2.416   2.945   4.004 -3.9676  0.7290  1.4147
  403TIP3    H2 1216   2.515   3.033   4.078 -0.3102 -1.3411 -0.6991
  404TIP3   OH2 1217   2.211   3.431   4.155  0.7570 -0.0209  0.2367
  404TIP3    H1 1218   2.157   3.454   4.080  0.9786  1.2506  0.4523
  404TIP3    H2 1219   2.285   3.383   4.117  0.5920  0.1366 -0.2874
  405TIP3   OH2 1220   1.633   0.365   3.616 -0.3581  0.5238  0.1656
  405TIP3    H1 1221   1.555   0.310   3.609 -0.6637  1.1052 -1.3875
  405TIP3    H2 1222   1.601   0.454   3.601 -0.2412  1.5479  4.6448
  406TIP3   OH2 1223   3.111   4.425   2.702 -0.0962 -0.0554  0.2492
  406TIP3    H1 1224   3.088   4.397   2.614  2.5520  0.6136 -0.7304
  406TIP3    H2 1225   3.058   4.504   2.717 -0.5395 -0.1566 -0.7328
  407TIP3   OH2 1226   0.712   0.802   4.826  0.0857  0.3931 -0.6604
  407TIP3    H1 1227   0.624   0.767   4.831 -0.3731  1.7031  1.3714
  407TIP3    H2 1228   0.700   0.894   4.802  1.0608  0.1461 -2.3060
  408TIP3   OH2 1229   1.110   5.686   3.745 -0.4283 -0.0747 -0.3664
  408TIP3    H1 1230   1.148   5.600   3.760  0.5333  0.3877 -0.1034
  408TIP3    H2 1231   1.076   5.682   3.656 -0.2959 -0.6844 -0.3933
  409TIP3   OH2 1232   1.949   0.474   1.626 -0.3187  0.4643  0.3636
  409TIP3    H1 1233   2.015   0.449   1.562 -0.0664  1.1250  0.3602
  409TIP3    H2 1234   1.919   0.561   1.598 -1.5641 -0.0383  0.0723
  410TIP3   OH2 1235   2.963   1.472   2.397  0.2063  0.4653 -0.3198
  410TIP3    H1 1236   3.036   1.420   2.431  0.1153  0.4642 -0.1214
  410TIP3    H2 1237   2.889   1.448   2.452 -0.1896 -0.2736 -1.1576
  411TIP3   OH2 1238   3.300   3.301   2.169  0.1935 -0.3759 -0.1035
  411TIP3    H1 1239   3.216   3.343   2.155  0.7383  0.8054  0.0970
  411TIP3    H2 1240   3.291   3.255   2.252 -0.0428  0.3072  0.2529
  412TIP3   OH2 1241   2.409   3.133   2.947 -0.0897  0.0645  0.1180
  412TIP3    H1 1242   2.418   3.089   2.862 -3.7964 -0.8941  0.0427
  412TIP3    H2 1243   2.378   3.221   2.926 -0.6979 -0.0670  0.4253
  413TIP3   OH2 1244   2.573   2.691   1.788 -0.3078 -0.3361  0.0131
  413TIP3    H1 1245   2.519   2.627   1.742  0.6169 -1.3593  0.3292
  413TIP3    H2 1246   2.514   2.766   1.802 -2.5482 -2.3647  2.6488
  414TIP3   OH2 1247   4.030   2.026   3.125  0.0801  0.2892 -0.3343
  414TIP3    H1 1248   3.937   2.025   3.146 -0.1645 -0.2929 -1.4215
  414TIP3    H2 1249   4.043   1.950   3.069  0.9071  1.2370 -1.4637
  415TIP3   OH2 1250   0.747   4.099   1.413  0.1684  0.5801  0.1580
  415TIP3    H1 1251   0.734   4.008   1.438  0.6613  0.7916  1.2782
  415TIP3    H2 1252   0.674   4.146   1.454  0.6221  0.8494  0.6779
  416TIP3   OH2 1253   4.769   5.095   1.235  0.0252 -0.5241 -0.1203
  416TIP3    H1 1254   4.767   5.066   1.326 -1.5077  0.8035  0.3174
  416TIP3    H2 1255   4.677   5.104   1.211  0.4065 -0.6545 -1.7640
  417TIP3   OH2 1256   0.124   3.915   2.200 -0.7068 -0.0659  0.0387
  417TIP3    H1 1257   0.053   3.969   2.235 -0.2085  0.4252  0.3280
  417TIP3    H2 1258   0.184   3.978   2.161 -0.0516 -0.3993  0.4858
  418TIP3   OH2 1259   4.291   3.897   2.485  0.5568 -0.4596  0.2697
  418TIP3    H1 1260   4.210   3.899   2.536  0.3825 -0.0437 -0.0172
  418TIP3    H2 1261   4.262   3.904   2.394  0.7298 -2.9969 -0.0432
  419TIP3   OH2 1262   6.033   0.797   1.967  0.1378  0.6644  0.3481
  419TIP3    H1 1263   6.004   0.822   2.055 -0.8344  0.1606  0.1782
  419TIP3    H2 1264   6.127   0.783   1.977 -0.2716 -1.5506  1.8375
  420TIP3   OH2 1265   0.825   2.997   0.258  0.5600  0.2160  0.1985
  420TIP3    H1 1266   0.864   2.961   0.338  1.3188  1.2977  0.3429
  420TIP3    H2 1267   0.884   3.068   0.233 -0.7596  1.2143 -0.1766
  421TIP3   OH2 1268   5.541   2.139   4.053  0.0051 -0.1454  0.0510
  421TIP3    H1 1269   5.538   2.234   4.059  2.4095  0.0722 -1.0822
  421TIP3    H2 1270   5.520   2.108   4.142 -3.2004  1.2446 -0.0624
  422TIP3   OH2 1271   1.351   1.072   4.972  0.4241 -0.5359  0.4066
  422TIP3    H1 1272   1.342   1.165   4.951  1.1010 -0.8537 -1.4873
  422TIP3    H2 1273   1.304   1.062   5.055 -0.5785  1.2874  0.1221
  423TIP3   OH2 1274   0.176   3.202   3.103  0.0083 -0.0756  0.1339
  423TIP3    H1 1275   0.089   3.234   3.126  0.6884  1.8682  0.2122
  423TIP3    H2 1276   0.231   3.280   3.104  1.8313 -1.2894  0.4095
  424TIP3   OH2 1277   0.024   2.450   0.269 -0.3911  0.1782 -0.2778
  424TIP3    H1 1278   0.016   2.477   0.177  1.2602 -1.2364 -0.8948
  424TIP3    H2 1279   0.113   2.474   0.293 -0.6960  0.2148  0.8530
  425TIP3   OH2 1280   0.574   2.539   3.271 -0.2128  0.2074  0.5651
  425TIP3    H1 1281   0.610   2.522   3.184 -1.2946 -0.3712  0.2199
  425TIP3    H2 1282   0.554   2.452   3.306  1.2974  0.3457  1.8902
  426TIP3   OH2 1283   0.903   3.175   4.190 -0.2203 -0.6339 -0.6347
  426TIP3    H1 1284   0.923   3.085   4.164  2.8397 -0.6510  1.2410
  426TIP3    H2 1285   0.921   3.177   4.284 -0.3738  1.8998 -0.5942
  427TIP3   OH2 1286   4.977   1.926   2.991 -0.2381 -0.2186  0.7140
  427TIP3    H1 1287   4.914   1.899   2.925  0.2578  0.0656  0.1149
  427TIP3    H2 1288   4.976   2.022   2.988 -0.7575 -0.1819  1.6478
  428TIP3   OH2 1289   4.301   4.524   3.749 -0.1538 -0.2493 -0.4545
  428TIP3    H1 1290   4.239   4.596   3.761  0.8163  0.2600  1.8261
  428TIP3    H2 1291   4.252   4.446   3.777  0.0639  0.0947  0.9356
  429TIP3   OH2 1292   4.449   5.074   1.383  0.3075  0.0826 -0.4992
  429TIP3    H1 1293   4.503   5.000   1.411 -1.2374 -1.0524 -0.3622
  429TIP3    H2 1294   4.406   5.104   1.463 -1.8169 -1.2288 -1.0671
  430TIP3   OH2 1295   0.670   2.539   2.062  0.3385 -0.0909 -0.6765
  430TIP3    H1 1296   0.661   2.615   2.119 -0.9063 -1.3257  0.8649
  430TIP3    H2 1297   0.664   2.575   1.973 -1.3238  1.5057  0.0222
  431TIP3   OH2 1298   1.936   3.797   0.536 -0.0729  0.5572  0.2253
  431TIP3    H1 1299   1.861   3.779   0.593 -1.0420  0.5531 -0.9959
  431TIP3    H2 1300   1.910   3.760   0.451  1.8075 -0.5156  0.0554
  432TIP3   OH2 1301   0.043   2.329   4.573 -0.4316  0.5980  0.0398
  432TIP3    H1 1302   0.043   2.407   4.517 -0.0823 -0.1693 -1.0740
  432TIP3    H2 1303  -0.030   2.277   4.540  0.2927 -0.2440 -0.2776
  433TIP3   OH2 1304   2.605   3.650   2.097  0.1295  0.1889  0.3393
  433TIP3    H1 1305   2.608   3.610   2.184  1.6297  2.5530  1.4712
  433TIP3    H2 1306   2.601   3.575   2.037 -0.5819 -1.5254  2.3941
  434TIP3   OH2 1307   3.832   1.831   2.690 -0.4250 -0.4902  0.0712
  434TIP3    H1 1308   3.823   1.787   2.774 -0.5540 -0.0088  0.3129
  434TIP3    H2 1309   3.918   1.872   2.694  0.1075 -1.5128 -0.5364
  435TIP3   OH2 1310   3.791  -0.010   2.519  0.3312 -0.1082  0.0951
  435TIP3    H1 1311   3.713   0.045   2.520  0.5269  0.1685  0.0816
  435TIP3    H2 1312   3.824  -0.002   2.430 -0.0388 -0.8130 -0.1192
  436TIP3   OH2 1313   4.521   0.620   0.279  0.5554 -0.2149 -0.3457
  436TIP3    H1 1314   4.610   0.654   0.291  0.9272 -0.8048 -1.3271
  436TIP3    H2 1315   4.468   0.697   0.259  1.4644 -0.1548 -2.9536
  437TIP3   OH2 1316   3.862   0.672   0.613 -0.9557 -0.1682 -0.2552
  437TIP3    H1 1317   3.843   0.650   0.521  0.5005 -0.5591 -0.4967
  437TIP3    H2 1318   3.952   0.706   0.611 -1.5639  1.6348  0.7752
  438TIP3   OH2 1319   5.903   0.690   1.479  0.5554  0.1477 -0.4204
  438TIP3    H1 1320   5.925   0.758   1.415 -1.1011  0.8645 -0.2848
  438TIP3    H2 1321   5.854   0.625   1.430 -1.3231  1.0317  0.1858
  439TIP3   OH2 1322   3.559   0.465   4.988  0.1423 -0.1126 -0.5659
  439TIP3    H1 1323   3.514   0.480   4.905 -3.6324 -0.4855  1.2397
  439TIP3    H2 1324   3.522   0.530   5.048  2.0307 -0.4811  1.1157
  440TIP3   OH2 1325   1.282   2.765   2.548 -0.6796  0.5250 -0.1234
  440TIP3    H1 1326   1.190   2.792   2.541 -1.5189 -1.4378  2.2086
  440TIP3    H2 1327   1.281   2.672   2.525  1.0816  0.8645 -1.8267
  441TIP3   OH2 1328   4.584   2.772   4.367 -0.8119 -0.5835  0.0392
  441TIP3    H1 1329   4.524   2.798   4.437 -0.1726  1.1425  0.0066
  441TIP3    H2 1330   4.612   2.684   4.390 -2.4109 -0.9418  0.7040
  442TIP3   OH2 1331   0.472   2.070   4.073 -0.0157 -0.7494  0.6210
  442TIP3    H1 1332   0.383   2.050   4.044 -0.2605  1.0100  0.0121
  442TIP3    H2 1333   0.481   2.025   4.157 -1.6614 -0.5656  0.9238
  443TIP3   OH2 1334   1.813   0.702   3.767  0.1769  0.1036 -0.0290
  443TIP3    H1 1335   1.906   0.714   3.784  0.3544 -1.4992  0.3646
  443TIP3    H2 1336   1.800   0.607   3.776 -1.6888  0.4150  0.9491
  444TIP3   OH2 1337   0.702   1.884   2.995  0.0771  0.7517  0.3761
  444TIP3    H1 1338   0.679   1.833   3.072  0.8443  1.3838  1.0453
  444TIP3    H2 1339   0.691   1.824   2.922 -0.3734  0.0513  1.0092
  445TIP3   OH2 1340   5.314   2.606   4.210 -0.3045 -0.3776  0.3365
  445TIP3    H1 1341   5.245   2.608   4.276 -0.6193  1.3531  0.0132
  445TIP3    H2 1342   5.273   2.641   4.131 -0.4966 -4.1167 -1.4582
  446TIP3   OH2 1343   3.219   2.779   4.864  0.3442  0.3034 -0.5950
  446TIP3    H1 1344   3.185   2.847   4.806  0.7487  1.3856  0.4002
  446TIP3    H2 1345   3.195   2.808   4.952  1.2654 -0.4093 -0.0907
  447TIP3   OH2 1346   0.393   0.731   1.169  0.3036 -0.1022  0.4232
  447TIP3    H1 1347   0.433   0.811   1.203  0.4650 -0.1094  0.2518
  447TIP3    H2 1348   0.299   0.744   1.182  0.4292 -0.7283  2.2589
  448TIP3   OH2 1349   2.927   2.188   2.946  0.0250  0.6094  0.0745
  448TIP3    H1 1350   2.991   2.132   2.902 -1.2663 -1.7955  1.0232
  448TIP3    H2 1351   2.976   2.265   2.974  1.6750  0.4888 -2.2203
  449TIP3   OH2 1352   5.548   2.778   1.986  0.3100  0.1590  0.0197
  449TIP3    H1 1353   5.578   2.777   2.077  3.6242 -1.0870 -0.9303
  449TIP3    H2 1354   5.512   2.690   1.971 -0.0876  0.3104  0.0807
  450TIP3   OH2 1355   3.558   0.928   1.186 -0.3700  0.3091 -0.2426
  450TIP3    H1 1356   3.534   0.973   1.105  1.3744 -0.1440 -1.0494
  450TIP3    H2 1357   3.525   0.839   1.174  0.3421  0.1015 -0.6899
  451TIP3   OH2 1358   1.799   5.024   1.212 -0.2656 -0.0192  0.5958
  451TIP3    H1 1359   1.888   5.023   1.248 -0.3766  0.4801  0.8921
  451TIP3    H2 1360   1.804   5.085   1.139 -0.3036 -0.1941  0.4470
  452TIP3   OH2 1361   5.090   3.906   1.886  0.1412 -0.4687 -0.3891
  452TIP3    H1 1362   5.176   3.877   1.917 -0.4154  0.3413  2.2432
  452TIP3    H2 1363   5.050   3.828   1.848  0.8046 -1.7539  1.3917
  453TIP3   OH2 1364   2.506   1.300   4.355 -0.2161  0.4002  0.1832
  453TIP3    H1 1365   2.577   1.244   4.384 -0.4926  0.4080  0.8826
  453TIP3    H2 1366   2.497   1.281   4.261 -0.6680 -1.1311  0.5121
  454TIP3   OH2 1367   3.119   1.717   3.675  0.2466  0.2501  0.7125
  454TIP3    H1 1368   3.110   1.659   3.599  0.4091 -1.2578  1.7899
  454TIP3    H2 1369   3.211   1.745   3.672 -0.0961  1.3695 -0.4116
  455TIP3   OH2 1370   2.093   4.702   1.853  0.0484  0.5445  0.1554
  455TIP3    H1 1371   2.120   4.733   1.940 -0.7172  0.8444  0.2961
  455TIP3    H2 1372   2.010   4.656   1.869 -1.6090  2.9930 -0.7574
  456TIP3   OH2 1373   3.858   2.004   1.731 -0.0938 -0.1100  0.4573
  456TIP3    H1 1374   3.944   2.034   1.761  1.0348 -0.0598 -2.4387
  456TIP3    H2 1375   3.814   2.085   1.704 -0.0744 -0.3353 -0.2717
  457TIP3   OH2 1376   4.552   3.384   2.445  0.0732 -0.4716  0.5813
  457TIP3    H1 1377   4.514   3.397   2.532  1.0458 -1.8804  1.2502
  457TIP3    H2 1378   4.622   3.449   2.440 -1.2933  1.0178 -0.0094
  458TIP3   OH2 1379   2.057   1.507   1.247 -0.2499  0.7312 -0.3559
  458TIP3    H1 1380   2.146   1.477   1.263  0.4784  2.5215 -0.7986
  458TIP3    H2 1381   2.007   1.477   1.323  0.6700 -0.4544 -0.1916
  459TIP3   OH2 1382   3.657   2.339   4.436 -0.0867 -0.2989 -0.1046
  459TIP3    H1 1383   3.713   2.363   4.509 -0.6516  0.6795  0.0239
  459TIP3    H2 1384   3.572   2.378   4.456 -0.0710  0.6043 -1.6096
  460TIP3   OH2 1385   2.222   3.476   3.394  0.4279 -0.3895  0.3834
  460TIP3    H1 1386   2.312   3.442   3.389  0.0716 -1.2150 -1.0716
  460TIP3    H2 1387   2.167   3.399   3.384 -0.4915 -0.0181  2.1717
  461TIP3   OH2 1388   0.432   3.666   2.214 -0.2028 -0.5811  0.4828
  461TIP3    H1 1389   0.403   3.601   2.149  2.4677  0.2284 -1.7138
  461TIP3    H2 1390   0.525   3.647   2.227  0.6484  2.5181 -0.0732
  462TIP3   OH2 1391   2.104   3.497   0.367  0.0427  0.0918  0.6323
  462TIP3    H1 1392   2.024   3.481   0.417 -0.2317 -2.4738 -0.4860
  462TIP3    H2 1393   2.082   3.470   0.278  1.7803  0.5998  0.0130
  463TIP3   OH2 1394   5.710   1.658   3.349 -0.1319 -0.0302 -0.4019
  463TIP3    H1 1395   5.655   1.636   3.424  1.5800 -1.6376  0.4718
  463TIP3    H2 1396   5.744   1.745   3.368 -2.8781  1.3415 -1.3331
  464TIP3   OH2 1397   2.945   0.826   0.181 -0.1848  0.5125  0.5709
  464TIP3    H1 1398   2.962   0.866   0.267 -1.2103  0.2764  0.8974
  464TIP3    H2 1399   2.851   0.839   0.167 -0.2658 -0.5312  0.0490
  465TIP3   OH2 1400   4.939   2.481   3.044 -0.1243  0.3502  0.0834
  465TIP3    H1 1401   4.900   2.566   3.024  0.8527  0.8055  0.0362
  465TIP3    H2 1402   4.992   2.460   2.967 -1.5862 -1.0767 -0.5973
  466TIP3   OH2 1403   1.369   5.148   0.662  0.3675  0.1009 -0.3468
  466TIP3    H1 1404   1.435   5.171   0.727 -0.0240  1.4243 -0.3920
  466TIP3    H2 1405   1.286   5.155   0.708  0.1843 -0.4556 -0.5880
  467TIP3   OH2 1406   6.203   3.569   4.928 -0.1564 -0.2880  0.3007
  467TIP3    H1 1407   6.282   3.516   4.913  0.0844 -0.3393  1.6522
  467TIP3    H2 1408   6.210   3.640   4.864  0.7767 -0.5117  0.1260
  468TIP3   OH2 1409   2.400   5.616   1.190  0.0997  0.0454  0.3680
  468TIP3    H1 1410   2.475   5.669   1.217 -0.1960  0.2100  0.8858
  468TIP3    H2 1411   2.338   5.623   1.263 -1.4323  1.8575 -0.9806
  469TIP3   OH2 1412   1.291   1.727   4.172  0.5022  0.3078 -0.4108
  469TIP3    H1 1413   1.386   1.712   4.172  0.6015  0.8913  0.6541
  469TIP3    H2 1414   1.259   1.684   4.251 -0.1189  0.1630 -0.7339
  470TIP3   OH2 1415   4.160   1.203   1.922  0.1954  0.2334  0.2290
  470TIP3    H1 1416   4.112   1.275   1.965  0.3980  1.1232 -0.9729
  470TIP3    H2 1417   4.235   1.246   1.880  1.2393 -0.9384  0.8530
  471TIP3   OH2 1418   5.930   5.802   1.645 -0.0643  0.0441 -0.0641
  471TIP3    H1 1419   5.921   5.711   1.618  1.8753  0.2789 -1.7482
  471TIP3    H2 1420   6.024   5.817   1.649 -0.3347  1.9864  0.1315
  472TIP3   OH2 1421   2.723   4.260   2.345  0.0925  0.1220 -0.4097
  472TIP3    H1 1422   2.721   4.330   2.410 -3.4782  2.4332 -2.6560
  472TIP3    H2 1423   2.665   4.193   2.381  1.0913 -0.3211  0.3989
  473TIP3   OH2 1424   1.493   4.029   0.537 -0.3551  0.1417  0.0516
  473TIP3    H1 1425   1.548   4.074   0.473  0.0721  0.1612  0.4317
  473TIP3    H2 1426   1.526   4.058   0.622 -0.7095 -0.1366  0.2863
  474TIP3   OH2 1427   3.054   0.152   5.207  0.2287  0.3133 -0.1468
  474TIP3    H1 1428   3.145   0.180   5.219  0.5478 -1.1441  1.4112
  474TIP3    H2 1429   3.043   0.146   5.112  1.5022  1.2664 -0.3908
  475TIP3   OH2 1430   1.564   1.145   2.723 -0.2698  0.4826  0.3622
  475TIP3    H1 1431   1.631   1.115   2.785  1.3441 -0.0862 -1.5680
  475TIP3    H2 1432   1.488   1.090   2.742  0.2480  0.1767  1.6755
  476TIP3   OH2 1433   0.771   1.382   3.887 -0.1542 -0.9279  0.5124
  476TIP3    H1 1434   0.678   1.403   3.880 -0.1700 -1.2135 -0.2448
  476TIP3    H2 1435   0.776   1.319   3.959 -0.6587 -1.5181  0.0406
  477TIP3   OH2 1436   0.157   1.298   3.222  0.4203 -0.5276  0.0614
  477TIP3    H1 1437   0.172   1.208   3.250 -1.2300 -0.3178  1.8096
  477TIP3    H2 1438   0.244   1.337   3.216  1.0246 -1.5502  1.7274
  478TIP3   OH2 1439   5.764   4.517   0.307  0.0807  0.3726 -0.1212
  478TIP3    H1 1440   5.755   4.516   0.212 -0.3326 -0.2927 -0.0845
  478TIP3    H2 1441   5.854   4.488   0.323  0.5309  1.6186 -0.3356
  479TIP3   OH2 1442   1.268   1.623   2.538  0.0646  0.1789  0.0712
  479TIP3    H1 1443   1.289   1.685   2.467 -1.5049  0.2976 -0.3329
  479TIP3    H2 1444   1.306   1.540   2.508  1.5912  0.7633  0.2940
  480TIP3   OH2 1445   6.295   4.663   0.324 -0.0157 -0.4501  0.3779
  480TIP3    H1 1446   6.200   4.677   0.317 -0.3134 -1.7665  1.3927
  480TIP3    H2 1447   6.333   4.750   0.315 -1.3858  0.2139  0.8312
  481TIP3   OH2 1448   3.993   3.659   0.640  0.2274 -0.1762  0.2127
  481TIP3    H1 1449   4.019   3.659   0.732  0.6271  0.3975  0.1084
  481TIP3    H2 1450   4.014   3.748   0.609  0.5361 -0.4983 -0.5453
  482TIP3   OH2 1451   4.750   2.741   3.397  0.1738  0.2075 -0.1590
  482TIP3    H1 1452   4.730   2.824   3.441  0.1388  0.7620 -1.1872
  482TIP3    H2 1453   4.666   2.710   3.366  0.2140 -0.1234  0.0629
  483TIP3   OH2 1454   2.729   4.904   3.379  0.4306 -0.0771 -0.3121
  483TIP3    H1 1455   2.801   4.911   3.442  0.8420  1.4424 -0.9178
  483TIP3    H2 1456   2.767   4.860   3.303 -0.2249 -2.4911  0.6614
  484TIP3   OH2 1457   1.741   4.047   2.920  0.3540  0.1514 -0.2766
  484TIP3    H1 1458   1.657   4.092   2.930  0.6563  1.0662 -1.5634
  484TIP3    H2 1459   1.739   3.978   2.987 -0.8158  1.0389  0.6638
  485TIP3   OH2 1460   1.963   5.004   2.909  0.5776  0.2658 -0.0003
  485TIP3    H1 1461   2.016   4.933   2.872 -0.0809 -0.6005  0.6841
  485TIP3    H2 1462   1.918   4.964   2.983  0.8336  1.6157  0.9186
  486TIP3   OH2 1463   4.502   5.168   0.455 -0.0246 -0.2202  0.5232
  486TIP3    H1 1464   4.584   5.202   0.491 -0.5634  0.3854  1.2169
  486TIP3    H2 1465   4.528   5.096   0.398  1.1604  1.2747 -0.9103
  487TIP3   OH2 1466   1.776   1.062   4.202 -0.2507 -0.4668 -0.3344
  487TIP3    H1 1467   1.842   1.037   4.266 -1.8989 -3.1043  0.5232
  487TIP3    H2 1468   1.782   0.994   4.134 -0.4150  0.7044 -1.5682
  488TIP3   OH2 1469   5.181   3.458   0.295 -0.2758 -0.0591 -0.0851
  488TIP3    H1 1470   5.209   3.415   0.376  0.7116 -1.2801 -1.0327
  488TIP3    H2 1471   5.236   3.536   0.289  1.5619 -1.3501 -0.8796
  489TIP3   OH2 1472   4.086   4.012   0.065  0.6461 -0.4217 -0.2776
  489TIP3    H1 1473   4.058   4.101   0.087  1.2382  0.3369 -2.2948
  489TIP3    H2 1474   4.040   3.993  -0.017 -0.3585 -2.4776  0.6858
  490TIP3   OH2 1475   5.769   3.089   1.305  0.2176 -0.8869 -0.4377
  490TIP3    H1 1476   5.778   3.051   1.218  1.6536  1.6770 -1.5480
  490TIP3    H2 1477   5.860   3.099   1.336 -0.1276  0.4839  0.2408
  491TIP3   OH2 1478   5.149   4.280   2.604 -0.2432  0.3522 -0.0795
  491TIP3    H1 1479   5.204   4.201   2.600  1.3561  1.4545 -1.7617
  491TIP3    H2 1480   5.187   4.332   2.674 -0.0964  0.4512 -0.2320
  492TIP3   OH2 1481   3.519   4.528   4.563  0.3575 -0.2022  0.6093
  492TIP3    H1 1482   3.526   4.597   4.629  0.3137  0.8513 -0.4538
  492TIP3    H2 1483   3.435   4.485   4.583  0.3196  0.1320  1.2004
  493TIP3   OH2 1484   2.009   2.375   1.490 -0.3634 -0.3215  0.2792
  493TIP3    H1 1485   2.011   2.470   1.480 -0.8464 -0.2789  0.5573
  493TIP3    H2 1486   1.936   2.358   1.550 -0.7320 -0.9057 -0.3064
  494TIP3   OH2 1487   5.583   4.392   0.725 -0.2813 -0.0755  0.3769
  494TIP3    H1 1488   5.622   4.355   0.646 -0.8307  1.7054 -0.7918
  494TIP3    H2 1489   5.643   4.461   0.751 -1.0005  0.5314  0.4533
  495TIP3   OH2 1490   2.676   2.945   1.101 -0.4712 -0.3451 -0.3080
  495TIP3    H1 1491   2.680   2.978   1.191  1.3620 -0.1027 -0.4506
  495TIP3    H2 1492   2.709   2.855   1.106  0.9905  0.1259 -0.9097
  496TIP3   OH2 1493   3.819   0.852   1.731  0.0491 -0.4291 -0.8490
  496TIP3    H1 1494   3.900   0.818   1.771  0.3020 -0.6684 -1.5392
  496TIP3    H2 1495   3.794   0.784   1.668 -1.2472 -0.8153  0.0531
  497TIP3   OH2 1496   0.945   4.255   3.913 -0.2895 -0.2004  0.1101
  497TIP3    H1 1497   0.856   4.282   3.936 -0.9037 -1.3841 -0.7241
  497TIP3    H2 1498   0.935   4.165   3.882 -0.1064  1.5361 -6.6503
  498TIP3   OH2 1499   4.897   0.365   1.415  0.4542  0.0302  0.8335
  498TIP3    H1 1500   4.984   0.375   1.453  0.0817  1.7428  1.3351
  498TIP3    H2 1501   4.861   0.454   1.414 -1.4353 -0.6862  0.9900
  499TIP3   OH2 1502   2.827   3.917   1.072  0.3059 -0.0192 -0.3641
  499TIP3    H1 1503   2.911   3.916   1.025 -0.3814  2.0494 -1.7644
  499TIP3    H2 1504   2.840   3.981   1.142 -0.7234  2.0341 -1.9619
  500TIP3   OH2 1505   2.710   2.021   2.727  0.0233 -0.1094 -0.7177
  500TIP3    H1 1506   2.747   1.940   2.691 -0.0808 -0.3894 -0.2028
  500TIP3    H2 1507   2.734   2.020   2.820 -1.9191 -0.6960 -0.1645
  501TIP3   OH2 1508   5.689   4.654   1.830  0.3879 -0.3493  0.4045
  501TIP3    H1 1509   5.690   4.724   1.765  1.1254 -1.4345 -0.7888
  501TIP3    H2 1510   5.704   4.699   1.913  2.0381  0.8010 -0.4600
  502TIP3   OH2 1511   2.436   2.069   2.060 -0.2133 -0.4829  0.9013
  502TIP3    H1 1512   2.521   2.114   2.063 -1.9587  3.4379 -1.3039
  502TIP3    H2 1513   2.427   2.042   1.969 -2.0385  0.8642  0.6294
  503TIP3   OH2 1514   1.691   4.968   3.554  0.3813  0.0491 -0.4308
  503TIP3    H1 1515   1.713   4.947   3.645 -0.0735 -0.3151 -0.3994
  503TIP3    H2 1516   1.718   4.890   3.504 -2.4833 -1.2506 -0.1525
  504TIP3   OH2 1517   1.151   3.971   3.691 -0.1389  0.2794 -0.2480
  504TIP3    H1 1518   1.067   4.000   3.726  0.6200  2.8812 -0.3535
  504TIP3    H2 1519   1.178   3.899   3.748 -1.4406  0.8166  1.0955
  505TIP3   OH2 1520   4.641   0.911   3.303 -0.1166 -0.0644  0.7218
  505TIP3    H1 1521   4.642   0.857   3.381 -0.4662  0.1659  0.8899
  505TIP3    H2 1522   4.565   0.879   3.253 -0.3507  0.2930  0.8425
  506TIP3   OH2 1523   1.174   3.456   1.562  0.3462 -0.2869 -0.5605
  506TIP3    H1 1524   1.128   3.505   1.631 -1.2981 -0.5721 -1.4017
  506TIP3    H2 1525   1.127   3.372   1.558  1.5497 -0.9609 -0.8390
  507TIP3   OH2 1526   0.846   0.762   3.886 -0.3553 -0.3007 -0.2183
  507TIP3    H1 1527   0.900   0.746   3.809  0.1585 -0.5812  0.1998
  507TIP3    H2 1528   0.839   0.677   3.929  1.4920  0.3243  1.4222
  508TIP3   OH2 1529   3.739   2.429   2.619 -0.1874  0.0223 -0.3156
  508TIP3    H1 1530   3.727   2.415   2.525  0.5502  0.3547 -0.4677
  508TIP3    H2 1531   3.814   2.374   2.641  2.4707  3.1593 -0.8154
  509TIP3   OH2 1532   5.684   2.358   3.495 -0.5780 -0.4740  0.0307
  509TIP3    H1 1533   5.747   2.430   3.499 -0.3136 -0.2780 -3.7892
  509TIP3    H2 1534   5.735   2.281   3.519 -0.0538  0.1991  1.1796
  510TIP3   OH2 1535   0.756   1.798   3.797 -0.8413 -0.0260  0.2647
  510TIP3    H1 1536   0.800   1.864   3.851 -1.8219  2.3810 -1.6826
  510TIP3    H2 1537   0.675   1.779   3.843 -0.4870 -0.0112  0.9092
  511TIP3   OH2 1538   4.933   3.523   0.483 -0.1133  0.0657 -0.1399
  511TIP3    H1 1539   4.858   3.494   0.431  0.0993  2.9336 -2.3277
  511TIP3    H2 1540   5.005   3.467   0.454 -0.9750 -1.5798  0.7369
  512TIP3   OH2 1541   2.906   1.585   0.880  0.4732 -0.1208  0.2823
  512TIP3    H1 1542   2.842   1.513   0.878 -0.0431  0.3526 -0.9107
  512TIP3    H2 1543   2.887   1.631   0.962 -1.0356  0.2801 -0.2595
  513TIP3   OH2 1544   5.555   0.753   3.051  0.7414 -0.0979 -0.8744
  513TIP3    H1 1545   5.644   0.758   3.017  0.4867  2.1196 -1.3797
  513TIP3    H2 1546   5.523   0.844   3.049 -0.1757 -0.1410  3.0243
  514TIP3   OH2 1547   5.328   3.658   4.474 -0.1068  0.5356 -0.0037
  514TIP3    H1 1548   5.404   3.636   4.527  0.9783 -0.6901 -1.9371
  514TIP3    H2 1549   5.256   3.665   4.536  0.9202 -1.6034  1.5491
  515TIP3   OH2 1550   3.703   4.091   0.520  0.2756  0.2582 -0.3320
  515TIP3    H1 1551   3.700   4.013   0.576 -2.5620  1.6316  1.6658
  515TIP3    H2 1552   3.616   4.094   0.478  0.3402  2.2858 -0.4087
  516TIP3   OH2 1553   4.265   2.231   4.749 -0.2390  0.0413  0.3326
  516TIP3    H1 1554   4.209   2.272   4.682 -1.7026  0.6389  1.8543
  516TIP3    H2 1555   4.306   2.304   4.794  1.8715 -0.3923 -0.7486
  517TIP3   OH2 1556   2.305   3.548   1.243 -0.8443 -0.3927  0.4413
  517TIP3    H1 1557   2.242   3.616   1.269 -1.2184 -0.5783  0.0412
  517TIP3    H2 1558   2.250   3.475   1.213 -0.4378 -0.2663 -0.6686
  518TIP3   OH2 1559   5.588   0.435   4.633 -0.2889 -0.7183  0.0065
  518TIP3    H1 1560   5.544   0.489   4.567 -1.0294 -1.3226 -0.0052
  518TIP3    H2 1561   5.619   0.358   4.584 -1.3770 -1.4680  0.4506
  519TIP3   OH2 1562   4.464   5.682   2.444 -0.2850 -0.4339  0.6526
  519TIP3    H1 1563   4.449   5.774   2.420  1.1758 -0.1397  0.7803
  519TIP3    H2 1564   4.415   5.632   2.379 -1.2601  0.4276  0.6946
  520TIP3   OH2 1565   4.725   3.097   5.110 -0.3424  0.2768 -0.0274
  520TIP3    H1 1566   4.642   3.097   5.064  0.0539 -2.7773 -0.9360
  520TIP3    H2 1567   4.792   3.096   5.041  0.3625 -0.2764  0.6385
  521TIP3   OH2 1568   2.191   3.397   1.545  0.0145 -0.2383 -0.1663
  521TIP3    H1 1569   2.178   3.439   1.460  2.3814 -0.5022 -0.7444
  521TIP3    H2 1570   2.126   3.327   1.548 -1.9830  1.5186 -0.4888
  522TIP3   OH2 1571   6.311   5.191   3.846  0.1347  0.0818 -0.5983
  522TIP3    H1 1572   6.355   5.273   3.822  2.2303  0.3332  3.2581
  522TIP3    H2 1573   6.383   5.130   3.865 -1.3189 -1.4984  0.1229
  523TIP3   OH2 1574   5.558   4.684   1.231 -0.5574 -0.0691 -0.4703
  523TIP3    H1 1575   5.483   4.673   1.290 -0.0046  2.0581  0.7271
  523TIP3    H2 1576   5.520   4.682   1.144 -1.8249 -0.3940  0.0667
  524TIP3   OH2 1577   5.374   3.851   1.217 -0.5068  0.1885  0.2245
  524TIP3    H1 1578   5.452   3.795   1.226 -0.3165  0.2776 -0.7785
  524TIP3    H2 1579   5.386   3.894   1.132 -2.1712 -0.6001 -0.4429
  525TIP3   OH2 1580   4.374   1.515   4.808 -0.2784 -0.5087 -0.0349
  525TIP3    H1 1581   4.459   1.559   4.805 -0.0654 -0.9271 -0.3414
  525TIP3    H2 1582   4.316   1.576   4.853  0.0329  0.0406 -0.3709
  526TIP3   OH2 1583   3.375   3.787   0.858 -0.0018 -0.6995 -0.4040
  526TIP3    H1 1584   3.326   3.710   0.886  1.0268 -0.6661  1.6404
  526TIP3    H2 1585   3.344   3.857   0.915  2.8751 -0.8381  1.5301
  527TIP3   OH2 1586   2.472   0.059   1.786  0.1406  0.0063 -0.2191
  527TIP3    H1 1587   2.395   0.003   1.797  0.1830 -0.4910 -2.0098
  527TIP3    H2 1588   2.546  -0.002   1.788  0.4144  0.3632  0.5766
  528TIP3   OH2 1589   1.406   1.769   0.927 -0.1443 -0.2257  0.5259
  528TIP3    H1 1590   1.473   1.804   0.867 -0.5071  0.8847  0.7342
  528TIP3    H2 1591   1.453   1.703   0.979  0.3536 -0.6887 -0.4764
  529TIP3   OH2 1592   0.216   4.676   0.465 -0.4353 -0.0578 -0.1263
  529TIP3    H1 1593   0.149   4.739   0.439  0.6115  0.8999 -0.5916
  529TIP3    H2 1594   0.293   4.701   0.415  0.6403 -0.3546  1.3085
  530TIP3   OH2 1595   2.393   2.415   3.554 -0.7120  0.1664 -0.6794
  530TIP3    H1 1596   2.378   2.351   3.623  1.1454  0.3466 -0.0397
  530TIP3    H2 1597   2.449   2.370   3.491 -1.2700  0.4435 -1.3911
  531TIP3   OH2 1598   5.774   4.609   4.990 -0.2512  0.6442 -0.0394
  531TIP3    H1 1599   5.841   4.617   4.922 -0.1920 -0.8383 -0.1930
  531TIP3    H2 1600   5.806   4.663   5.062 -0.1748  2.0140 -1.0695
  532TIP3   OH2 1601   3.154   2.849   2.654  0.5415 -0.7461 -0.5997
  532TIP3    H1 1602   3.094   2.830   2.725 -0.3337 -1.3320 -1.4709
  532TIP3    H2 1603   3.211   2.772   2.649  0.1371 -1.0232 -0.9908
  533TIP3   OH2 1604   1.217   4.461   1.683 -0.7850  0.1024 -0.1986
  533TIP3    H1 1605   1.196   4.499   1.769 -1.3771  0.6373 -0.5730
  533TIP3    H2 1606   1.256   4.533   1.634  1.9062 -0.8024  0.4080
  534TIP3   OH2 1607   5.995   4.540   4.378 -0.0442  0.2369  0.0044
  534TIP3    H1 1608   5.987   4.618   4.323  0.6982  0.8772  0.7727
  534TIP3    H2 1609   6.086   4.513   4.369 -0.2432 -0.4411 -0.0938
  535TIP3   OH2 1610   4.083   3.737   4.850  0.4232  0.3816 -0.1290
  535TIP3    H1 1611   4.133   3.664   4.888  0.3884  0.2608 -0.3189
  535TIP3    H2 1612   4.128   3.757   4.768 -0.5802 -0.5570 -0.9302
  536TIP3   OH2 1613   1.849   3.786   2.703  0.4511  0.1153 -0.3310
  536TIP3    H1 1614   1.861   3.772   2.609 -1.9081 -0.5067 -0.5939
  536TIP3    H2 1615   1.819   3.701   2.737 -0.3420  0.7612  0.6565
  537TIP3   OH2 1616   0.113   1.636   5.078 -0.3709  0.1336  0.1619
  537TIP3    H1 1617   0.154   1.582   5.146  1.3233  1.9422  0.6836
  537TIP3    H2 1618   0.095   1.576   5.006 -1.6514 -1.7322  1.9213
  538TIP3   OH2 1619   1.781   0.688   3.233 -0.4065 -0.6586  0.9171
  538TIP3    H1 1620   1.702   0.689   3.178  0.6904 -0.2162 -0.7153
  538TIP3    H2 1621   1.813   0.778   3.230  0.9691 -1.1377  0.3144
  539TIP3   OH2 1622   5.105   0.910   2.710 -0.2623 -0.1071  0.1867
  539TIP3    H1 1623   5.136   0.828   2.749 -1.8152 -1.4677 -1.2894
  539TIP3    H2 1624   5.018   0.922   2.747 -0.7286 -0.0658 -0.9024
  540TIP3   OH2 1625   1.105   4.394   4.960  0.1322 -0.0313  0.1676
  540TIP3    H1 1626   1.060   4.312   4.978  0.0882 -0.2995 -1.0709
  540TIP3    H2 1627   1.184   4.391   5.013  0.4183 -1.1432 -0.3101
  541TIP3   OH2 1628   4.428   5.942   4.343  0.4880  0.5386  0.1882
  541TIP3    H1 1629   4.499   5.887   4.310 -0.2230 -0.6002  0.4633
  541TIP3    H2 1630   4.358   5.931   4.279  0.2772  0.9927  0.3393
  542TIP3   OH2 1631   4.916   2.796   3.193  0.2368  0.0676 -0.5089
  542TIP3    H1 1632   4.863   2.756   3.262 -0.0574  1.6862  0.2470
  542TIP3    H2 1633   4.969   2.861   3.239  1.0338  0.2425 -1.6383
  543TIP3   OH2 1634   2.350   2.506   2.132 -0.0191 -0.4210 -0.2222
  543TIP3    H1 1635   2.434   2.468   2.108 -0.3531 -0.6148 -1.1162
  543TIP3    H2 1636   2.332   2.571   2.063  0.3880  1.1422  1.0863
  544TIP3   OH2 1637   4.470   3.434   4.153 -0.1232 -0.3093 -0.1002
  544TIP3    H1 1638   4.445   3.413   4.243 -1.0773 -0.2748 -0.3414
  544TIP3    H2 1639   4.443   3.526   4.143 -1.4292 -0.7603 -0.8839
  545TIP3   OH2 1640   0.086   4.314   1.567  0.1611 -0.5051 -0.0861
  545TIP3    H1 1641   0.067   4.369   1.643 -0.2467 -0.1596 -0.4267
  545TIP3    H2 1642   0.181   4.322   1.555  0.1848 -0.3196  0.2044
  546TIP3   OH2 1643   5.853   0.651   4.061  0.2022 -0.1492  0.1157
  546TIP3    H1 1644   5.887   0.565   4.037  2.0915  0.4679  0.4161
  546TIP3    H2 1645   5.901   0.675   4.141 -0.3104  1.1677  0.0676
  547TIP3   OH2 1646   0.051   3.945   4.197  0.3741 -0.1501  0.3036
  547TIP3    H1 1647  -0.029   3.895   4.184  0.7501 -0.3359 -1.5305
  547TIP3    H2 1648   0.027   4.012   4.261 -0.7835 -1.1742  0.9879
  548TIP3   OH2 1649   4.743   3.049   0.095 -0.4482  0.7101  0.2537
  548TIP3    H1 1650   4.802   3.086   0.162 -0.3850 -1.2525  1.3737
  548TIP3    H2 1651   4.800   3.031   0.021  0.0596  0.3606  0.7159
  549TIP3   OH2 1652   1.630   2.511   1.496 -0.2164 -0.0518  0.0817
  549TIP3    H1 1653   1.592   2.587   1.540 -0.8270 -0.1000 -0.3590
  549TIP3    H2 1654   1.584   2.506   1.412 -0.5015 -1.1609  0.2871
  550TIP3   OH2 1655   4.996   5.253   1.163  0.4685  0.3799 -0.2049
  550TIP3    H1 1656   4.911   5.220   1.192  0.5854  1.2390  1.1793
  550TIP3    H2 1657   4.974   5.321   1.099  0.1274  0.4481 -0.0160
  551TIP3   OH2 1658   5.928   5.572   3.190 -0.1403 -0.8123  0.1487
  551TIP3    H1 1659   5.924   5.479   3.167 -0.7984 -0.8067  0.2163
  551TIP3    H2 1660   5.891   5.576   3.279  1.4187 -0.7022  0.8279
  552TIP3   OH2 1661   3.274   2.692   0.967  0.6250 -0.9237 -0.2053
  552TIP3    H1 1662   3.253   2.616   1.021  1.4138 -0.9861  0.0273
  552TIP3    H2 1663   3.339   2.741   1.019 -0.0123  0.0077 -0.2661
  553TIP3   OH2 1664   1.686   2.799   4.040  0.5828 -0.0717 -0.0270
  553TIP3    H1 1665   1.613   2.860   4.053 -0.0709 -0.7358 -0.4884
  553TIP3    H2 1666   1.656   2.741   3.970  0.6414 -1.7447  1.2745
  554TIP3   OH2 1667   1.117   5.629   0.888  0.3837 -0.3697 -0.0984
  554TIP3    H1 1668   1.151   5.674   0.965  0.1921 -1.8963  0.9410
  554TIP3    H2 1669   1.194   5.612   0.834  0.7634 -0.6473  0.5190
  555TIP3   OH2 1670   2.756   0.261   2.675  0.3639 -0.4655 -0.7673
  555TIP3    H1 1671   2.731   0.271   2.583  0.6837  0.2160 -0.7854
  555TIP3    H2 1672   2.851   0.268   2.675  0.3114  0.4110 -0.2820
  556TIP3   OH2 1673   3.563   1.069   4.901  0.3465  0.5119 -0.0974
  556TIP3    H1 1674   3.625   1.051   4.972  1.1901  1.6697 -0.5030
  556TIP3    H2 1675   3.618   1.094   4.827 -0.5928  3.3873  0.0549
  557TIP3   OH2 1676   3.248   1.339   5.120  0.6326 -0.5622 -0.4465
  557TIP3    H1 1677   3.280   1.388   5.044  0.3460 -0.2317 -0.3543
  557TIP3    H2 1678   3.162   1.377   5.139  1.0549 -0.0859  0.5497
  558TIP3   OH2 1679   4.390   1.463   2.955  0.0149  0.1680 -0.0702
  558TIP3    H1 1680   4.310   1.470   3.007  0.4417 -0.2187  0.6597
  558TIP3    H2 1681   4.460   1.474   3.018  0.5531 -0.8625 -0.4694
  559TIP3   OH2 1682   2.014   1.431   3.530 -0.1171 -0.5063 -0.5324
  559TIP3    H1 1683   2.062   1.436   3.447 -0.0738  2.1724 -0.4277
  559TIP3    H2 1684   2.077   1.459   3.596 -0.6163 -1.0679  0.1933
  560TIP3   OH2 1685   2.895   5.428   3.799  0.2827  0.1153 -0.3391
  560TIP3    H1 1686   2.854   5.512   3.817  0.2839  0.3679 -1.4622
  560TIP3    H2 1687   2.843   5.365   3.849 -0.1968  0.6814 -0.1114
  561TIP3   OH2 1688   4.509   1.856   5.126  0.3550  0.7965  0.4823
  561TIP3    H1 1689   4.493   1.835   5.218  0.5275 -0.3832  0.2569
  561TIP3    H2 1690   4.462   1.938   5.112 -1.3630 -0.0077  1.1393
  562TIP3   OH2 1691   0.070   3.212   4.154 -0.2634 -0.2586 -0.0812
  562TIP3    H1 1692   0.164   3.197   4.168 -0.0105  0.0363 -1.3019
  562TIP3    H2 1693   0.066   3.259   4.071 -1.4538  0.4765  0.3747
  563TIP3   OH2 1694   6.031   0.686   3.077  0.1809 -0.2552 -0.8372
  563TIP3    H1 1695   5.982   0.637   3.143 -1.9324  0.0551 -2.0976
  563TIP3    H2 1696   6.119   0.695   3.115 -0.0068 -2.9064  0.4849
  564TIP3   OH2 1697   4.417   0.363   0.584 -0.1250  0.3732 -0.0316
  564TIP3    H1 1698   4.377   0.431   0.531  0.0435 -0.1038 -0.7974
  564TIP3    H2 1699   4.389   0.381   0.674  0.1239  1.5793 -0.1903
  565TIP3   OH2 1700   3.113   3.019   1.634 -0.2763  0.2181 -0.0526
  565TIP3    H1 1701   3.184   3.005   1.698 -0.1789  0.5571 -0.0834
  565TIP3    H2 1702   3.034   3.023   1.687 -0.1142  1.2435  0.1332
  566TIP3   OH2 1703   2.107   2.017   0.530  0.8335 -0.1012  0.3685
  566TIP3    H1 1704   2.146   1.994   0.445  1.0813  0.8305  0.2125
  566TIP3    H2 1705   2.063   2.101   0.513 -2.2684 -1.6071  0.2329
  567TIP3   OH2 1706   4.242   3.572   2.608  0.5206 -0.5753 -0.1967
  567TIP3    H1 1707   4.310   3.513   2.641  1.0453  0.2621  0.2619
  567TIP3    H2 1708   4.200   3.524   2.537  1.3538 -1.2511 -0.2425
  568TIP3   OH2 1709   0.136   3.115   4.492 -0.3579  0.3746 -0.0160
  568TIP3    H1 1710   0.165   3.057   4.422 -0.2369  0.7339 -0.2671
  568TIP3    H2 1711   0.094   3.188   4.447 -1.7521 -0.1826  0.3479
  569TIP3   OH2 1712   0.451   3.408   2.781  0.3595 -0.7172 -0.5818
  569TIP3    H1 1713   0.401   3.465   2.722 -1.2186 -2.5956 -1.1519
  569TIP3    H2 1714   0.543   3.429   2.762 -0.1460  0.1745 -2.2135
  570TIP3   OH2 1715   5.178   0.976   4.639 -0.0545  0.0639  0.0229
  570TIP3    H1 1716   5.112   0.943   4.700 -0.8902 -0.0576 -0.9136
  570TIP3    H2 1717   5.232   1.035   4.691  0.0584 -1.0343  1.1809
  571TIP3   OH2 1718   4.281   4.608   2.923  0.2463  0.2874  0.0023
  571TIP3    H1 1719   4.316   4.694   2.899 -1.0315  0.6734 -0.5885
  571TIP3    H2 1720   4.358   4.552   2.932  1.0389  1.2392 -0.6259
  572TIP3   OH2 1721   5.855   3.372   0.889 -0.1531 -0.1689  0.3052
  572TIP3    H1 1722   5.852   3.464   0.863 -0.5430  0.4345  2.2844
  572TIP3    H2 1723   5.893   3.374   0.977 -1.0201 -1.8211  0.7504
  573TIP3   OH2 1724   1.582   1.215   5.140  0.0814 -0.3021 -0.2032
  573TIP3    H1 1725   1.666   1.171   5.147 -0.4784 -1.9252 -2.5841
  573TIP3    H2 1726   1.519   1.153   5.176 -0.2786  0.3562  0.3391
  574TIP3   OH2 1727   6.318   4.592   4.409  0.0838 -0.3970  0.3885
  574TIP3    H1 1728   6.317   4.546   4.324 -1.6225 -0.4618  0.4205
  574TIP3    H2 1729   6.335   4.683   4.386  1.3448 -0.6753  0.1396
  575TIP3   OH2 1730   6.121   1.669   2.378 -0.1538 -0.1702 -0.0138
  575TIP3    H1 1731   6.139   1.734   2.446 -0.5846  0.7736 -0.7789
  575TIP3    H2 1732   6.201   1.667   2.326  0.7306 -1.9302  1.2895
  576TIP3   OH2 1733   0.158   1.757   1.599  0.0663 -0.4849 -0.2452
  576TIP3    H1 1734   0.135   1.820   1.668 -1.3893 -1.0443 -0.2000
  576TIP3    H2 1735   0.208   1.689   1.645  1.5734  0.5371 -0.2784
  577TIP3   OH2 1736   2.940   0.659   3.649  0.0422  0.0497 -0.1776
  577TIP3    H1 1737   2.882   0.685   3.578 -0.5472 -1.1829 -0.1776
  577TIP3    H2 1738   2.989   0.584   3.614  0.1108 -0.2517  0.5429
  578TIP3   OH2 1739   2.471   4.516   1.209 -0.4443  0.0680 -0.1811
  578TIP3    H1 1740   2.409   4.545   1.276 -0.7354 -0.7594 -0.0824
  578TIP3    H2 1741   2.419   4.514   1.128 -0.2795  0.3657 -0.2951
  579TIP3   OH2 1742   2.874   2.014   3.455 -0.1006  0.5579  0.4681
  579TIP3    H1 1743   2.855   1.920   3.462  0.9247  0.1394 -1.4456
  579TIP3    H2 1744   2.963   2.022   3.490 -0.8434  1.1815  2.3347
  580TIP3   OH2 1745   2.208   5.114   0.069  0.6706  0.1343 -0.2244
  580TIP3    H1 1746   2.180   5.176   0.137 -0.6906  0.5354 -1.1152
  580TIP3    H2 1747   2.152   5.038   0.081  0.8279 -0.0341 -0.5345
  581TIP3   OH2 1748   2.964   1.298   4.389 -0.4201 -0.3524  0.0080
  581TIP3    H1 1749   2.959   1.393   4.386  1.2748 -0.2150  0.5374
  581TIP3    H2 1750   2.916   1.269   4.311 -0.1299  0.9629 -0.6947
  582TIP3   OH2 1751   5.845   4.193   1.912 -0.0822 -0.6894 -0.0310
  582TIP3    H1 1752   5.804   4.164   1.994 -1.1254 -1.2412 -0.7222
  582TIP3    H2 1753   5.788   4.262   1.879 -0.5048 -1.4801 -1.0197
  583TIP3   OH2 1754   2.696   1.906   0.307 -0.2153  0.0578 -0.0661
  583TIP3    H1 1755   2.676   1.981   0.250  0.5530 -0.1965 -0.6981
  583TIP3    H2 1756   2.707   1.833   0.246  1.9761  0.0639  0.2490
  584TIP3   OH2 1757   3.648   3.232   2.733 -0.3966  0.1024  0.7831
  584TIP3    H1 1758   3.629   3.215   2.825 -1.6403  0.4085  0.6096
  584TIP3    H2 1759   3.572   3.282   2.702 -1.5770 -2.6459 -1.1659
  585TIP3   OH2 1760   4.021   1.773   1.492 -0.8232  0.8254  0.0626
  585TIP3    H1 1761   3.926   1.785   1.497 -0.8001  0.7686  0.6606
  585TIP3    H2 1762   4.033   1.678   1.486 -0.8508  0.8787 -1.3015
  586TIP3   OH2 1763   4.359   3.126   2.912  0.2323  0.2876  0.2303
  586TIP3    H1 1764   4.294   3.195   2.926 -0.6169 -0.0892 -1.5759
  586TIP3    H2 1765   4.329   3.053   2.966  0.3299  0.8350  1.0315
  587TIP3   OH2 1766   5.254   5.844   0.884 -0.1808 -0.1369 -0.0571
  587TIP3    H1 1767   5.169   5.864   0.922 -0.1243 -0.8701  0.4814
  587TIP3    H2 1768   5.251   5.751   0.864  0.1520  0.0340 -0.9404
  588TIP3   OH2 1769   2.667   3.686   4.680  0.1187 -0.2095  0.2460
  588TIP3    H1 1770   2.642   3.761   4.626  0.7973  0.4241  0.7905
  588TIP3    H2 1771   2.654   3.610   4.624 -0.4477  0.3240 -0.3603
  589TIP3   OH2 1772   1.475   0.572   1.329  0.4491 -0.3649  0.0312
  589TIP3    H1 1773   1.428   0.630   1.389 -1.5383 -1.2326 -0.5842
  589TIP3    H2 1774   1.501   0.629   1.256  0.5038  0.1639  0.4569
  590TIP3   OH2 1775   5.108   0.998   0.820  0.0783  0.2247 -0.1293
  590TIP3    H1 1776   5.192   0.960   0.794  0.1845  0.9244 -0.8306
  590TIP3    H2 1777   5.124   1.034   0.907  0.1950 -0.6128  0.2074
  591TIP3   OH2 1778   3.805   2.143   0.906 -0.3706 -0.5228 -0.2361
  591TIP3    H1 1779   3.819   2.140   1.000  0.7806  0.4870 -0.3450
  591TIP3    H2 1780   3.727   2.198   0.895 -0.7217 -0.9513  0.1461
  592TIP3   OH2 1781   6.002   3.874   1.025  0.1426  0.0998 -0.1601
  592TIP3    H1 1782   5.989   3.901   1.116 -0.6073  1.2046 -0.5715
  592TIP3    H2 1783   6.068   3.935   0.992  2.9853 -2.3484  0.5077
  593TIP3   OH2 1784   5.822   1.747   4.317 -0.0687  0.1806  0.2685
  593TIP3    H1 1785   5.797   1.656   4.304 -1.0956  0.4452  0.3043
  593TIP3    H2 1786   5.744   1.789   4.353 -0.2521  1.4849 -1.5040
  594TIP3   OH2 1787   2.241   4.476   2.241 -0.5163  0.3909 -0.0062
  594TIP3    H1 1788   2.283   4.400   2.283  0.3305  0.5970 -0.4529
  594TIP3    H2 1789   2.259   4.464   2.148 -0.8249  0.8775 -0.1309
  595TIP3   OH2 1790   2.304   3.302   5.181 -0.0553 -0.0557 -0.2869
  595TIP3    H1 1791   2.365   3.315   5.108 -1.2330 -0.7819 -1.4586
  595TIP3    H2 1792   2.353   3.247   5.243  1.0407  0.7400 -0.4192
  596TIP3   OH2 1793   0.775   2.203   0.147  0.2948  0.1912 -0.0937
  596TIP3    H1 1794   0.808   2.115   0.129  0.2592  0.0982  0.2889
  596TIP3    H2 1795   0.839   2.262   0.106 -0.1062 -0.0251 -1.0488
  597TIP3   OH2 1796   3.611   0.976   4.225 -0.7450 -0.6681  0.9292
  597TIP3    H1 1797   3.560   0.942   4.299 -0.2570  0.2756  1.7141
  597TIP3    H2 1798   3.600   1.071   4.229 -3.6642 -0.6668 -2.3711
  598TIP3   OH2 1799   1.313   3.098   3.746  0.0572 -0.5381 -0.5518
  598TIP3    H1 1800   1.332   3.013   3.707  0.9019 -1.2946  1.3558
  598TIP3    H2 1801   1.353   3.162   3.686  1.0186 -1.6082 -1.0907
  599TIP3   OH2 1802   0.283   5.910   3.548  0.4826 -0.2986  0.1092
  599TIP3    H1 1803   0.330   5.841   3.595  0.9104 -0.5128 -0.6161
  599TIP3    H2 1804   0.253   5.868   3.467 -0.0291  0.1303  0.0713
  600TIP3   OH2 1805   1.447   1.894   1.712  0.0048  0.0391  0.0181
  600TIP3    H1 1806   1.408   1.906   1.799 -0.2235  0.1055 -0.0913
  600TIP3    H2 1807   1.373   1.869   1.656 -0.0571  1.0912 -0.3997
  601TIP3   OH2 1808   4.632   3.993   2.097  0.0941  0.2962 -1.0502
  601TIP3    H1 1809   4.605   4.038   2.016  1.0380 -0.9741 -2.1125
  601TIP3    H2 1810   4.617   3.900   2.079  3.1512 -0.3156 -0.9826
  602TIP3   OH2 1811   1.009   0.804   2.642  0.3038 -0.0348 -0.2649
  602TIP3    H1 1812   0.941   0.862   2.608 -0.7236 -0.4473  0.9759
  602TIP3    H2 1813   0.969   0.763   2.720  1.7471 -0.7792  0.1303
  603TIP3   OH2 1814   5.049   3.138   4.977  0.5073  0.7091  0.1682
  603TIP3    H1 1815   5.119   3.160   5.038  0.2445 -0.5682  0.9652
  603TIP3    H2 1816   5.092   3.130   4.892  1.1184  1.0349  0.4439
  604TIP3   OH2 1817   5.380   3.399   1.184 -0.0799 -0.2766 -0.3511
  604TIP3    H1 1818   5.391   3.442   1.099 -1.1294  1.6027  0.4048
  604TIP3    H2 1819   5.394   3.468   1.248  0.3184 -1.5807  1.0132
  605TIP3   OH2 1820   1.215   2.109   0.254  0.4492 -0.1954  0.2137
  605TIP3    H1 1821   1.247   2.198   0.241 -0.3133  0.2035  0.9741
  605TIP3    H2 1822   1.290   2.061   0.289  1.1675 -0.1325 -1.1662
  606TIP3   OH2 1823   4.309   1.325   2.190 -0.2750  0.1835 -0.3182
  606TIP3    H1 1824   4.274   1.268   2.121  2.5612 -2.0013 -0.1423
  606TIP3    H2 1825   4.277   1.287   2.271  1.4951 -1.1549 -0.2078
  607TIP3   OH2 1826   6.289   1.414   1.862 -0.5382 -0.6481 -0.3974
  607TIP3    H1 1827   6.234   1.420   1.940 -0.4832 -0.5623 -0.3658
  607TIP3    H2 1828   6.354   1.483   1.873  2.0108 -3.1268  1.4814
  608TIP3   OH2 1829   3.599   2.793   1.324  0.3902  0.5033 -0.0048
  608TIP3    H1 1830   3.682   2.837   1.306 -0.1956  2.2666  1.3928
  608TIP3    H2 1831   3.596   2.783   1.419 -0.9946  0.4350 -0.0348
  609TIP3   OH2 1832   3.897   3.911   3.645  0.0677 -0.1618  0.0143
  609TIP3    H1 1833   3.809   3.945   3.629  0.7198  1.4287 -0.3818
  609TIP3    H2 1834   3.916   3.858   3.568 -0.6850 -0.8461  0.2845
  610TIP3   OH2 1835   5.714   1.279   4.386  0.1127 -0.5773 -0.4809
  610TIP3    H1 1836   5.636   1.302   4.437  0.5607 -0.8238  0.3345
  610TIP3    H2 1837   5.715   1.342   4.314  0.7430  1.3622  1.1146
  611TIP3   OH2 1838   1.956   5.863   1.701 -0.6034  0.0201  0.3020
  611TIP3    H1 1839   1.955   5.945   1.653 -1.1464 -1.5076 -2.4986
  611TIP3    H2 1840   1.928   5.886   1.789 -1.0669  2.7547 -0.4890
  612TIP3   OH2 1841   2.146   1.394   3.265 -0.5246 -0.5753 -0.3326
  612TIP3    H1 1842   2.095   1.433   3.194 -1.5550 -0.0589  0.6733
  612TIP3    H2 1843   2.237   1.408   3.239 -0.8740  1.0937 -0.7560
  613TIP3   OH2 1844   3.697   5.896   3.434  0.4986 -0.4126 -0.3156
  613TIP3    H1 1845   3.674   5.881   3.343 -0.9165 -0.4273  0.0262
  613TIP3    H2 1846   3.623   5.862   3.484  1.0235  0.0490  0.8204
  614TIP3   OH2 1847   4.450   4.016   3.726 -0.1201 -0.1647 -0.0881
  614TIP3    H1 1848   4.412   4.057   3.649  0.2228 -1.9009 -1.2310
  614TIP3    H2 1849   4.401   3.934   3.737  0.8283 -0.6642  0.6288
  615TIP3   OH2 1850   1.240   4.832   3.524 -0.6116 -0.1586 -0.2251
  615TIP3    H1 1851   1.160   4.818   3.576  0.0400  0.4940  1.0258
  615TIP3    H2 1852   1.286   4.749   3.527 -1.4677 -0.6976 -1.3934
  616TIP3   OH2 1853   0.432   4.936   1.696  0.7502  0.0163 -0.4763
  616TIP3    H1 1854   0.394   5.016   1.732 -0.7647 -0.3299 -1.2296
  616TIP3    H2 1855   0.527   4.951   1.701  0.5399  1.1551  0.9144
  617TIP3   OH2 1856   0.935   5.998   1.284 -0.0869 -0.2500 -0.9420
  617TIP3    H1 1857   0.926   5.985   1.190 -0.7595 -0.5198 -0.8484
  617TIP3    H2 1858   0.864   5.945   1.322  0.6683 -0.7902 -0.2449
  618TIP3   OH2 1859   1.051   3.270   4.868  0.2873 -0.4653 -0.6182
  618TIP3    H1 1860   1.121   3.288   4.806  1.4263 -2.8755 -0.1471
  618TIP3    H2 1861   1.095   3.232   4.944 -1.3229  0.1407  0.6963
  619TIP3   OH2 1862   2.684   3.470   2.915 -0.0578  0.1670  0.2247
  619TIP3    H1 1863   2.639   3.553   2.929  2.5545  2.3092 -2.7813
  619TIP3    H2 1864   2.757   3.472   2.978  1.0287  1.0817 -1.0119
  620TIP3   OH2 1865   4.283   2.373   2.231 -0.2459  0.1863  0.1081
  620TIP3    H1 1866   4.313   2.384   2.141  0.7825 -0.0998  0.3988
  620TIP3    H2 1867   4.350   2.319   2.272 -3.0208 -3.9982 -0.2050
  621TIP3   OH2 1868   4.373   3.421   0.699  0.3976  0.3846  0.3534
  621TIP3    H1 1869   4.469   3.421   0.703  0.5363  2.2276 -1.3203
  621TIP3    H2 1870   4.351   3.335   0.661  1.5078  0.5676 -0.7594
  622TIP3   OH2 1871   2.138   0.917   1.747 -0.0813  0.0039 -0.0378
  622TIP3    H1 1872   2.044   0.898   1.741  0.0873 -1.2086  0.7302
  622TIP3    H2 1873   2.146   0.979   1.820 -0.4465  1.6726 -1.3432
  623TIP3   OH2 1874   4.132   5.276   1.064 -0.7920 -0.7446  0.0775
  623TIP3    H1 1875   4.071   5.266   0.990 -0.2590  0.1733 -0.5039
  623TIP3    H2 1876   4.082   5.323   1.130 -0.5845  0.4351 -0.5867
  624TIP3   OH2 1877   0.108   4.390   5.129 -0.0974  0.5020  0.2937
  624TIP3    H1 1878   0.140   4.460   5.185 -0.3384  0.8334  0.0149
  624TIP3    H2 1879   0.025   4.422   5.095 -0.2981  0.0089  0.3058
  625TIP3   OH2 1880   0.369   1.798   2.820  0.6660 -0.0490 -0.3412
  625TIP3    H1 1881   0.375   1.848   2.739 -0.0609  1.0555  0.2702
  625TIP3    H2 1882   0.459   1.796   2.853  0.6656  1.0924 -0.2399
  626TIP3   OH2 1883   5.144   0.843   0.383  0.1067  0.5893 -0.4679
  626TIP3    H1 1884   5.150   0.826   0.289 -1.4317  0.3035 -0.5330
  626TIP3    H2 1885   5.060   0.887   0.394  0.3909  0.8545  0.7451
  627TIP3   OH2 1886   2.516   0.794   0.239  0.2690  0.2620  0.1556
  627TIP3    H1 1887   2.476   0.767   0.321  0.2305  0.4846  0.2108
  627TIP3    H2 1888   2.560   0.877   0.260 -0.1463  0.5618 -0.1646
  628TIP3   OH2 1889   3.850   2.374   4.645 -0.4001  0.0388 -0.2039
  628TIP3    H1 1890   3.863   2.352   4.737  1.9425  0.6877 -0.3139
  628TIP3    H2 1891   3.938   2.385   4.610 -1.2481  0.5186 -2.3617
  629TIP3   OH2 1892   5.754   1.330   3.171 -0.1892  0.5428 -0.3442
  629TIP3    H1 1893   5.828   1.370   3.124  0.0847 -0.9886 -1.2878
  629TIP3    H2 1894   5.730   1.254   3.118 -2.7564  1.2179 -0.3061
  630TIP3   OH2 1895   1.239   0.652   4.968  0.5641 -0.2777 -0.0420
  630TIP3    H1 1896   1.183   0.575   4.982  1.5894 -0.9774  0.2990
  630TIP3    H2 1897   1.239   0.663   4.873 -0.9797  0.3807 -0.0043
  631TIP3   OH2 1898   2.022   0.784   4.968  0.4820  0.0469  0.0243
  631TIP3    H1 1899   1.935   0.751   4.946  0.0378  0.8104  0.5548
  631TIP3    H2 1900   2.050   0.731   5.042  1.0717 -1.1106 -0.9896
  632TIP3   OH2 1901   0.552   0.190   3.493  0.1614 -0.0746 -0.3927
  632TIP3    H1 1902   0.497   0.244   3.551 -1.0687 -2.4546  0.8355
  632TIP3    H2 1903   0.591   0.252   3.432 -0.6002  2.2585  1.3303
  633TIP3   OH2 1904   4.763   3.007   0.908 -0.6421  0.2404 -0.2327
  633TIP3    H1 1905   4.775   3.013   0.813  1.0396 -0.0550 -0.0713
  633TIP3    H2 1906   4.807   2.926   0.932 -1.8342 -0.1594  0.7143
  634TIP3   OH2 1907   4.293   2.454   4.941  0.3543  1.0182  0.0294
  634TIP3    H1 1908   4.215   2.426   4.988  0.5618  1.2366  0.5125
  634TIP3    H2 1909   4.363   2.451   5.006  1.1224 -0.8306 -0.8087
  635TIP3   OH2 1910   3.561   2.938   2.853  0.0508 -0.0468  0.0262
  635TIP3    H1 1911   3.498   3.010   2.851  0.3859  0.2289 -1.0599
  635TIP3    H2 1912   3.573   2.913   2.761  1.8289  0.1958  0.1525
  636TIP3   OH2 1913   0.345   2.386   1.760 -0.1272 -0.4286  0.1178
  636TIP3    H1 1914   0.273   2.384   1.823 -0.0811  0.0094  0.1851
  636TIP3    H2 1915   0.312   2.337   1.684 -0.6300  0.0829  0.0024
  637TIP3   OH2 1916   5.827   3.741   3.087 -0.2820  0.3611 -0.0313
  637TIP3    H1 1917   5.845   3.835   3.085 -1.4927  0.5974 -0.3553
  637TIP3    H2 1918   5.914   3.700   3.090  0.2517  1.4856  0.3555
  638TIP3   OH2 1919   4.991   1.109   3.806 -0.2308 -0.3807 -0.4256
  638TIP3    H1 1920   5.037   1.070   3.880 -1.5324 -1.4615 -0.1435
  638TIP3    H2 1921   5.031   1.195   3.796  0.7346 -0.6544  0.8214
  639TIP3   OH2 1922   6.126   2.027   1.263 -0.7699  0.3088 -0.0856
  639TIP3    H1 1923   6.192   2.096   1.269 -0.9998  0.3961  2.9112
  639TIP3    H2 1924   6.175   1.945   1.273 -0.8709  0.2537 -0.0356
  640TIP3   OH2 1925   4.208   3.487   0.903  0.1964  0.2819 -0.0914
  640TIP3    H1 1926   4.222   3.581   0.897  1.3778  0.2462  1.2928
  640TIP3    H2 1927   4.267   3.449   0.838 -0.2825  0.5000 -0.6506
  641TIP3   OH2 1928   2.279   3.239   4.765  0.4967  0.4303 -0.2833
  641TIP3    H1 1929   2.301   3.161   4.715  0.1849  1.4440 -2.0708
  641TIP3    H2 1930   2.299   3.312   4.707 -1.8826  1.6005  0.2222
  642TIP3   OH2 1931   0.038   4.539   1.741 -1.0869 -0.7969  0.0450
  642TIP3    H1 1932  -0.030   4.578   1.797 -0.7863  1.1458 -0.8689
  642TIP3    H2 1933   0.065   4.610   1.683  0.8747 -1.8748 -0.4460
  643TIP3   OH2 1934   2.415   2.788   3.915  0.0190 -0.0298  0.0400
  643TIP3    H1 1935   2.392   2.753   3.829  1.2777 -1.1440  0.1125
  643TIP3    H2 1936   2.450   2.712   3.963  1.4228  1.0197  0.7533
  644TIP3   OH2 1937   1.194   1.309   0.393 -0.7329  0.7647  0.3528
  644TIP3    H1 1938   1.273   1.311   0.339 -1.7337  1.8240 -1.1555
  644TIP3    H2 1939   1.226   1.290   0.482  1.1495  0.7547 -0.2838
  645TIP3   OH2 1940   2.071   0.071   1.240  0.1366  0.5225 -0.4055
  645TIP3    H1 1941   2.027   0.054   1.156 -0.0029 -0.4845 -0.1525
  645TIP3    H2 1942   1.999   0.074   1.303  0.1972  1.7832 -0.3773
  646TIP3   OH2 1943   4.323   0.605   1.806  0.3539 -0.0126  0.2830
  646TIP3    H1 1944   4.331   0.528   1.862  1.5121  1.0841  1.7140
  646TIP3    H2 1945   4.319   0.679   1.868 -2.6229  1.0037 -0.9320
  647TIP3   OH2 1946   0.530   4.104   3.280  0.5347  0.3689 -0.0375
  647TIP3    H1 1947   0.571   4.104   3.194  2.7887  0.1962  0.9733
  647TIP3    H2 1948   0.474   4.026   3.279  2.7840 -1.3664 -0.4066
  648TIP3   OH2 1949   3.302   1.142   1.320  0.1259 -0.1925  0.1339
  648TIP3    H1 1950   3.207   1.140   1.312 -0.1435 -0.9737  2.5771
  648TIP3    H2 1951   3.334   1.108   1.236 -1.7990 -1.4470 -0.1472
  649TIP3   OH2 1952   4.906   0.324   0.069  0.2492  1.0432 -0.0811
  649TIP3    H1 1953   4.951   0.365  -0.005  0.0174 -1.3296 -1.6305
  649TIP3    H2 1954   4.855   0.253   0.030  0.6312 -0.7372  2.4322
  650TIP3   OH2 1955   3.721   0.604   0.115 -0.4055  0.1840 -0.2974
  650TIP3    H1 1956   3.767   0.668   0.060 -0.4925  0.1321 -0.4323
  650TIP3    H2 1957   3.788   0.571   0.175 -0.3847  0.4809 -0.1533
  651TIP3   OH2 1958   5.818   5.735   3.448 -0.0765 -0.2345 -0.0084
  651TIP3    H1 1959   5.811   5.752   3.354  0.8869 -0.6622 -0.1621
  651TIP3    H2 1960   5.865   5.811   3.483  1.7430 -1.1875 -0.2686
  652TIP3   OH2 1961   3.176   5.733   0.070  0.4435 -0.2796  0.2253
  652TIP3    H1 1962   3.210   5.662   0.016  2.4694  1.0347 -0.3274
  652TIP3    H2 1963   3.111   5.691   0.126  0.7263 -2.3281 -0.8754
  653TIP3   OH2 1964   1.692   0.127   4.752 -0.3322  0.5181 -0.2134
  653TIP3    H1 1965   1.650   0.075   4.683  0.0879 -0.1398  0.0153
  653TIP3    H2 1966   1.726   0.062   4.813 -1.6880  1.0929  1.2308
  654TIP3   OH2 1967   0.488   4.524   5.185  0.4778  0.6732  0.6415
  654TIP3    H1 1968   0.483   4.617   5.162  2.1276  0.5973 -0.1909
  654TIP3    H2 1969   0.461   4.478   5.106  0.8015  0.4396  0.6660
  655TIP3   OH2 1970   0.107   4.262   0.195  0.0199 -0.3350  0.1219
  655TIP3    H1 1971   0.092   4.324   0.266 -0.6609  0.1468 -0.4326
  655TIP3    H2 1972   0.197   4.233   0.207 -0.0666 -0.2285  1.1541
  656TIP3   OH2 1973   4.865   1.987   0.651  0.0448  0.0318 -0.0217
  656TIP3    H1 1974   4.804   1.925   0.612  0.6615 -0.6757  0.0975
  656TIP3    H2 1975   4.859   1.971   0.745  1.8374 -1.4868 -0.0942
  657TIP3   OH2 1976   1.590   0.996   0.879 -0.5769 -0.6147 -0.0933
  657TIP3    H1 1977   1.578   1.038   0.964 -0.0466 -0.5335 -0.0557
  657TIP3    H2 1978   1.512   0.942   0.868 -0.5075 -0.8605  0.5857
  658TIP3   OH2 1979   5.162   1.469   3.104  0.3753 -0.4277  0.0242
  658TIP3    H1 1980   5.203   1.382   3.097  0.6517 -0.2101 -1.2880
  658TIP3    H2 1981   5.074   1.456   3.070  0.2968 -0.2759  0.1726
  659TIP3   OH2 1982   4.640   5.211   4.052  0.0846 -0.7811 -0.0460
  659TIP3    H1 1983   4.550   5.208   4.019 -0.2223  1.3282  0.4747
  659TIP3    H2 1984   4.693   5.180   3.978 -1.0018 -1.4824 -0.5627
  660TIP3   OH2 1985   5.364   0.625   2.532 -0.0077 -0.2270 -0.3339
  660TIP3    H1 1986   5.371   0.720   2.522  0.0618 -0.2210 -0.2372
  660TIP3    H2 1987   5.270   0.608   2.537 -0.0237 -0.1727 -0.4429
  661TIP3   OH2 1988   5.561   3.927   4.587  0.2961  0.0247  0.6418
  661TIP3    H1 1989   5.633   3.865   4.599 -1.7036 -2.8055 -0.6028
  661TIP3    H2 1990   5.532   3.948   4.676 -0.3269 -2.7105  1.1830
  662TIP3   OH2 1991   1.866   3.357   2.662  0.6764  0.2122  0.2071
  662TIP3    H1 1992   1.824   3.273   2.645  0.6653  0.6795 -2.4711
  662TIP3    H2 1993   1.799   3.410   2.705 -0.4724 -0.0756 -1.1611
  663TIP3   OH2 1994   5.044   1.199   0.507 -0.0141  0.2005 -0.4197
  663TIP3    H1 1995   5.023   1.217   0.416  1.5428 -1.6464 -1.2135
  663TIP3    H2 1996   5.043   1.103   0.514  0.9479  0.2606  1.2295
  664TIP3   OH2 1997   3.119   4.050   2.915  0.0667 -0.2719  0.0033
  664TIP3    H1 1998   3.039   4.102   2.924 -1.2703 -2.1614 -0.4591
  664TIP3    H2 1999   3.116   4.017   2.825  0.2254 -2.1189  0.6323
  665TIP3   OH2 2000   6.318   0.737   1.988 -0.1337  0.3166 -0.5236
  665TIP3    H1 2001   6.293   0.722   1.897  0.3852  0.8219 -0.7588
  665TIP3    H2 2002   6.379   0.666   2.008 -0.9132 -0.2968 -0.2880
  666TIP3   OH2 2003   0.743   3.442   2.754 -0.1324  0.6930 -0.0873
  666TIP3    H1 2004   0.799   3.379   2.800  0.5600  0.1182 -1.6479
  666TIP3    H2 2005   0.791   3.464   2.674 -1.8240  0.6777 -1.1732
  667TIP3   OH2 2006   2.147   4.600   3.695  0.2511 -0.0458  0.3339
  667TIP3    H1 2007   2.215   4.572   3.634 -1.0429 -0.0849 -1.1519
  667TIP3    H2 2008   2.072   4.543   3.675 -1.1208  1.7869  0.0158
  668TIP3   OH2 2009   4.124   0.513   2.235 -0.0913 -0.3041  0.3844
  668TIP3    H1 2010   4.081   0.598   2.241  0.1022 -0.2350  0.8787
  668TIP3    H2 2011   4.082   0.459   2.301  0.4781 -0.2783  0.7764
  669TIP3   OH2 2012   4.174   1.978   1.568 -0.5659 -0.1113 -0.0417
  669TIP3    H1 2013   4.131   1.910   1.516  0.7990  0.2315 -1.7266
  669TIP3    H2 2014   4.214   1.931   1.641 -0.1561 -1.0536 -0.8442
  670TIP3   OH2 2015   5.890   1.863   2.338  0.3958  0.3239  0.2053
  670TIP3    H1 2016   5.928   1.788   2.294  0.2078  0.2803  0.1182
  670TIP3    H2 2017   5.817   1.827   2.389 -0.5487  0.6297 -0.8826
  671TIP3   OH2 2018   1.319   1.955   3.599  0.1479  0.1958 -0.1438
  671TIP3    H1 2019   1.397   1.900   3.591  0.1741  0.2981 -0.6563
  671TIP3    H2 2020   1.341   2.034   3.550 -0.1709  0.3472 -0.0434
  672TIP3   OH2 2021   1.848   2.084   0.249 -0.2214  0.1194 -0.4263
  672TIP3    H1 2022   1.907   2.142   0.296  0.8420 -0.6166 -0.8237
  672TIP3    H2 2023   1.788   2.143   0.203 -1.0620  0.8516  1.5058
  673TIP3   OH2 2024   5.675   4.782   2.267  0.3781  0.1865 -0.5801
  673TIP3    H1 2025   5.681   4.804   2.360  0.7688 -0.7507 -0.3785
  673TIP3    H2 2026   5.682   4.866   2.222 -0.3626  0.7073  0.2542
  674TIP3   OH2 2027   0.846   0.754   3.439 -0.1115  0.1837 -0.0629
  674TIP3    H1 2028   0.831   0.808   3.516  1.1455 -1.2553  1.2851
  674TIP3    H2 2029   0.784   0.785   3.374  0.0659  2.6989  0.8831
  675TIP3   OH2 2030   3.120   4.043   2.630  0.2499 -0.0547 -0.1281
  675TIP3    H1 2031   3.057   4.093   2.578 -0.6095  1.1155  1.9300
  675TIP3    H2 2032   3.074   3.963   2.653 -0.1218  0.3208  0.4688
  676TIP3   OH2 2033   1.247   4.743   1.171  0.1328  0.3661 -0.3546
  676TIP3    H1 2034   1.242   4.783   1.258  0.9576  2.1395 -1.0652
  676TIP3    H2 2035   1.158   4.748   1.137 -0.3719 -1.1002  0.6762
  677TIP3   OH2 2036   4.673   4.220   4.575 -0.4098  0.9800 -0.2036
  677TIP3    H1 2037   4.609   4.265   4.519 -1.3954 -0.9358 -0.6943
  677TIP3    H2 2038   4.632   4.137   4.597  1.3386  0.2977  0.6908
  678TIP3   OH2 2039   2.944   0.639   3.922 -0.0728 -0.2675 -0.3784
  678TIP3    H1 2040   2.936   0.653   3.827 -0.2882 -1.0045 -0.4796
  678TIP3    H2 2041   2.972   0.723   3.957  1.4494 -0.3615 -1.2810
  679TIP3   OH2 2042   0.631   0.871   1.280  0.5521  0.2986  0.2903
  679TIP3    H1 2043   0.594   0.959   1.288  0.4859  0.3669 -0.7345
  679TIP3    H2 2044   0.626   0.835   1.369  0.5230  1.3019  0.7085
  680TIP3   OH2 2045   2.737   3.545   3.606  1.2245 -0.3913  1.0547
  680TIP3    H1 2046   2.804   3.509   3.663 -1.0137 -1.9452  2.8948
  680TIP3    H2 2047   2.728   3.479   3.536 -0.3513 -1.7422  2.4429
  681TIP3   OH2 2048   2.221   5.842   0.505 -0.1235  0.0522 -0.0877
  681TIP3    H1 2049   2.300   5.800   0.540  0.7614  1.0820 -0.8165
  681TIP3    H2 2050   2.248   5.878   0.421 -1.1223  1.2345  0.0731
  682TIP3   OH2 2051   0.877   0.254   0.883  0.0756 -0.3351  0.1258
  682TIP3    H1 2052   0.885   0.341   0.922  0.9306 -0.0123 -0.7363
  682TIP3    H2 2053   0.787   0.227   0.902 -0.4964  1.1297 -0.4125
  683TIP3   OH2 2054   0.524   4.524   4.258 -1.2102  0.3351 -0.3598
  683TIP3    H1 2055   0.557   4.523   4.168  1.1940 -0.1624  0.4519
  683TIP3    H2 2056   0.457   4.455   4.259 -0.2248 -0.6951 -1.4402
  684TIP3   OH2 2057   6.248   2.845   0.901  0.0643 -0.0316  0.1638
  684TIP3    H1 2058   6.211   2.770   0.855  1.8419 -0.4279 -0.7215
  684TIP3    H2 2059   6.231   2.919   0.842  0.0949 -0.1009  0.0668
  685TIP3   OH2 2060   4.353   5.544   3.717 -0.1462  0.3183 -0.2918
  685TIP3    H1 2061   4.281   5.483   3.697  0.5097 -0.4057 -0.5020
  685TIP3    H2 2062   4.309   5.626   3.740 -1.0084  0.4736 -2.3143
  686TIP3   OH2 2063   5.019   5.720   1.401  0.2238 -0.3376 -0.4614
  686TIP3    H1 2064   5.093   5.661   1.415  0.4225  0.1961  0.8542
  686TIP3    H2 2065   4.955   5.695   1.467  0.0141  0.4311 -0.3662
  687TIP3   OH2 2066   2.227   1.716   1.632  0.1100  0.1184 -0.4148
  687TIP3    H1 2067   2.132   1.718   1.633 -0.0137 -2.4531 -0.4622
  687TIP3    H2 2068   2.253   1.743   1.720 -0.6873  0.5240 -0.3034
  688TIP3   OH2 2069   5.498   2.555   0.266 -0.2857 -0.1255  0.1900
  688TIP3    H1 2070   5.556   2.562   0.191  0.5383 -3.0749  0.4271
  688TIP3    H2 2071   5.556   2.556   0.342 -0.6890 -1.3042  0.5338
  689TIP3   OH2 2072   6.038   5.188   2.954  0.5875  0.0841 -0.4547
  689TIP3    H1 2073   5.994   5.103   2.959  0.5468  0.0597 -1.1736
  689TIP3    H2 2074   6.051   5.213   3.046 -1.1122  0.2018 -0.2201
  690TIP3   OH2 2075   0.772   0.711   1.821 -0.1707  0.1910  0.6114
  690TIP3    H1 2076   0.722   0.697   1.901 -1.3584  0.1547 -0.1167
  690TIP3    H2 2077   0.775   0.625   1.779 -1.3330  0.5972 -0.3655
  691TIP3   OH2 2078   2.421   3.459   2.670  0.3412 -0.3389 -0.1290
  691TIP3    H1 2079   2.402   3.444   2.763 -0.3965 -1.3282 -0.4215
  691TIP3    H2 2080   2.363   3.398   2.624  1.0915 -0.2453 -1.2223
  692TIP3   OH2 2081   5.871   0.561   0.859  0.2430  1.0206  0.2098
  692TIP3    H1 2082   5.844   0.564   0.767 -1.1927  1.5619  0.6084
  692TIP3    H2 2083   5.962   0.590   0.859  1.1594 -1.5185 -1.3072
  693TIP3   OH2 2084   6.384   4.018   3.402 -0.1556  0.1607  0.0659
  693TIP3    H1 2085   6.342   4.058   3.325 -0.7290 -0.7661 -0.1160
  693TIP3    H2 2086   6.315   4.015   3.468  0.5144  1.5864  0.8926
  694TIP3   OH2 2087   1.690   5.852   2.218 -0.2542  0.0291  0.2340
  694TIP3    H1 2088   1.655   5.832   2.131  1.0918  0.2549 -0.3892
  694TIP3    H2 2089   1.720   5.768   2.252  0.4406  0.1327 -0.0997
  695TIP3   OH2 2090   2.856   1.756   3.758 -0.0850 -0.0671 -0.3685
  695TIP3    H1 2091   2.942   1.757   3.716 -0.1195 -0.8373 -0.4702
  695TIP3    H2 2092   2.794   1.748   3.686 -0.1302 -1.7033 -0.1861
  696TIP3   OH2 2093   0.060   1.347   0.368 -0.4660  0.0913  0.6197
  696TIP3    H1 2094   0.091   1.420   0.421 -0.2942 -0.3299  1.1181
  696TIP3    H2 2095   0.049   1.383   0.281  0.8640  0.4187  0.5544
  697TIP3   OH2 2096   4.819   1.859   1.965 -0.4051  0.3321  0.6119
  697TIP3    H1 2097   4.863   1.801   1.902  0.5262  0.4169  1.1636
  697TIP3    H2 2098   4.809   1.942   1.918  0.3621  0.4230  0.5961
  698TIP3   OH2 2099   4.886   3.397   1.266 -0.1524  0.0654 -0.1319
  698TIP3    H1 2100   4.885   3.302   1.251 -4.0341 -0.0159 -0.3475
  698TIP3    H2 2101   4.903   3.434   1.179 -3.5440 -0.5321 -1.1818
  699TIP3   OH2 2102   5.577   1.125   0.977  0.0933 -0.0582 -0.0056
  699TIP3    H1 2103   5.531   1.157   1.054 -0.1428 -1.0043  0.2538
  699TIP3    H2 2104   5.550   1.185   0.907  1.1873  1.5018  0.8424
  700TIP3   OH2 2105   6.174   0.397   1.118 -0.2952 -0.2525 -0.6630
  700TIP3    H1 2106   6.227   0.377   1.041 -0.3208  1.0477 -1.0345
  700TIP3    H2 2107   6.085   0.374   1.093 -0.1192 -1.1389 -0.5192
  701TIP3   OH2 2108   5.936   2.794   1.396 -0.0434  0.9326  0.0504
  701TIP3    H1 2109   5.842   2.791   1.383 -0.1683  1.0063  0.8518
  701TIP3    H2 2110   5.948   2.853   1.471  0.5675  0.2239  0.5319
  702TIP3   OH2 2111   0.395   3.048   3.937  0.2321  0.0202 -0.0155
  702TIP3    H1 2112   0.423   3.138   3.956  0.1499  0.0379  0.0234
  702TIP3    H2 2113   0.339   3.056   3.859 -0.6836  0.1540  0.6340
  703TIP3   OH2 2114   0.250   1.030   4.282 -0.5513 -0.3404 -0.3421
  703TIP3    H1 2115   0.203   1.027   4.365  0.2789 -1.9662  0.0982
  703TIP3    H2 2116   0.252   0.940   4.251  1.1698 -0.1379 -0.9624
  704TIP3   OH2 2117   4.482   1.854   2.036 -0.2714 -0.2801  0.3841
  704TIP3    H1 2118   4.475   1.760   2.057  0.3751 -0.5749 -0.6468
  704TIP3    H2 2119   4.526   1.856   1.951 -0.4028  0.9646  0.3330
  705TIP3   OH2 2120   3.511   1.670   4.811  0.0967 -0.0826  0.0368
  705TIP3    H1 2121   3.519   1.641   4.720 -1.1922  0.9077 -0.4201
  705TIP3    H2 2122   3.583   1.733   4.822  0.5564 -0.5654 -0.1322
  706TIP3   OH2 2123   2.279   5.941   0.229 -0.2317 -0.4819 -0.1944
  706TIP3    H1 2124   2.310   6.016   0.178 -0.3680 -0.8787 -0.8730
  706TIP3    H2 2125   2.190   5.925   0.196 -0.0537 -1.1953 -0.3594
  707TIP3   OH2 2126   1.076   2.626   0.713  0.8323 -0.4343  0.2745
  707TIP3    H1 2127   1.089   2.599   0.622  0.3347 -1.8901  0.6104
  707TIP3    H2 2128   1.117   2.557   0.764  1.2738  0.4715  1.1696
  708TIP3   OH2 2129   0.284   1.715   2.395  0.2857  0.1278  0.5141
  708TIP3    H1 2130   0.349   1.717   2.325 -0.2626 -3.1122 -0.2314
  708TIP3    H2 2131   0.330   1.674   2.468  0.4769  2.3821  1.7498
  709TIP3   OH2 2132   3.762   0.329   0.610  0.2073  0.0615  0.4969
  709TIP3    H1 2133   3.838   0.333   0.668 -1.6726  2.4085  3.0771
  709TIP3    H2 2134   3.743   0.236   0.601  3.1079 -0.5602  0.0809
  710TIP3   OH2 2135   4.849   5.870   3.703 -0.3070 -0.3763  0.0005
  710TIP3    H1 2136   4.812   5.958   3.698 -0.6648 -0.5361 -0.1625
  710TIP3    H2 2137   4.939   5.880   3.671  0.2124  0.2463  1.5533
  711TIP3   OH2 2138   0.359   1.613   0.388  0.2864 -0.4652  0.3331
  711TIP3    H1 2139   0.319   1.610   0.302  0.9309  3.2383 -0.2755
  711TIP3    H2 2140   0.289   1.645   0.446  0.6407 -0.0339  0.5355
  712TIP3   OH2 2141   2.890   2.359   0.235 -0.0727 -0.2083 -0.1441
  712TIP3    H1 2142   2.932   2.423   0.292 -0.6433  2.7757 -2.7523
  712TIP3    H2 2143   2.940   2.365   0.153 -1.5799 -1.4374 -1.2010
  713TIP3   OH2 2144   2.018   2.125   1.149  0.1644  0.1025  0.0682
  713TIP3    H1 2145   1.968   2.076   1.215 -1.4809 -0.5067 -1.5031
  713TIP3    H2 2146   1.992   2.216   1.162 -0.9649 -0.1391 -0.3582
  714TIP3   OH2 2147   2.319   5.019   0.935 -0.5875  0.2804  0.4959
  714TIP3    H1 2148   2.412   5.043   0.936 -0.0618 -1.4990 -0.3914
  714TIP3    H2 2149   2.273   5.099   0.959  1.1609  1.2951  0.6380
  715TIP3   OH2 2150   4.779   3.093   3.970  0.2015 -0.5614  0.0447
  715TIP3    H1 2151   4.716   3.070   3.901  0.0826 -0.4748  0.1242
  715TIP3    H2 2152   4.727   3.094   4.050 -0.2124  1.6977 -0.1730
  716TIP3   OH2 2153   4.620   2.100   2.810  0.5332  0.0098  0.1344
  716TIP3    H1 2154   4.578   2.032   2.862 -0.8294 -1.3130 -2.4981
  716TIP3    H2 2155   4.678   2.052   2.751  1.7072  1.4042  0.1081
  717TIP3   OH2 2156   0.101   2.695   4.851 -0.1141  0.6487  0.5429
  717TIP3    H1 2157   0.133   2.767   4.796  0.9888 -0.5724 -0.4760
  717TIP3    H2 2158   0.016   2.673   4.815  0.7482 -0.3775 -0.9942
  718TIP3   OH2 2159   4.005   2.290   2.484 -0.6155 -0.1248 -0.2593
  718TIP3    H1 2160   4.072   2.306   2.418 -0.0901 -0.8513  0.0916
  718TIP3    H2 2161   3.938   2.240   2.439 -0.0511 -1.0058 -0.1396
  719TIP3   OH2 2162   5.648   2.244   0.397 -0.4384  0.0025 -0.5392
  719TIP3    H1 2163   5.724   2.191   0.421  0.8373  1.1977 -1.7770
  719TIP3    H2 2164   5.664   2.329   0.438 -1.0603  0.3090 -0.9105
  720TIP3   OH2 2165   1.299   1.912   4.573 -0.2501  0.4384 -0.4000
  720TIP3    H1 2166   1.208   1.913   4.603 -0.0068  0.1375  0.3723
  720TIP3    H2 2167   1.336   1.995   4.605 -0.1991  0.4709 -0.5428
  721TIP3   OH2 2168   0.256   4.380   0.838  0.2620 -0.2740  0.0952
  721TIP3    H1 2169   0.331   4.379   0.778 -2.0373  0.9341 -3.0456
  721TIP3    H2 2170   0.266   4.461   0.888  0.8583  0.0431 -0.5225
  722TIP3   OH2 2171   2.668   4.741   2.271  0.0703 -0.1546  0.2877
  722TIP3    H1 2172   2.749   4.745   2.322 -0.2645  0.6559  0.7760
  722TIP3    H2 2173   2.600   4.768   2.332 -0.6915 -1.6075  0.1102
  723TIP3   OH2 2174   4.649  -0.009   3.502  0.6119 -0.1571  0.0568
  723TIP3    H1 2175   4.683   0.072   3.464 -0.0518  1.3632  2.4859
  723TIP3    H2 2176   4.554   0.001   3.498  0.5290  0.0588  2.0529
  724TIP3   OH2 2177   4.752   4.600   0.485 -0.3231  0.2371  0.5572
  724TIP3    H1 2178   4.736   4.693   0.466  0.4795  0.4151  0.7145
  724TIP3    H2 2179   4.720   4.554   0.407 -0.7647  0.6406  0.4953
  725TIP3   OH2 2180   5.625   1.865   0.346 -1.0058  0.4330 -0.3493
  725TIP3    H1 2181   5.572   1.798   0.304 -0.7439  0.5841 -0.9445
  725TIP3    H2 2182   5.673   1.906   0.274 -0.6408  0.7924  0.0868
  726TIP3   OH2 2183   6.002   0.066   4.015 -0.6400  0.4384  0.7032
  726TIP3    H1 2184   5.991  -0.029   4.010 -1.9056  0.5255  1.3747
  726TIP3    H2 2185   6.041   0.082   4.101 -1.9544  0.6080  1.3006
  727TIP3   OH2 2186   5.203   1.272   1.443  0.0272  0.0442 -0.0772
  727TIP3    H1 2187   5.229   1.359   1.412  0.5420  0.3303  1.1117
  727TIP3    H2 2188   5.109   1.279   1.455 -0.0092  0.2795 -0.4561
  728TIP3   OH2 2189   3.061   5.765   3.319  0.6556 -0.4601 -0.6047
  728TIP3    H1 2190   3.005   5.833   3.356  0.2423 -2.1663  2.1494
  728TIP3    H2 2191   3.110   5.730   3.393  3.0348 -1.2332 -2.3991
  729TIP3   OH2 2192   3.439   5.526   1.939  0.2817 -0.1605  0.7529
  729TIP3    H1 2193   3.467   5.617   1.931  0.4769 -0.1608  1.3829
  729TIP3    H2 2194   3.375   5.526   2.009  1.4827 -0.7507  1.9048
  730TIP3   OH2 2195   6.194   3.327   0.233 -0.1636 -0.4741  0.4297
  730TIP3    H1 2196   6.177   3.295   0.145  1.3585  0.0429 -0.0893
  730TIP3    H2 2197   6.265   3.272   0.266  0.5376  0.5041  0.6099
  731TIP3   OH2 2198   5.636   0.572   2.405 -0.2030 -0.0442  0.4450
  731TIP3    H1 2199   5.616   0.627   2.329  0.0309  1.1680  1.2335
  731TIP3    H2 2200   5.577   0.603   2.474 -0.2227 -0.9444  0.8537
  732TIP3   OH2 2201   4.102   0.321   0.594 -0.1367 -0.1158  0.2585
  732TIP3    H1 2202   4.158   0.374   0.537 -0.5735 -0.5742 -0.6361
  732TIP3    H2 2203   4.141   0.233   0.590 -0.5451 -0.2946  0.1279
  733TIP3   OH2 2204   1.416   4.541   4.198  0.0221  0.1723  0.1230
  733TIP3    H1 2205   1.425   4.471   4.262  0.3838 -0.0221 -0.1453
  733TIP3    H2 2206   1.486   4.526   4.134 -0.7133 -0.0003 -0.6648
  734TIP3   OH2 2207   2.141   0.228   3.633  0.1278 -0.0108 -0.2677
  734TIP3    H1 2208   2.125   0.231   3.539 -1.1269  0.8351 -0.0637
  734TIP3    H2 2209   2.233   0.203   3.642  0.3609  0.2608 -1.7231
  735TIP3   OH2 2210   3.365   5.822   3.031  0.0805 -0.8661 -0.2070
  735TIP3    H1 2211   3.317   5.868   2.962  0.3383 -0.7137 -0.2870
  735TIP3    H2 2212   3.457   5.844   3.016  0.2158 -1.4482 -0.2778
  736TIP3   OH2 2213   6.060   0.938   5.095  0.0336  0.2093  0.1832
  736TIP3    H1 2214   6.101   0.968   5.014 -0.1927 -0.3659 -0.1527
  736TIP3    H2 2215   5.989   0.881   5.066  1.4152 -1.9353  0.7874
  737TIP3   OH2 2216   5.040   2.139   0.255  0.3333 -0.0308 -0.5992
  737TIP3    H1 2217   4.978   2.203   0.288  0.2607 -0.0149 -0.7641
  737TIP3    H2 2218   5.017   2.057   0.299  1.6884  0.4653  1.1548
  738TIP3   OH2 2219   3.282   3.609   1.700  0.2216 -0.4040 -0.2362
  738TIP3    H1 2220   3.216   3.554   1.740  1.0819 -0.9887  0.4108
  738TIP3    H2 2221   3.355   3.550   1.680 -0.3697 -0.2955 -3.2840
  739TIP3   OH2 2222   3.814   3.086   0.737  0.0786 -0.4328  0.0496
  739TIP3    H1 2223   3.852   3.092   0.825  1.2856  0.0424 -0.4817
  739TIP3    H2 2224   3.828   2.994   0.712 -0.1576 -0.5383  0.2921
  740TIP3   OH2 2225   4.335   2.137   2.422  0.0722 -0.0352  0.0053
  740TIP3    H1 2226   4.269   2.078   2.386  0.8744  0.2823 -2.1426
  740TIP3    H2 2227   4.300   2.163   2.507 -1.4813 -1.6191 -0.0855
  741TIP3   OH2 2228   2.370   5.632   2.116 -0.2990  0.3925  0.0994
  741TIP3    H1 2229   2.356   5.700   2.050  0.4917  1.4086  0.9379
  741TIP3    H2 2230   2.464   5.614   2.110 -0.6149 -1.1487 -0.5781
  742TIP3   OH2 2231   5.029   2.572   0.322 -0.4006 -0.0567  0.1190
  742TIP3    H1 2232   5.100   2.514   0.347 -1.3493 -0.1657  2.8627
  742TIP3    H2 2233   4.952   2.516   0.319 -0.8724  0.5804  0.1429
  743TIP3   OH2 2234   1.114   4.538   3.508 -0.1967 -0.0997  0.0829
  743TIP3    H1 2235   1.139   4.458   3.461  0.5893  0.8110 -1.1115
  743TIP3    H2 2236   1.197   4.571   3.544 -0.3583  0.6460 -0.2063
  744TIP3   OH2 2237   4.221   4.072   0.646  0.6213 -0.0186 -0.0823
  744TIP3    H1 2238   4.250   3.985   0.617 -0.0356 -1.0413  2.1138
  744TIP3    H2 2239   4.136   4.057   0.686 -0.9534  2.1951 -2.2908
  745TIP3   OH2 2240   1.926   4.737   1.217 -0.4877 -0.2031  0.2518
  745TIP3    H1 2241   1.873   4.817   1.216  0.1128  0.1977  0.2546
  745TIP3    H2 2242   1.872   4.674   1.266 -1.0458  0.1367  0.0862
  746TIP3   OH2 2243   5.689   1.372   4.817  0.1650  0.2114  0.3975
  746TIP3    H1 2244   5.615   1.431   4.806 -0.2186  0.2037  2.5378
  746TIP3    H2 2245   5.766   1.426   4.800 -0.1981  1.1952  1.7466
  747TIP3   OH2 2246   1.830   1.041   4.998  0.4569 -0.2048  0.4265
  747TIP3    H1 2247   1.748   1.006   4.962  0.1355  1.1699 -0.2569
  747TIP3    H2 2248   1.897   1.015   4.936  0.6474 -1.7763  1.2501
  748TIP3   OH2 2249   2.638   4.167   4.362  0.4644 -0.1328 -0.0899
  748TIP3    H1 2250   2.731   4.184   4.347 -0.1272  1.0861 -3.0312
  748TIP3    H2 2251   2.610   4.236   4.422  0.8752  1.3517 -1.5564
  749TIP3   OH2 2252   3.628   4.830   1.690  0.0997 -0.0442  0.0479
  749TIP3    H1 2253   3.550   4.812   1.743 -1.1590  0.7084 -1.4659
  749TIP3    H2 2254   3.593   4.851   1.603  1.9916  0.6156 -0.5912
  750TIP3   OH2 2255   4.553   2.526   3.270  0.1627 -0.1720  0.2031
  750TIP3    H1 2256   4.556   2.469   3.193  0.0743  0.7553 -0.5067
  750TIP3    H2 2257   4.460   2.528   3.295 -0.1135  0.9834 -0.8130
  751TIP3   OH2 2258   1.585   2.127   0.137 -0.1189  0.0327 -0.5187
  751TIP3    H1 2259   1.570   2.123   0.043  0.2101 -0.3229 -0.5583
  751TIP3    H2 2260   1.521   2.066   0.174  0.4801 -0.6557 -0.6012
  752TIP3   OH2 2261   4.419   1.645   4.363 -0.1755  0.0141 -0.2959
  752TIP3    H1 2262   4.508   1.610   4.367 -0.1636  0.1292  0.6977
  752TIP3    H2 2263   4.424   1.729   4.410 -0.6573  0.3634 -0.8471
  753TIP3   OH2 2264   6.296   2.950   4.851  0.1235 -0.1270  0.5127
  753TIP3    H1 2265   6.357   2.928   4.921  1.6010  0.4480 -0.5559
  753TIP3    H2 2266   6.257   2.866   4.826  1.6643 -0.7753  0.1599
  754TIP3   OH2 2267   6.135   4.328   1.531  0.4534  0.2938 -0.5372
  754TIP3    H1 2268   6.050   4.320   1.575  0.2703 -1.4321 -1.1379
  754TIP3    H2 2269   6.191   4.371   1.595 -0.7692  1.1498 -0.0026
  755TIP3   OH2 2270   1.830   4.204   2.368  0.0967 -0.2823  0.2575
  755TIP3    H1 2271   1.788   4.263   2.429  0.7309 -0.4030  0.8296
  755TIP3    H2 2272   1.779   4.123   2.373 -1.5059  0.5475 -1.4144
  756TIP3   OH2 2273   6.179   0.325   2.170 -0.1340  0.8697  0.6901
  756TIP3    H1 2274   6.227   0.378   2.235 -1.4781  1.6300  1.1133
  756TIP3    H2 2275   6.224   0.343   2.087  1.6428 -0.1482  1.3787
  757TIP3   OH2 2276   1.937   1.746   1.692 -0.2508 -0.1561  0.5848
  757TIP3    H1 2277   1.923   1.829   1.738 -0.5583 -0.2142  0.5958
  757TIP3    H2 2278   1.873   1.686   1.731 -0.0817 -0.3782  0.5231
  758TIP3   OH2 2279   3.717   2.855   4.629 -0.3959 -0.1268  0.2046
  758TIP3    H1 2280   3.692   2.789   4.693 -1.3694  0.0798  0.0530
  758TIP3    H2 2281   3.807   2.877   4.652 -0.2571 -1.0628  0.6289
  759TIP3   OH2 2282   4.317   0.187   3.300 -0.3740 -0.2122 -0.7544
  759TIP3    H1 2283   4.306   0.124   3.371 -0.2448  2.0012  1.3456
  759TIP3    H2 2284   4.389   0.152   3.247  0.6790 -1.0974  1.1722
  760TIP3   OH2 2285   0.430   2.149   4.866 -0.3577 -0.0117  0.1883
  760TIP3    H1 2286   0.358   2.194   4.911 -0.9311 -0.3281 -0.4026
  760TIP3    H2 2287   0.436   2.192   4.781 -0.6518 -0.7896 -0.2321
  761TIP3   OH2 2288   2.688   3.943   4.543 -0.5688 -0.7641 -0.5809
  761TIP3    H1 2289   2.760   3.980   4.494  1.6541 -0.8831  2.3081
  761TIP3    H2 2290   2.610   3.988   4.509  1.0917  0.9874 -2.3388
  762TIP3   OH2 2291   3.321   4.961   4.843  0.2194 -0.2338  0.3188
  762TIP3    H1 2292   3.265   4.884   4.837 -1.1132  0.7824 -1.3141
  762TIP3    H2 2293   3.273   5.021   4.900 -0.0749  0.3932 -0.5667
  763TIP3   OH2 2294   5.492   0.863   2.658  0.1744  0.4207  0.7524
  763TIP3    H1 2295   5.571   0.837   2.706 -0.0481 -2.4330 -0.2193
  763TIP3    H2 2296   5.425   0.872   2.726  0.8268  0.6879  1.3737
  764TIP3   OH2 2297   2.235   2.020   0.028 -0.1524 -0.0871 -0.5717
  764TIP3    H1 2298   2.303   2.087   0.032 -0.9665  0.7774 -0.7253
  764TIP3    H2 2299   2.155   2.068   0.005 -0.6584 -1.1873 -1.2142
  765TIP3   OH2 2300   5.505   0.592   4.412 -0.3123  0.1218 -0.5906
  765TIP3    H1 2301   5.456   0.649   4.471  0.6829  0.0976  0.2897
  765TIP3    H2 2302   5.440   0.533   4.375 -1.1259  0.8765 -0.3880
  766TIP3   OH2 2303   4.839   1.721   2.193  0.5443 -0.5172  0.5374
  766TIP3    H1 2304   4.859   1.786   2.260  0.9384 -0.6974  0.5980
  766TIP3    H2 2305   4.818   1.773   2.115 -0.4780 -0.2985  0.9430
  767TIP3   OH2 2306   1.643   5.636   0.190  0.1351 -0.6550  0.5210
  767TIP3    H1 2307   1.683   5.552   0.167 -0.7778 -0.2786 -3.1356
  767TIP3    H2 2308   1.551   5.616   0.207  0.6253 -0.7920  3.4997
  768TIP3   OH2 2309   2.116   2.132   1.748 -0.3946 -1.0418 -0.6994
  768TIP3    H1 2310   2.158   2.185   1.816  0.7360 -1.6842 -0.8720
  768TIP3    H2 2311   2.149   2.167   1.666 -0.5165 -1.2779 -0.8500
  769TIP3   OH2 2312   3.775   0.548   4.806  0.3261 -0.4888 -0.5873
  769TIP3    H1 2313   3.821   0.600   4.871 -0.4106  0.3010 -0.6760
  769TIP3    H2 2314   3.722   0.486   4.857  1.3476 -1.2999 -0.4859
  770TIP3   OH2 2315   1.411   3.645   0.224 -0.0119 -0.0978  0.4787
  770TIP3    H1 2316   1.476   3.706   0.189  0.0699  0.4904  1.6243
  770TIP3    H2 2317   1.327   3.678   0.191  0.1784 -0.3427 -0.2685
  771TIP3   OH2 2318   3.650   5.441   0.897 -0.0344  0.2094 -0.6664
  771TIP3    H1 2319   3.559   5.467   0.915  0.0188  0.1620 -0.3211
  771TIP3    H2 2320   3.646   5.397   0.813 -0.4636 -0.4960 -0.2860
  772TIP3   OH2 2321   2.303  -0.031   0.802  0.1802  0.1705 -0.4933
  772TIP3    H1 2322   2.377  -0.009   0.746 -0.0864 -0.5207 -1.1358
  772TIP3    H2 2323   2.261   0.053   0.822  0.1244  0.4090 -1.5477
  773TIP3   OH2 2324   0.098   5.287   1.272  0.8349 -0.6014  0.1307
  773TIP3    H1 2325   0.117   5.318   1.361 -0.1974 -0.8501  0.4501
  773TIP3    H2 2326   0.069   5.365   1.225 -2.2663 -1.0599  1.0765
  774TIP3   OH2 2327   1.323   3.936   5.166 -0.3209  0.1203 -0.3469
  774TIP3    H1 2328   1.402   3.911   5.213 -1.3039 -1.0586  0.7489
  774TIP3    H2 2329   1.335   4.029   5.148  2.0226 -0.3681 -1.6822
  775TIP3   OH2 2330   3.167   5.269   0.404  0.4918  0.6153 -0.2152
  775TIP3    H1 2331   3.078   5.292   0.431  0.9284 -0.7429  2.8614
  775TIP3    H2 2332   3.157   5.184   0.360  0.2057  0.6661 -0.2493
  776TIP3   OH2 2333   1.858   5.194   4.488 -0.0196  0.0392  0.2250
  776TIP3    H1 2334   1.888   5.152   4.407  0.2707  0.7408 -0.0425
  776TIP3    H2 2335   1.938   5.223   4.531 -0.1034 -1.1848  1.2675
  777TIP3   OH2 2336   0.204   3.066   4.752  0.2971 -0.4303 -0.0230
  777TIP3    H1 2337   0.132   3.030   4.803  0.8286 -1.8948 -0.2586
  777TIP3    H2 2338   0.164   3.098   4.672 -0.2140 -0.3415  0.2663
  778TIP3   OH2 2339   1.783   5.496   4.497  0.0381 -0.5047 -0.0087
  778TIP3    H1 2340   1.777   5.477   4.590  3.3845 -0.6692  0.2748
  778TIP3    H2 2341   1.780   5.410   4.454  2.6647 -0.8701  0.3569
  779TIP3   OH2 2342   2.852   0.367   4.631 -0.0964  0.4380  0.2375
  779TIP3    H1 2343   2.912   0.417   4.687 -0.1531  1.3190 -0.4607
  779TIP3    H2 2344   2.807   0.434   4.579  0.6843 -0.3719 -1.5804
  780TIP3   OH2 2345   0.771   3.240   1.674  0.5447  0.2731 -0.2983
  780TIP3    H1 2346   0.729   3.196   1.600  0.8732 -0.1197 -0.2550
  780TIP3    H2 2347   0.775   3.332   1.647  1.3445  0.0215 -1.1010
  781TIP3   OH2 2348   2.652   1.442   3.051 -0.0865  0.3794 -0.1145
  781TIP3    H1 2349   2.731   1.496   3.049  0.1666 -0.0002 -0.6251
  781TIP3    H2 2350   2.685   1.352   3.058 -0.4826  0.2447  0.0198
  782TIP3   OH2 2351   2.560   0.765   4.475 -0.1311  0.0107  0.1331
  782TIP3    H1 2352   2.549   0.675   4.505 -0.2843 -0.4777 -1.3189
  782TIP3    H2 2353   2.483   0.811   4.507 -0.4606 -0.5732  0.1943
  783TIP3   OH2 2354   1.133   5.224   4.571  0.5175  0.1426  0.6001
  783TIP3    H1 2355   1.215   5.204   4.616  0.6334  1.0129  0.7880
  783TIP3    H2 2356   1.160   5.262   4.487  0.3053  0.0386  0.4827
  784TIP3   OH2 2357   4.771   5.807   3.365  0.6599  0.3372 -0.2131
  784TIP3    H1 2358   4.796   5.820   3.457  1.1279 -0.1687 -0.2630
  784TIP3    H2 2359   4.831   5.862   3.315  0.6398  0.3357 -0.2385
  785TIP3   OH2 2360   2.498   2.299   0.576  1.1510  0.3100 -0.0084
  785TIP3    H1 2361   2.483   2.205   0.564  4.3091 -0.3079  0.0112
  785TIP3    H2 2362   2.414   2.340   0.556  0.3622 -2.3148 -2.7176
  786TIP3   OH2 2363   2.198   0.650   4.435 -0.2931  0.0244 -0.2784
  786TIP3    H1 2364   2.292   0.661   4.427 -0.2886  0.7075  0.6310
  786TIP3    H2 2365   2.169   0.722   4.491 -1.2703 -0.5140 -0.0563
  787TIP3   OH2 2366   0.737   2.948   4.337  0.1500  0.2668  0.1192
  787TIP3    H1 2367   0.758   2.899   4.417  1.4756  0.8385  0.1485
  787TIP3    H2 2368   0.756   3.039   4.359  3.1978  0.1701 -1.6376
  788TIP3   OH2 2369   2.415   4.509   2.854  0.5066  0.2495 -0.4100
  788TIP3    H1 2370   2.324   4.502   2.824  0.5271  0.8201 -0.6094
  788TIP3    H2 2371   2.410   4.568   2.929  1.0783  2.6060 -2.1210
  789TIP3   OH2 2372   4.423   2.777   3.595  0.3383 -0.3105  0.0805
  789TIP3    H1 2373   4.385   2.715   3.657  0.8289  0.0897  0.7967
  789TIP3    H2 2374   4.510   2.796   3.629  1.1866 -1.1404 -1.4832
  790TIP3   OH2 2375   2.804   4.001   1.686  0.5705  0.3266 -0.0384
  790TIP3    H1 2376   2.895   4.029   1.672  0.8542  1.3376  2.9958
  790TIP3    H2 2377   2.808   3.906   1.690  1.6513  0.3830  0.7035
  791TIP3   OH2 2378   0.836   1.171   4.363  0.9915 -0.0798  0.5538
  791TIP3    H1 2379   0.750   1.132   4.378  0.6885 -0.3489 -1.5892
  791TIP3    H2 2380   0.896   1.097   4.352  1.3839  0.1041  1.3595
  792TIP3   OH2 2381   5.473   1.097   3.277 -0.0471 -0.1044 -0.2630
  792TIP3    H1 2382   5.560   1.080   3.241  1.2009 -0.1298  2.4977
  792TIP3    H2 2383   5.442   1.012   3.306  0.1319  0.2553  1.0272
  793TIP3   OH2 2384   3.511   0.023   2.106  0.5351 -0.1894  0.4093
  793TIP3    H1 2385   3.431   0.014   2.055  1.5333 -2.1875 -0.9268
  793TIP3    H2 2386   3.554   0.101   2.071  0.6331 -0.8699 -1.0621
  794TIP3   OH2 2387   3.184   3.287   1.204 -0.4857  0.3467  0.6291
  794TIP3    H1 2388   3.148   3.353   1.263  0.0084  0.5250  0.7339
  794TIP3    H2 2389   3.239   3.337   1.143  0.1893 -0.0106  0.9387
  795TIP3   OH2 2390   1.977   2.496   1.836 -0.5173 -0.3043  0.5231
  795TIP3    H1 2391   1.993   2.419   1.890 -1.0469 -0.4498  0.4736
  795TIP3    H2 2392   1.923   2.464   1.764 -1.1711  0.2096  0.7741
  796TIP3   OH2 2393   3.370   3.943   1.331  0.9002 -0.5386  0.1753
  796TIP3    H1 2394   3.431   3.872   1.312  0.3092 -1.1403  0.4743
  796TIP3    H2 2395   3.292   3.899   1.367  0.1974  0.1834 -0.4208
  797TIP3   OH2 2396   3.435   0.515   2.117  0.2999  0.4581  0.0661
  797TIP3    H1 2397   3.447   0.589   2.057 -1.2833  1.5464  0.9887
  797TIP3    H2 2398   3.506   0.523   2.180  0.2670  1.1073  0.0325
  798TIP3   OH2 2399   5.742   2.194   1.053  0.5950  0.0659  0.0339
  798TIP3    H1 2400   5.800   2.228   1.122  1.1061  3.9201 -2.0345
  798TIP3    H2 2401   5.786   2.216   0.971 -1.1482 -2.0959 -1.6031
  799TIP3   OH2 2402   0.594   3.959   0.084  0.1240 -0.1871  0.7741
  799TIP3    H1 2403   0.610   3.980  -0.008 -1.0545 -1.1357  0.3217
  799TIP3    H2 2404   0.577   4.044   0.125  0.1995  0.1995  0.0199
  800TIP3   OH2 2405   3.851   1.211   3.747  0.3054 -0.1569  0.4727
  800TIP3    H1 2406   3.930   1.179   3.792  0.4846 -1.2863 -0.5783
  800TIP3    H2 2407   3.883   1.243   3.663 -0.4994 -1.9868 -0.5772
  801TIP3   OH2 2408   4.000   4.374   3.563  0.3425 -0.0304  0.5609
  801TIP3    H1 2409   4.064   4.438   3.530  0.8498 -0.4819  0.6426
  801TIP3    H2 2410   4.006   4.301   3.502 -0.2520  0.0067  0.4535
  802TIP3   OH2 2411   2.361   4.166   1.409 -0.3508  0.2071  0.5658
  802TIP3    H1 2412   2.340   4.156   1.316 -0.2493  0.3197  0.5306
  802TIP3    H2 2413   2.451   4.135   1.416 -0.6702 -0.6918  0.7928
  803TIP3   OH2 2414   5.701   2.105   2.821  0.2506  0.2571 -0.5534
  803TIP3    H1 2415   5.640   2.032   2.816  1.3748 -0.9742  1.9570
  803TIP3    H2 2416   5.770   2.083   2.758 -0.6832  0.5163 -1.7119
  804TIP3   OH2 2417   3.352   0.157   1.772 -0.1126  0.6780 -0.0354
  804TIP3    H1 2418   3.285   0.103   1.730  0.2938  0.0191  0.1387
  804TIP3    H2 2419   3.433   0.136   1.724  0.6060 -0.9915  1.7675
  805TIP3   OH2 2420   0.476   1.308   0.392 -0.5640 -0.2050  0.7172
  805TIP3    H1 2421   0.459   1.395   0.426 -1.8232 -0.8728  1.8911
  805TIP3    H2 2422   0.486   1.253   0.470  0.4438 -1.0920  0.0135
  806TIP3   OH2 2423   3.705   4.977   0.099 -0.0483 -0.1364 -0.1476
  806TIP3    H1 2424   3.617   5.010   0.113  0.2972  0.9876 -0.5283
  806TIP3    H2 2425   3.737   4.957   0.188  0.4698  2.5998  0.3995
  807TIP3   OH2 2426   4.513   1.073   2.071 -0.2359 -0.6105  0.3353
  807TIP3    H1 2427   4.534   1.156   2.115  0.8069 -1.4088  1.4208
  807TIP3    H2 2428   4.557   1.080   1.986  1.6763 -0.8354  1.2304
  808TIP3   OH2 2429   4.292   0.187   2.695 -0.1860  0.6696 -0.7229
  808TIP3    H1 2430   4.220   0.213   2.753  0.3961  0.9640 -0.1240
  808TIP3    H2 2431   4.348   0.132   2.750  1.2464  2.2864 -0.4927
  809TIP3   OH2 2432   0.702   0.867   4.394  0.0612  0.3809  0.3819
  809TIP3    H1 2433   0.661   0.919   4.463  0.5073 -1.3022  1.9918
  809TIP3    H2 2434   0.629   0.837   4.340 -0.4721  0.3254  1.1263
  810TIP3   OH2 2435   5.925   0.407   1.575  0.0684  0.3520 -0.0592
  810TIP3    H1 2436   5.861   0.460   1.526 -0.4276  1.9435  2.1815
  810TIP3    H2 2437   6.008   0.423   1.530 -0.0838  3.0089  0.4643
  811TIP3   OH2 2438   4.190   1.484   4.426  0.3272  0.0546 -0.2561
  811TIP3    H1 2439   4.106   1.530   4.413  0.2105  0.2337  1.0700
  811TIP3    H2 2440   4.252   1.535   4.374 -0.1978  0.4746 -0.4926
  812TIP3   OH2 2441   6.107   3.308   3.916 -0.2215  0.1233  0.0724
  812TIP3    H1 2442   6.100   3.215   3.940 -1.2190  0.5327  1.5110
  812TIP3    H2 2443   6.139   3.351   3.995 -0.3763  1.1017 -0.3778
  813TIP3   OH2 2444   2.535   3.489   2.343 -0.1760  0.2679 -0.0149
  813TIP3    H1 2445   2.579   3.539   2.411 -0.7673 -0.8115  1.1930
  813TIP3    H2 2446   2.441   3.500   2.361 -0.3348 -2.1810  1.0395
  814TIP3   OH2 2447   2.895   2.635   3.093 -0.4303 -0.5023 -0.0144
  814TIP3    H1 2448   2.840   2.713   3.082  1.2651  0.8029  0.4556
  814TIP3    H2 2449   2.930   2.643   3.182 -2.3519 -3.2679  1.1438
  815TIP3   OH2 2450   6.309   2.626   4.016  0.0174  0.5329  0.5505
  815TIP3    H1 2451   6.392   2.660   4.052 -0.2693  0.2240  1.5385
  815TIP3    H2 2452   6.322   2.532   4.010 -0.4993  0.4020  1.3714
  816TIP3   OH2 2453   3.211   3.284   1.580 -0.1131 -0.0475 -0.2510
  816TIP3    H1 2454   3.241   3.364   1.538  0.3629 -0.8886 -1.5671
  816TIP3    H2 2455   3.258   3.213   1.536 -0.6715 -1.0854  0.7305
  817TIP3   OH2 2456   5.681   0.209   4.121 -0.3911  0.1022  0.3634
  817TIP3    H1 2457   5.727   0.186   4.040  1.9749  0.9595  1.3927
  817TIP3    H2 2458   5.615   0.273   4.093  1.3215  1.4668 -0.7496
  818TIP3   OH2 2459   4.468   4.331   4.439 -0.3532  0.1420  0.2595
  818TIP3    H1 2460   4.398   4.365   4.496 -2.7500 -1.8441 -1.3297
  818TIP3    H2 2461   4.473   4.395   4.368 -0.2440  0.4824  0.5636
  819TIP3   OH2 2462   4.669   0.277   2.095 -0.4242 -0.4922 -0.3033
  819TIP3    H1 2463   4.644   0.338   2.026  0.7884  1.1684  0.6750
  819TIP3    H2 2464   4.586   0.255   2.138 -0.8540  0.6292 -0.5378
  820TIP3   OH2 2465   0.194   3.777   0.656  0.5446 -0.1347 -0.1989
  820TIP3    H1 2466   0.270   3.755   0.603 -2.8395 -3.7483 -4.2617
  820TIP3    H2 2467   0.153   3.851   0.610 -0.2136 -0.5244 -0.1639
  821TIP3   OH2 2468   2.080   0.592   1.286 -0.1288 -0.1563 -0.0175
  821TIP3    H1 2469   2.009   0.591   1.222 -0.1679  0.9044 -0.0087
  821TIP3    H2 2470   2.095   0.685   1.304 -0.6332 -0.4079  2.0863
  822TIP3   OH2 2471   5.364   3.618   2.886 -0.6445  0.2831  0.1311
  822TIP3    H1 2472   5.426   3.567   2.834 -0.3083  0.6514  0.1705
  822TIP3    H2 2473   5.357   3.570   2.969  0.8428  1.0862  0.7750
  823TIP3   OH2 2474   3.796   1.967   1.272 -0.3204  0.5712  0.3921
  823TIP3    H1 2475   3.787   1.923   1.356 -0.0350  1.6227  0.9956
  823TIP3    H2 2476   3.721   1.936   1.220  0.7023 -1.7834  0.2150
  824TIP3   OH2 2477   0.881   5.221   2.765  0.0778  0.1991 -0.3943
  824TIP3    H1 2478   0.934   5.199   2.841 -0.5589 -0.9975 -0.2825
  824TIP3    H2 2479   0.816   5.283   2.797 -0.6081 -0.8087  0.2049
  825TIP3   OH2 2480   4.393   0.079   2.426 -0.7632 -0.3702 -0.0942
  825TIP3    H1 2481   4.362   0.084   2.517 -0.8499 -0.5387 -0.1157
  825TIP3    H2 2482   4.432  -0.008   2.419  0.1368  0.0120  0.0700
  826TIP3   OH2 2483   2.977   1.165   3.935  0.2116  0.1239  0.0427
  826TIP3    H1 2484   3.027   1.221   3.994  2.3257 -0.1701 -1.3462
  826TIP3    H2 2485   2.920   1.225   3.888 -0.9816  0.4476  1.8031
  827TIP3   OH2 2486   5.850   0.893   3.029  0.1443 -0.7331  0.8886
  827TIP3    H1 2487   5.904   0.815   3.039 -0.6322 -1.1780  1.7863
  827TIP3    H2 2488   5.833   0.923   3.118 -0.5593 -0.2501  0.6045
  828TIP3   OH2 2489   5.562   0.870   2.398  0.2866 -0.1846 -0.6760
  828TIP3    H1 2490   5.481   0.889   2.350  1.0147  0.4210 -1.7280
  828TIP3    H2 2491   5.539   0.880   2.490 -1.0523 -0.9130 -0.9059
  829TIP3   OH2 2492   3.421   4.537   2.253 -0.8781  0.1299  0.3579
  829TIP3    H1 2493   3.505   4.493   2.241  0.3553  1.6600  2.6467
  829TIP3    H2 2494   3.393   4.512   2.341 -1.3888  1.8717  0.7203
  830TIP3   OH2 2495   6.141   1.890   4.753 -0.3959  0.1906 -0.1281
  830TIP3    H1 2496   6.130   1.896   4.658 -1.8247  2.2495  0.0991
  830TIP3    H2 2497   6.221   1.839   4.764  0.5254  0.9681 -2.4703
  831TIP3   OH2 2498   0.023   4.791   1.579 -0.9874 -0.2074 -0.1771
  831TIP3    H1 2499  -0.045   4.750   1.525  0.2543  0.9361 -2.8030
  831TIP3    H2 2500   0.103   4.783   1.528  1.0549 -1.7952  2.9594
  832TIP3   OH2 2501   2.590   0.213   4.415 -0.3383 -0.0524 -0.4137
  832TIP3    H1 2502   2.676   0.180   4.392 -0.2452  0.5895 -1.0276
  832TIP3    H2 2503   2.541   0.136   4.443  1.1214 -0.1353  2.1921
  833TIP3   OH2 2504   0.863   2.260   3.897  0.4236 -0.0544 -0.0061
  833TIP3    H1 2505   0.945   2.309   3.905 -0.9282  2.4328 -0.4220
  833TIP3    H2 2506   0.821   2.271   3.983 -1.7475  3.2563 -1.2977
  834TIP3   OH2 2507   1.369   3.915   1.619 -0.0706 -0.0398 -0.0023
  834TIP3    H1 2508   1.398   3.838   1.669 -2.0884 -1.0432 -0.2437
  834TIP3    H2 2509   1.340   3.977   1.686  0.5324  0.0659  0.1644
  835TIP3   OH2 2510   5.682   2.795   5.166  0.1931  0.3959  0.5644
  835TIP3    H1 2511   5.745   2.755   5.226  0.6381  0.4463  0.1314
  835TIP3    H2 2512   5.654   2.722   5.110 -1.3643 -0.0015  1.7815
  836TIP3   OH2 2513   5.320   4.633   1.362  0.1773 -0.1621  0.3246
  836TIP3    H1 2514   5.279   4.548   1.342 -0.7691  0.2433  0.4989
  836TIP3    H2 2515   5.256   4.697   1.332  1.0495  0.5042 -0.1430
  837TIP3   OH2 2516   4.035   0.269   3.756 -0.4252 -0.5028  0.2538
  837TIP3    H1 2517   4.118   0.310   3.781 -1.4801  0.0651  3.1325
  837TIP3    H2 2518   3.994   0.332   3.696  0.1071  0.4004  0.8204
  838TIP3   OH2 2519   0.587   2.400   0.058  0.2203  0.1721  0.0671
  838TIP3    H1 2520   0.624   2.318   0.091  0.6232 -0.0220 -0.8255
  838TIP3    H2 2521   0.502   2.375   0.022 -0.4409  0.4712  1.3675
  839TIP3   OH2 2522   3.503   0.637   3.656  0.4299  0.5667 -0.5636
  839TIP3    H1 2523   3.507   0.590   3.574  0.2669  0.3193 -0.4300
  839TIP3    H2 2524   3.594   0.642   3.686  0.4175  0.1357 -0.4603
  840TIP3   OH2 2525   3.289   3.008   0.982  0.0347  0.2359  0.0082
  840TIP3    H1 2526   3.267   2.951   0.908  1.6390  1.7767 -1.7868
  840TIP3    H2 2527   3.353   2.958   1.032 -0.7011 -0.6423  0.0982
  841TIP3   OH2 2528   2.504   1.021   2.570  0.3725 -0.0961  0.0050
  841TIP3    H1 2529   2.540   1.015   2.658 -0.0364  0.4745  0.2156
  841TIP3    H2 2530   2.537   0.942   2.525 -0.3691 -1.0068  1.0064
  842TIP3   OH2 2531   3.667   3.732   1.542  0.6849 -0.4513 -0.3853
  842TIP3    H1 2532   3.627   3.810   1.582  0.1214 -0.5222 -0.8119
  842TIP3    H2 2533   3.618   3.718   1.462  0.0351 -1.9247  0.2420
  843TIP3   OH2 2534   5.401   0.776   4.612 -0.2357  0.3211 -0.6760
  843TIP3    H1 2535   5.443   0.861   4.598 -0.8917  0.7300 -0.2222
  843TIP3    H2 2536   5.313   0.798   4.645  0.0241 -0.5383  0.6720
  844TIP3   OH2 2537   3.468   3.808   1.858 -0.4444 -0.3818 -0.1752
  844TIP3    H1 2538   3.538   3.819   1.794 -1.1037  2.5019 -0.5433
  844TIP3    H2 2539   3.395   3.770   1.808  0.0700 -1.1920 -0.3301
  845TIP3   OH2 2540   3.080   1.572   0.098 -0.3480 -0.1683  0.3291
  845TIP3    H1 2541   3.118   1.636   0.159 -0.2157  0.4449 -0.3864
  845TIP3    H2 2542   3.097   1.488   0.139  2.1244  0.0434 -0.1184
  846TIP3   OH2 2543   1.523   3.811   2.960  0.1698  0.9577 -0.6548
  846TIP3    H1 2544   1.484   3.835   2.876  2.1516  1.2907 -1.5292
  846TIP3    H2 2545   1.591   3.747   2.938  0.0783  0.3143  0.8107
  847TIP3   OH2 2546   5.678   3.712   1.566  0.0440  0.0938 -0.1392
  847TIP3    H1 2547   5.613   3.780   1.546 -0.1301 -0.1840 -0.5255
  847TIP3    H2 2548   5.736   3.753   1.630 -1.0012  0.0620  0.8566
  848TIP3   OH2 2549   2.006   0.771   2.983  0.4941  0.2452  0.3398
  848TIP3    H1 2550   1.924   0.804   2.946 -0.0905  0.0291  1.3928
  848TIP3    H2 2551   2.001   0.792   3.076  1.4403 -0.1616  0.4990
  849TIP3   OH2 2552   3.092   3.565   4.558  0.0823 -0.1083  0.1158
  849TIP3    H1 2553   3.107   3.476   4.527  0.8392  0.0205  0.0872
  849TIP3    H2 2554   3.022   3.557   4.623  0.1250 -0.7179  0.0869
  850TIP3   OH2 2555   3.829   4.486   3.789  0.6999  0.3191 -0.3466
  850TIP3    H1 2556   3.845   4.577   3.763 -1.5586  0.3411 -2.0271
  850TIP3    H2 2557   3.857   4.435   3.713  1.0496 -0.3030  0.1982
  851TIP3   OH2 2558   2.361   3.430   4.584  0.0154 -0.0781 -1.0762
  851TIP3    H1 2559   2.316   3.474   4.512  0.4010  1.5146 -0.3652
  851TIP3    H2 2560   2.454   3.439   4.563  0.1234  0.2212 -0.4666
  852TIP3   OH2 2561   4.629   2.419   0.588  0.4652  0.0490 -0.4837
  852TIP3    H1 2562   4.598   2.454   0.505 -0.1684 -1.3960 -0.8857
  852TIP3    H2 2563   4.549   2.402   0.638  0.8245  0.4424  0.2451
  853TIP3   OH2 2564   2.591   3.000   2.379  0.6190  0.2547 -0.0137
  853TIP3    H1 2565   2.517   2.991   2.319 -0.8044 -1.4360  1.8684
  853TIP3    H2 2566   2.591   3.093   2.403 -0.8998  0.2920 -0.0810
  854TIP3   OH2 2567   1.929   3.833   3.032  0.7421 -0.4287  0.0337
  854TIP3    H1 2568   2.023   3.848   3.039  0.6217  1.0491 -0.9839
  854TIP3    H2 2569   1.901   3.809   3.120  1.6920  1.5736  0.9277
  855TIP3   OH2 2570   5.214   2.670   3.523 -0.2096 -0.4278 -0.4466
  855TIP3    H1 2571   5.198   2.580   3.550  1.0423 -0.4502  0.2805
  855TIP3    H2 2572   5.232   2.717   3.604 -0.0928  0.3209 -0.8913
  856TIP3   OH2 2573   2.223   1.828   2.573 -0.4810 -0.1486 -0.1350
  856TIP3    H1 2574   2.143   1.861   2.530  0.3985  0.2244 -1.5650
  856TIP3    H2 2575   2.291   1.891   2.547  0.4862 -1.0454  0.1866
  857TIP3   OH2 2576   6.192   2.714   5.047  0.0951  0.0991  0.4765
  857TIP3    H1 2577   6.231   2.665   5.119  0.5805  0.4624  0.4662
  857TIP3    H2 2578   6.219   2.666   4.968  2.1040  1.3512  0.3305
  858TIP3   OH2 2579   4.376   1.104   3.035 -0.0180 -0.4288  0.2599
  858TIP3    H1 2580   4.314   1.171   3.063  1.5219  1.7683 -1.2599
  858TIP3    H2 2581   4.323   1.042   2.985 -1.0928  1.3065 -0.8853
  859TIP3   OH2 2582   1.491   2.583   1.721 -0.3661  0.6904  0.0186
  859TIP3    H1 2583   1.508   2.674   1.746  0.6057  0.6070 -0.2671
  859TIP3    H2 2584   1.522   2.532   1.796 -3.0339  0.6486  1.1800
  860TIP3   OH2 2585   5.967   3.002   1.591  0.0253  0.1998  0.0283
  860TIP3    H1 2586   5.973   3.068   1.522  0.1299 -0.0691 -0.2271
  860TIP3    H2 2587   5.926   3.046   1.664 -3.6587 -0.4528 -1.4368
  861TIP3   OH2 2588   0.470   2.717   4.154 -0.5492 -0.3889 -0.8265
  861TIP3    H1 2589   0.530   2.774   4.105 -0.6328  0.0137 -0.4654
  861TIP3    H2 2590   0.520   2.691   4.231 -1.0053  0.3628 -0.2598
  862TIP3   OH2 2591   1.984   3.269   3.318  0.1581 -0.2887 -0.0772
  862TIP3    H1 2592   2.050   3.216   3.363 -0.0039 -0.6644 -0.2783
  862TIP3    H2 2593   2.000   3.253   3.225  0.5474  0.5532 -0.1637
  863TIP3   OH2 2594   5.006   3.824   3.339  0.0651 -0.6494 -0.0512
  863TIP3    H1 2595   4.920   3.788   3.315  0.4066 -1.2536 -0.3835
  863TIP3    H2 2596   4.985   3.900   3.394 -0.6893 -1.6592  1.1319
  864TIP3   OH2 2597   3.886   3.432   0.434  0.3971 -0.3711  0.1141
  864TIP3    H1 2598   3.867   3.355   0.488 -2.7190  0.4756  0.4111
  864TIP3    H2 2599   3.891   3.504   0.496 -1.8227  0.3944 -0.5075
  865TIP3   OH2 2600   6.206   3.086   4.635  0.3970 -0.1349  0.3136
  865TIP3    H1 2601   6.233   3.055   4.721  1.5580 -0.0160  0.0093
  865TIP3    H2 2602   6.281   3.068   4.578 -0.2368  0.0658 -0.6079
  866TIP3   OH2 2603   4.628   5.574   0.811  0.1647 -0.2844 -0.1546
  866TIP3    H1 2604   4.706   5.629   0.817  2.6482 -3.6661  2.7707
  866TIP3    H2 2605   4.623   5.549   0.719  1.3859  1.4587 -0.7474
  867TIP3   OH2 2606   0.584   5.878   3.016  0.3590 -0.9633  0.6445
  867TIP3    H1 2607   0.604   5.937   2.943  2.8722  0.7841  2.5480
  867TIP3    H2 2608   0.544   5.802   2.975  0.9876  0.2278 -2.4667
  868TIP3   OH2 2609   0.718   0.228   0.556 -1.0881  0.4166 -0.6018
  868TIP3    H1 2610   0.805   0.203   0.586 -1.0301  1.0395 -0.2327
  868TIP3    H2 2611   0.666   0.148   0.563 -1.5976  0.8591  3.0746
  869TIP3   OH2 2612   1.827   5.807   4.570  0.1127  0.1495 -0.1999
  869TIP3    H1 2613   1.873   5.772   4.493 -0.9357  0.8843 -1.1977
  869TIP3    H2 2614   1.737   5.778   4.559  0.1690 -0.7564  1.4147
  870TIP3   OH2 2615   6.049   1.589   0.872 -0.0991  0.3266 -0.2268
  870TIP3    H1 2616   6.088   1.559   0.954 -2.7766 -0.2613  0.9102
  870TIP3    H2 2617   6.014   1.676   0.892  1.0099  1.0835 -1.3872
  871TIP3   OH2 2618   5.211   4.387   1.339 -0.1535  0.3682  0.1830
  871TIP3    H1 2619   5.258   4.366   1.259  1.6969  1.4574  0.9125
  871TIP3    H2 2620   5.250   4.330   1.406 -0.2287  0.8922  0.6879
  872TIP3   OH2 2621   3.786   0.470   1.047  0.3354 -0.6585 -0.3422
  872TIP3    H1 2622   3.836   0.479   0.966  0.3478  0.3100 -0.2396
  872TIP3    H2 2623   3.713   0.531   1.036 -1.3721 -2.6764 -0.8757
  873TIP3   OH2 2624   0.647   5.995   5.050  0.9838 -0.3679 -0.0765
  873TIP3    H1 2625   0.727   5.943   5.040  1.3724  0.2961 -0.5664
  873TIP3    H2 2626   0.626   6.023   4.961  0.4455 -0.1866  0.1066
  874TIP3   OH2 2627   1.059   3.215   1.496 -0.3153 -0.3761  0.5358
  874TIP3    H1 2628   1.017   3.129   1.487 -0.8744  0.0065 -0.8114
  874TIP3    H2 2629   1.113   3.223   1.417 -1.0571  0.9231  0.1388
  875TIP3   OH2 2630   3.183   3.588   0.920 -0.7234 -0.1730 -0.0981
  875TIP3    H1 2631   3.156   3.498   0.933  0.1750 -0.6199 -1.1031
  875TIP3    H2 2632   3.167   3.605   0.827 -1.9126  1.0826  0.2960
  876TIP3   OH2 2633   4.324   3.004   4.228  0.4494 -0.6613 -0.3456
  876TIP3    H1 2634   4.316   2.923   4.278 -1.3578  0.1373  0.7681
  876TIP3    H2 2635   4.288   2.983   4.142  0.6880 -1.2175 -0.3126
  877TIP3   OH2 2636   0.774   2.056   1.027 -1.0496  0.0065  0.0814
  877TIP3    H1 2637   0.765   2.029   0.935  1.6158 -0.5441 -0.1270
  877TIP3    H2 2638   0.723   1.992   1.076  0.6187 -2.1601 -0.8239
  878TIP3   OH2 2639   4.426   5.699   1.888 -0.1071 -0.0970 -0.7211
  878TIP3    H1 2640   4.415   5.739   1.802  1.5620  1.1177 -0.4272
  878TIP3    H2 2641   4.346   5.722   1.936 -0.8014 -0.3073 -1.7586
  879TIP3   OH2 2642   1.717   5.071   2.472  0.0802  0.1366  0.0563
  879TIP3    H1 2643   1.757   5.051   2.387 -2.1996 -1.3959 -0.7690
  879TIP3    H2 2644   1.636   5.117   2.449 -0.5550 -0.2673  1.4113
  880TIP3   OH2 2645   3.518   0.345   1.061 -0.8766 -0.6493  0.4548
  880TIP3    H1 2646   3.559   0.331   0.976 -1.3509  0.4833  0.0116
  880TIP3    H2 2647   3.590   0.372   1.118 -0.8189  0.3279 -0.0566
  881TIP3   OH2 2648   5.541   3.336   3.588 -0.0886 -0.2404 -0.4318
  881TIP3    H1 2649   5.585   3.342   3.503  1.3836  0.4579  0.3336
  881TIP3    H2 2650   5.487   3.415   3.593  0.2586  0.0048 -0.4978
  882TIP3   OH2 2651   1.532   0.587   0.656 -0.1502  0.2166  0.2432
  882TIP3    H1 2652   1.539   0.642   0.578 -1.1404  0.7804  0.5245
  882TIP3    H2 2653   1.473   0.517   0.630 -2.1270  1.5066  1.0311
  883TIP3   OH2 2654   1.366   4.209   1.373  0.0592 -0.1779  0.0550
  883TIP3    H1 2655   1.304   4.277   1.345  0.0658  0.7757  2.2326
  883TIP3    H2 2656   1.311   4.132   1.386 -0.6719  0.5897  1.7117
  884TIP3   OH2 2657   5.924   1.244   2.755  0.2726  0.4117 -0.0745
  884TIP3    H1 2658   5.961   1.158   2.736 -0.2808 -0.0600  0.8868
  884TIP3    H2 2659   5.997   1.305   2.745  1.2103 -0.4374  1.3319
  885TIP3   OH2 2660   2.961   2.545   1.352  0.1078 -0.0119 -0.0008
  885TIP3    H1 2661   2.941   2.482   1.421 -0.7763 -0.9053 -1.0375
  885TIP3    H2 2662   3.028   2.502   1.299  0.7762  0.6635  0.2933
  886TIP3   OH2 2663   6.275   1.310   4.769 -0.1511 -0.4082  0.3396
  886TIP3    H1 2664   6.359   1.265   4.766  0.1016  0.0986 -0.3703
  886TIP3    H2 2665   6.256   1.332   4.678 -0.3228  0.8195  0.6627
  887TIP3   OH2 2666   3.129   1.774   2.116  0.3050  0.6013 -0.2548
  887TIP3    H1 2667   3.080   1.710   2.167 -0.9056  0.7666 -1.1663
  887TIP3    H2 2668   3.219   1.767   2.149 -0.0449 -0.6742  0.5134
  888TIP3   OH2 2669   0.666   0.782   1.556 -0.3120 -0.5282  1.0773
  888TIP3    H1 2670   0.732   0.844   1.525 -1.1586 -0.7064 -1.3142
  888TIP3    H2 2671   0.672   0.785   1.651  4.2413 -1.7327  1.0357
  889TIP3   OH2 2672   4.351   3.785   0.920  0.2258  0.0892  0.1267
  889TIP3    H1 2673   4.379   3.784   1.011  1.6399 -1.0006 -0.2718
  889TIP3    H2 2674   4.400   3.858   0.881  1.1982 -0.6845 -0.1649
  890TIP3   OH2 2675   5.667   1.894   1.921  0.2032 -0.4412  0.3172
  890TIP3    H1 2676   5.687   1.837   1.995 -0.4105  0.0044  0.8296
  890TIP3    H2 2677   5.589   1.942   1.947  0.4773  0.3502 -0.2730
  891TIP3   OH2 2678   4.339   0.930   2.212 -0.3260  0.0749 -0.0761
  891TIP3    H1 2679   4.406   0.966   2.154  0.4091 -1.2203 -0.0761
  891TIP3    H2 2680   4.389   0.897   2.287 -1.1464  0.6578  0.7447
  892TIP3   OH2 2681   2.579   0.918   4.873 -0.4047 -0.3667  0.5440
  892TIP3    H1 2682   2.641   0.972   4.824 -0.6992  0.0152  0.5923
  892TIP3    H2 2683   2.617   0.913   4.961  0.0869 -0.9940  0.3032
  893TIP3   OH2 2684   0.367   2.086   2.873 -0.3197  0.4809  0.1804
  893TIP3    H1 2685   0.281   2.125   2.888 -0.5963  0.4406 -1.1605
  893TIP3    H2 2686   0.359   2.042   2.788  1.4121  1.6570 -0.6662
  894TIP3   OH2 2687   6.029   2.750   3.149  0.1002  0.0105 -0.0991
  894TIP3    H1 2688   6.046   2.736   3.242 -0.6096 -2.1383 -0.2311
  894TIP3    H2 2689   5.969   2.824   3.146 -0.1488 -0.1251  1.1732
  895TIP3   OH2 2690   1.722   0.220   2.116 -0.0798 -0.5565  0.2986
  895TIP3    H1 2691   1.636   0.224   2.074  0.2227 -0.6867 -0.3565
  895TIP3    H2 2692   1.706   0.175   2.199 -1.0818  1.6841  1.3918
  896TIP3   OH2 2693   2.066   0.422   3.805 -0.3633  0.0477 -0.1761
  896TIP3    H1 2694   2.078   0.342   3.753 -1.2501  0.0069 -0.3388
  896TIP3    H2 2695   1.971   0.437   3.803 -0.6314 -0.7463  2.6073
  897TIP3   OH2 2696   1.741   2.085   1.594  0.3869  0.7720 -0.0871
  897TIP3    H1 2697   1.819   2.069   1.542  1.0359  0.9860  0.7904
  897TIP3    H2 2698   1.668   2.058   1.538  1.1349 -0.2727 -0.5840
  898TIP3   OH2 2699   2.816   1.357   3.821 -0.4130  0.2820 -0.1330
  898TIP3    H1 2700   2.895   1.408   3.800  0.4864 -1.2540 -0.6289
  898TIP3    H2 2701   2.760   1.366   3.744  0.6424 -1.1063 -1.1138
  899TIP3   OH2 2702   1.921   5.429   3.242 -0.2823 -0.4170 -0.2039
  899TIP3    H1 2703   1.995   5.453   3.186 -0.2783 -0.8903 -0.4039
  899TIP3    H2 2704   1.892   5.344   3.208 -0.6201 -0.4526  0.1727
  900TIP3   OH2 2705   3.856   1.870   0.891  0.1164  0.9970 -0.5391
  900TIP3    H1 2706   3.843   1.964   0.881 -1.4089  0.7561 -1.0982
  900TIP3    H2 2707   3.767   1.833   0.888  0.6222 -0.3886  0.4728
  901TIP3   OH2 2708   6.014   4.053   0.618  0.8094 -0.7190  0.2943
  901TIP3    H1 2709   6.074   4.086   0.684  1.1825 -2.4349  0.8612
  901TIP3    H2 2710   5.928   4.058   0.658  0.7947 -0.0090  0.1859
  902TIP3   OH2 2711   3.413   1.928   4.230 -0.1338 -0.1351  0.5383
  902TIP3    H1 2712   3.466   1.856   4.263  0.2393 -0.3959 -0.5863
  902TIP3    H2 2713   3.466   2.006   4.246  0.7310 -0.4199 -0.8028
  903TIP3   OH2 2714   1.514   1.100   3.164  0.0472 -0.1090  0.1684
  903TIP3    H1 2715   1.428   1.072   3.196 -0.1634 -0.2276 -0.4928
  903TIP3    H2 2716   1.507   1.195   3.156 -0.7465 -0.2802 -1.8905
  904TIP3   OH2 2717   0.488   1.892   4.988  0.1214 -0.0933 -0.1766
  904TIP3    H1 2718   0.445   1.907   5.072 -0.2514 -0.6871 -0.2597
  904TIP3    H2 2719   0.479   1.976   4.942 -0.0026  0.1168  0.2214
  905TIP3   OH2 2720   1.213   0.092   0.947  0.3881 -0.6489 -0.0124
  905TIP3    H1 2721   1.179   0.016   0.899  1.5895 -2.5358  1.9314
  905TIP3    H2 2722   1.147   0.110   1.013 -0.3567  0.7002 -1.0752
  906TIP3   OH2 2723   0.876   3.646   0.444  0.6509 -0.5002 -0.0578
  906TIP3    H1 2724   0.816   3.638   0.370  0.1258  0.9985  0.1774
  906TIP3    H2 2725   0.823   3.686   0.513  2.2479  2.2279 -0.2906
  907TIP3   OH2 2726   0.624   1.365   4.643  0.1990  0.3891 -0.0099
  907TIP3    H1 2727   0.644   1.276   4.612 -2.9559 -0.8592  1.1037
  907TIP3    H2 2728   0.615   1.417   4.564 -0.5940 -0.9689 -0.8500
  908TIP3   OH2 2729   1.941   1.055   3.883 -0.2516  0.2998 -0.6162
  908TIP3    H1 2730   1.993   1.080   3.806  0.0496  1.6951  0.0017
  908TIP3    H2 2731   1.852   1.044   3.849 -0.2943  1.7389 -1.0569
  909TIP3   OH2 2732   1.863   4.824   0.152  0.1201  0.3106 -0.0161
  909TIP3    H1 2733   1.876   4.779   0.069  0.0241  0.7197 -0.2545
  909TIP3    H2 2734   1.952   4.840   0.185  0.1967  1.2300 -0.6295
  910TIP3   OH2 2735   3.668   0.407   3.137 -0.1132  0.2956  0.2440
  910TIP3    H1 2736   3.616   0.358   3.073 -1.4510  2.2054 -0.2169
  910TIP3    H2 2737   3.615   0.484   3.157  1.6646  1.3108  1.3038
  911TIP3   OH2 2738   3.752   3.037   3.859 -0.0617 -0.5089 -0.0295
  911TIP3    H1 2739   3.713   2.968   3.805 -0.6680  0.4963 -0.9035
  911TIP3    H2 2740   3.678   3.090   3.887  0.3370 -0.5409  1.1362
  912TIP3   OH2 2741   5.516   0.665   5.108  0.1758  0.1152 -0.0127
  912TIP3    H1 2742   5.587   0.601   5.104 -0.0795 -0.1015 -1.3401
  912TIP3    H2 2743   5.549   0.734   5.166  0.0701 -1.6682  2.3272
  913TIP3   OH2 2744   1.432   2.494   4.346 -0.4546  0.5481  0.1970
  913TIP3    H1 2745   1.456   2.489   4.438 -0.9262 -1.3178  0.2554
  913TIP3    H2 2746   1.337   2.490   4.345 -0.4575  0.6262 -0.3874
  914TIP3   OH2 2747   1.810   4.889   4.678 -0.4640 -0.2866  0.0846
  914TIP3    H1 2748   1.817   4.856   4.768 -3.1986  2.0520  1.3078
  914TIP3    H2 2749   1.754   4.826   4.634 -0.3226 -0.6682  0.4372
  915TIP3   OH2 2750   4.284   5.800   1.351 -0.2846  0.0125 -0.4494
  915TIP3    H1 2751   4.279   5.771   1.442 -0.4273 -1.9757 -1.0519
  915TIP3    H2 2752   4.370   5.842   1.344  1.1600 -2.7002 -0.1504
  916TIP3   OH2 2753   2.552   2.906   3.556  0.0747  0.4122 -0.2143
  916TIP3    H1 2754   2.484   2.852   3.515  0.7427  0.2056 -1.0804
  916TIP3    H2 2755   2.514   2.933   3.639  0.4788 -3.1251  1.2845
  917TIP3   OH2 2756   1.284   4.060   0.852  0.0872  0.2975  0.1920
  917TIP3    H1 2757   1.366   4.039   0.807  0.9689  1.2019  1.3162
  917TIP3    H2 2758   1.308   4.068   0.944 -0.9982  1.8229  0.3882
  918TIP3   OH2 2759   5.724   0.694   0.652 -0.1613 -0.3828 -0.0025
  918TIP3    H1 2760   5.652   0.669   0.594 -0.6769  0.7713  0.1055
  918TIP3    H2 2761   5.756   0.777   0.617  0.5785 -0.4824  0.4274
  919TIP3   OH2 2762   4.730   3.985   2.806  0.0424 -0.3972  0.4364
  919TIP3    H1 2763   4.816   4.013   2.773  0.1063 -0.3515  0.6402
  919TIP3    H2 2764   4.672   4.059   2.790  0.0732 -0.3743  0.4305
  920TIP3   OH2 2765   0.609   3.475   3.912 -0.5383  0.4843  0.2936
  920TIP3    H1 2766   0.654   3.487   3.828 -1.0732  0.2445 -0.0297
  920TIP3    H2 2767   0.643   3.545   3.968 -1.0493  1.3625 -0.4820
  921TIP3   OH2 2768   5.240   5.553   1.446 -0.2627 -0.0508  0.0793
  921TIP3    H1 2769   5.274   5.531   1.359 -0.8015 -0.6678  0.0155
  921TIP3    H2 2770   5.281   5.489   1.504 -0.3491 -0.0031  0.1923
  922TIP3   OH2 2771   4.280   0.873   1.466 -0.0603  0.0822  0.4614
  922TIP3    H1 2772   4.229   0.863   1.386 -0.1911 -0.5418  0.6141
  922TIP3    H2 2773   4.217   0.859   1.537  0.4116 -1.2598  0.6457
  923TIP3   OH2 2774   0.528   0.862   0.137  0.3297 -0.3569  0.7207
  923TIP3    H1 2775   0.598   0.921   0.165  0.9841  0.4761 -2.3101
  923TIP3    H2 2776   0.573   0.789   0.095 -0.5734 -0.7152  0.3373
  924TIP3   OH2 2777   6.205   4.646   1.413 -0.2399  0.1842 -0.2345
  924TIP3    H1 2778   6.123   4.617   1.452  0.2504 -0.6557  0.1881
  924TIP3    H2 2779   6.259   4.567   1.406  0.2974  0.6069 -1.1062
  925TIP3   OH2 2780   0.448   5.987   3.219 -0.1488  0.1331 -0.4554
  925TIP3    H1 2781   0.360   6.012   3.191 -0.6970 -0.4551  0.6799
  925TIP3    H2 2782   0.490   5.955   3.139 -1.6500 -1.4652 -0.6760
  926TIP3   OH2 2783   3.809   5.633   1.003 -0.0801  0.2625  0.1289
  926TIP3    H1 2784   3.905   5.635   1.000 -0.1036  0.9341 -0.6418
  926TIP3    H2 2785   3.785   5.561   0.945 -0.0250 -0.8339  1.4230
  927TIP3   OH2 2786   5.379   2.903   1.559 -0.5196 -0.0411 -0.5852
  927TIP3    H1 2787   5.471   2.927   1.570 -0.8782  1.6569 -1.1160
  927TIP3    H2 2788   5.363   2.909   1.465 -1.1858 -0.3117 -0.4966
  928TIP3   OH2 2789   4.379   2.105   5.080 -0.1137  0.0500 -0.2729
  928TIP3    H1 2790   4.291   2.118   5.115 -0.4740 -0.0770 -1.1103
  928TIP3    H2 2791   4.424   2.188   5.097 -0.5778  0.3280 -0.3814
  929TIP3   OH2 2792   1.939   1.394   1.954  0.3039 -0.7258  0.5333
  929TIP3    H1 2793   1.905   1.361   2.037 -0.2965 -1.9854 -0.1717
  929TIP3    H2 2794   1.864   1.433   1.910  0.6363  0.0141  0.6206
  930TIP3   OH2 2795   2.098   0.697   3.883 -0.6368  0.5430 -0.1773
  930TIP3    H1 2796   2.124   0.608   3.858 -0.8700  1.1075 -2.7623
  930TIP3    H2 2797   2.111   0.700   3.977  0.8978 -1.7332 -0.2233
  931TIP3   OH2 2798   1.486   3.215   0.133  0.3411 -1.1021 -0.0605
  931TIP3    H1 2799   1.497   3.131   0.089  0.9788 -1.8697  1.4971
  931TIP3    H2 2800   1.464   3.192   0.223 -3.1418  0.3985 -0.3809
  932TIP3   OH2 2801   3.701   2.213   0.345 -0.5211  0.6341 -0.3407
  932TIP3    H1 2802   3.711   2.284   0.281 -1.4861  2.9376  1.9366
  932TIP3    H2 2803   3.607   2.210   0.364 -0.3567 -0.5545  0.3850
  933TIP3   OH2 2804   4.507   0.056   2.837  0.0634  0.0477 -0.1775
  933TIP3    H1 2805   4.598   0.044   2.864  0.3247  0.9852 -0.6110
  933TIP3    H2 2806   4.472  -0.033   2.831  0.9662 -0.3248 -0.0632
  934TIP3   OH2 2807   6.045   1.461   3.419 -0.4992  0.4904  0.4653
  934TIP3    H1 2808   6.002   1.417   3.492  0.8326 -0.9481  0.4470
  934TIP3    H2 2809   6.090   1.390   3.371 -0.0487  1.6021 -0.8336
  935TIP3   OH2 2810   1.001   2.327   1.523 -0.4465 -0.0621 -0.6876
  935TIP3    H1 2811   0.921   2.330   1.576 -0.3374 -1.8213 -0.3782
  935TIP3    H2 2812   0.970   2.328   1.433 -0.6516  2.4216 -0.6721
  936TIP3   OH2 2813   0.365   4.632   0.973  0.1660  0.3972  0.1116
  936TIP3    H1 2814   0.383   4.591   1.058  0.0553  1.6919  0.7954
  936TIP3    H2 2815   0.422   4.708   0.971 -0.7271  1.0737 -0.4246
  937TIP3   OH2 2816   5.195   5.571   2.974 -0.2069  0.0488  0.0218
  937TIP3    H1 2817   5.118   5.526   2.940  0.1012  0.1538 -0.8252
  937TIP3    H2 2818   5.261   5.503   2.984 -0.0094  0.1666 -0.4588
  938TIP3   OH2 2819   4.817   4.183   0.224 -0.3920 -0.4996  0.2181
  938TIP3    H1 2820   4.755   4.130   0.174  0.1590  0.0098 -1.0479
  938TIP3    H2 2821   4.903   4.152   0.198 -0.0783  0.4079  0.1229
  939TIP3   OH2 2822   2.073   4.999   4.721  0.0805  0.0907 -0.0736
  939TIP3    H1 2823   2.079   5.086   4.681  0.5963 -0.2805 -0.8372
  939TIP3    H2 2824   1.987   4.997   4.761  0.0011  0.9038 -0.1804
  940TIP3   OH2 2825   0.993   2.610   4.741  0.5263 -0.0373 -0.1454
  940TIP3    H1 2826   1.043   2.648   4.669  1.1783 -0.3555  0.1309
  940TIP3    H2 2827   1.048   2.539   4.774  0.2977  0.1941  0.7610
  941TIP3   OH2 2828   6.096   4.314   0.973 -0.2311  0.2671  0.0349
  941TIP3    H1 2829   6.078   4.382   0.907 -1.6510  0.8495  0.9768
  941TIP3    H2 2830   6.110   4.362   1.054 -1.0070 -0.5418  0.6646
  942TIP3   OH2 2831   3.892   4.966   4.351 -0.0016 -0.2115 -0.1025
  942TIP3    H1 2832   3.887   4.919   4.268 -0.0515 -2.0949  0.9249
  942TIP3    H2 2833   3.906   4.898   4.417  0.8606  1.3043  1.3573
  943TIP3   OH2 2834   1.808   2.571   0.688  0.0852 -0.1324 -0.5780
  943TIP3    H1 2835   1.891   2.610   0.715 -0.6545  0.3807  1.0529
  943TIP3    H2 2836   1.752   2.576   0.766 -1.7922  0.3942 -1.8936
  944TIP3   OH2 2837   2.980   0.576   0.560 -0.1985  0.3584  0.2552
  944TIP3    H1 2838   2.888   0.585   0.534  0.3454  0.3273 -1.7783
  944TIP3    H2 2839   3.008   0.665   0.581 -0.8996  0.2600  1.8109
  945TIP3   OH2 2840   2.584   2.681   0.592 -0.0920 -0.0206 -0.4644
  945TIP3    H1 2841   2.502   2.669   0.639  0.3190 -0.7200  0.0878
  945TIP3    H2 2842   2.608   2.593   0.562  1.3882 -0.1540  0.9741
  946TIP3   OH2 2843   1.483   0.737   1.925  0.5844  0.1503 -0.1294
  946TIP3    H1 2844   1.563   0.687   1.936  1.0971  0.9115 -0.3321
  946TIP3    H2 2845   1.473   0.746   1.830 -0.7426 -1.5058 -0.1919
  947TIP3   OH2 2846   6.159   0.402   1.419 -0.0136 -0.1283  0.2209
  947TIP3    H1 2847   6.220   0.466   1.455 -0.2346 -0.3500  0.9970
  947TIP3    H2 2848   6.192   0.386   1.330 -0.4807  1.7324 -0.3380
  948TIP3   OH2 2849   3.793   4.601   1.792  0.4906 -0.5430 -0.0047
  948TIP3    H1 2850   3.723   4.607   1.857 -0.9236 -1.6196 -1.3760
  948TIP3    H2 2851   3.765   4.658   1.721  0.1331 -2.2731 -1.3045
  949TIP3   OH2 2852   4.643   0.099   3.868 -0.0130 -0.1093 -0.2291
  949TIP3    H1 2853   4.710   0.096   3.937  0.4368 -1.0615 -0.6972
  949TIP3    H2 2854   4.624   0.008   3.848 -1.9967  0.1268  0.3795
  950TIP3   OH2 2855   0.456   1.351   2.869  0.6291 -0.6436 -0.3756
  950TIP3    H1 2856   0.444   1.421   2.933 -0.6657  0.6356 -1.9255
  950TIP3    H2 2857   0.416   1.384   2.789  1.1376 -2.6547 -1.5457
  951TIP3   OH2 2858   1.513   2.841   0.912 -0.0431  0.1857 -0.3958
  951TIP3    H1 2859   1.554   2.889   0.984  0.3925  0.5786 -0.9041
  951TIP3    H2 2860   1.422   2.831   0.940  0.8831 -3.0845  2.0077
  952TIP3   OH2 2861   3.245   3.042   1.927 -0.5835  0.1927  0.5241
  952TIP3    H1 2862   3.339   3.059   1.924 -0.2854 -1.3077  0.6552
  952TIP3    H2 2863   3.208   3.119   1.970  0.7420  0.2474  1.6402
  953TIP3   OH2 2864   0.338   4.256   3.725  0.0418  0.6000 -0.4060
  953TIP3    H1 2865   0.361   4.182   3.669  3.2186  1.5675 -0.6004
  953TIP3    H2 2866   0.253   4.233   3.763  0.3506 -2.5627 -1.3882
  954TIP3   OH2 2867   6.126   2.949   1.827 -0.4758 -0.5385  0.4050
  954TIP3    H1 2868   6.167   2.909   1.904 -1.0229 -2.0386 -0.0499
  954TIP3    H2 2869   6.193   2.942   1.759 -0.6444 -0.8894  0.2719
  955TIP3   OH2 2870   6.332   1.102   4.075 -0.6286  0.3453  0.5762
  955TIP3    H1 2871   6.357   1.084   3.985  0.9211 -0.7016  1.1662
  955TIP3    H2 2872   6.361   1.192   4.090 -0.8437  0.5050  0.0476
  956TIP3   OH2 2873   4.109   0.889   3.719 -0.1376  0.7477  0.3649
  956TIP3    H1 2874   4.104   0.907   3.625  1.0435  1.2157  0.3738
  956TIP3    H2 2875   4.040   0.825   3.735 -0.4923  0.8250 -0.7837
  957TIP3   OH2 2876   2.786   1.798   2.594 -0.0993  0.1634  0.2140
  957TIP3    H1 2877   2.791   1.813   2.500 -1.8027 -0.1207  0.0489
  957TIP3    H2 2878   2.703   1.753   2.607  0.7788 -1.1624  1.6872
  958TIP3   OH2 2879   1.417   1.635   1.401  0.3072  0.1578 -0.4941
  958TIP3    H1 2880   1.481   1.701   1.426 -0.0050  0.6277 -0.9187
  958TIP3    H2 2881   1.465   1.553   1.403  0.0178 -0.0767  2.9423
  959TIP3   OH2 2882   2.161   1.070   3.313 -0.3251  0.1030 -0.8433
  959TIP3    H1 2883   2.176   1.157   3.276  1.1863 -0.2720 -1.1747
  959TIP3    H2 2884   2.245   1.045   3.351 -0.5696 -1.4693 -1.2745
  960TIP3   OH2 2885   5.804   0.989   4.884 -0.3890 -0.0176 -0.3183
  960TIP3    H1 2886   5.741   1.052   4.919  0.7970  0.9941  0.0384
  960TIP3    H2 2887   5.792   0.911   4.937 -1.8924 -0.1492 -0.7768
  961TIP3   OH2 2888   1.227   3.496   2.520  0.3687 -0.0630  0.2586
  961TIP3    H1 2889   1.275   3.520   2.440 -0.7315  1.9081  0.1280
  961TIP3    H2 2890   1.232   3.400   2.523  2.4662 -0.0544 -0.8675
  962TIP3   OH2 2891   4.137   2.835   4.932 -0.1636 -0.2504  0.0693
  962TIP3    H1 2892   4.067   2.770   4.936 -1.2358  0.9084  0.6495
  962TIP3    H2 2893   4.173   2.836   5.021  0.2884 -0.4992 -0.1065
  963TIP3   OH2 2894   4.496   5.914   4.671  0.1673 -0.4406 -0.0085
  963TIP3    H1 2895   4.426   5.899   4.734  0.6046  0.3417  0.6775
  963TIP3    H2 2896   4.455   5.964   4.601  0.3616  1.3440  1.1049
  964TIP3   OH2 2897   1.429   2.251   2.875 -0.2758 -0.5608  0.4812
  964TIP3    H1 2898   1.349   2.291   2.840 -0.9087 -1.7388  0.5254
  964TIP3    H2 2899   1.403   2.162   2.900  1.4025 -1.5400 -0.9744
  965TIP3   OH2 2900   3.617   1.548   4.008 -0.3134 -0.3011 -0.2347
  965TIP3    H1 2901   3.607   1.619   4.071 -2.8586 -0.0569 -0.8099
  965TIP3    H2 2902   3.594   1.587   3.923  0.7740 -1.1948 -0.9692
  966TIP3   OH2 2903   1.258   4.520   2.750 -0.2668  0.3991 -0.3230
  966TIP3    H1 2904   1.193   4.587   2.732 -0.6064 -0.1962 -1.4164
  966TIP3    H2 2905   1.330   4.567   2.792 -1.2548  1.1149  0.6035
  967TIP3   OH2 2906   4.029   2.500   5.067  0.2761 -0.4403 -0.7068
  967TIP3    H1 2907   4.027   2.567   4.999 -0.5605 -1.4863 -1.7518
  967TIP3    H2 2908   3.988   2.541   5.143  2.2889  1.1425 -0.3991
  968TIP3   OH2 2909   6.071   5.825   3.179 -0.4366  0.5394  0.5488
  968TIP3    H1 2910   6.162   5.796   3.188  0.3915  0.7402 -4.5868
  968TIP3    H2 2911   6.020   5.745   3.192  0.4785  0.1596  2.1688
  969TIP3   OH2 2912   0.393   5.033   4.878 -0.7654 -0.7444 -0.4576
  969TIP3    H1 2913   0.471   4.980   4.860  0.0437 -0.1586  1.1503
  969TIP3    H2 2914   0.419   5.122   4.855  0.3841  0.0844  3.2902
  970TIP3   OH2 2915   3.111   4.373   4.049 -0.4867 -0.1099  0.0222
  970TIP3    H1 2916   3.122   4.278   4.040  0.6307  0.0665 -0.7590
  970TIP3    H2 2917   3.198   4.409   4.028 -0.0908  0.9617  3.0816
  971TIP3   OH2 2918   0.924   4.185   5.041  0.3619  0.3870  0.2685
  971TIP3    H1 2919   0.986   4.113   5.035 -0.9316 -0.7559  0.0371
  971TIP3    H2 2920   0.838   4.143   5.038 -0.4467  2.0070 -0.8465
  972TIP3   OH2 2921   4.418   3.381   2.755  0.4036 -0.0439 -0.4500
  972TIP3    H1 2922   4.513   3.369   2.755  0.3858 -0.6226 -2.4400
  972TIP3    H2 2923   4.384   3.304   2.802  0.8856 -0.1924 -0.3387
  973TIP3   OH2 2924   2.256   2.384   3.254  0.0545 -0.2673  0.1247
  973TIP3    H1 2925   2.316   2.356   3.185  1.8568  2.6725  0.3170
  973TIP3    H2 2926   2.236   2.305   3.303  1.6256 -1.8004 -1.5893
  974TIP3   OH2 2927   4.683   0.307   4.420 -0.0680 -0.0638 -0.5542
  974TIP3    H1 2928   4.778   0.318   4.427 -0.3434  1.0666  2.5100
  974TIP3    H2 2929   4.663   0.238   4.483 -1.6528  2.5528  2.0173
  975TIP3   OH2 2930   6.074   2.725   0.562  0.4444 -0.3965 -0.2398
  975TIP3    H1 2931   6.117   2.643   0.536  0.0241 -0.2860 -1.3243
  975TIP3    H2 2932   6.008   2.739   0.494  0.3374  0.7097  0.0891
  976TIP3   OH2 2933   2.784   1.182   0.125 -0.2411  0.3845  0.2114
  976TIP3    H1 2934   2.814   1.106   0.075 -1.2005  0.1771 -0.0698
  976TIP3    H2 2935   2.754   1.244   0.059  0.3720  0.9482  0.4488
  977TIP3   OH2 2936   3.404   4.347   0.244  0.5302  0.3928  0.4428
  977TIP3    H1 2937   3.325   4.332   0.192 -0.0815  0.1837  1.4014
  977TIP3    H2 2938   3.465   4.390   0.184  0.6808 -1.8121 -1.0998
  978TIP3   OH2 2939   0.372   1.395   2.424 -0.2944  0.1283  0.2218
  978TIP3    H1 2940   0.285   1.398   2.385 -0.3885  0.6987  0.4588
  978TIP3    H2 2941   0.368   1.324   2.488 -0.4764 -0.0785 -0.0189
  979TIP3   OH2 2942   1.017   0.322   1.483  0.0149 -0.4072 -0.4860
  979TIP3    H1 2943   1.039   0.409   1.449  1.6983 -0.4384  0.4407
  979TIP3    H2 2944   1.087   0.301   1.544 -2.1583 -0.9369  2.0160
  980TIP3   OH2 2945   4.336   5.926   2.375 -0.3526 -0.3080 -0.5608
  980TIP3    H1 2946   4.331   5.993   2.443 -1.0180 -1.5077  0.6218
  980TIP3    H2 2947   4.415   5.948   2.325 -0.3206  1.0845  0.0652
  981TIP3   OH2 2948   2.880   2.487   4.304  0.9127 -0.4268  0.0726
  981TIP3    H1 2949   2.873   2.474   4.210  0.2919 -0.3066  0.0963
  981TIP3    H2 2950   2.791   2.509   4.332  1.3830  1.0436  0.4631
  982TIP3   OH2 2951   4.102   0.798   3.135  0.4506 -0.0945  0.4900
  982TIP3    H1 2952   4.056   0.817   3.054  1.0448 -0.4626  0.0643
  982TIP3    H2 2953   4.050   0.729   3.177  0.7469 -0.6895 -0.1111
  983TIP3   OH2 2954   2.775   3.853   2.118 -0.2049  0.5442 -0.7043
  983TIP3    H1 2955   2.699   3.802   2.146 -0.5939  1.5293  0.1217
  983TIP3    H2 2956   2.788   3.917   2.188  1.6762  0.1159 -0.6075
  984TIP3   OH2 2957   3.756   4.937   2.220 -0.2277 -0.4206 -0.3388
  984TIP3    H1 2958   3.662   4.928   2.204 -0.2120  0.9265 -1.3475
  984TIP3    H2 2959   3.773   4.879   2.294 -1.9671 -0.2262  0.2673
  985TIP3   OH2 2960   4.980   1.412   0.680 -0.7932  0.0772  0.3463
  985TIP3    H1 2961   4.913   1.372   0.734  0.4151  1.2000  2.8211
  985TIP3    H2 2962   5.017   1.339   0.629 -1.4980 -1.1695  1.5669
  986TIP3   OH2 2963   3.349   5.240   0.724  0.5462 -0.3025  0.5950
  986TIP3    H1 2964   3.261   5.275   0.710  0.6597 -0.6012 -1.0431
  986TIP3    H2 2965   3.337   5.171   0.790 -0.1086  0.9314  1.8054
  987TIP3   OH2 2966   2.916   0.264   1.673 -0.2918  0.5699 -0.0401
  987TIP3    H1 2967   2.923   0.217   1.756 -1.0040  0.6088  0.0461
  987TIP3    H2 2968   3.003   0.303   1.661  0.0018  0.0657  0.3811
  988TIP3   OH2 2969   4.219   3.601   4.549  0.2739 -0.8065  0.2481
  988TIP3    H1 2970   4.189   3.533   4.609  0.6511 -0.1071  1.2445
  988TIP3    H2 2971   4.303   3.569   4.516  0.3943 -0.8746  0.6225
  989TIP3   OH2 2972   3.619   0.442   3.494 -0.0468 -0.5812  0.2406
  989TIP3    H1 2973   3.695   0.410   3.445  1.7127  0.9771  1.7535
  989TIP3    H2 2974   3.633   0.410   3.583 -0.9441  0.0827  0.6321
  990TIP3   OH2 2975   1.663   2.723   0.187  0.2308 -0.4319 -0.2049
  990TIP3    H1 2976   1.651   2.692   0.277  1.9797 -1.1758 -0.1773
  990TIP3    H2 2977   1.575   2.746   0.158 -0.8194 -2.8529  0.7465
  991TIP3   OH2 2978   5.259   1.874   2.886 -0.3893  0.0747  0.1577
  991TIP3    H1 2979   5.294   1.797   2.840  0.2324  2.1647 -3.1906
  991TIP3    H2 2980   5.165   1.856   2.894 -0.1711 -1.2556 -0.0071
  992TIP3   OH2 2981   1.811   3.651   1.662  0.3951  0.6429  0.3068
  992TIP3    H1 2982   1.734   3.707   1.657  1.0830  1.6505  0.6886
  992TIP3    H2 2983   1.782   3.566   1.626 -0.8046  1.0744  0.2267
  993TIP3   OH2 2984  -0.014   1.702   4.212 -0.5379 -0.5183 -0.4313
  993TIP3    H1 2985   0.057   1.647   4.178 -0.0336  1.2200 -2.4541
  993TIP3    H2 2986   0.015   1.727   4.300 -0.5043 -2.9008  0.2861
  994TIP3   OH2 2987   0.582   0.414   3.747  0.5776  0.5160 -0.0955
  994TIP3    H1 2988   0.581   0.347   3.816  2.1190 -0.0550 -0.5850
  994TIP3    H2 2989   0.539   0.490   3.787 -0.3953 -0.4586  0.7806
  995TIP3   OH2 2990   2.237   4.740   5.058  0.1038 -0.3226  0.0679
  995TIP3    H1 2991   2.317   4.721   5.107  0.8002  3.2128  0.6000
  995TIP3    H2 2992   2.266   4.797   4.987 -1.7160 -0.4067 -0.7940
  996TIP3   OH2 2993   0.473   0.295   4.521  0.1624  0.5570  0.2201
  996TIP3    H1 2994   0.524   0.221   4.553 -2.1292 -0.4957  1.6847
  996TIP3    H2 2995   0.482   0.362   4.589  1.3057  1.2305 -0.5631
  997TIP3   OH2 2996   5.206   2.370   3.301  0.4745 -0.3285 -0.0819
  997TIP3    H1 2997   5.113   2.380   3.281  0.6210  1.3062 -0.1089
  997TIP3    H2 2998   5.211   2.387   3.396  0.8215  0.3654 -0.2159
  998TIP3   OH2 2999   3.494   0.180   0.780 -0.3115 -0.1782 -0.0754
  998TIP3    H1 3000   3.551   0.153   0.851  0.1321  0.4727 -0.1689
  998TIP3    H2 3001   3.417   0.217   0.823 -0.1994 -0.1099  0.0656
  999TIP3   OH2 3002   0.687   3.383   2.088  0.5621  0.5372 -0.1872
  999TIP3    H1 3003   0.658   3.436   2.014  1.4113  0.6144 -0.4701
  999TIP3    H2 3004   0.718   3.301   2.049 -2.2314 -0.8993  0.3444
 1000TIP3   OH2 3005   2.356   1.708   1.870 -0.4675  0.5507  0.3634
 1000TIP3    H1 3006   2.300   1.654   1.926  2.0324 -3.0723 -0.2972
 1000TIP3    H2 3007   2.416   1.751   1.931 -0.6329  0.2306  0.7560
 1001TIP3   OH2 3008   2.334   0.908   0.633  0.1169 -0.2496 -0.3782
 1001TIP3    H1 3009   2.418   0.916   0.678 -0.3327  0.2647  0.4030
 1001TIP3    H2 3010   2.270   0.895   0.704 -0.7504  1.6323 -0.7570
 1002TIP3   OH2 3011   0.851   5.644   2.903 -0.0411 -0.0961 -0.2185
 1002TIP3    H1 3012   0.853   5.684   2.816  0.1355 -1.2624 -0.7651
 1002TIP3    H2 3013   0.766   5.601   2.907 -0.0648 -0.0133  0.2108
 1003TIP3   OH2 3014   4.589   1.008   1.497  0.6341  0.3897  0.0409
 1003TIP3    H1 3015   4.595   1.102   1.478  0.6938  0.5969  1.0502
 1003TIP3    H2 3016   4.542   0.972   1.422  0.1565  1.3123 -0.1193
 1004TIP3   OH2 3017   5.618   0.258   0.775  0.2544  0.1077  0.9150
 1004TIP3    H1 3018   5.597   0.338   0.824 -2.5118 -0.6186  1.0967
 1004TIP3    H2 3019   5.624   0.286   0.684 -0.5874  0.5723  0.9917
 1005TIP3   OH2 3020   2.632   4.553   0.103  0.3900  0.0342 -0.1891
 1005TIP3    H1 3021   2.554   4.606   0.122 -0.6451 -1.4195 -0.2405
 1005TIP3    H2 3022   2.687   4.562   0.181 -0.8759 -0.7057  0.8397
 1006TIP3   OH2 3023   3.019   4.313   3.118 -0.1165  0.1012 -0.2351
 1006TIP3    H1 3024   3.098   4.365   3.107 -0.1450  0.3324  0.6169
 1006TIP3    H2 3025   3.050   4.227   3.148 -0.2199  0.4243  0.8446
 1007TIP3   OH2 3026   2.243   5.472   0.507 -0.4654 -0.0223  0.2169
 1007TIP3    H1 3027   2.208   5.526   0.578 -0.3227  0.9902 -0.4577
 1007TIP3    H2 3028   2.271   5.391   0.550  0.8713  1.0734  1.5734
 1008TIP3   OH2 3029   4.541   0.346   0.328  0.2147 -0.2746  0.6365
 1008TIP3    H1 3030   4.514   0.343   0.420  0.7258  0.9754  0.8491
 1008TIP3    H2 3031   4.550   0.440   0.309  0.8163 -0.5457 -0.4756
 1009TIP3   OH2 3032   4.770   5.289   2.781  0.1615  0.4167  0.4131
 1009TIP3    H1 3033   4.827   5.315   2.854 -1.1262  2.3269  0.7958
 1009TIP3    H2 3034   4.810   5.330   2.704 -0.3620  1.3043  0.6000
 1010TIP3   OH2 3035   3.467   0.592   0.185  0.0468  0.6661  0.2707
 1010TIP3    H1 3036   3.452   0.500   0.165 -2.4324  1.4265 -1.8900
 1010TIP3    H2 3037   3.561   0.605   0.169  0.3833 -1.3602  0.3171
 1011TIP3   OH2 3038   5.556   2.654   2.502  0.2901 -0.7050  0.2782
 1011TIP3    H1 3039   5.577   2.748   2.504 -1.2600 -0.2904 -0.7686
 1011TIP3    H2 3040   5.611   2.619   2.431 -0.3524 -0.2235 -0.4795
 1012TIP3   OH2 3041   2.144   0.337   3.037  0.2735  0.2153  0.1941
 1012TIP3    H1 3042   2.106   0.389   3.108 -0.5526 -0.2799  0.1247
 1012TIP3    H2 3043   2.071   0.289   3.000  1.3954 -3.3788  2.2143
 1013TIP3   OH2 3044   3.162   1.556   0.717 -0.3907  0.0694 -0.1132
 1013TIP3    H1 3045   3.083   1.567   0.770 -1.0588  3.4600 -1.5243
 1013TIP3    H2 3046   3.135   1.507   0.641 -1.2432  1.2984 -0.6350
 1014TIP3   OH2 3047   4.454   2.046   0.089 -0.0005  0.3500  0.0094
 1014TIP3    H1 3048   4.405   2.017   0.166  0.4487  0.5527  0.3787
 1014TIP3    H2 3049   4.519   1.978   0.075  0.3726  0.6547  0.2392
 1015TIP3   OH2 3050   5.254   0.502   0.587  0.1384 -0.6659  0.2539
 1015TIP3    H1 3051   5.183   0.474   0.646 -1.2002 -0.1168 -1.0315
 1015TIP3    H2 3052   5.234   0.459   0.504  1.3041 -0.4559 -0.1436
 1016TIP3   OH2 3053   1.845   3.857   1.952  0.1324  0.1804 -0.2945
 1016TIP3    H1 3054   1.759   3.851   1.911 -0.8737  0.0760  1.7116
 1016TIP3    H2 3055   1.853   3.776   2.003  0.4852  1.1573  1.2491
 1017TIP3   OH2 3056   3.440   5.765   0.277  0.2633 -0.0894  0.4454
 1017TIP3    H1 3057   3.381   5.736   0.207 -0.4808  0.3524  0.8840
 1017TIP3    H2 3058   3.478   5.846   0.244 -0.7439  0.5823  0.8951
 1018TIP3   OH2 3059   5.963   5.039   5.091  0.2966 -0.0396  0.0009
 1018TIP3    H1 3060   6.003   5.107   5.143 -1.7586  0.9347  0.4198
 1018TIP3    H2 3061   5.976   5.066   5.000  2.2406 -0.7795  0.0114
 1019TIP3   OH2 3062   3.526   4.760   4.703  0.2565  0.4854 -0.2050
 1019TIP3    H1 3063   3.596   4.825   4.697 -0.0424  0.9127  0.7337
 1019TIP3    H2 3064   3.455   4.805   4.748 -0.4256 -0.1150 -0.6524
 1020TIP3   OH2 3065   5.025   1.213   2.521 -0.5186 -0.2483  0.0981
 1020TIP3    H1 3066   5.061   1.227   2.609 -0.2562 -1.5917  0.2223
 1020TIP3    H2 3067   4.982   1.128   2.526  0.8576 -1.0949 -1.4966
 1021TIP3   OH2 3068   3.987   3.842   1.887  0.1329  0.9119 -0.7499
 1021TIP3    H1 3069   3.978   3.936   1.871  1.6074  1.0223 -1.0143
 1021TIP3    H2 3070   4.079   3.829   1.908 -0.3182 -0.2843  0.7117
 1022TIP3   OH2 3071   3.166   1.082   2.155  0.1295 -0.4680  0.0801
 1022TIP3    H1 3072   3.090   1.132   2.127  0.4805 -0.3402 -0.6793
 1022TIP3    H2 3073   3.188   1.028   2.079  0.4503 -0.9210  0.4935
 1023TIP3   OH2 3074   0.552   1.026   2.980  0.6752  0.6940 -0.4785
 1023TIP3    H1 3075   0.525   1.107   2.936  0.2477  0.6887 -0.2272
 1023TIP3    H2 3076   0.628   0.996   2.930  0.3853  0.8549 -1.0199
 1024TIP3   OH2 3077   5.858   1.700   5.061 -0.1516 -0.6270  0.2300
 1024TIP3    H1 3078   5.943   1.709   5.018  0.4555 -0.8770  1.3624
 1024TIP3    H2 3079   5.795   1.734   4.996  0.7851 -0.5332 -0.6532
 1025TIP3   OH2 3080   3.237   3.676   2.815  0.5275 -0.1737  0.5059
 1025TIP3    H1 3081   3.178   3.751   2.805 -0.7326 -1.0885  0.8324
 1025TIP3    H2 3082   3.285   3.672   2.732 -0.7506 -0.1160 -0.2610
 1026TIP3   OH2 3083   2.812   4.652   1.013  0.3121 -0.0924 -0.7123
 1026TIP3    H1 3084   2.738   4.654   1.073  0.4533 -0.9451 -0.4881
 1026TIP3    H2 3085   2.833   4.744   0.996  0.7631  0.1787  1.1540
 1027TIP3   OH2 3086   1.983   3.003   3.953  0.2358  0.3187  0.2589
 1027TIP3    H1 3087   2.033   2.921   3.958  1.4725  1.1061  2.7251
 1027TIP3    H2 3088   2.049   3.070   3.939 -0.4846  1.1056  0.5414
 1028TIP3   OH2 3089   0.712   4.614   0.153 -0.1171  0.1961  0.3217
 1028TIP3    H1 3090   0.621   4.634   0.129  0.3067  0.8502 -0.7905
 1028TIP3    H2 3091   0.712   4.615   0.249 -1.1456  0.8003  0.3308
 1029TIP3   OH2 3092   3.047   1.188   1.247  0.7507  0.0159 -0.5590
 1029TIP3    H1 3093   2.990   1.230   1.184  0.5917 -0.5704 -0.8104
 1029TIP3    H2 3094   3.031   1.234   1.329 -1.5061 -1.3425 -0.1539
 1030TIP3   OH2 3095   2.940   2.775   1.968  0.1291  0.1194 -0.7845
 1030TIP3    H1 3096   2.922   2.739   1.881 -1.1304  0.6293 -0.7597
 1030TIP3    H2 3097   2.871   2.840   1.982 -1.0856 -1.5128  1.4931
 1031TIP3   OH2 3098   4.451   0.550   4.038 -0.4833 -0.0040 -0.1306
 1031TIP3    H1 3099   4.381   0.565   4.102 -1.4574 -1.1975 -0.8574
 1031TIP3    H2 3100   4.498   0.473   4.071 -0.3646 -0.0115 -0.3157
 1032TIP3   OH2 3101   2.678   2.036   1.410  0.0724 -0.0227  0.8124
 1032TIP3    H1 3102   2.603   2.053   1.467  0.6694 -0.0198  1.6168
 1032TIP3    H2 3103   2.659   1.952   1.368 -1.3386  0.9525 -0.6049
 1033TIP3   OH2 3104   2.448   0.653   5.109  0.0668 -0.4734 -0.8187
 1033TIP3    H1 3105   2.491   0.607   5.037  0.3955 -0.1715 -0.8197
 1033TIP3    H2 3106   2.407   0.729   5.068  0.3203 -0.2590 -0.6783
 1034TIP3   OH2 3107   2.075   1.569   5.190  0.2049  0.1450  0.1164
 1034TIP3    H1 3108   2.116   1.489   5.156 -0.1080  0.2917 -0.6336
 1034TIP3    H2 3109   1.983   1.561   5.165  0.0064  0.3593  0.7667
 1035TIP3   OH2 3110   2.406   1.482   3.226  0.1599 -0.3065  0.0744
 1035TIP3    H1 3111   2.469   1.460   3.156  0.2294 -0.4595  0.1837
 1035TIP3    H2 3112   2.445   1.444   3.305  0.4088  0.4282  0.3171
 1036TIP3   OH2 3113   1.354   0.024   1.585  0.6701  0.3876 -0.3773
 1036TIP3    H1 3114   1.358   0.112   1.548  2.5374  0.7102  0.4685
 1036TIP3    H2 3115   1.295   0.031   1.660 -1.2737  0.2590 -1.8145
 1037TIP3   OH2 3116   1.604   1.778   1.546 -0.3147  0.3834  0.1100
 1037TIP3    H1 3117   1.659   1.729   1.608 -0.1934  0.1311 -0.1979
 1037TIP3    H2 3118   1.550   1.834   1.602  0.7969  1.2044  0.3847
 1038TIP3   OH2 3119   5.995   0.856   1.293  0.3964 -0.2825  0.6729
 1038TIP3    H1 3120   6.058   0.832   1.225  0.7075  0.7049  0.5953
 1038TIP3    H2 3121   5.947   0.930   1.256  0.0234 -0.2513  1.2103
 1039TIP3   OH2 3122   5.100   0.131   1.733  0.2668 -0.1474  0.2703
 1039TIP3    H1 3123   5.152   0.142   1.654  0.3358 -2.0727  0.0000
 1039TIP3    H2 3124   5.137   0.052   1.775  0.0944  0.6963  2.1062
 1040TIP3   OH2 3125   6.310   3.923   0.544  0.0348  0.0626 -0.2483
 1040TIP3    H1 3126   6.330   3.898   0.454  0.3220  0.0439 -0.1828
 1040TIP3    H2 3127   6.227   3.880   0.564 -1.7377  2.6254 -1.5791
 1041TIP3   OH2 3128   4.238   3.307   3.753 -0.0208 -0.6059  0.2426
 1041TIP3    H1 3129   4.296   3.295   3.828  0.3130 -1.7475 -0.1807
 1041TIP3    H2 3130   4.174   3.237   3.760 -2.1873  1.3374  1.3819
 1042TIP3   OH2 3131   2.991   5.560   5.009  0.3032  0.2702  0.0921
 1042TIP3    H1 3132   2.910   5.510   5.012  0.6560 -0.3076  2.2672
 1042TIP3    H2 3133   2.964   5.649   4.988 -0.3869 -0.6038 -3.4457
 1043TIP3   OH2 3134   2.073   4.362   2.966 -0.6465  0.2229  0.1376
 1043TIP3    H1 3135   2.059   4.433   3.030 -1.1485  0.8870 -0.6853
 1043TIP3    H2 3136   1.990   4.356   2.919  0.1728  0.7648 -1.4479
 1044TIP3   OH2 3137   1.747   0.826   2.900  0.1477  0.5017 -0.6184
 1044TIP3    H1 3138   1.665   0.859   2.934 -0.4658 -0.1492 -1.4258
 1044TIP3    H2 3139   1.722   0.761   2.835  1.2996  0.3737 -0.9632
 1045TIP3   OH2 3140   4.787   2.028   2.569  0.1663  0.1790 -0.1483
 1045TIP3    H1 3141   4.851   2.090   2.534  1.1582 -0.6156  0.2030
 1045TIP3    H2 3142   4.702   2.063   2.542  0.6293  2.1294  0.7065
 1046TIP3   OH2 3143   0.600   2.357   4.960 -0.3930 -0.3689 -0.2432
 1046TIP3    H1 3144   0.543   2.429   4.932  0.6467  0.6419  0.1457
 1046TIP3    H2 3145   0.540   2.287   4.984 -1.5396  1.0501  1.2467
 1047TIP3   OH2 3146   2.015   2.388   4.682  0.4745 -0.8865 -0.0387
 1047TIP3    H1 3147   1.942   2.444   4.654 -1.6736 -2.9737  1.0963
 1047TIP3    H2 3148   2.002   2.376   4.775  2.0132 -1.7618  0.0932
 1048TIP3   OH2 3149   4.999   4.118   1.721  0.4785 -0.3826 -0.4708
 1048TIP3    H1 3150   5.003   4.059   1.796 -0.5146  0.1122 -0.0185
 1048TIP3    H2 3151   4.969   4.201   1.758  0.1940 -0.0749 -1.3811
 1049TIP3   OH2 3152   0.923   2.776   4.994  0.3928  0.0414  0.4839
 1049TIP3    H1 3153   0.985   2.742   5.059  0.6681 -0.5002 -0.0572
 1049TIP3    H2 3154   0.937   2.722   4.917  0.6043  1.1696 -0.2949
 1050TIP3   OH2 3155   1.444   5.569   3.912 -0.1092 -0.0727  0.1762
 1050TIP3    H1 3156   1.502   5.582   3.987  1.0324 -0.7334 -0.5521
 1050TIP3    H2 3157   1.431   5.657   3.877 -1.8396  0.4413  1.9480
 1051TIP3   OH2 3158   4.626   3.122   4.212  0.1783 -0.3550 -0.3932
 1051TIP3    H1 3159   4.531   3.121   4.224  0.1405 -0.7332 -0.7093
 1051TIP3    H2 3160   4.661   3.150   4.296 -0.2747  1.0665 -0.6596
 1052TIP3   OH2 3161   6.155   0.967   2.962  0.5836  0.7814  0.3535
 1052TIP3    H1 3162   6.068   0.930   2.950  1.8723 -2.4206 -0.2484
 1052TIP3    H2 3163   6.162   0.982   3.056 -0.3846  0.3800  0.5013
 1053TIP3   OH2 3164   4.511   3.567   3.039 -0.2377  0.9349 -0.4107
 1053TIP3    H1 3165   4.485   3.476   3.046 -0.6690  1.0685 -0.2573
 1053TIP3    H2 3166   4.606   3.567   3.054 -0.2928  0.5561 -0.0735
 1054TIP3   OH2 3167   2.617   3.459   4.521  0.1306 -0.8545  0.2542
 1054TIP3    H1 3168   2.663   3.464   4.437 -1.8190  0.5886 -0.8059
 1054TIP3    H2 3169   2.660   3.387   4.567  2.1853 -0.7863 -1.3879
 1055TIP3   OH2 3170   1.983   3.271   2.369 -0.1996  0.1300  0.7162
 1055TIP3    H1 3171   2.007   3.181   2.388  0.2929 -0.8684 -3.7466
 1055TIP3    H2 3172   1.888   3.274   2.384 -0.2093 -1.0996  0.9922
 1056TIP3   OH2 3173   1.905   1.042   2.788 -0.2941  0.1438 -0.2579
 1056TIP3    H1 3174   1.874   1.105   2.853  0.2886  0.3896 -0.2068
 1056TIP3    H2 3175   1.855   0.963   2.805  0.0604  0.1092  0.6968
 1057TIP3   OH2 3176   0.299   3.040   4.254 -0.0277 -0.7461  0.4870
 1057TIP3    H1 3177   0.358   3.035   4.329  0.5426 -2.0828 -0.0225
 1057TIP3    H2 3178   0.320   2.962   4.202 -1.3054 -0.5222 -0.3984
 1058TIP3   OH2 3179   4.148   1.683   0.624  0.3129 -0.1750  0.4655
 1058TIP3    H1 3180   4.102   1.618   0.679  0.5703 -0.3205  0.5102
 1058TIP3    H2 3181   4.079   1.743   0.595  0.2394  0.1514  1.2961
 1059TIP3   OH2 3182   4.190   1.198   2.646 -0.3645 -0.0647 -0.8614
 1059TIP3    H1 3183   4.276   1.164   2.670 -0.8850  0.0384  1.4198
 1059TIP3    H2 3184   4.136   1.120   2.634  0.4387 -0.2235 -4.3781
 1060TIP3   OH2 3185   2.875   3.998   4.741 -0.1187  1.0124  0.2107
 1060TIP3    H1 3186   2.813   3.964   4.676 -0.3055  2.4976 -0.4350
 1060TIP3    H2 3187   2.912   4.076   4.700  2.7131 -0.1475  0.2800
 1061TIP3   OH2 3188   6.236   3.410   5.189  0.0094 -0.3548  0.1662
 1061TIP3    H1 3189   6.291   3.478   5.150 -0.6034  0.2536  0.3375
 1061TIP3    H2 3190   6.235   3.340   5.123  0.9187 -0.3542  0.1294
 1062TIP3   OH2 3191   3.372   1.630   2.378 -0.5526  0.9058 -0.4137
 1062TIP3    H1 3192   3.380   1.716   2.339 -0.5808  1.1668  0.1455
 1062TIP3    H2 3193   3.458   1.589   2.364 -0.4267  1.1548 -0.3766
 1063TIP3   OH2 3194   2.528   4.778   1.890  0.2119 -0.3404  0.1213
 1063TIP3    H1 3195   2.447   4.787   1.940 -0.4712  0.6082 -1.1189
 1063TIP3    H2 3196   2.563   4.867   1.884  0.4644 -0.4896 -0.7721
 1064TIP3   OH2 3197   5.846   5.640   2.933 -0.4601  0.1650 -0.2508
 1064TIP3    H1 3198   5.887   5.636   3.020 -0.7343  1.9559 -0.0024
 1064TIP3    H2 3199   5.752   5.634   2.950 -0.5445  1.0770 -0.3590
 1065TIP3   OH2 3200   1.039   2.156   4.145  0.4886  0.0776 -0.4433
 1065TIP3    H1 3201   0.949   2.125   4.153  0.3929  0.1833 -1.0641
 1065TIP3    H2 3202   1.091   2.092   4.194  0.2710 -0.9875 -1.5494
 1066TIP3   OH2 3203   6.035   1.611   1.143 -0.1581  0.4508  0.6787
 1066TIP3    H1 3204   6.016   1.543   1.208  1.6866  1.7201  2.6773
 1066TIP3    H2 3205   5.977   1.684   1.167 -1.0901  0.1412 -0.5528
 1067TIP3   OH2 3206   5.531   0.554   0.793 -0.2604 -0.0451 -0.4402
 1067TIP3    H1 3207   5.609   0.610   0.789  0.2851 -0.5191  1.9904
 1067TIP3    H2 3208   5.476   0.595   0.860  0.2385 -2.4202  1.5693
 1068TIP3   OH2 3209   3.732   5.523   3.405 -0.7372  0.3890  0.1248
 1068TIP3    H1 3210   3.799   5.553   3.344  1.3773 -0.4218  1.9206
 1068TIP3    H2 3211   3.666   5.482   3.349  0.8583  0.1189 -1.6715
 1069TIP3   OH2 3212   0.040   4.781   3.702 -0.9031  0.3033  0.0861
 1069TIP3    H1 3213   0.003   4.863   3.735 -1.4033  0.9414 -1.9131
 1069TIP3    H2 3214   0.122   4.807   3.660 -0.9507 -0.2369 -0.3558
 1070TIP3   OH2 3215   1.592   1.771   1.979 -0.0608  0.0101  0.4344
 1070TIP3    H1 3216   1.671   1.825   1.980  0.0809 -0.1703  1.9294
 1070TIP3    H2 3217   1.593   1.728   1.894  2.2215 -1.0824  0.9382
 1071TIP3   OH2 3218   2.570   5.440   3.658 -0.5231  0.3261 -0.2443
 1071TIP3    H1 3219   2.610   5.507   3.603 -2.1758  0.3646 -1.4824
 1071TIP3    H2 3220   2.508   5.487   3.713  0.8007  0.2230  1.4018
 1072TIP3   OH2 3221   4.136   3.277   2.910  0.3354  0.2000 -0.3825
 1072TIP3    H1 3222   4.062   3.217   2.911 -0.4068  1.0585 -1.6248
 1072TIP3    H2 3223   4.097   3.364   2.918  1.1288  0.7070 -1.6957
 1073TIP3   OH2 3224   2.159   3.735   4.000 -0.2246 -0.0783  0.5476
 1073TIP3    H1 3225   2.210   3.812   3.974 -0.0099 -0.2642  0.4165
 1073TIP3    H2 3226   2.129   3.756   4.088 -1.6163  0.8929 -0.1191
 1074TIP3   OH2 3227   4.683   0.284   3.099 -0.2335  0.0829  0.0140
 1074TIP3    H1 3228   4.630   0.354   3.137  2.1878  1.3579  1.2679
 1074TIP3    H2 3229   4.685   0.216   3.167  1.2101  0.8443  0.7645
 1075TIP3   OH2 3230   2.553   3.377   3.776 -0.1115  0.5175 -0.1474
 1075TIP3    H1 3231   2.603   3.449   3.739  0.5714  0.0975 -0.0507
 1075TIP3    H2 3232   2.591   3.362   3.863 -1.4295  1.2217  0.5870
 1076TIP3   OH2 3233   3.762   3.005   1.270 -0.0879  0.3956  0.2200
 1076TIP3    H1 3234   3.676   3.048   1.273 -0.7886 -0.6187 -2.5781
 1076TIP3    H2 3235   3.823   3.076   1.249 -0.3567  0.9554  1.2496
 1077TIP3   OH2 3236   4.056   3.145   3.283 -0.3952  0.4146  0.7964
 1077TIP3    H1 3237   4.024   3.158   3.194 -0.2300  0.6025  0.7629
 1077TIP3    H2 3238   4.149   3.166   3.278  0.4266 -2.8746  0.2428
 1078TIP3   OH2 3239   4.052   5.081   5.122  0.1117  0.2733 -0.5446
 1078TIP3    H1 3240   4.027   5.154   5.179 -0.6819  1.0169 -1.8125
 1078TIP3    H2 3241   4.124   5.116   5.070  1.8805 -0.8898  0.9865
 1079TIP3   OH2 3242   2.479   4.013   4.082  0.1583 -0.6104 -0.1586
 1079TIP3    H1 3243   2.425   4.053   4.151  0.4997  0.6193 -0.5759
 1079TIP3    H2 3244   2.420   4.005   4.007  0.5618  0.8677 -0.6603
 1080TIP3   OH2 3245   6.142   1.738   3.028  0.1942 -0.0849  0.2042
 1080TIP3    H1 3246   6.095   1.731   3.112 -0.2317 -2.0601 -0.1518
 1080TIP3    H2 3247   6.213   1.674   3.035 -0.2655 -0.7838 -1.1877
 1081TIP3   OH2 3248   5.977   0.637   4.345 -0.3394 -0.0074 -0.0661
 1081TIP3    H1 3249   5.984   0.634   4.440  2.1153 -0.2073 -0.1944
 1081TIP3    H2 3250   5.902   0.581   4.325 -0.2103 -0.8716  1.6754
 1082TIP3   OH2 3251   4.875   4.871   2.861 -0.3051 -0.4075 -0.1366
 1082TIP3    H1 3252   4.906   4.823   2.784 -0.1274 -0.5184  0.0030
 1082TIP3    H2 3253   4.919   4.829   2.935  0.4727  0.4762 -0.0815
 1083TIP3   OH2 3254   3.221   4.894   3.790  0.4092  0.0782 -0.6595
 1083TIP3    H1 3255   3.196   4.808   3.823  0.1805  1.0098  1.7617
 1083TIP3    H2 3256   3.155   4.914   3.724 -1.2009 -0.4538  0.7184
 1084TIP3   OH2 3257   0.082   4.868   2.993 -0.4664  0.4778  0.2183
 1084TIP3    H1 3258   0.036   4.921   2.928 -1.1217 -0.0512  0.2361
 1084TIP3    H2 3259   0.173   4.897   2.988 -0.6435  0.9458 -0.4215
 1085TIP3   OH2 3260   0.972   3.898   1.299  0.0778 -0.0525  0.0300
 1085TIP3    H1 3261   1.060   3.905   1.336 -0.0796 -1.3202  0.7016
 1085TIP3    H2 3262   0.934   3.984   1.312  1.1427  0.4492 -0.0707
 1086TIP3   OH2 3263   3.769   2.618   4.316  0.0026 -0.7980 -0.3900
 1086TIP3    H1 3264   3.695   2.597   4.259 -1.3351 -0.6216  1.2133
 1086TIP3    H2 3265   3.773   2.713   4.317 -0.2986 -0.7835  0.1624
 1087TIP3   OH2 3266   4.380   0.213   5.052  0.2849  0.2151  0.6334
 1087TIP3    H1 3267   4.440   0.140   5.070 -1.4771 -1.1059  1.3689
 1087TIP3    H2 3268   4.365   0.207   4.957 -0.7008 -1.1027  0.8478
 1088TIP3   OH2 3269   2.270   1.899   0.717  0.0912  0.2622  0.5498
 1088TIP3    H1 3270   2.222   1.951   0.652 -1.0834 -0.1574  1.0622
 1088TIP3    H2 3271   2.233   1.926   0.801 -1.5268 -2.3454  0.7577
 1089TIP3   OH2 3272   1.327   3.502   4.378  0.0519  0.0600  0.2926
 1089TIP3    H1 3273   1.320   3.572   4.312  0.5709 -0.6563 -0.5462
 1089TIP3    H2 3274   1.405   3.525   4.429 -0.3141  0.5855  0.6201
 1090TIP3   OH2 3275   5.166   0.031   2.512  0.7707  0.2442  0.1787
 1090TIP3    H1 3276   5.191  -0.036   2.575  2.1059 -0.9442 -1.5051
 1090TIP3    H2 3277   5.233   0.024   2.443  0.8810  3.2359 -0.1236
 1091TIP3   OH2 3278   5.553   3.059   4.771  0.2642 -0.2136 -0.1219
 1091TIP3    H1 3279   5.591   3.091   4.689 -0.7917 -0.5926 -0.7775
 1091TIP3    H2 3280   5.593   2.973   4.784  0.4871 -0.1236 -0.1979
 1092TIP3   OH2 3281   0.878   1.256   1.227 -0.0173 -0.6383  0.3998
 1092TIP3    H1 3282   0.828   1.285   1.151 -0.5127 -2.5520 -0.0524
 1092TIP3    H2 3283   0.941   1.327   1.243 -0.7233  0.3590 -1.0011
 1093TIP3   OH2 3284   5.877   2.320   4.181  0.0170  0.3484  0.0400
 1093TIP3    H1 3285   5.941   2.392   4.176  0.1394  0.3049  0.7479
 1093TIP3    H2 3286   5.901   2.261   4.110  0.7229  0.3709  0.2519
 1094TIP3   OH2 3287   3.603   2.828   2.581  0.5221  0.1760  0.2618
 1094TIP3    H1 3288   3.561   2.769   2.518  0.2061 -0.1192  0.7452
 1094TIP3    H2 3289   3.625   2.906   2.529 -0.1436  0.1224 -0.1156
 1095TIP3   OH2 3290   4.376   0.674   4.913  0.6258  0.1280  0.2458
 1095TIP3    H1 3291   4.299   0.729   4.901  0.4810  0.3825  2.1519
 1095TIP3    H2 3292   4.435   0.726   4.966  1.8276 -0.3653 -0.5626
 1096TIP3   OH2 3293   1.057   1.285   5.165  0.2866 -0.0971 -0.5727
 1096TIP3    H1 3294   1.000   1.332   5.227 -0.0780 -0.9029 -0.2774
 1096TIP3    H2 3295   0.996   1.242   5.106  0.4627 -2.6203  0.9445
 1097TIP3   OH2 3296   5.766   5.046   4.643  0.0545  0.0147 -0.4460
 1097TIP3    H1 3297   5.740   4.981   4.578 -0.2244 -0.7416  0.4002
 1097TIP3    H2 3298   5.687   5.099   4.657 -0.1390 -0.3493 -0.1256
 1098TIP3   OH2 3299   3.386   5.443   1.616  0.3632 -0.1312  0.1539
 1098TIP3    H1 3300   3.356   5.534   1.629 -2.0086 -0.7952 -0.1832
 1098TIP3    H2 3301   3.332   5.392   1.676 -1.6830 -1.8011 -2.8650
 1099TIP3   OH2 3302   0.880   4.151   1.003 -0.0712  0.2606  0.3090
 1099TIP3    H1 3303   0.958   4.166   1.056  0.3536 -1.8017  0.3496
 1099TIP3    H2 3304   0.871   4.056   1.000 -1.1131  0.3650 -1.8455
 1100TIP3   OH2 3305   1.029   1.561   0.753  0.7470 -0.4714 -0.2171
 1100TIP3    H1 3306   1.016   1.506   0.676 -1.9645 -1.4739  0.8482
 1100TIP3    H2 3307   0.996   1.647   0.726 -0.9196 -1.0089 -0.0014
 1101TIP3   OH2 3308   6.297   5.327   1.790 -0.5673 -0.1178 -0.3190
 1101TIP3    H1 3309   6.220   5.317   1.846 -0.8226 -0.0258 -0.6521
 1101TIP3    H2 3310   6.309   5.241   1.750 -0.6216 -0.0771 -0.4243
 1102TIP3   OH2 3311   3.703   1.252   3.303  0.1823 -0.3792  0.4560
 1102TIP3    H1 3312   3.786   1.294   3.323 -0.5096  0.8850  0.7364
 1102TIP3    H2 3313   3.645   1.323   3.275 -1.4021 -0.9197  2.1412
 1103TIP3   OH2 3314   3.901   5.844   5.168 -0.4946 -0.4587  0.6352
 1103TIP3    H1 3315   3.909   5.813   5.078 -0.9023 -0.1005  0.4659
 1103TIP3    H2 3316   3.840   5.783   5.209  0.9079 -1.5599  1.1354
 1104TIP3   OH2 3317   2.143   3.364   0.822  0.0381  0.2211  0.2071
 1104TIP3    H1 3318   2.227   3.332   0.855 -1.0383 -3.0516  0.1560
 1104TIP3    H2 3319   2.154   3.366   0.727  0.6586  1.8900  0.2821
 1105TIP3   OH2 3320   3.199   5.661   1.610  0.1922 -0.0704 -0.1698
 1105TIP3    H1 3321   3.130   5.618   1.558  0.7471 -2.0405  0.6185
 1105TIP3    H2 3322   3.212   5.746   1.568 -2.7838  0.4288 -0.2896
 1106TIP3   OH2 3323   5.466   5.659   1.148  0.1552 -0.1762  0.2889
 1106TIP3    H1 3324   5.386   5.606   1.145  0.5758 -0.8637  0.8396
 1106TIP3    H2 3325   5.439   5.742   1.187  0.1358 -1.2416  2.7031
 1107TIP3   OH2 3326   1.593   3.100   3.843 -0.3275  0.4233  0.2020
 1107TIP3    H1 3327   1.604   3.186   3.803  0.5781 -0.6215 -1.9439
 1107TIP3    H2 3328   1.592   3.039   3.769 -1.0055 -1.4244  1.6511
 1108TIP3   OH2 3329   0.921   2.656   4.461  0.2931 -0.1714 -0.1732
 1108TIP3    H1 3330   0.900   2.723   4.527 -0.9036 -0.0634 -0.6440
 1108TIP3    H2 3331   0.991   2.695   4.409 -0.0407  0.5160 -0.1236
 1109TIP3   OH2 3332   4.868   1.159   2.291 -0.3174  0.7008 -0.1476
 1109TIP3    H1 3333   4.817   1.217   2.234  0.2808  0.4682 -0.9324
 1109TIP3    H2 3334   4.927   1.218   2.339  2.1174  0.6034 -2.7978
 1110TIP3   OH2 3335   0.107   0.453   0.968 -0.2484  0.2612 -0.1010
 1110TIP3    H1 3336   0.177   0.516   0.989 -0.8569  1.0751 -0.4402
 1110TIP3    H2 3337   0.066   0.489   0.889 -2.0009  0.6303  0.9153
 1111TIP3   OH2 3338   1.943   1.913   3.417  0.1349  0.2646  0.9777
 1111TIP3    H1 3339   1.876   1.879   3.476  2.2742 -0.9290  2.8882
 1111TIP3    H2 3340   1.955   2.004   3.443 -1.1110  0.6575  0.2265
 1112TIP3   OH2 3341   3.224   1.692   4.736  0.3769  0.3325  0.6017
 1112TIP3    H1 3342   3.141   1.664   4.774 -0.4346  0.3911 -1.0572
 1112TIP3    H2 3343   3.237   1.780   4.769 -1.5260  1.3101 -1.0333
 1113TIP3   OH2 3344   2.095   3.981   1.439  0.1241  0.0532 -0.1375
 1113TIP3    H1 3345   2.033   4.046   1.406  1.3973  0.9272 -0.8970
 1113TIP3    H2 3346   2.166   4.033   1.477 -0.1573 -0.9239  1.8792
 1114TIP3   OH2 3347   1.621   3.274   2.858  0.1822 -0.3020  0.2923
 1114TIP3    H1 3348   1.527   3.259   2.872 -0.3851 -1.8917 -3.6480
 1114TIP3    H2 3349   1.664   3.207   2.911 -1.0364 -0.7303  0.7865
 1115TIP3   OH2 3350   0.652   5.162   0.640 -0.3811 -0.2445 -0.1378
 1115TIP3    H1 3351   0.611   5.076   0.647  0.6132 -0.6089  1.9062
 1115TIP3    H2 3352   0.579   5.224   0.637 -1.1024 -1.1118 -1.6770
 1116TIP3   OH2 3353   5.972   0.622   4.614 -0.7143  0.6038  0.2637
 1116TIP3    H1 3354   6.031   0.647   4.685 -1.7414  0.7072  1.1042
 1116TIP3    H2 3355   5.904   0.690   4.614 -1.5617 -0.2188  0.2112
 1117TIP3   OH2 3356   3.164   5.775   4.591 -0.6184 -0.1384 -0.4250
 1117TIP3    H1 3357   3.165   5.837   4.664  0.4360  0.5473 -1.0052
 1117TIP3    H2 3358   3.221   5.704   4.619  0.6518  0.6340 -0.9943
 1118TIP3   OH2 3359   4.231   3.473   1.372  0.2346 -0.2397 -0.2105
 1118TIP3    H1 3360   4.245   3.561   1.336 -0.0755 -0.6113 -1.2935
 1118TIP3    H2 3361   4.152   3.442   1.327 -0.0040 -0.8448  0.6106
 1119TIP3   OH2 3362   4.797   5.614   0.535 -0.3126 -0.3406 -0.4626
 1119TIP3    H1 3363   4.734   5.643   0.601 -0.5090 -2.3693  0.3243
 1119TIP3    H2 3364   4.744   5.571   0.469 -0.0040  0.6995 -1.4123
 1120TIP3   OH2 3365   0.364   3.666   3.501  0.0396  0.2629 -0.0452
 1120TIP3    H1 3366   0.389   3.724   3.429 -0.6617  2.2333  1.2093
 1120TIP3    H2 3367   0.324   3.725   3.566 -1.7849 -1.8132  0.8214
 1121TIP3   OH2 3368   1.055   3.652   2.307 -0.1696  0.0261 -0.0240
 1121TIP3    H1 3369   1.117   3.680   2.374  0.1474 -1.4101  0.3345
 1121TIP3    H2 3370   1.108   3.600   2.246 -0.3335  1.7801 -1.7416
 1122TIP3   OH2 3371   1.271   2.566   1.877 -0.2040  0.4127 -0.4612
 1122TIP3    H1 3372   1.331   2.555   1.803 -0.5355 -1.4645 -0.4898
 1122TIP3    H2 3373   1.184   2.569   1.837 -0.3015  0.7067 -0.2316
 1123TIP3   OH2 3374   2.036   2.750   2.529  0.2494 -0.1375  0.1717
 1123TIP3    H1 3375   2.006   2.681   2.469 -1.2129  1.5797 -1.1783
 1123TIP3    H2 3376   1.994   2.728   2.612 -2.1131  0.3146 -0.8225
 1124TIP3   OH2 3377   3.659   4.101   4.470 -0.2633 -0.3305  0.3284
 1124TIP3    H1 3378   3.641   4.111   4.564  2.0500 -0.3934  0.8500
 1124TIP3    H2 3379   3.733   4.041   4.466  0.6219  0.7774 -1.4444
 1125TIP3   OH2 3380   6.181   5.082   4.461 -0.3771  0.8261  0.1068
 1125TIP3    H1 3381   6.115   5.107   4.527 -3.0576 -0.6001 -1.8607
 1125TIP3    H2 3382   6.151   5.123   4.380  0.6383 -0.6714 -1.0818
 1126TIP3   OH2 3383   4.710   1.179   0.567  0.0339 -0.6709 -0.2127
 1126TIP3    H1 3384   4.626   1.198   0.610  0.1453 -1.8122  0.5515
 1126TIP3    H2 3385   4.744   1.102   0.613  1.4712 -0.2804 -0.5677
 1127TIP3   OH2 3386   5.352   1.888   4.876  0.3197  0.5498  0.1320
 1127TIP3    H1 3387   5.397   1.861   4.956 -1.1959  0.5215  1.0138
 1127TIP3    H2 3388   5.283   1.947   4.905 -0.2762  0.5348 -1.1517
 1128TIP3   OH2 3389   2.728   5.256   3.960  0.2561 -0.4887  0.3522
 1128TIP3    H1 3390   2.804   5.203   3.984  0.4392 -0.7822 -0.8207
 1128TIP3    H2 3391   2.706   5.303   4.041  0.5751 -1.7424  1.2011
 1129TIP3   OH2 3392   3.547   0.759   4.072 -0.0364 -0.4805  0.1167
 1129TIP3    H1 3393   3.572   0.795   3.987 -2.6593  0.1215 -0.4785
 1129TIP3    H2 3394   3.559   0.833   4.133  2.5464 -1.1143  0.5151
 1130TIP3   OH2 3395   6.314   4.614   2.965 -0.2196  0.4044 -0.6167
 1130TIP3    H1 3396   6.222   4.625   2.989 -0.3141 -0.8254 -0.3360
 1130TIP3    H2 3397   6.347   4.703   2.954 -0.4967  1.0938  2.8361
 1131TIP3   OH2 3398   1.491   0.197   4.923  0.2938 -0.1110  0.4082
 1131TIP3    H1 3399   1.499   0.286   4.888  2.3941 -0.5544 -0.3716
 1131TIP3    H2 3400   1.548   0.144   4.868  0.2846 -1.6763  1.8201
 1132TIP3   OH2 3401   0.056   4.754   4.671  0.0930  0.0874 -0.0664
 1132TIP3    H1 3402   0.075   4.846   4.687  0.3354 -0.1812  1.2904
 1132TIP3    H2 3403   0.083   4.739   4.580 -0.4822  1.4775 -0.4768
 1133TIP3   OH2 3404   2.726   3.073   1.331  0.4965 -0.1473  0.4205
 1133TIP3    H1 3405   2.712   3.108   1.419  0.1664  0.1057  0.2727
 1133TIP3    H2 3406   2.812   3.107   1.306  0.3550  0.2368  0.4361
 1134TIP3   OH2 3407   1.903   0.102   3.381 -0.0826  0.2258 -0.1502
 1134TIP3    H1 3408   1.913   0.035   3.449  1.9880 -1.1369 -1.6741
 1134TIP3    H2 3409   1.894   0.052   3.300  3.2323  1.6742 -1.5869
 1135TIP3   OH2 3410   2.820   4.360   4.685  0.2287 -0.1339  0.1773
 1135TIP3    H1 3411   2.825   4.455   4.674  1.6643 -0.1058  0.8752
 1135TIP3    H2 3412   2.895   4.326   4.637 -0.6234 -0.9884 -0.5898
 1136TIP3   OH2 3413   1.765   2.585   2.088 -0.0510  0.0102  0.0759
 1136TIP3    H1 3414   1.684   2.599   2.137  0.6015  0.9500  0.9297
 1136TIP3    H2 3415   1.741   2.525   2.017 -1.4398  0.1275  0.4303
 1137TIP3   OH2 3416   4.464   0.840   3.116  0.9172  0.2276 -0.2672
 1137TIP3    H1 3417   4.464   0.923   3.069 -1.4167  0.0430 -0.7188
 1137TIP3    H2 3418   4.471   0.774   3.047 -0.5497  0.0031 -0.2317
 1138TIP3   OH2 3419   0.049   0.303   0.624 -0.0121 -0.1105 -0.0250
 1138TIP3    H1 3420   0.053   0.290   0.530 -2.7580  0.2128 -0.2552
 1138TIP3    H2 3421   0.008   0.224   0.659 -1.8369  0.9951  0.4769
 1139TIP3   OH2 3422   5.546   0.463   1.478 -0.4567 -0.2970 -0.5478
 1139TIP3    H1 3423   5.549   0.369   1.459  0.2291 -0.0153 -1.9509
 1139TIP3    H2 3424   5.593   0.504   1.406 -0.4324  1.1140  0.2306
 1140TIP3   OH2 3425   5.165   5.117   0.193 -0.0605  0.2829  0.4892
 1140TIP3    H1 3426   5.196   5.044   0.246 -1.6758 -0.4179  0.5077
 1140TIP3    H2 3427   5.230   5.125   0.123 -1.1101 -2.8603 -1.0209
 1141TIP3   OH2 3428   5.971   0.988   2.644 -0.1776  0.3525 -0.0864
 1141TIP3    H1 3429   5.919   0.996   2.565  0.2712  0.0895 -0.4098
 1141TIP3    H2 3430   6.009   0.900   2.639  0.9276  0.8239 -0.2446
 1142TIP3   OH2 3431   3.042   3.472   1.343 -0.4778 -0.2010  0.0011
 1142TIP3    H1 3432   2.999   3.482   1.428  1.4855  1.1847  0.9204
 1142TIP3    H2 3433   2.971   3.479   1.279 -2.0936 -1.8619  1.4920
 1143TIP3   OH2 3434   4.809   5.378   1.351  0.2345  0.0617  0.4024
 1143TIP3    H1 3435   4.901   5.395   1.334  0.4296  0.8870  2.0821
 1143TIP3    H2 3436   4.765   5.401   1.269  1.4351  0.3470 -0.1841
 1144TIP3   OH2 3437   1.210   1.711   1.758  0.4509 -0.4806 -0.6037
 1144TIP3    H1 3438   1.147   1.652   1.800 -0.1906  0.1569 -0.6521
 1144TIP3    H2 3439   1.202   1.793   1.806 -0.7832  0.4865 -2.3389
 1145TIP3   OH2 3440   0.407   1.174   0.102  0.5356 -0.6133  0.2065
 1145TIP3    H1 3441   0.405   1.194   0.196  1.0262 -3.3571  0.8751
 1145TIP3    H2 3442   0.497   1.144   0.086  0.3053 -0.6990 -1.0464
 1146TIP3   OH2 3443   4.795   1.958   0.923  0.5147 -0.3368 -0.3925
 1146TIP3    H1 3444   4.704   1.969   0.896  0.0796 -0.4729  0.9711
 1146TIP3    H2 3445   4.791   1.943   1.017  1.9664 -0.0969 -0.2669
 1147TIP3   OH2 3446   5.938   3.017   4.545  0.3461  0.3592  0.1329
 1147TIP3    H1 3447   6.015   3.031   4.601 -0.1654 -0.6286  1.1321
 1147TIP3    H2 3448   5.964   2.947   4.486  0.5680  0.7625 -0.2553
 1148TIP3   OH2 3449   0.520   3.231   2.403  0.3184 -0.0276  0.4727
 1148TIP3    H1 3450   0.554   3.155   2.450  0.4621  0.3607  1.0160
 1148TIP3    H2 3451   0.428   3.236   2.429 -0.8410 -2.3251 -2.6285
 1149TIP3   OH2 3452   0.367   2.883   3.441  0.0072  0.2857  0.3047
 1149TIP3    H1 3453   0.343   2.960   3.390 -0.1949  1.6636  2.3327
 1149TIP3    H2 3454   0.416   2.919   3.516  1.9623 -1.7813  0.1312
 1150TIP3   OH2 3455   1.163   4.541   1.942 -0.0461  0.1722 -0.5976
 1150TIP3    H1 3456   1.241   4.526   1.996  0.3876  0.2873 -1.1818
 1150TIP3    H2 3457   1.094   4.492   1.986  0.3489  0.0759 -0.0642
 1151TIP3   OH2 3458   5.222   2.612   2.966  0.0007 -0.2723  0.1660
 1151TIP3    H1 3459   5.278   2.635   3.040 -0.3080  0.5745  0.1570
 1151TIP3    H2 3460   5.140   2.582   3.006 -0.4584  0.9448  0.1907
 1152TIP3   OH2 3461   2.961   0.342   2.986 -0.4999 -0.7587 -0.0043
 1152TIP3    H1 3462   2.865   0.337   2.985 -0.5573 -0.0451  0.8534
 1152TIP3    H2 3463   2.985   0.299   3.068 -0.1680  0.1005  0.3621
 1153TIP3   OH2 3464   6.155   4.563   0.846  0.1632  0.4398 -0.1898
 1153TIP3    H1 3465   6.209   4.639   0.867 -0.4290  0.8461 -0.1382
 1153TIP3    H2 3466   6.072   4.579   0.890  0.1138 -0.3544  0.0292
 1154TIP3   OH2 3467   6.319   1.033   2.005 -0.8618 -0.3900  0.0501
 1154TIP3    H1 3468   6.228   1.034   1.974 -0.5514 -1.5482 -1.0015
 1154TIP3    H2 3469   6.335   0.941   2.028  0.1229 -0.2449 -0.0211
 1155TIP3   OH2 3470   1.801   4.756   3.430 -0.5989 -0.0910 -0.3551
 1155TIP3    H1 3471   1.872   4.692   3.425 -0.7376 -0.3141  0.4432
 1155TIP3    H2 3472   1.803   4.800   3.345  1.8025  1.2966  0.3177
 1156TIP3   OH2 3473   5.812   3.449   0.070 -0.1374  0.1762  0.1941
 1156TIP3    H1 3474   5.734   3.441   0.124  0.1624  2.7673  1.1540
 1156TIP3    H2 3475   5.779   3.464  -0.019 -0.7000 -0.1326  0.3509
 1157TIP3   OH2 3476   3.339   3.418   3.084  0.1917 -0.0274 -0.0967
 1157TIP3    H1 3477   3.332   3.513   3.098  1.4329  0.3036 -1.4419
 1157TIP3    H2 3478   3.327   3.380   3.171  0.8607  1.4401  0.6746
 1158TIP3   OH2 3479   5.359   2.968   1.970 -0.0301 -0.2098 -0.1294
 1158TIP3    H1 3480   5.420   2.895   1.981  1.2412  0.5468 -1.8361
 1158TIP3    H2 3481   5.407   3.044   2.002  0.2940  0.5234 -2.2169
 1159TIP3   OH2 3482   1.841   4.809   4.950 -0.1907  0.1401  0.1835
 1159TIP3    H1 3483   1.876   4.720   4.949 -0.8891 -0.1383 -0.3406
 1159TIP3    H2 3484   1.759   4.802   4.999  0.3500  0.7319  1.1798
 1160TIP3   OH2 3485   0.216   1.077   3.538  0.2009  0.0066 -0.3604
 1160TIP3    H1 3486   0.133   1.123   3.548 -1.0800 -2.4445  1.6856
 1160TIP3    H2 3487   0.217   1.047   3.447 -0.1279  1.7596 -0.9809
 1161TIP3   OH2 3488   4.065   0.345   1.322  0.2349 -0.7385 -0.1436
 1161TIP3    H1 3489   4.160   0.355   1.312 -0.0261  0.9533 -1.3051
 1161TIP3    H2 3490   4.039   0.419   1.378 -0.3822 -1.3744  0.4340
 1162TIP3   OH2 3491   4.053   0.367   4.936 -0.1480 -0.3257 -0.3308
 1162TIP3    H1 3492   4.100   0.317   4.869  1.2620 -0.5314  0.7641
 1162TIP3    H2 3493   4.023   0.446   4.890  0.7869 -0.4620 -1.2219
 1163TIP3   OH2 3494   1.529   2.505   0.102  0.3672 -0.5206  0.0738
 1163TIP3    H1 3495   1.471   2.579   0.080  0.1348 -1.1312 -1.4896
 1163TIP3    H2 3496   1.617   2.541   0.095  0.2699 -0.4703 -1.1185
 1164TIP3   OH2 3497   3.382   2.331   1.985  0.0207  0.1479 -0.0827
 1164TIP3    H1 3498   3.385   2.405   1.925  1.0133  0.6803  0.5923
 1164TIP3    H2 3499   3.289   2.317   2.001 -0.2557  0.1373 -1.5495
 1165TIP3   OH2 3500   3.449   1.468   0.798  0.3823  0.4505 -0.1161
 1165TIP3    H1 3501   3.477   1.431   0.714  0.4318  0.8035 -0.2572
 1165TIP3    H2 3502   3.361   1.502   0.780  0.8453  1.5749 -0.3441
 1166TIP3   OH2 3503   3.845   3.062   1.627 -0.3970 -0.7235  0.2066
 1166TIP3    H1 3504   3.891   3.065   1.543 -0.5797 -0.2854  0.1233
 1166TIP3    H2 3505   3.756   3.032   1.605 -0.5781 -0.1748  0.1867
 1167TIP3   OH2 3506   2.511   2.138   1.625  0.0198  0.5024  0.0492
 1167TIP3    H1 3507   2.426   2.169   1.595 -0.7293 -0.7223  0.8410
 1167TIP3    H2 3508   2.492   2.060   1.676  1.6098  0.3058  0.3997
 1168TIP3   OH2 3509   5.336   4.810   0.851  0.8575 -0.6289  0.0243
 1168TIP3    H1 3510   5.375   4.767   0.776 -0.8403 -1.8523 -0.2121
 1168TIP3    H2 3511   5.259   4.855   0.816  0.0560 -1.1952  0.9970
 1169TIP3   OH2 3512   0.617   5.126   3.255 -0.1842  0.3735 -0.2217
 1169TIP3    H1 3513   0.534   5.120   3.209 -0.4339  1.8704 -0.0173
 1169TIP3    H2 3514   0.682   5.098   3.191 -0.6469  1.2713 -1.1169
 1170TIP3   OH2 3515   5.289   1.764   3.731  0.3214  0.2743  0.1708
 1170TIP3    H1 3516   5.383   1.764   3.750  0.4944  3.6282 -0.1613
 1170TIP3    H2 3517   5.283   1.759   3.636  0.2387  1.2062  0.1201
 1171TIP3   OH2 3518   0.069   3.140   0.691 -0.2225 -0.5878 -0.7567
 1171TIP3    H1 3519  -0.004   3.079   0.681 -0.4101 -0.3415 -0.9094
 1171TIP3    H2 3520   0.105   3.149   0.603 -0.2367 -0.4302 -0.7476
 1172TIP3   OH2 3521   0.831   2.810   3.813 -0.5003 -0.8260  0.1223
 1172TIP3    H1 3522   0.903   2.747   3.813 -1.9074 -2.5369 -0.7173
 1172TIP3    H2 3523   0.783   2.791   3.894 -0.5940 -0.3892  0.1718
 1173TIP3   OH2 3524   2.849   4.172   0.913 -0.3454  0.1914 -0.1462
 1173TIP3    H1 3525   2.933   4.128   0.898  1.5843  3.5777 -0.2663
 1173TIP3    H2 3526   2.832   4.161   1.006 -0.5074 -1.6168 -0.3543
 1174TIP3   OH2 3527   2.809   3.326   1.850 -0.2175 -0.0658  0.7657
 1174TIP3    H1 3528   2.729   3.354   1.894 -0.1705  0.3938  0.5641
 1174TIP3    H2 3529   2.866   3.296   1.921 -0.6701 -0.6564  0.8830
 1175TIP3   OH2 3530   3.352   2.626   0.720  0.2141  0.3398 -0.0618
 1175TIP3    H1 3531   3.445   2.627   0.743  0.1993 -1.9852  0.3582
 1175TIP3    H2 3532   3.307   2.623   0.805 -0.1601 -0.0907 -0.2678
 1176TIP3   OH2 3533   3.098   4.678   3.910  0.4522  0.1980 -0.0494
 1176TIP3    H1 3534   3.072   4.589   3.887  0.7181 -0.4192  1.8921
 1176TIP3    H2 3535   3.172   4.667   3.969  0.4237  1.7085  0.3155
 1177TIP3   OH2 3536   6.059   0.921   0.036 -0.2037 -0.3222  0.0448
 1177TIP3    H1 3537   6.086   0.998  -0.014 -1.2475 -0.6681 -1.1011
 1177TIP3    H2 3538   6.121   0.916   0.109 -1.8088  3.2943  1.9078
 1178TIP3   OH2 3539   3.234   0.376   2.839  0.2790 -0.5225  0.1515
 1178TIP3    H1 3540   3.205   0.345   2.752  0.4502  1.0472 -0.4881
 1178TIP3    H2 3541   3.155   0.373   2.893 -0.3495  0.5381 -0.6666
 1179TIP3   OH2 3542   2.177   4.595   3.112 -0.6514 -0.1960 -0.0111
 1179TIP3    H1 3543   2.108   4.642   3.065 -1.4075  1.4353  2.5182
 1179TIP3    H2 3544   2.257   4.643   3.091 -0.8647  0.0742 -0.2136
 1180TIP3   OH2 3545   1.676   2.421   4.718  0.0490 -0.4246  0.3243
 1180TIP3    H1 3546   1.693   2.365   4.643 -1.9934 -1.0843  0.2917
 1180TIP3    H2 3547   1.603   2.477   4.690  1.1244  1.3264  0.8473
 1181TIP3   OH2 3548   5.297   4.187   4.922 -0.2286 -0.1482  0.0754
 1181TIP3    H1 3549   5.294   4.282   4.930  0.5283 -0.1807  0.9088
 1181TIP3    H2 3550   5.303   4.171   4.828  2.4068  0.7680  0.0024
 1182TIP3   OH2 3551   2.044   1.130   0.191 -0.5348 -0.0921  0.1601
 1182TIP3    H1 3552   2.075   1.123   0.281 -2.1869  2.5950  1.0605
 1182TIP3    H2 3553   1.977   1.063   0.184 -1.7392  0.8796  1.6315
 1183TIP3   OH2 3554   5.997   4.969   4.161  0.5501 -0.0504  0.1408
 1183TIP3    H1 3555   6.041   5.054   4.156  1.7020 -0.6805 -1.3356
 1183TIP3    H2 3556   5.964   4.954   4.073 -0.6250 -0.6410  0.6691
 1184TIP3   OH2 3557   3.304   4.106   0.657 -0.5398 -0.4930 -0.2277
 1184TIP3    H1 3558   3.253   4.038   0.614 -0.2813 -1.3256  0.7291
 1184TIP3    H2 3559   3.387   4.108   0.609 -0.3825 -1.1755 -0.0061
 1185TIP3   OH2 3560   3.031   4.777   3.032  0.6807 -0.5464  0.2643
 1185TIP3    H1 3561   3.089   4.813   3.099 -1.1791  0.7264  1.2698
 1185TIP3    H2 3562   2.991   4.700   3.072  0.6042 -0.5986  0.0903
 1186TIP3   OH2 3563   5.136   2.857   1.056 -0.4979  0.3062  0.4273
 1186TIP3    H1 3564   5.072   2.829   0.990  0.8462 -1.6877 -0.0901
 1186TIP3    H2 3565   5.085   2.863   1.137 -1.1052 -3.1776  0.4685
 1187TIP3   OH2 3566   3.973   3.924   4.472  0.2942 -0.3373  0.1095
 1187TIP3    H1 3567   3.964   3.944   4.379  0.0614  0.2498  0.2544
 1187TIP3    H2 3568   4.064   3.897   4.482  0.1934 -0.8622 -0.3699
 1188TIP3   OH2 3569   3.688   4.421   0.418  0.0391  0.4782  0.5280
 1188TIP3    H1 3570   3.640   4.426   0.335  0.8672  0.8347  0.0634
 1188TIP3    H2 3571   3.780   4.424   0.393  0.5600 -3.8227  1.0875
 1189TIP3   OH2 3572   5.130   4.439   1.007 -0.3619 -0.3072  0.0054
 1189TIP3    H1 3573   5.036   4.428   1.021 -0.5184  0.8524  0.0129
 1189TIP3    H2 3574   5.141   4.533   0.993  0.6390 -0.5941 -1.2743
 1190TIP3   OH2 3575   4.363   5.670   0.924 -0.3408  0.3039 -0.3004
 1190TIP3    H1 3576   4.415   5.628   0.855 -0.5176 -0.3599 -0.0439
 1190TIP3    H2 3577   4.411   5.749   0.945 -0.4831  0.7225 -1.4501
 1191TIP3   OH2 3578   0.532   3.910   2.261  0.0641 -0.0960 -0.1538
 1191TIP3    H1 3579   0.472   3.838   2.238 -0.1197  0.3250 -1.0359
 1191TIP3    H2 3580   0.501   3.984   2.208 -0.2032  0.8476  1.2755
 1192TIP3   OH2 3581   5.328   2.978   4.958 -0.4163  0.5031 -0.2599
 1192TIP3    H1 3582   5.286   2.893   4.948 -0.9236  0.3825  2.3329
 1192TIP3    H2 3583   5.379   2.989   4.878  0.8625 -2.9133 -0.0730
 1193TIP3   OH2 3584   5.560   1.382   0.111 -0.1367 -0.1669 -0.2027
 1193TIP3    H1 3585   5.619   1.453   0.136 -0.5492 -0.3362  1.3474
 1193TIP3    H2 3586   5.477   1.403   0.155  0.0234 -2.1196  1.1240
 1194TIP3   OH2 3587   1.610   3.623   1.055 -0.6631 -0.3801  0.4797
 1194TIP3    H1 3588   1.692   3.664   1.083  0.4887 -1.6390 -0.8723
 1194TIP3    H2 3589   1.542   3.673   1.100  0.8205  0.7993  1.5420
 1195TIP3   OH2 3590   1.196   5.710   4.624  0.2052  0.1798 -0.1729
 1195TIP3    H1 3591   1.109   5.696   4.587  0.0331 -1.5932  0.8073
 1195TIP3    H2 3592   1.192   5.798   4.661 -2.1045 -0.8021  2.2027
 1196TIP3   OH2 3593   0.553   4.690   1.678  0.1892 -0.0070  0.4979
 1196TIP3    H1 3594   0.515   4.777   1.689 -1.2277 -0.5014 -0.2296
 1196TIP3    H2 3595   0.486   4.630   1.712  1.1390 -0.8271  0.9829
 1197TIP3   OH2 3596   1.069   5.276   0.173  0.2280  0.1907  0.6920
 1197TIP3    H1 3597   1.079   5.369   0.151  0.0748  0.3941  1.4356
 1197TIP3    H2 3598   1.021   5.277   0.256  0.9039 -0.5265  1.1024
 1198TIP3   OH2 3599   2.858   2.367   1.904 -0.2729 -0.0290  0.3493
 1198TIP3    H1 3600   2.806   2.318   1.840  0.2251  0.2453 -0.2827
 1198TIP3    H2 3601   2.922   2.414   1.851 -1.7494  2.6183  0.7295
 1199TIP3   OH2 3602   0.790   1.089   3.472 -0.2489  0.3798  0.1175
 1199TIP3    H1 3603   0.805   1.174   3.514  2.8764 -0.7024  1.4829
 1199TIP3    H2 3604   0.730   1.043   3.531 -1.7276  1.4746 -0.4824
 1200TIP3   OH2 3605   2.956   0.076   2.441  0.0723 -0.3824 -0.4947
 1200TIP3    H1 3606   2.977   0.069   2.348  0.4133 -1.3340 -0.3549
 1200TIP3    H2 3607   2.943   0.170   2.455  2.8365  0.1549 -0.9206
 1201TIP3   OH2 3608   4.902   4.078   3.436 -0.4700  0.1492  0.0140
 1201TIP3    H1 3609   4.917   4.080   3.531 -0.3050  0.6022 -0.0225
 1201TIP3    H2 3610   4.808   4.060   3.427 -0.1942 -1.6012  0.2485
 1202TIP3   OH2 3611   5.677   0.260   1.073 -0.4269 -0.0474 -0.7148
 1202TIP3    H1 3612   5.597   0.209   1.061 -0.1819 -0.0610 -2.7617
 1202TIP3    H2 3613   5.647   0.349   1.088 -0.8349 -0.2614 -0.2480
 1203TIP3   OH2 3614   4.921   4.162   3.138 -0.2805  0.0913 -0.0603
 1203TIP3    H1 3615   4.856   4.102   3.174 -1.4532  1.3986  0.0813
 1203TIP3    H2 3616   4.913   4.152   3.043 -1.5507  1.0987 -0.0775
 1204TIP3   OH2 3617   0.802   0.179   1.362 -0.5396 -0.2294 -0.2710
 1204TIP3    H1 3618   0.895   0.179   1.384 -1.2868  0.0611  3.5026
 1204TIP3    H2 3619   0.769   0.263   1.396 -2.2442 -0.3943 -1.3836
 1205TIP3   OH2 3620   4.996   1.710   0.991 -0.0662  0.2868  0.2603
 1205TIP3    H1 3621   4.936   1.639   1.013 -0.0599  0.7441  1.9039
 1205TIP3    H2 3622   4.947   1.790   1.010 -0.8272  0.9158 -3.4427
 1206TIP3   OH2 3623   1.021   0.350   1.172 -0.2299  0.4589 -0.3488
 1206TIP3    H1 3624   1.022   0.437   1.213 -0.5232  0.2769  0.0534
 1206TIP3    H2 3625   1.107   0.313   1.192 -0.4438  0.2916  0.2882
 1207TIP3   OH2 3626   3.850   5.305   3.653  0.3676  0.7683  0.4913
 1207TIP3    H1 3627   3.806   5.226   3.623  0.7145 -0.3308  2.6817
 1207TIP3    H2 3628   3.781   5.357   3.694  0.1344  1.6613 -0.9689
 1208TIP3   OH2 3629   1.556   4.078   4.977 -0.5037  0.1872 -0.3340
 1208TIP3    H1 3630   1.544   3.988   4.948  0.7491  0.5703 -2.2278
 1208TIP3    H2 3631   1.511   4.131   4.912 -0.0558  0.9805 -0.0211
 1209TIP3   OH2 3632   5.501   5.913   3.323 -0.3386 -0.0319  0.4226
 1209TIP3    H1 3633   5.469   5.995   3.360 -3.1026  0.2954 -2.2067
 1209TIP3    H2 3634   5.431   5.850   3.340  1.2259 -1.5970  1.3921
 1210TIP3   OH2 3635   2.738   0.846   3.090  0.0386 -0.0894 -0.1035
 1210TIP3    H1 3636   2.682   0.792   3.034  0.1821 -0.5170  0.1568
 1210TIP3    H2 3637   2.678   0.889   3.150  0.0868 -1.8158  1.2589
 1211TIP3   OH2 3638   2.591   4.967   4.840 -0.1567  0.0288  0.6840
 1211TIP3    H1 3639   2.613   4.921   4.759 -0.0303 -0.4095  0.9647
 1211TIP3    H2 3640   2.502   4.937   4.860 -1.3252  2.2385 -0.7626
 1212TIP3   OH2 3641   1.910   5.170   1.914 -0.3711 -0.2160 -0.1253
 1212TIP3    H1 3642   1.981   5.170   1.979 -0.3032  0.5325 -0.1850
 1212TIP3    H2 3643   1.911   5.082   1.877  1.7956  0.2888 -1.4773
 1213TIP3   OH2 3644   2.148   0.702   4.161 -0.3667  0.4296 -0.0328
 1213TIP3    H1 3645   2.200   0.706   4.241  0.5564 -0.8566 -0.5208
 1213TIP3    H2 3646   2.159   0.612   4.130 -0.4863  0.9616 -1.7271
 1214TIP3   OH2 3647   2.456   2.229   3.102  0.3197  0.0333 -0.4716
 1214TIP3    H1 3648   2.505   2.214   3.021  0.0751  1.8701 -1.0256
 1214TIP3    H2 3649   2.365   2.219   3.077  0.3174 -1.9096  0.2079
 1215TIP3   OH2 3650   1.552   0.709   3.718 -0.2489  0.0074 -0.3333
 1215TIP3    H1 3651   1.645   0.705   3.740 -0.2125 -0.0795 -0.5048
 1215TIP3    H2 3652   1.510   0.648   3.779 -0.0203 -1.0228 -1.1824
 1216TIP3   OH2 3653   0.113   3.398   2.221  0.6093 -0.1910 -0.3482
 1216TIP3    H1 3654   0.054   3.330   2.188  0.0634 -0.9464  1.9824
 1216TIP3    H2 3655   0.132   3.452   2.145 -1.9145 -0.7953 -1.5044
 1217TIP3   OH2 3656   3.957   5.380   1.259 -0.0011  0.6456 -0.1766
 1217TIP3    H1 3657   4.049   5.390   1.284  0.3867 -1.0424 -0.7636
 1217TIP3    H2 3658   3.918   5.466   1.275  0.8960  0.5843  3.1948
 1218TIP3   OH2 3659   3.870   1.888   3.711 -0.4372 -0.1202 -0.3309
 1218TIP3    H1 3660   3.903   1.838   3.786 -0.2170 -1.5794 -1.3602
 1218TIP3    H2 3661   3.916   1.971   3.715  0.2907 -0.5565  0.6002
 1219TIP3   OH2 3662   0.042   3.853   5.151 -0.0580  0.4122  0.3897
 1219TIP3    H1 3663  -0.032   3.898   5.109  1.3011  2.3623 -0.0963
 1219TIP3    H2 3664   0.110   3.921   5.158  1.9009 -1.4189  0.2746
 1220TIP3   OH2 3665   0.554   4.221   0.463  0.0849  0.0725  0.0402
 1220TIP3    H1 3666   0.504   4.147   0.428  1.1267 -0.3990 -0.4885
 1220TIP3    H2 3667   0.526   4.228   0.554 -2.0690  0.7885 -0.6076
 1221TIP3   OH2 3668   4.705   2.972   2.211 -0.1982 -0.1700  0.0003
 1221TIP3    H1 3669   4.797   2.962   2.234  0.8338  2.1444 -2.6014
 1221TIP3    H2 3670   4.682   3.061   2.239 -0.5778  0.5496 -2.4302
 1222TIP3   OH2 3671   0.730   2.899   2.452 -0.0583  0.1657 -0.2923
 1222TIP3    H1 3672   0.782   2.820   2.470 -0.8131 -0.3799 -0.4470
 1222TIP3    H2 3673   0.700   2.928   2.538 -1.1418 -0.6809 -0.3626
 1223TIP3   OH2 3674   4.447   0.959   3.830 -0.0728 -0.0066  0.6368
 1223TIP3    H1 3675   4.528   0.996   3.796  0.2453 -1.7843 -0.6751
 1223TIP3    H2 3676   4.474   0.907   3.906 -0.4353  1.8217  2.0821
 1224TIP3   OH2 3677   3.252   5.180   2.210  0.3664 -0.4272 -0.1942
 1224TIP3    H1 3678   3.170   5.223   2.232  1.6189  2.0054  0.0161
 1224TIP3    H2 3679   3.254   5.101   2.265 -1.9460 -0.7549 -0.5013
 1225TIP3   OH2 3680   4.095   2.951   2.793 -0.2395  0.0199 -0.5189
 1225TIP3    H1 3681   4.187   2.954   2.766  0.5187  0.2791  1.8230
 1225TIP3    H2 3682   4.093   3.000   2.875 -1.4651 -3.9042  2.0780
 1226TIP3   OH2 3683   0.952   5.554   0.250  0.1236 -0.2107 -0.3004
 1226TIP3    H1 3684   0.997   5.589   0.327  0.6997 -0.1257 -0.6763
 1226TIP3    H2 3685   0.944   5.630   0.191  0.9344 -0.5919 -0.9113
 1227TIP3   OH2 3686   5.206   0.547   5.183 -0.4098  0.0083  0.3197
 1227TIP3    H1 3687   5.245   0.630   5.156  0.1621 -0.6511 -1.0358
 1227TIP3    H2 3688   5.281   0.494   5.211 -0.8345  0.1321  1.7673
 1228TIP3   OH2 3689   1.584   2.615   3.867  0.4330 -0.3588  0.6299
 1228TIP3    H1 3690   1.491   2.604   3.884 -0.2802  2.7176 -0.7349
 1228TIP3    H2 3691   1.606   2.545   3.805 -0.3446 -2.4556  2.5634
 1229TIP3   OH2 3692   0.988   2.918   1.104  0.2791 -0.4303 -0.0795
 1229TIP3    H1 3693   0.970   2.836   1.056 -1.7801  1.1128 -2.1511
 1229TIP3    H2 3694   0.924   2.920   1.174 -0.1547 -0.2928 -0.4713
 1230TIP3   OH2 3695   4.836   0.129   4.069  0.3567 -0.6580 -0.2951
 1230TIP3    H1 3696   4.890   0.163   4.140  0.7187  2.2849 -1.8274
 1230TIP3    H2 3697   4.896   0.123   3.994 -0.7390 -0.3014 -1.2356
 1231TIP3   OH2 3698   3.003   1.662   4.888  0.0417  0.4092  0.1757
 1231TIP3    H1 3699   2.973   1.573   4.909  1.9536 -0.2607  0.3258
 1231TIP3    H2 3700   2.927   1.706   4.852 -0.6030 -1.7575 -1.2778
 1232TIP3   OH2 3701   2.435   5.697   0.646 -0.0025 -0.4008 -0.3692
 1232TIP3    H1 3702   2.521   5.727   0.615  0.1075 -0.9782 -0.6463
 1232TIP3    H2 3703   2.455   5.637   0.718 -0.1730 -0.4944 -0.3989
 1233TIP3   OH2 3704   4.584   4.574   3.810 -0.3186  0.2418 -0.0000
 1233TIP3    H1 3705   4.489   4.560   3.806 -0.2206 -0.1524 -1.4190
 1233TIP3    H2 3706   4.593   4.669   3.825 -1.0052  1.1247 -3.9332
 1234TIP3   OH2 3707   1.627   4.158   0.334  0.5427  0.0301  0.5160
 1234TIP3    H1 3708   1.664   4.214   0.402  2.1347 -0.2216 -0.0876
 1234TIP3    H2 3709   1.614   4.216   0.259 -1.6406  0.4070  1.1155
 1235TIP3   OH2 3710   2.626   0.823   1.349 -0.2530 -0.5034  0.0747
 1235TIP3    H1 3711   2.650   0.736   1.381  0.5494  0.0817  1.0890
 1235TIP3    H2 3712   2.536   0.812   1.317 -0.2469 -1.6482  0.4048
 1236TIP3   OH2 3713   5.865   2.560   4.312 -0.2415  0.1539  0.6654
 1236TIP3    H1 3714   5.882   2.568   4.219  1.4302  0.5106  0.9684
 1236TIP3    H2 3715   5.769   2.565   4.320 -0.3303  1.8710 -0.8621
 1237TIP3   OH2 3716   3.590   1.486   5.219  0.2255  0.3649  0.6209
 1237TIP3    H1 3717   3.533   1.443   5.155 -1.4231  0.3121  2.0364
 1237TIP3    H2 3718   3.636   1.554   5.169 -0.9233  0.2617 -0.6372
 1238TIP3   OH2 3719   0.430   2.222   2.535  0.6482  0.0974 -0.5142
 1238TIP3    H1 3720   0.522   2.240   2.556  0.6514 -0.5695  0.0584
 1238TIP3    H2 3721   0.395   2.308   2.510  1.2745  0.4708 -0.1561
 1239TIP3   OH2 3722   1.400   5.357   1.336 -0.2771  0.1642 -0.6326
 1239TIP3    H1 3723   1.361   5.384   1.253 -0.5310  0.4889 -0.4090
 1239TIP3    H2 3724   1.456   5.282   1.313 -0.1879  0.3793 -1.1255
 1240TIP3   OH2 3725   1.913   0.658   1.065  1.0960 -0.4707 -0.0360
 1240TIP3    H1 3726   1.844   0.592   1.055 -0.1243  0.5514  1.3092
 1240TIP3    H2 3727   1.887   0.729   1.006  1.8997 -0.7718 -0.7681
 1241TIP3   OH2 3728   0.776   3.124   3.368 -0.1969  0.4579 -0.1609
 1241TIP3    H1 3729   0.853   3.176   3.388 -0.8951  1.2629  0.4880
 1241TIP3    H2 3730   0.777   3.054   3.433 -1.2310  1.7821  1.3596
 1242TIP3   OH2 3731   5.112   0.246   4.187 -0.0689  0.1492  0.4648
 1242TIP3    H1 3732   5.143   0.159   4.163  0.1493  0.3835 -0.1279
 1242TIP3    H2 3733   5.075   0.281   4.106 -3.8250 -0.8835  1.5359
 1243TIP3   OH2 3734   5.884   4.224   0.130 -0.6910 -0.1289  0.2914
 1243TIP3    H1 3735   5.795   4.247   0.156 -0.3609  1.1176  0.3932
 1243TIP3    H2 3736   5.913   4.162   0.196 -1.0009  0.5222  1.0490
 1244TIP3   OH2 3737   4.205   3.877   2.926 -0.4788  0.2044 -0.6368
 1244TIP3    H1 3738   4.287   3.834   2.902 -0.2851  0.7744 -1.0135
 1244TIP3    H2 3739   4.137   3.824   2.885 -0.1958  0.7512 -1.8505
 1245TIP3   OH2 3740   5.881   3.426   1.634  0.6294  0.0470 -0.2826
 1245TIP3    H1 3741   5.789   3.444   1.651  0.6928  0.3299 -0.2441
 1245TIP3    H2 3742   5.913   3.502   1.586  1.3518  0.8734  1.4322
 1246TIP3   OH2 3743   3.904   0.121   4.591 -0.0692  0.1078  0.4841
 1246TIP3    H1 3744   3.954   0.061   4.537 -0.2165 -0.4395  0.9444
 1246TIP3    H2 3745   3.877   0.069   4.667  0.4751  0.9598  1.2834
 1247TIP3   OH2 3746   5.739   5.607   0.766  1.2184  0.3179 -0.2128
 1247TIP3    H1 3747   5.763   5.518   0.740 -0.4333  0.2030 -1.5040
 1247TIP3    H2 3748   5.645   5.613   0.749  0.7020  1.4494  2.4520
 1248TIP3   OH2 3749   2.366   3.263   0.932  0.0168  0.4564 -0.4537
 1248TIP3    H1 3750   2.322   3.221   1.006 -0.3798  1.3905 -0.1450
 1248TIP3    H2 3751   2.457   3.235   0.939 -0.6613 -2.3546 -1.7028
 1249TIP3   OH2 3752   5.113   2.447   5.144  0.0832  0.5820  0.1207
 1249TIP3    H1 3753   5.166   2.475   5.219 -0.8309  1.5059  0.4374
 1249TIP3    H2 3754   5.030   2.493   5.155 -0.0686  0.7169 -1.4709
 1250TIP3   OH2 3755   5.375   5.763   4.202  0.5043  0.7602  0.0264
 1250TIP3    H1 3756   5.342   5.833   4.258 -0.2206  0.3506  0.1258
 1250TIP3    H2 3757   5.296   5.722   4.166  0.9220  0.0571 -0.1046
 1251TIP3   OH2 3758   1.428   3.545   3.262 -0.2397  0.6158 -0.5597
 1251TIP3    H1 3759   1.410   3.456   3.234  0.2095  0.2766  0.2010
 1251TIP3    H2 3760   1.343   3.589   3.260 -0.6903 -0.1853  0.2790
 1252TIP3   OH2 3761   4.776   3.498   4.431  1.2195  0.2528 -0.1893
 1252TIP3    H1 3762   4.745   3.410   4.412  0.8308  0.5923 -1.2305
 1252TIP3    H2 3763   4.836   3.488   4.505  0.0056 -0.6654  0.7172
 1253TIP3   OH2 3764   1.391   2.413   3.152  0.0369  0.1818  0.4794
 1253TIP3    H1 3765   1.340   2.345   3.108  0.9352 -0.3151  0.2008
 1253TIP3    H2 3766   1.474   2.416   3.105  0.5451  0.4939  1.3779
 1254TIP3   OH2 3767   6.171   0.596   3.450 -0.7503  0.5786 -0.3564
 1254TIP3    H1 3768   6.102   0.545   3.408  0.5472 -3.4542  1.9183
 1254TIP3    H2 3769   6.141   0.606   3.541  1.2119 -0.6391  0.4928
 1255TIP3   OH2 3770   5.673   5.084   2.904  0.6318 -0.1597 -0.4314
 1255TIP3    H1 3771   5.717   5.161   2.939  2.4828 -0.3354 -2.2147
 1255TIP3    H2 3772   5.638   5.113   2.819  0.6805 -1.0752 -0.7730
 1256TIP3   OH2 3773   0.733   5.204   4.625 -0.0945  0.5950 -0.1412
 1256TIP3    H1 3774   0.648   5.195   4.582  0.1990  0.7791 -0.7720
 1256TIP3    H2 3775   0.792   5.149   4.573  0.6196  2.1004 -0.9564
 1257TIP3   OH2 3776   1.446   5.406   4.468 -0.0259 -0.3272  0.2633
 1257TIP3    H1 3777   1.374   5.396   4.405  0.7749  1.0916 -0.9364
 1257TIP3    H2 3778   1.467   5.499   4.466  1.3105 -0.5814  1.1920
 1258TIP3   OH2 3779   3.158   2.835   4.513  0.2641 -0.6411 -0.3371
 1258TIP3    H1 3780   3.130   2.760   4.460 -0.8313 -0.9652  0.6440
 1258TIP3    H2 3781   3.090   2.901   4.498  0.4728 -0.3707 -0.1018
 1259TIP3   OH2 3782   5.832   4.863   0.867 -0.5803 -0.0616 -0.4900
 1259TIP3    H1 3783   5.836   4.921   0.943  0.0213 -2.6995  1.6540
 1259TIP3    H2 3784   5.923   4.842   0.848 -0.7949 -0.4995 -1.0569
 1260TIP3   OH2 3785   1.872   0.068   2.835  0.5127  0.1066  0.2363
 1260TIP3    H1 3786   1.928   0.137   2.800 -0.0176  0.6619  0.4803
 1260TIP3    H2 3787   1.923  -0.012   2.822  0.1732  0.2198 -2.1777
 1261TIP3   OH2 3788   6.364   4.055   1.854 -0.0245 -0.2083  0.2072
 1261TIP3    H1 3789   6.360   3.978   1.798  0.2016  0.9822 -1.5126
 1261TIP3    H2 3790   6.273   4.073   1.878 -0.2108 -0.2872 -0.4289
 1262TIP3   OH2 3791   5.564   3.722   2.249 -0.1608 -0.4868 -0.6463
 1262TIP3    H1 3792   5.554   3.712   2.344  2.3856 -1.2758 -0.3946
 1262TIP3    H2 3793   5.607   3.642   2.221 -0.2803  0.0252 -2.3877
 1263TIP3   OH2 3794   0.971   3.261   2.638 -0.1965 -0.1876 -0.5091
 1263TIP3    H1 3795   0.987   3.195   2.705  1.0699  1.6535  1.1089
 1263TIP3    H2 3796   0.950   3.211   2.559 -3.1151 -2.4492  1.5002
 1264TIP3   OH2 3797   3.630   3.466   0.597  0.0800  0.0953  0.3143
 1264TIP3    H1 3798   3.601   3.417   0.520 -0.5701  2.5510 -1.1475
 1264TIP3    H2 3799   3.575   3.545   0.597 -0.1668  0.0531  3.5355
 1265TIP3   OH2 3800   1.682   3.406   1.624 -0.4423 -0.3043 -0.0464
 1265TIP3    H1 3801   1.713   3.347   1.693  1.0428  0.4512 -0.0182
 1265TIP3    H2 3802   1.586   3.403   1.631 -0.3398 -0.8723  1.5111
 1266TIP3   OH2 3803   0.738   4.833   0.991 -0.6641  0.0550  0.3526
 1266TIP3    H1 3804   0.796   4.853   0.917  0.2636 -1.1191  0.7287
 1266TIP3    H2 3805   0.651   4.857   0.960 -0.3637 -0.8214 -1.3176
 1267TIP3   OH2 3806   5.915   2.713   4.751  0.6869  0.1659 -0.2742
 1267TIP3    H1 3807   6.008   2.719   4.732  1.0637 -1.4886  0.8421
 1267TIP3    H2 3808   5.909   2.655   4.827 -1.0866  2.1868  1.2589
 1268TIP3   OH2 3809   5.664   2.313   3.828 -0.2952  0.5477 -0.5931
 1268TIP3    H1 3810   5.640   2.375   3.898  0.3894 -0.1711  0.3081
 1268TIP3    H2 3811   5.627   2.351   3.749  1.2733  2.8175 -0.3107
 1269TIP3   OH2 3812   0.776   3.312   0.164 -0.3827 -0.0631  0.0305
 1269TIP3    H1 3813   0.868   3.293   0.183 -0.7982 -1.1915  1.0445
 1269TIP3    H2 3814   0.758   3.267   0.081  0.5304  2.0286 -1.3957
 1270TIP3   OH2 3815   6.305   0.878   0.181  0.0853  0.1358  0.1287
 1270TIP3    H1 3816   6.389   0.922   0.165  0.5872  0.2546  2.6168
 1270TIP3    H2 3817   6.321   0.786   0.156  1.0721  0.0955  0.8481
 1271TIP3   OH2 3818   3.978   2.085   4.226  0.0416  0.1405 -1.6992
 1271TIP3    H1 3819   4.050   2.140   4.256  0.0382 -1.2256  1.1027
 1271TIP3    H2 3820   3.899   2.138   4.241  0.0749 -0.3372  0.5608
 1272TIP3   OH2 3821   1.575   2.392   3.434  0.3626  0.2080 -0.1954
 1272TIP3    H1 3822   1.635   2.373   3.362  2.1238  3.4452  0.2130
 1272TIP3    H2 3823   1.630   2.392   3.512 -1.5169 -3.2791  1.3295
 1273TIP3   OH2 3824   1.108   5.103   3.722  0.2103  0.3792 -0.1430
 1273TIP3    H1 3825   1.116   5.009   3.704 -1.7198  0.1331  0.1128
 1273TIP3    H2 3826   1.053   5.108   3.800  0.9348  1.7220  0.3258
 1274TIP3   OH2 3827   0.872   4.991   4.122 -1.0273 -0.1278 -0.4854
 1274TIP3    H1 3828   0.824   4.911   4.144 -1.3172  0.1653 -0.0228
 1274TIP3    H2 3829   0.937   4.963   4.057 -2.1818 -0.4490 -1.5668
 1275TIP3   OH2 3830   4.884   1.890   4.786  0.8628 -0.0189  0.6814
 1275TIP3    H1 3831   4.888   1.803   4.826 -0.5485 -1.4606 -2.0768
 1275TIP3    H2 3832   4.809   1.933   4.828  0.9918 -0.4715  1.3856
 1276TIP3   OH2 3833   5.826   5.435   0.304  0.0445 -0.1628  0.0596
 1276TIP3    H1 3834   5.744   5.475   0.334  0.4348  0.1897  0.6597
 1276TIP3    H2 3835   5.888   5.450   0.375  0.8824  0.3356 -0.7529
 1277TIP3   OH2 3836   2.259   4.710   4.338 -0.2944  0.6589 -0.4500
 1277TIP3    H1 3837   2.232   4.631   4.292  1.2882  0.3803 -0.9719
 1277TIP3    H2 3838   2.210   4.709   4.420  0.4587 -1.4454  0.0386
 1278TIP3   OH2 3839   0.915   2.661   2.980  0.1383  0.3220 -0.2605
 1278TIP3    H1 3840   0.873   2.703   3.055  1.0388 -0.4015  0.6703
 1278TIP3    H2 3841   0.845   2.608   2.941 -0.6155  1.5056 -0.5856
 1279TIP3   OH2 3842   3.643   2.281   1.232 -0.0960 -0.5056 -0.1787
 1279TIP3    H1 3843   3.738   2.276   1.222 -0.1797  0.0192 -1.4812
 1279TIP3    H2 3844   3.611   2.294   1.143 -1.2890  0.8586  0.4063
 1280TIP3   OH2 3845   3.010   3.793   0.355 -0.1546 -0.4718 -0.1131
 1280TIP3    H1 3846   2.988   3.713   0.308 -1.4232 -0.3667  0.2588
 1280TIP3    H2 3847   2.933   3.849   0.344  0.3094  0.3073  0.4735
 1281TIP3   OH2 3848   2.891   3.086   3.055  0.0641 -0.1947 -0.1371
 1281TIP3    H1 3849   2.944   3.109   2.978  2.3436 -0.8517  1.1265
 1281TIP3    H2 3850   2.885   3.166   3.106 -1.2592  0.1851 -0.8486
 1282TIP3   OH2 3851   3.912   2.195   1.172 -0.1934 -0.1184  0.1554
 1282TIP3    H1 3852   3.870   2.126   1.224  1.1296  0.4995  2.1668
 1282TIP3    H2 3853   3.988   2.221   1.224 -0.6411  2.8835 -0.4860
 1283TIP3   OH2 3854   2.741   5.754   1.639 -0.3273 -0.2499 -0.7656
 1283TIP3    H1 3855   2.742   5.842   1.677  0.7800 -1.0927  1.3448
 1283TIP3    H2 3856   2.821   5.750   1.587  0.3240 -0.3882  0.2079
 1284TIP3   OH2 3857   3.896   5.077   4.881 -0.5439  0.2610 -0.1344
 1284TIP3    H1 3858   3.847   5.153   4.911 -0.3566 -0.0407  1.0046
 1284TIP3    H2 3859   3.952   5.053   4.956 -1.0515 -1.3541 -0.2262
 1285TIP3   OH2 3860   2.454   5.587   2.561  0.0957  0.1132 -0.3264
 1285TIP3    H1 3861   2.499   5.649   2.504 -0.1783 -0.3261 -1.0245
 1285TIP3    H2 3862   2.367   5.626   2.575  0.4959  0.7059  0.6030
 1286TIP3   OH2 3863   4.216   3.063   4.523  0.6718  0.2616  0.2542
 1286TIP3    H1 3864   4.249   3.131   4.463 -0.7150 -0.0152 -0.8926
 1286TIP3    H2 3865   4.122   3.081   4.529  0.5220 -0.7212  1.0476
 1287TIP3   OH2 3866   5.004   2.938   4.106 -0.5015 -0.0791  0.2470
 1287TIP3    H1 3867   4.949   2.900   4.174 -0.6412  2.5271  1.7098
 1287TIP3    H2 3868   4.946   2.951   4.032 -0.6294 -1.8186 -0.0119
 1288TIP3   OH2 3869   0.544   4.333   2.561 -0.7088  0.1260  0.4024
 1288TIP3    H1 3870   0.607   4.305   2.628 -0.9496 -0.0362  0.5635
 1288TIP3    H2 3871   0.475   4.376   2.611 -0.8289  0.1121  0.2463
 1289TIP3   OH2 3872   0.987   0.903   0.552  0.5397  0.2868 -0.4162
 1289TIP3    H1 3873   1.028   0.834   0.499 -0.4031 -0.3953 -0.2835
 1289TIP3    H2 3874   0.978   0.864   0.639 -0.0621  0.5505 -0.3555
 1290TIP3   OH2 3875   5.766   0.511   3.500  0.2036 -0.0251 -0.2515
 1290TIP3    H1 3876   5.728   0.590   3.539 -0.4184  0.2855 -1.4232
 1290TIP3    H2 3877   5.747   0.442   3.563  2.3182  1.0269  1.6529
 1291TIP3   OH2 3878   4.783   3.744   1.998  0.0258 -0.0337  0.5149
 1291TIP3    H1 3879   4.820   3.722   2.083  2.3050 -0.7465 -0.5829
 1291TIP3    H2 3880   4.735   3.665   1.972 -0.3459  0.0429  0.9655
 1292TIP3   OH2 3881   5.372   1.844   1.106  0.0164 -0.0052 -0.1284
 1292TIP3    H1 3882   5.467   1.847   1.100  0.1261 -1.3388  0.6683
 1292TIP3    H2 3883   5.352   1.886   1.190  0.0840 -1.6859  0.7675
 1293TIP3   OH2 3884   4.878   2.870   2.582  0.0714  0.2994  0.3367
 1293TIP3    H1 3885   4.813   2.803   2.602 -0.3359 -0.3845 -2.8074
 1293TIP3    H2 3886   4.877   2.928   2.658 -3.0225 -0.5984  1.1167
 1294TIP3   OH2 3887   4.918   4.681   0.215  0.5275 -0.8762 -0.4836
 1294TIP3    H1 3888   4.884   4.595   0.239 -0.4128  0.0285  1.6331
 1294TIP3    H2 3889   4.961   4.714   0.294  2.0666  0.0922 -1.6397
 1295TIP3   OH2 3890   1.189   0.667   0.936  0.0410  0.1961  0.2922
 1295TIP3    H1 3891   1.271   0.618   0.925 -0.1882 -0.0532 -0.3824
 1295TIP3    H2 3892   1.132   0.633   0.867  0.2104  2.1195 -0.8618
 1296TIP3   OH2 3893   4.960   2.396   1.301  0.2807  0.3384  0.5364
 1296TIP3    H1 3894   4.878   2.445   1.297  0.0862  0.0467  0.8720
 1296TIP3    H2 3895   4.970   2.374   1.394 -0.5908 -1.8846  0.1716
 1297TIP3   OH2 3896   3.207   1.312   2.691 -0.1177  0.2761 -0.4604
 1297TIP3    H1 3897   3.225   1.348   2.604 -3.1211 -0.1500 -1.3871
 1297TIP3    H2 3898   3.219   1.218   2.682  0.8428  0.3454 -0.0155
 1298TIP3   OH2 3899   6.132   3.209   1.138  0.3315 -0.0451 -0.1503
 1298TIP3    H1 3900   6.093   3.295   1.151 -0.5893 -0.4149 -0.3807
 1298TIP3    H2 3901   6.121   3.191   1.045 -0.1216 -0.6969  0.0180
 1299TIP3   OH2 3902   5.455   3.219   3.068 -0.3981  0.2363  0.0367
 1299TIP3    H1 3903   5.398   3.186   2.998 -0.4519  0.2287  0.0844
 1299TIP3    H2 3904   5.410   3.297   3.100 -1.3903 -0.8405  1.4061
 1300TIP3   OH2 3905   4.160   4.825   3.365 -0.6618  0.3784 -0.4049
 1300TIP3    H1 3906   4.122   4.745   3.328  1.1438 -0.6256 -0.2290
 1300TIP3    H2 3907   4.209   4.865   3.293 -0.2810  0.4717 -0.1009
 1301TIP3   OH2 3908   0.414   3.339   3.792  0.4529 -0.1099 -0.5765
 1301TIP3    H1 3909   0.436   3.371   3.704  0.2625  2.9498  0.3535
 1301TIP3    H2 3910   0.463   3.397   3.851 -1.0236 -0.7341  1.3591
 1302TIP3   OH2 3911   2.483   0.779   0.936  0.3000 -0.1680 -0.3320
 1302TIP3    H1 3912   2.515   0.868   0.923 -0.6655  0.2112 -0.1843
 1302TIP3    H2 3913   2.400   0.790   0.981 -0.5301 -1.0751 -1.5942
 1303TIP3   OH2 3914   1.756   4.974   0.887  0.8103  0.0825  0.1834
 1303TIP3    H1 3915   1.708   5.056   0.901  0.4942  0.1756 -1.3210
 1303TIP3    H2 3916   1.702   4.907   0.929  0.2126  0.4228 -0.0389
 1304TIP3   OH2 3917   5.156   3.109   4.260  0.4177  0.0976 -0.0541
 1304TIP3    H1 3918   5.111   3.049   4.201  0.0121  1.6686 -1.4493
 1304TIP3    H2 3919   5.091   3.133   4.326  0.4068 -0.5463  0.1692
 1305TIP3   OH2 3920   1.504   3.141   3.327  0.6100 -0.5036  0.0034
 1305TIP3    H1 3921   1.463   3.055   3.334  0.4798 -0.4305  0.1262
 1305TIP3    H2 3922   1.454   3.187   3.259  0.8809 -0.6398 -0.2934
 1306TIP3   OH2 3923   4.524   4.752   3.247 -0.4929 -0.2849  0.1277
 1306TIP3    H1 3924   4.599   4.693   3.234 -0.3799 -0.0556 -0.2785
 1306TIP3    H2 3925   4.549   4.805   3.323  0.8118  1.3843 -1.3700
 1307TIP3   OH2 3926   2.085   2.636   1.024  0.7829  0.1538 -0.2466
 1307TIP3    H1 3927   2.088   2.701   1.094  0.5742 -2.4969  2.4130
 1307TIP3    H2 3928   2.049   2.557   1.065  1.1990 -1.7507 -3.2037
 1308TIP3   OH2 3929   3.448   0.481   2.454  0.1779 -0.3868 -0.2638
 1308TIP3    H1 3930   3.469   0.563   2.412 -0.2010  0.6655  1.4904
 1308TIP3    H2 3931   3.449   0.501   2.548  1.3124 -2.6786  0.2796
 1309TIP3   OH2 3932   3.031   3.982   4.980 -0.4767  0.4304  0.5741
 1309TIP3    H1 3933   3.004   3.979   4.888  2.1727 -0.5695 -0.2755
 1309TIP3    H2 3934   3.031   3.890   5.008  0.0132  0.5886  1.1245
 1310TIP3   OH2 3935   2.502   0.393   2.514  0.1529 -0.0625  0.5703
 1310TIP3    H1 3936   2.525   0.304   2.487  1.6850 -0.2574  2.2985
 1310TIP3    H2 3937   2.578   0.445   2.491 -1.0665  1.0386 -1.2081
 1311TIP3   OH2 3938   6.088   1.208   4.000 -0.0372 -0.1554 -0.4984
 1311TIP3    H1 3939   6.173   1.178   4.032 -0.0367 -0.6495 -0.9560
 1311TIP3    H2 3940   6.086   1.183   3.908  0.0950  1.5691 -0.9936
 1312TIP3   OH2 3941   1.395   3.568   3.788 -0.4226 -0.6168 -0.1297
 1312TIP3    H1 3942   1.395   3.473   3.803 -0.4767 -1.1115 -2.7525
 1312TIP3    H2 3943   1.416   3.577   3.696  0.9493  2.0304  0.3659
 1313TIP3   OH2 3944   0.618   4.214   0.150 -0.1449  0.3287 -0.1401
 1313TIP3    H1 3945   0.696   4.230   0.204 -0.8548  2.0169  0.4278
 1313TIP3    H2 3946   0.645   4.238   0.061  0.4942 -0.7968 -0.2736
 1314TIP3   OH2 3947   5.254   5.191   3.222 -0.7590 -0.4258  0.0997
 1314TIP3    H1 3948   5.330   5.200   3.279 -0.6846  1.4775 -0.2339
 1314TIP3    H2 3949   5.234   5.097   3.223  1.9423 -1.0940 -0.2684
 1315TIP3   OH2 3950   1.648   1.769   3.287 -0.0743 -0.1147 -0.8293
 1315TIP3    H1 3951   1.626   1.734   3.373  2.9523  0.8650  0.4878
 1315TIP3    H2 3952   1.727   1.721   3.262  1.1799  2.0813 -1.3444
 1316TIP3   OH2 3953   1.109   2.064   2.309 -0.2417 -0.2194  0.4742
 1316TIP3    H1 3954   1.136   1.972   2.307  3.3961  0.6719  0.7239
 1316TIP3    H2 3955   1.090   2.085   2.218  2.4707 -0.4251 -0.2313
 1317TIP3   OH2 3956   1.007   0.313   2.099  0.0734  0.2104 -0.4194
 1317TIP3    H1 3957   0.933   0.253   2.093 -0.2477  0.4952  0.5326
 1317TIP3    H2 3958   0.992   0.363   2.179 -0.7722  3.0280 -2.1633
 1318TIP3   OH2 3959   5.708   0.243   4.483 -0.3725  0.1883 -0.2036
 1318TIP3    H1 3960   5.706   0.224   4.390  0.8111 -2.3805  0.2041
 1318TIP3    H2 3961   5.783   0.301   4.494 -0.1049 -0.0356 -0.7917
 1319TIP3   OH2 3962   3.960   4.432   0.351  0.5567  0.3016 -0.3122
 1319TIP3    H1 3963   3.936   4.523   0.333  0.2139 -0.0264 -1.6291
 1319TIP3    H2 3964   4.056   4.432   0.349  0.6029  0.8173  0.7823
 1320TIP3   OH2 3965   5.728   3.970   4.136  0.1087  0.1746 -0.0540
 1320TIP3    H1 3966   5.678   4.046   4.167 -0.9194 -1.1514  1.6946
 1320TIP3    H2 3967   5.693   3.896   4.185  1.0698 -1.4721 -1.7332
 1321TIP3   OH2 3968   1.616   4.344   4.038 -0.8242  0.0445 -0.0978
 1321TIP3    H1 3969   1.707   4.368   4.058 -0.5790  0.1576 -1.2607
 1321TIP3    H2 3970   1.604   4.258   4.079  0.2267 -0.5587 -1.0191
 1322TIP3   OH2 3971   1.774   5.609   3.370  0.2160  0.4273  0.1980
 1322TIP3    H1 3972   1.737   5.557   3.441  0.1612  1.0698  0.6404
 1322TIP3    H2 3973   1.833   5.549   3.324 -0.6281 -0.3248  0.0778
 1323TIP3   OH2 3974   3.832   5.663   0.013  0.4791  0.2411 -0.3232
 1323TIP3    H1 3975   3.898   5.626  -0.047 -0.5347 -0.0667 -1.2885
 1323TIP3    H2 3976   3.879   5.674   0.096  1.6226 -0.3935 -0.8529
 1324TIP3   OH2 3977   1.820   0.539   4.615 -0.2274 -0.0588  0.0859
 1324TIP3    H1 3978   1.824   0.621   4.663  0.8834  0.3440 -0.6297
 1324TIP3    H2 3979   1.813   0.471   4.682 -1.8609  0.6306  0.6607
 1325TIP3   OH2 3980   4.907   0.483   3.507  0.2363 -0.3433  0.0949
 1325TIP3    H1 3981   4.911   0.491   3.412 -0.1248 -0.0842  0.1011
 1325TIP3    H2 3982   4.891   0.572   3.538 -2.6728 -0.8019  0.2180
 1326TIP3   OH2 3983   1.833   3.773   3.435 -0.8193 -0.2361 -0.2630
 1326TIP3    H1 3984   1.837   3.752   3.528  2.3952 -0.0990 -0.2354
 1326TIP3    H2 3985   1.809   3.690   3.393 -0.6381 -0.7427  0.6047
 1327TIP3   OH2 3986   2.594   3.581   1.429 -0.6771 -0.2365  0.0578
 1327TIP3    H1 3987   2.663   3.540   1.480  0.6650 -0.1019 -1.5578
 1327TIP3    H2 3988   2.528   3.608   1.494  0.4662 -0.9508  1.5680
 1328TIP3   OH2 3989   1.720   0.802   4.046 -0.3561  0.3331  0.2335
 1328TIP3    H1 3990   1.744   0.723   4.094  0.9852  0.6473  0.1357
 1328TIP3    H2 3991   1.755   0.788   3.957  0.1283  1.1166  0.2873
 1329TIP3   OH2 3992   4.835   3.128   1.437 -0.1759  0.2761  0.0757
 1329TIP3    H1 3993   4.841   3.151   1.530  0.3750 -0.8469  0.3332
 1329TIP3    H2 3994   4.742   3.137   1.416 -0.0203  2.6891  0.1382
 1330TIP3   OH2 3995   4.812   5.317   0.749 -0.0664  0.3067 -0.1150
 1330TIP3    H1 3996   4.737   5.279   0.796  0.0585  1.0861  0.7383
 1330TIP3    H2 3997   4.884   5.314   0.812  0.3367  0.5938 -0.5540
 1331TIP3   OH2 3998   1.329   0.436   2.360 -0.0702 -0.3875  0.8651
 1331TIP3    H1 3999   1.414   0.475   2.339 -0.7025  0.7208  0.3135
 1331TIP3    H2 4000   1.338   0.344   2.332  0.8020 -0.1743  0.4057
 1332TIP3   OH2 4001   1.167   4.409   0.240  0.1389 -0.7232  0.4286
 1332TIP3    H1 4002   1.210   4.351   0.178 -1.6257  0.0665 -1.6564
 1332TIP3    H2 4003   1.214   4.492   0.233 -0.9823 -0.1738 -1.0724
 1333TIP3   OH2 4004   3.936   3.392   3.896  0.4277  0.0216 -0.6806
 1333TIP3    H1 4005   3.927   3.360   3.985  2.2810  1.2164 -0.0094
 1333TIP3    H2 4006   3.951   3.313   3.843  0.7220 -0.5693  0.2719
 1334TIP3   OH2 4007   0.269   5.660   4.465 -0.1459  0.3401 -0.1952
 1334TIP3    H1 4008   0.313   5.733   4.422 -0.7317  1.6861  1.3880
 1334TIP3    H2 4009   0.179   5.663   4.430 -0.6554  1.5087  1.1353
 1335TIP3   OH2 4010   5.878   1.239   0.643  0.2922 -0.0171 -0.0422
 1335TIP3    H1 4011   5.891   1.190   0.562 -0.0782  0.8022 -0.6080
 1335TIP3    H2 4012   5.844   1.323   0.615 -0.3530  0.0909  1.0047
 1336TIP3   OH2 4013   5.987   5.021   3.480 -0.2160  0.4926 -0.3874
 1336TIP3    H1 4014   5.991   4.960   3.554 -2.8983 -0.3106 -0.7889
 1336TIP3    H2 4015   6.027   4.973   3.407 -0.3785  0.0336 -0.1783
 1337TIP3   OH2 4016   5.910   1.839   0.860 -0.5869 -0.2905 -0.5950
 1337TIP3    H1 4017   5.960   1.896   0.919 -0.9365 -0.3998 -0.1808
 1337TIP3    H2 4018   5.903   1.888   0.779  0.4795 -0.4207 -0.7709
 1338TIP3   OH2 4019   5.354   2.237   1.866 -0.6199  0.0338 -0.1608
 1338TIP3    H1 4020   5.437   2.253   1.820  1.0777 -1.1051  2.2576
 1338TIP3    H2 4021   5.357   2.144   1.888 -0.2242  0.8182  3.9337
 1339TIP3   OH2 4022   6.153   3.958   4.507 -0.7387  0.0036  0.6277
 1339TIP3    H1 4023   6.189   3.877   4.545 -0.9342  0.4044  1.7119
 1339TIP3    H2 4024   6.215   4.026   4.532  1.0405 -0.1585 -2.7808
 1340TIP3   OH2 4025   0.852   0.431   1.718  0.2064  0.6556  0.2553
 1340TIP3    H1 4026   0.934   0.443   1.765 -0.2222 -1.4925  1.6742
 1340TIP3    H2 4027   0.877   0.386   1.637  0.3031 -2.0478  1.6817
 1341TIP3   OH2 4028   4.398   5.174   3.919 -0.4180 -0.7986  0.1667
 1341TIP3    H1 4029   4.324   5.175   3.859 -0.9226 -1.0220  0.7749
 1341TIP3    H2 4030   4.399   5.085   3.956  0.6685 -1.0701 -0.4582
 1342TIP3   OH2 4031   5.884   2.304   1.248  0.5181  0.2493 -0.0959
 1342TIP3    H1 4032   5.821   2.371   1.273  0.9121  1.0946 -1.3238
 1342TIP3    H2 4033   5.868   2.232   1.310 -1.8901  0.2923 -0.5944
 1343TIP3   OH2 4034   1.430   3.725   4.592 -0.3018  0.3106 -0.3063
 1343TIP3    H1 4035   1.349   3.696   4.632 -1.2331 -0.3608 -2.5571
 1343TIP3    H2 4036   1.482   3.645   4.580 -1.0552  0.0971 -2.5509
 1344TIP3   OH2 4037   6.044   4.698   3.991  0.5864 -0.0993  0.4721
 1344TIP3    H1 4038   5.959   4.692   4.035  1.5310 -2.0601  2.2289
 1344TIP3    H2 4039   6.100   4.742   4.055  1.4205 -0.8548  0.2666
 1345TIP3   OH2 4040   4.582   0.361   4.174 -0.4307  0.2673  0.4008
 1345TIP3    H1 4041   4.619   0.339   4.259  1.1548 -0.6885 -0.4900
 1345TIP3    H2 4042   4.518   0.293   4.157 -0.8579  0.5435  0.8802
 1346TIP3   OH2 4043   5.608   1.229   1.970 -0.0833 -0.0123  0.1496
 1346TIP3    H1 4044   5.670   1.202   1.902 -0.3818  0.4245 -0.3006
 1346TIP3    H2 4045   5.605   1.155   2.030  1.1787  0.1211  0.3958
 1347TIP3   OH2 4046   0.976   2.017   0.353 -0.1241  0.3756 -0.0992
 1347TIP3    H1 4047   0.995   1.930   0.319  0.5312  0.0038  1.1514
 1347TIP3    H2 4048   1.049   2.072   0.323  1.2720 -0.2882  1.8553
 1348TIP3   OH2 4049   5.938   3.981   3.375  0.1978  0.0903  0.8523
 1348TIP3    H1 4050   5.903   4.002   3.288 -1.0635  1.7671  1.6988
 1348TIP3    H2 4051   5.873   3.922   3.412  1.4407 -1.7846  0.1975
 1349TIP3   OH2 4052   3.683   1.903   0.639  0.2452 -0.2082 -0.5621
 1349TIP3    H1 4053   3.669   1.837   0.707  0.0490  1.1351  0.7608
 1349TIP3    H2 4054   3.595   1.925   0.609  0.2322  0.2516 -0.1930
 1350TIP3   OH2 4055   1.680   2.946   3.631 -0.0106  0.0997 -0.2146
 1350TIP3    H1 4056   1.670   2.908   3.543  1.0613 -0.1358 -0.2464
 1350TIP3    H2 4057   1.772   2.936   3.651 -0.5315 -1.3817  1.6623
 1351TIP3   OH2 4058   3.677   4.393   3.243  0.4857  0.0737  0.4776
 1351TIP3    H1 4059   3.751   4.444   3.211  0.5257  0.0260  0.4946
 1351TIP3    H2 4060   3.670   4.320   3.182  0.9248 -0.3351  0.9139
 1352TIP3   OH2 4061   5.386   4.253   4.438  0.2632 -0.6290  0.1694
 1352TIP3    H1 4062   5.466   4.219   4.397 -0.2941 -1.4704 -0.2551
 1352TIP3    H2 4063   5.324   4.261   4.366  0.3512  1.3249  0.2657
 1353TIP3   OH2 4064   0.629   5.419   3.242  0.3715 -0.4080 -0.8284
 1353TIP3    H1 4065   0.595   5.337   3.207  1.6060 -1.5366  0.4776
 1353TIP3    H2 4066   0.724   5.408   3.241  0.5202  0.2003  1.1467
 1354TIP3   OH2 4067   0.083   3.894   0.292 -0.4566  0.3197 -0.5470
 1354TIP3    H1 4068   0.119   3.806   0.281  1.0406  0.7522  0.4573
 1354TIP3    H2 4069   0.071   3.927   0.204  1.9722  0.2311 -0.9830
 1355TIP3   OH2 4070   1.800   0.533   0.701  0.4158  0.4599 -0.4893
 1355TIP3    H1 4071   1.796   0.439   0.717  1.0496  0.6725  1.1586
 1355TIP3    H2 4072   1.709   0.561   0.693  0.2553 -0.4118 -1.8862
 1356TIP3   OH2 4073   3.527   5.340   3.744  0.1571  0.1284  0.1679
 1356TIP3    H1 4074   3.516   5.244   3.745 -0.0221  0.1474 -0.0497
 1356TIP3    H2 4075   3.510   5.366   3.835 -1.2736  0.1193 -0.0747
 1357TIP3   OH2 4076   3.761   3.320   1.686  0.6831  0.1187  0.1776
 1357TIP3    H1 4077   3.815   3.301   1.609  0.3099 -0.9346  0.1596
 1357TIP3    H2 4078   3.776   3.245   1.744 -1.2737 -0.5546 -0.1148
 1358TIP3   OH2 4079   1.608   1.235   4.368 -0.0275  0.7454 -0.3338
 1358TIP3    H1 4080   1.664   1.182   4.313 -0.5152 -0.4935  0.3178
 1358TIP3    H2 4081   1.519   1.208   4.344 -0.2443 -0.9139  2.0078
 1359TIP3   OH2 4082   3.551   0.084   1.450  0.4509  0.3297 -0.7249
 1359TIP3    H1 4083   3.471   0.136   1.456 -0.9625 -1.8797  1.5087
 1359TIP3    H2 4084   3.543   0.038   1.366 -1.9452 -1.6505  0.4554
 1360TIP3   OH2 4085   4.486   3.704   2.434 -0.5653 -0.0998 -0.0077
 1360TIP3    H1 4086   4.404   3.746   2.461  0.3871  1.5560  0.5180
 1360TIP3    H2 4087   4.533   3.690   2.516 -0.6220 -1.7519 -0.2379
 1361TIP3   OH2 4088   4.731   2.580   1.583  0.1872 -0.2882  0.0065
 1361TIP3    H1 4089   4.808   2.615   1.630  0.4621  0.7251 -1.1352
 1361TIP3    H2 4090   4.679   2.658   1.564  0.3066 -0.6066 -1.7289
 1362TIP3   OH2 4091   3.155   2.701   4.123 -0.2713 -0.3154 -0.0211
 1362TIP3    H1 4092   3.246   2.724   4.141 -0.4054  0.0636  0.1805
 1362TIP3    H2 4093   3.155   2.675   4.031  0.2826 -1.5594  0.3011
 1363TIP3   OH2 4094   2.547   0.089   0.709 -0.0474 -0.2397  0.1650
 1363TIP3    H1 4095   2.571   0.176   0.742 -2.0716 -0.1732  1.6775
 1363TIP3    H2 4096   2.588   0.084   0.623 -0.6234  2.5920 -0.3731
 1364TIP3   OH2 4097   2.589   3.706   2.959 -0.0124  0.1067 -0.4215
 1364TIP3    H1 4098   2.557   3.725   3.047  1.1673 -0.2462  0.0953
 1364TIP3    H2 4099   2.641   3.782   2.935  0.3742 -0.1666 -0.4609
 1365TIP3   OH2 4100   5.652   4.130   4.414  0.2222  0.2476 -0.7017
 1365TIP3    H1 4101   5.631   4.053   4.468 -0.0337  1.0933  0.4372
 1365TIP3    H2 4102   5.748   4.131   4.410  0.2590  0.3708  0.0483
 1366TIP3   OH2 4103   2.860   1.952   1.058  0.4952 -0.3637  0.3922
 1366TIP3    H1 4104   2.779   1.909   1.086 -0.7466 -0.1141 -2.4897
 1366TIP3    H2 4105   2.856   1.952   0.962  2.5695  2.1923  0.1835
 1367TIP3   OH2 4106   4.640   0.494   2.482  0.0373  0.1686 -0.3664
 1367TIP3    H1 4107   4.599   0.522   2.401  1.2788  1.7576 -0.4722
 1367TIP3    H2 4108   4.643   0.398   2.475 -1.1739  0.1856 -1.5226
 1368TIP3   OH2 4109   1.594   3.650   1.386  0.1119 -0.0196  0.0641
 1368TIP3    H1 4110   1.650   3.723   1.411  0.2942 -0.0177 -0.3409
 1368TIP3    H2 4111   1.512   3.690   1.357  0.6427  0.1214 -1.3492
 1369TIP3   OH2 4112   2.261   4.009   3.927  0.7524 -0.0225  0.2950
 1369TIP3    H1 4113   2.247   4.094   3.969  2.6466  0.4033  0.1167
 1369TIP3    H2 4114   2.249   4.026   3.833 -2.4077 -0.7564  0.4315
 1370TIP3   OH2 4115   2.680   5.924   2.907  0.2264 -0.0835 -0.1469
 1370TIP3    H1 4116   2.674   5.829   2.900 -4.4212 -0.1983  1.8671
 1370TIP3    H2 4117   2.739   5.939   2.981  0.1706 -1.4866  0.2033
 1371TIP3   OH2 4118   5.604   1.873   4.016 -0.1023  0.0275 -0.2862
 1371TIP3    H1 4119   5.532   1.825   4.056 -1.0901  1.0179 -0.8411
 1371TIP3    H2 4120   5.573   1.963   4.007  0.4360  0.0704 -2.3226
 1372TIP3   OH2 4121   3.420   3.732   4.202  0.4931  0.1867  0.4703
 1372TIP3    H1 4122   3.496   3.787   4.182  0.7617  0.2513  1.5980
 1372TIP3    H2 4123   3.377   3.777   4.275  1.3164 -1.6207  2.1548
 1373TIP3   OH2 4124   4.852   4.460   0.894  0.1229 -0.4769 -0.2890
 1373TIP3    H1 4125   4.814   4.537   0.852 -0.1930 -0.7474 -0.5066
 1373TIP3    H2 4126   4.871   4.400   0.822  0.8114 -0.4163 -0.1660
 1374TIP3   OH2 4127   4.778   2.434   2.295 -0.0997  0.3630  0.3325
 1374TIP3    H1 4128   4.807   2.364   2.235  2.0493  1.3722  0.0902
 1374TIP3    H2 4129   4.748   2.388   2.373 -0.9933 -0.9049 -0.7118
 1375TIP3   OH2 4130   4.164   5.289   1.946  0.0409  0.3575 -0.5513
 1375TIP3    H1 4131   4.096   5.311   1.882 -0.3658  0.6538 -0.0244
 1375TIP3    H2 4132   4.128   5.215   1.994  0.6246 -0.2861 -1.0893
 1376TIP3   OH2 4133   5.524   4.353   2.687  0.1227  0.0657 -0.2445
 1376TIP3    H1 4134   5.570   4.308   2.615 -0.5574 -2.0646  0.5781
 1376TIP3    H2 4135   5.589   4.357   2.757  0.6144  1.6638 -0.7546
 1377TIP3   OH2 4136   1.116   4.865   4.291 -0.2673 -0.2385  0.3883
 1377TIP3    H1 4137   1.100   4.858   4.385  1.4456  3.4877  1.1438
 1377TIP3    H2 4138   1.209   4.845   4.281  0.3253  2.2537  0.0909
 1378TIP3   OH2 4139   3.334   5.954   0.026  0.1812 -0.1489 -0.3505
 1378TIP3    H1 4140   3.419   5.910   0.023 -0.3122 -1.1085 -3.3093
 1378TIP3    H2 4141   3.273   5.887   0.054  0.0320 -0.2254 -0.8441
 1379TIP3   OH2 4142   1.151   3.668   0.601  0.6336  0.1551  0.4863
 1379TIP3    H1 4143   1.227   3.715   0.567  1.7168 -1.4736  0.5382
 1379TIP3    H2 4144   1.101   3.643   0.523  0.2764  0.9702  0.4383
 1380TIP3   OH2 4145   2.895   5.049   4.996  0.3178  0.0626  0.1763
 1380TIP3    H1 4146   2.869   5.042   4.904  1.4504 -0.3172 -0.1422
 1380TIP3    H2 4147   2.819   5.087   5.040  0.3322  1.7862 -1.1889
 1381TIP3   OH2 4148   5.802   1.448   0.923  0.6264  0.4018 -0.4697
 1381TIP3    H1 4149   5.876   1.492   0.881 -0.4926  1.7704 -1.0943
 1381TIP3    H2 4150   5.760   1.517   0.975 -0.1971 -0.3616 -0.1003
 1382TIP3   OH2 4151   5.117   4.657   3.862 -0.3074  0.4662  0.2023
 1382TIP3    H1 4152   5.027   4.636   3.838 -0.0206 -0.3502 -0.2335
 1382TIP3    H2 4153   5.131   4.612   3.945  0.4467 -1.5774 -0.9495
 1383TIP3   OH2 4154   4.667   1.676   0.309  0.7669  0.1846  0.1236
 1383TIP3    H1 4155   4.633   1.597   0.349 -0.7989  1.2487  0.9778
 1383TIP3    H2 4156   4.759   1.680   0.337  0.6497 -0.9090  0.6924
 1384TIP3   OH2 4157   2.765   2.700   4.559  0.1601 -0.1960 -0.5864
 1384TIP3    H1 4158   2.801   2.718   4.472  1.1430 -1.0320 -0.3745
 1384TIP3    H2 4159   2.739   2.608   4.556  0.0961 -0.1990 -0.0283
 1385TIP3   OH2 4160   4.387   1.887   0.628 -0.1175 -0.2694 -0.2558
 1385TIP3    H1 4161   4.329   1.829   0.677 -0.6065  1.2622  1.0888
 1385TIP3    H2 4162   4.345   1.973   0.634  0.4181  0.1911 -2.4312
 1386TIP3   OH2 4163   5.979   4.064   0.346  0.2766  0.1954 -0.0371
 1386TIP3    H1 4164   6.005   4.075   0.438  1.9260 -0.0271 -0.4455
 1386TIP3    H2 4165   5.916   3.992   0.347  0.7635 -0.2283  0.8434
 1387TIP3   OH2 4166   6.051   2.025   2.943  0.4097  0.0574  0.2401
 1387TIP3    H1 4167   6.045   1.932   2.962 -0.1690 -0.3717 -1.7606
 1387TIP3    H2 4168   5.979   2.065   2.992 -0.8754 -0.9307 -0.7733
 1388TIP3   OH2 4169   3.555   2.071   4.606 -0.5623 -0.0142 -0.3677
 1388TIP3    H1 4170   3.549   2.012   4.530  0.2315  0.2490 -0.6486
 1388TIP3    H2 4171   3.638   2.117   4.593 -2.0269  2.6196 -1.1962
 1389TIP3   OH2 4172   1.700   3.950   2.361 -0.5016 -0.2231 -0.4911
 1389TIP3    H1 4173   1.619   3.922   2.404  0.0095 -1.5415 -0.3513
 1389TIP3    H2 4174   1.758   3.874   2.368  0.5263  0.4875 -1.1500
 1390TIP3   OH2 4175   5.277   4.663   3.070  0.1409  0.2320  0.0908
 1390TIP3    H1 4176   5.346   4.629   3.012 -0.5879 -0.7463 -0.2230
 1390TIP3    H2 4177   5.299   4.625   3.156  0.1244  0.1046  0.0398
 1391TIP3   OH2 4178   1.141   0.179   0.214 -0.2591 -0.0851 -0.0931
 1391TIP3    H1 4179   1.203   0.252   0.206  0.0676 -0.3515 -0.0305
 1391TIP3    H2 4180   1.163   0.138   0.298 -0.2500 -0.4323 -0.2619
 1392TIP3   OH2 4181   5.729   4.524   2.146 -0.0369 -0.2433  0.3416
 1392TIP3    H1 4182   5.740   4.610   2.186 -0.3626  0.7335 -1.5581
 1392TIP3    H2 4183   5.635   4.515   2.132  0.1033 -0.2967 -0.6780
 1393TIP3   OH2 4184   6.007   1.601   0.143  0.1981 -0.6362 -0.2504
 1393TIP3    H1 4185   5.997   1.674   0.205  2.3939 -0.1789 -0.3682
 1393TIP3    H2 4186   6.020   1.524   0.198 -0.7017 -0.7352 -0.1497
 1394TIP3   OH2 4187   5.077   1.588   2.159 -0.0096 -0.2997  0.3316
 1394TIP3    H1 4188   5.052   1.497   2.176 -0.6285 -0.3436 -0.7640
 1394TIP3    H2 4189   4.996   1.638   2.171 -0.7147 -0.4192 -3.0248
 1395TIP3   OH2 4190   0.891   1.550   3.377  0.0163 -0.0319 -0.2454
 1395TIP3    H1 4191   0.850   1.569   3.462 -0.3263 -1.0119 -0.1769
 1395TIP3    H2 4192   0.924   1.634   3.347  0.5346  0.2585  1.0720
 1396TIP3   OH2 4193   0.131   1.429   2.295 -0.2968 -0.3944  0.1783
 1396TIP3    H1 4194   0.102   1.350   2.249 -0.6199 -0.2613  0.1487
 1396TIP3    H2 4195   0.108   1.501   2.237 -0.2639 -0.2577  0.3314
 1397TIP3   OH2 4196   6.008   4.285   2.976  0.1405 -0.0949  0.6432
 1397TIP3    H1 4197   6.077   4.289   2.911 -0.2690  0.0268  0.2101
 1397TIP3    H2 4198   6.005   4.372   3.015 -0.8022  0.3828 -0.4338
 1398TIP3   OH2 4199   3.689   0.570   2.231 -0.2462 -0.2815 -0.2053
 1398TIP3    H1 4200   3.730   0.572   2.144  1.6879  0.4313  0.6562
 1398TIP3    H2 4201   3.745   0.510   2.282 -2.9848 -3.0259 -0.1393
 1399TIP3   OH2 4202   2.105   2.346   4.434 -0.2053 -0.6559 -0.0990
 1399TIP3    H1 4203   2.066   2.373   4.517 -1.4352 -3.3293  0.2874
 1399TIP3    H2 4204   2.036   2.362   4.369 -0.5473 -1.7930 -0.0296
 1400TIP3   OH2 4205   5.874   5.431   4.744 -0.8151 -0.2092  0.2726
 1400TIP3    H1 4206   5.942   5.413   4.809 -0.2922 -0.7061 -0.3903
 1400TIP3    H2 4207   5.792   5.406   4.787 -0.4827 -0.5200  0.7403
 1401TIP3   OH2 4208   5.622   1.585   3.955 -0.1528  0.3121 -0.2418
 1401TIP3    H1 4209   5.538   1.624   3.981  0.5930  1.6475  0.2760
 1401TIP3    H2 4210   5.654   1.643   3.885 -0.3624 -1.0741 -1.5243
 1402TIP3   OH2 4211   0.536   3.111   5.143 -0.4634  0.0260 -0.4954
 1402TIP3    H1 4212   0.461   3.059   5.174  0.0689 -0.5363 -0.1228
 1402TIP3    H2 4213   0.578   3.056   5.078 -0.7555  0.6230 -1.1976
 1403TIP3   OH2 4214   2.688   3.632   0.507  0.1163 -0.8991 -0.5241
 1403TIP3    H1 4215   2.595   3.627   0.529 -0.1585  0.5236 -1.2208
 1403TIP3    H2 4216   2.731   3.583   0.577 -1.1318 -1.4256 -0.0792
 1404TIP3   OH2 4217   1.820   4.713   0.632  0.1137 -0.0748 -0.0229
 1404TIP3    H1 4218   1.726   4.697   0.641 -0.3664  1.6637 -1.2359
 1404TIP3    H2 4219   1.858   4.686   0.715 -1.5892  0.0016  0.8174
 1405TIP3   OH2 4220   6.272   4.409   2.041 -0.1440  0.0221  0.2732
 1405TIP3    H1 4221   6.249   4.500   2.059 -1.3652 -0.4659  1.3404
 1405TIP3    H2 4222   6.216   4.384   1.968  0.8463  0.3722 -0.6300
 1406TIP3   OH2 4223   0.387   4.935   2.238 -0.0075  0.2655  0.4249
 1406TIP3    H1 4224   0.332   4.858   2.220 -1.0710  1.2730 -0.9005
 1406TIP3    H2 4225   0.436   4.949   2.157 -0.5768  1.5466  0.2737
 1407TIP3   OH2 4226   4.180   0.092   1.550 -0.0892 -0.2073  0.2958
 1407TIP3    H1 4227   4.097   0.110   1.504 -0.5493 -0.4794  0.9973
 1407TIP3    H2 4228   4.192   0.168   1.608  0.0474 -0.2668  0.3448
 1408TIP3   OH2 4229   3.121   2.034   3.575 -0.0165 -0.2658 -0.2868
 1408TIP3    H1 4230   3.142   1.999   3.662  1.9393 -0.1544 -0.6785
 1408TIP3    H2 4231   3.175   2.112   3.567 -0.3049 -0.1791 -1.5472
 1409TIP3   OH2 4232   5.186   0.673   3.547 -0.4610 -0.4102  0.1457
 1409TIP3    H1 4233   5.147   0.630   3.471 -0.4840  0.1932 -0.1880
 1409TIP3    H2 4234   5.278   0.648   3.544 -0.6498 -1.1747  0.4737
 1410TIP3   OH2 4235   3.521   3.313   3.475 -0.6523 -0.2823 -0.0806
 1410TIP3    H1 4236   3.510   3.362   3.557  0.1999 -0.9902  0.4800
 1410TIP3    H2 4237   3.600   3.350   3.436 -2.2805  1.6119 -1.7586
 1411TIP3   OH2 4238   5.346   2.845   2.379 -0.5458 -0.3420 -0.2448
 1411TIP3    H1 4239   5.421   2.839   2.321 -1.4092 -0.4863 -1.3808
 1411TIP3    H2 4240   5.282   2.784   2.342 -1.5648  0.4520  0.1663
 1412TIP3   OH2 4241   4.597   3.798   4.930  0.3782  0.1698  0.7332
 1412TIP3    H1 4242   4.683   3.755   4.932  0.0048 -0.6867 -0.7110
 1412TIP3    H2 4243   4.536   3.730   4.959 -0.1619 -0.2039 -1.1590
 1413TIP3   OH2 4244   5.905   2.671   0.333  0.9283  0.1927 -0.0304
 1413TIP3    H1 4245   5.942   2.661   0.246  1.8622  0.5658  0.3065
 1413TIP3    H2 4246   5.811   2.682   0.319  0.7169 -2.1754 -0.8326
 1414TIP3   OH2 4247   1.389   3.494   1.920  0.4866  0.3069 -0.5315
 1414TIP3    H1 4248   1.462   3.504   1.980 -0.1722 -2.7194  0.9587
 1414TIP3    H2 4249   1.394   3.403   1.890 -1.9814  0.3464 -1.3100
 1415TIP3   OH2 4250   3.314   4.951   1.156  0.1060  0.0299 -0.4804
 1415TIP3    H1 4251   3.298   5.003   1.077  0.8352  0.0174 -0.6377
 1415TIP3    H2 4252   3.371   5.006   1.210 -1.0989  0.4281  0.4517
 1416TIP3   OH2 4253   4.633   5.847   2.683  0.4914 -0.5554 -0.1250
 1416TIP3    H1 4254   4.618   5.940   2.700  0.0104 -0.5732 -0.4315
 1416TIP3    H2 4255   4.689   5.845   2.605  1.0380 -0.5149  0.2594
 1417TIP3   OH2 4256   3.972   3.203   0.566 -0.2164  0.5587 -0.3621
 1417TIP3    H1 4257   4.035   3.262   0.608 -0.5992  1.8946 -1.5898
 1417TIP3    H2 4258   3.916   3.173   0.638  0.8628  0.5721  0.5082
 1418TIP3   OH2 4259   4.834   2.343   0.272  0.2345 -0.2520  0.9495
 1418TIP3    H1 4260   4.763   2.290   0.309 -1.4032  1.3707  0.2501
 1418TIP3    H2 4261   4.807   2.360   0.182  1.9398 -0.2693  0.3923
 1419TIP3   OH2 4262   0.242   5.405   0.392  0.2928  0.0698 -0.0343
 1419TIP3    H1 4263   0.216   5.366   0.476  0.4512  2.3074  1.1198
 1419TIP3    H2 4264   0.331   5.373   0.377  0.2043 -0.4716  0.5786
 1420TIP3   OH2 4265   2.456   4.104   0.619  0.5523 -0.9282 -0.7131
 1420TIP3    H1 4266   2.449   4.031   0.681 -1.1738 -0.4366 -0.2648
 1420TIP3    H2 4267   2.499   4.173   0.668  0.2351 -0.9304 -0.4260
 1421TIP3   OH2 4268   5.572   5.691   1.976 -0.0557  0.2657 -0.3050
 1421TIP3    H1 4269   5.573   5.661   1.885 -0.5776 -2.2400  0.4598
 1421TIP3    H2 4270   5.647   5.648   2.016 -1.3731 -0.8688  1.0670
 1422TIP3   OH2 4271   4.045   5.259   3.359 -0.0976 -0.6638  0.0784
 1422TIP3    H1 4272   4.018   5.267   3.451  0.0439  1.7942 -0.0454
 1422TIP3    H2 4273   4.131   5.300   3.355  0.3762 -1.7143 -0.9708
 1423TIP3   OH2 4274   0.928   1.728   0.261  0.3612  0.1922  0.6239
 1423TIP3    H1 4275   1.003   1.672   0.278 -0.1316 -0.5619  0.3679
 1423TIP3    H2 4276   0.926   1.737   0.165 -0.6781 -0.9335  0.5273
 1424TIP3   OH2 4277   3.196   3.477   2.397 -0.0240 -0.1090  0.2237
 1424TIP3    H1 4278   3.229   3.391   2.374 -0.9092 -0.4114  0.0491
 1424TIP3    H2 4279   3.148   3.464   2.479 -0.2394  0.1931  0.1502
 1425TIP3   OH2 4280   3.475   1.618   1.328  0.2680 -0.4904 -0.0948
 1425TIP3    H1 4281   3.467   1.684   1.396 -2.6166  0.0974 -0.8827
 1425TIP3    H2 4282   3.551   1.645   1.277  0.0364  1.3971  0.4827
 1426TIP3   OH2 4283   2.645   1.008   0.340 -0.2830 -0.2313 -0.2778
 1426TIP3    H1 4284   2.692   0.989   0.421 -1.8447 -0.0445  0.7120
 1426TIP3    H2 4285   2.694   1.081   0.301  0.4935 -0.3212  0.4897
 1427TIP3   OH2 4286   4.563   2.834   3.032  0.2947 -0.8760 -0.0985
 1427TIP3    H1 4287   4.484   2.827   3.086  0.2850 -0.1861 -0.0143
 1427TIP3    H2 4288   4.608   2.750   3.044 -0.9773 -1.7374 -1.0259
 1428TIP3   OH2 4289   5.789   5.851   4.730  1.0687  0.6046 -0.1879
 1428TIP3    H1 4290   5.782   5.818   4.820  0.3407  1.3905  0.0574
 1428TIP3    H2 4291   5.809   5.774   4.678 -1.8838 -0.5454  0.1803
 1429TIP3   OH2 4292   1.035   3.563   1.782 -0.1314 -0.2928 -0.3823
 1429TIP3    H1 4293   1.084   3.591   1.859 -0.9162 -1.1207  0.4540
 1429TIP3    H2 4294   0.960   3.622   1.779 -1.2696 -1.5858  0.8163
 1430TIP3   OH2 4295   5.557   4.271   4.667  0.2496  0.3506 -0.1152
 1430TIP3    H1 4296   5.508   4.329   4.609  0.6592  0.5445 -0.2762
 1430TIP3    H2 4297   5.599   4.208   4.609  0.5490  0.4592 -0.0200
 1431TIP3   OH2 4298   6.207   0.059   0.633 -0.0885  0.1074 -0.0769
 1431TIP3    H1 4299   6.127   0.011   0.655  0.0650  0.1314  0.5615
 1431TIP3    H2 4300   6.239   0.017   0.554 -0.1489 -0.6149  0.2742
 1432TIP3   OH2 4301   3.121   5.444   1.140 -0.4128 -0.1782  0.2305
 1432TIP3    H1 4302   3.180   5.415   1.210 -1.9454 -0.4710  1.4626
 1432TIP3    H2 4303   3.074   5.364   1.115 -1.1381  0.2707  0.1387
 1433TIP3   OH2 4304   3.702   5.259   4.987 -0.0089 -0.5112  0.2754
 1433TIP3    H1 4305   3.658   5.177   5.008 -0.7086 -0.5736 -1.2787
 1433TIP3    H2 4306   3.633   5.325   4.988  0.2000 -0.2742 -0.2537
 1434TIP3   OH2 4307   0.694   1.882   0.289  0.8336 -0.0618 -0.5362
 1434TIP3    H1 4308   0.738   1.803   0.320  0.1133 -0.6048 -0.8672
 1434TIP3    H2 4309   0.765   1.945   0.276  1.2019  0.2394  2.2229
 1435TIP3   OH2 4310   6.111   0.713   4.830 -0.0018  0.2961  0.4695
 1435TIP3    H1 4311   6.039   0.706   4.893 -0.9686 -2.2160 -0.7872
 1435TIP3    H2 4312   6.190   0.704   4.883 -0.6685  0.8270  1.5924
 1436TIP3   OH2 4313   5.688   2.782   4.102  0.2728  0.0168  0.5698
 1436TIP3    H1 4314   5.599   2.804   4.075  0.1311 -0.3754  0.7079
 1436TIP3    H2 4315   5.676   2.722   4.176  0.5959 -2.4594 -1.2556
 1437TIP3   OH2 4316   0.514   1.145   0.614  0.2038  0.0295 -0.0169
 1437TIP3    H1 4317   0.579   1.092   0.568 -1.6271 -1.6804 -0.8358
 1437TIP3    H2 4318   0.440   1.085   0.627 -1.2168  1.8669  0.8227
 1438TIP3   OH2 4319   1.150   5.661   0.431  0.2462  0.1585 -0.0481
 1438TIP3    H1 4320   1.220   5.726   0.428  2.4193 -1.9719  0.7971
 1438TIP3    H2 4321   1.196   5.577   0.440 -2.4306 -1.4176  0.0083
 1439TIP3   OH2 4322   1.724   2.774   1.575 -0.5235  0.1768 -0.3586
 1439TIP3    H1 4323   1.654   2.768   1.640 -0.7834 -2.0034 -0.7629
 1439TIP3    H2 4324   1.680   2.800   1.494 -0.8061 -0.7280 -0.5027
 1440TIP3   OH2 4325   0.081   0.676   3.478 -0.0131  0.7306  0.4633
 1440TIP3    H1 4326   0.048   0.765   3.491 -0.5573  1.1237 -2.7411
 1440TIP3    H2 4327   0.003   0.624   3.461  0.3865 -0.2063  1.3909
 1441TIP3   OH2 4328   0.289   5.775   2.579 -0.4649  0.0388 -0.7601
 1441TIP3    H1 4329   0.263   5.773   2.487  0.8528  1.4914 -1.2147
 1441TIP3    H2 4330   0.342   5.696   2.591  0.8860  0.7547 -1.7800
 1442TIP3   OH2 4331   4.914   0.914   3.634  0.2226  0.4684 -0.1488
 1442TIP3    H1 4332   4.948   1.000   3.658  3.8763 -0.8057 -0.1635
 1442TIP3    H2 4333   4.945   0.856   3.704 -3.4629 -0.7407  0.7141
 1443TIP3   OH2 4334   5.921   1.414   3.944 -0.4063  0.0966 -0.1420
 1443TIP3    H1 4335   5.950   1.504   3.930 -2.1012  0.6035 -0.6931
 1443TIP3    H2 4336   5.998   1.369   3.979  0.4333  1.7983  0.3279
 1444TIP3   OH2 4337   1.127   5.265   1.762 -0.5616 -0.4349 -0.2052
 1444TIP3    H1 4338   1.065   5.193   1.748  0.3982 -1.3990  0.3202
 1444TIP3    H2 4339   1.169   5.277   1.676 -3.2746  2.0789 -1.3676
 1445TIP3   OH2 4340   2.938   3.247   1.520 -0.2783 -0.1033  0.1295
 1445TIP3    H1 4341   2.936   3.153   1.536  0.1325 -0.1605 -0.1280
 1445TIP3    H2 4342   3.024   3.275   1.551 -1.0503  0.4995  1.8291
 1446TIP3   OH2 4343   5.590   1.516   0.536  0.6599 -0.2215 -0.4022
 1446TIP3    H1 4344   5.515   1.461   0.516 -0.5512  1.3470 -0.3337
 1446TIP3    H2 4345   5.666   1.462   0.513 -0.3962 -2.3587  0.8436
 1447TIP3   OH2 4346   4.994   3.149   3.050  0.4694 -0.3369 -0.2639
 1447TIP3    H1 4347   5.027   3.181   3.134  2.2244 -1.8110 -0.3201
 1447TIP3    H2 4348   4.901   3.135   3.064  0.3729  1.2084  0.8493
 1448TIP3   OH2 4349   4.834   1.462   1.907  0.4200 -0.4855  0.1036
 1448TIP3    H1 4350   4.802   1.430   1.823 -3.6616  0.4005  1.1047
 1448TIP3    H2 4351   4.850   1.556   1.892  2.2860 -0.8162 -0.2449
 1449TIP3   OH2 4352   2.995   5.305   2.588 -1.0028 -0.2091  0.7743
 1449TIP3    H1 4353   2.908   5.266   2.592 -0.8053 -0.6273  1.0416
 1449TIP3    H2 4354   3.055   5.233   2.604 -0.5098 -0.2994 -1.1987
 1450TIP3   OH2 4355   4.800   3.140   4.806  0.8764 -0.0217 -0.0770
 1450TIP3    H1 4356   4.858   3.082   4.856  1.9774  1.4600  0.4462
 1450TIP3    H2 4357   4.751   3.081   4.748  0.7267 -1.6193  1.5896
 1451TIP3   OH2 4358   4.149   3.254   4.977 -0.7079  0.3489 -0.1500
 1451TIP3    H1 4359   4.174   3.242   5.069 -1.3080  0.4102  0.0198
 1451TIP3    H2 4360   4.055   3.237   4.975 -1.0192  1.9734 -0.4548
 1452TIP3   OH2 4361   2.715   3.722   1.714  0.9443  0.3028 -0.1119
 1452TIP3    H1 4362   2.665   3.647   1.682  1.1844 -0.8133  1.9339
 1452TIP3    H2 4363   2.753   3.691   1.796  1.9128  2.3507  0.2566
 1453TIP3   OH2 4364   3.817   5.821   2.763  0.1955  0.3809  0.2172
 1453TIP3    H1 4365   3.829   5.819   2.668  2.7346  0.2643  0.4563
 1453TIP3    H2 4366   3.836   5.732   2.791  2.4512  1.0312  1.0203
 1454TIP3   OH2 4367   5.332   2.101   3.027  0.2418 -0.4427 -0.8132
 1454TIP3    H1 4368   5.321   2.010   2.999 -0.8244 -0.7439  0.5104
 1454TIP3    H2 4369   5.321   2.152   2.946 -2.6296 -1.2998 -1.0866
 1455TIP3   OH2 4370   5.058   2.104   3.267  0.0461  0.2272  0.3666
 1455TIP3    H1 4371   5.014   2.033   3.221  1.4537 -0.9303  0.7226
 1455TIP3    H2 4372   4.988   2.155   3.306 -0.9868 -1.4364  0.7600
 1456TIP3   OH2 4373   1.569   0.648   0.405  0.4304 -0.2715  0.4128
 1456TIP3    H1 4374   1.618   0.714   0.357 -0.2002 -1.2845 -1.7089
 1456TIP3    H2 4375   1.488   0.637   0.356 -1.1452  0.0053  2.8001
 1457TIP3   OH2 4376   3.226   4.246   5.018 -0.2784 -0.0801 -0.4737
 1457TIP3    H1 4377   3.169   4.320   5.037 -0.8660 -0.4990 -0.5636
 1457TIP3    H2 4378   3.240   4.204   5.103  0.1078  0.1691 -0.4127
 1458TIP3   OH2 4379   3.490   1.142   0.383 -0.0220 -0.0475  0.1161
 1458TIP3    H1 4380   3.408   1.173   0.345 -0.7905 -0.9496  0.9468
 1458TIP3    H2 4381   3.462   1.078   0.449  1.4114 -1.6487 -0.7498
 1459TIP3   OH2 4382   2.921   3.067   3.392  0.0449  0.4912 -0.3331
 1459TIP3    H1 4383   2.882   2.980   3.384  1.1576 -0.3180  2.1189
 1459TIP3    H2 4384   3.010   3.055   3.358  1.4661 -0.4342  3.2297
 1460TIP3   OH2 4385   1.856   2.096   4.137  0.3999 -0.5435  0.1120
 1460TIP3    H1 4386   1.894   2.161   4.079 -0.8709  0.2722  0.1656
 1460TIP3    H2 4387   1.762   2.114   4.136  0.1776 -1.4989  1.2011
 1461TIP3   OH2 4388   3.305   0.812   3.265 -0.4747 -0.1567 -0.3198
 1461TIP3    H1 4389   3.391   0.778   3.290 -0.3681 -0.2950 -0.8669
 1461TIP3    H2 4390   3.320   0.906   3.250  0.1132 -0.5551 -2.6620
 1462TIP3   OH2 4391   5.613   5.691   3.620 -0.1803  0.0232 -0.7015
 1462TIP3    H1 4392   5.683   5.716   3.559 -0.5008 -2.6832 -2.3242
 1462TIP3    H2 4393   5.644   5.720   3.705  2.0811  0.5078 -1.6214
 1463TIP3   OH2 4394   1.871   4.358   4.139  0.0955  0.0333 -0.3679
 1463TIP3    H1 4395   1.896   4.297   4.208  1.3138  0.4367 -0.4255
 1463TIP3    H2 4396   1.923   4.330   4.063 -1.9560 -1.0279 -1.4513
 1464TIP3   OH2 4397   5.328   5.238   2.159  0.3736  0.1120  0.1499
 1464TIP3    H1 4398   5.328   5.319   2.107 -0.9585 -0.9897 -1.6971
 1464TIP3    H2 4399   5.421   5.218   2.170  0.7224  1.6401  0.2577
 1465TIP3   OH2 4400   0.207   3.863   4.895  0.3885 -0.2897  0.3900
 1465TIP3    H1 4401   0.168   3.922   4.960 -0.2379  0.0258 -0.2491
 1465TIP3    H2 4402   0.276   3.817   4.942 -0.2230 -0.2561  1.3475
 1466TIP3   OH2 4403   3.147   4.995   4.099  0.5474  0.0080 -0.2831
 1466TIP3    H1 4404   3.171   4.903   4.104  0.8302 -0.0987 -2.4757
 1466TIP3    H2 4405   3.230   5.043   4.108  0.2328  0.2100  2.4728
 1467TIP3   OH2 4406   0.078   4.860   2.570  0.0084 -0.0076  0.4565
 1467TIP3    H1 4407   0.167   4.847   2.536  0.3541  1.4241  0.7584
 1467TIP3    H2 4408   0.087   4.928   2.636 -1.1908 -0.4621  1.1268
 1468TIP3   OH2 4409   0.410   5.289   3.061  0.1759  0.3562  0.0236
 1468TIP3    H1 4410   0.318   5.266   3.077  0.2375 -1.4281 -1.7503
 1468TIP3    H2 4411   0.410   5.329   2.974  0.8574  2.2997  0.8566
 1469TIP3   OH2 4412   5.947   2.673   2.678 -0.1150 -0.3311 -0.0075
 1469TIP3    H1 4413   6.013   2.709   2.737  0.3200 -2.7944  1.1293
 1469TIP3    H2 4414   5.877   2.642   2.736 -0.1622 -1.8476 -0.8093
 1470TIP3   OH2 4415   5.562   3.431   4.161  0.0597  0.1153 -0.4181
 1470TIP3    H1 4416   5.587   3.510   4.209 -1.0357  0.0115  0.3405
 1470TIP3    H2 4417   5.643   3.380   4.157  0.3909  0.5412  0.5225
 1471TIP3   OH2 4418   2.180   0.809   3.614 -0.1675  0.1805 -0.2439
 1471TIP3    H1 4419   2.132   0.737   3.575 -0.0543  0.4589 -0.9058
 1471TIP3    H2 4420   2.195   0.782   3.705 -0.6925 -0.3375 -0.3093
 1472TIP3   OH2 4421   0.358   2.996   0.606  0.2756 -0.3210 -0.5877
 1472TIP3    H1 4422   0.316   3.005   0.692  0.9699  0.4685 -0.3200
 1472TIP3    H2 4423   0.299   2.938   0.557 -1.8692  1.8084 -0.7089
 1473TIP3   OH2 4424   2.093   3.835   3.745  0.1616  0.1286  0.0639
 1473TIP3    H1 4425   2.047   3.816   3.827  1.0266 -1.6525  0.1750
 1473TIP3    H2 4426   2.061   3.922   3.719 -1.1051  0.1584  1.5954
 1474TIP3   OH2 4427   1.556   2.112   1.838 -0.0178  0.6726  0.4603
 1474TIP3    H1 4428   1.538   2.176   1.770 -2.8815  0.1534  0.6403
 1474TIP3    H2 4429   1.571   2.030   1.790 -1.9410  0.3265  0.3927
 1475TIP3   OH2 4430   5.628   5.607   3.091 -0.0867 -0.7638  0.2745
 1475TIP3    H1 4431   5.675   5.685   3.121 -1.1325  0.9401 -2.2337
 1475TIP3    H2 4432   5.606   5.560   3.172  0.7745  1.4158  1.8599
 1476TIP3   OH2 4433   5.424   5.871   2.521  0.1841 -0.3495 -0.0029
 1476TIP3    H1 4434   5.419   5.939   2.588  1.9242  1.0379 -1.1838
 1476TIP3    H2 4435   5.446   5.791   2.570 -0.0861  0.2967  1.2196
 1477TIP3   OH2 4436   3.686   3.986   2.421 -0.1425  0.0371  0.0093
 1477TIP3    H1 4437   3.722   3.920   2.363 -0.2150  0.6493 -0.7513
 1477TIP3    H2 4438   3.633   4.042   2.364  0.5217  1.1945  0.4907
 1478TIP3   OH2 4439   4.040   4.660   1.877  0.4489  0.7026 -0.2585
 1478TIP3    H1 4440   4.030   4.643   1.971  0.2643 -0.4401 -0.4731
 1478TIP3    H2 4441   3.951   4.651   1.841  0.6363  0.3998 -0.6541
 1479TIP3   OH2 4442   3.084   0.090   3.645  0.1089  0.0251  0.1474
 1479TIP3    H1 4443   3.040   0.048   3.571 -0.9285 -0.5201  1.0573
 1479TIP3    H2 4444   3.107   0.177   3.612  1.9089 -1.0335 -1.6324
 1480TIP3   OH2 4445   1.821   3.021   0.184 -0.5981  0.8582 -0.7301
 1480TIP3    H1 4446   1.802   2.976   0.102  0.0607  0.7605 -0.8272
 1480TIP3    H2 4447   1.828   2.951   0.249 -2.6175  1.0082 -0.2678
 1481TIP3   OH2 4448   5.255   5.541   3.658 -0.0825 -0.7856 -0.0435
 1481TIP3    H1 4449   5.289   5.631   3.664 -0.7993 -0.5436  0.5140
 1481TIP3    H2 4450   5.160   5.552   3.651 -0.5488 -1.5626  3.4363
 1482TIP3   OH2 4451   0.456   1.681   0.758 -0.0578  0.2941  0.5015
 1482TIP3    H1 4452   0.548   1.655   0.764  0.0410  0.3822 -0.4919
 1482TIP3    H2 4453   0.431   1.702   0.848  0.0923 -2.4447  1.2649
 1483TIP3   OH2 4454   0.449   2.271   1.295 -0.1860 -0.4813  0.0010
 1483TIP3    H1 4455   0.451   2.241   1.204 -1.1502 -0.1838 -0.1262
 1483TIP3    H2 4456   0.484   2.360   1.291  2.3860 -1.3805  0.3363
 1484TIP3   OH2 4457   0.567   0.277   4.000  0.3170  0.1005 -0.4111
 1484TIP3    H1 4458   0.537   0.193   3.966  0.6573  0.0682 -0.6370
 1484TIP3    H2 4459   0.655   0.259   4.034  0.0436  0.1658  0.3490
 1485TIP3   OH2 4460   5.099   2.856   0.326  0.3215  0.8365 -0.0129
 1485TIP3    H1 4461   5.184   2.854   0.282 -0.3077  0.5178 -1.2634
 1485TIP3    H2 4462   5.092   2.770   0.368  0.3853  0.6419 -0.3921
 1486TIP3   OH2 4463   4.313   4.867   3.127 -0.4554 -0.6057  0.6516
 1486TIP3    H1 4464   4.380   4.821   3.179  0.0473 -2.8070 -1.7558
 1486TIP3    H2 4465   4.358   4.891   3.046 -1.9831  0.0290 -0.0388
 1487TIP3   OH2 4466   5.953   2.074   1.890 -1.0287  0.3655 -0.2178
 1487TIP3    H1 4467   5.937   2.087   1.796  0.2429 -0.8777 -0.6462
 1487TIP3    H2 4468   5.933   1.981   1.905 -0.0132  0.2381  0.4520
 1488TIP3   OH2 4469   1.018   3.890   4.674 -0.5424 -0.0548 -0.3561
 1488TIP3    H1 4470   1.105   3.921   4.702 -0.2169 -1.8325  0.7300
 1488TIP3    H2 4471   0.962   3.967   4.684  0.8168  1.0187 -0.6743
 1489TIP3   OH2 4472   0.966   4.575   4.472  0.0669  0.5279  0.3365
 1489TIP3    H1 4473   0.871   4.580   4.460 -0.1042  1.4385  1.8813
 1489TIP3    H2 4474   0.993   4.666   4.487  1.2313  0.3048 -0.2769
 1490TIP3   OH2 4475   4.056   3.729   0.906 -0.1547  0.5093 -0.3843
 1490TIP3    H1 4476   4.022   3.795   0.968 -0.3075  0.5142 -0.4734
 1490TIP3    H2 4477   4.148   3.754   0.894 -0.0034  0.2555  0.1726
 1491TIP3   OH2 4478   3.575   0.063   1.164  0.0321 -0.1261 -0.0867
 1491TIP3    H1 4479   3.597  -0.019   1.121 -0.3277 -0.5581  0.5363
 1491TIP3    H2 4480   3.610   0.131   1.106  1.8677 -0.7460  0.2256
 1492TIP3   OH2 4481   4.458   3.809   2.840  0.1432 -0.0204  0.3941
 1492TIP3    H1 4482   4.502   3.769   2.915 -1.2683  0.4415  1.5192
 1492TIP3    H2 4483   4.529   3.842   2.785  1.2355  0.8117  2.1971
 1493TIP3   OH2 4484   5.234   5.883   1.494  0.3120  0.1014 -0.1313
 1493TIP3    H1 4485   5.147   5.843   1.490 -0.6475  2.1784 -2.1653
 1493TIP3    H2 4486   5.228   5.948   1.564  0.2699  0.1149 -0.1473
 1494TIP3   OH2 4487   3.507   2.748   3.107  0.2222  0.1932  0.2983
 1494TIP3    H1 4488   3.510   2.801   3.187 -1.4737  0.6888  0.0757
 1494TIP3    H2 4489   3.560   2.797   3.044  1.3293 -0.0554  1.0167
 1495TIP3   OH2 4490   4.659   5.192   0.168  0.2041 -0.1057 -0.3626
 1495TIP3    H1 4491   4.643   5.208   0.075  0.7449 -2.0694 -0.8489
 1495TIP3    H2 4492   4.606   5.116   0.189  0.3121  0.1397  0.8849
 1496TIP3   OH2 4493   2.661   3.227   1.008 -0.5738 -0.0579  0.5049
 1496TIP3    H1 4494   2.646   3.290   1.078  1.6716 -0.2762  1.2612
 1496TIP3    H2 4495   2.667   3.143   1.053  0.9344 -0.1995  0.0975
 1497TIP3   OH2 4496   1.394   4.612   0.368  0.1340 -0.0144  0.2216
 1497TIP3    H1 4497   1.406   4.635   0.276  1.2893 -0.5951  0.2057
 1497TIP3    H2 4498   1.315   4.660   0.395 -0.0866  0.3443 -0.9975
 1498TIP3   OH2 4499   4.866   2.443   3.607 -0.3097 -0.0808 -0.6916
 1498TIP3    H1 4500   4.782   2.435   3.653 -0.9572  2.4457 -1.2432
 1498TIP3    H2 4501   4.901   2.527   3.636  1.9802 -0.9899 -0.6422
 1499TIP3   OH2 4502   3.819   2.664   0.086  0.5260  0.4063 -0.3475
 1499TIP3    H1 4503   3.776   2.702   0.162  1.3422 -2.8454  1.9118
 1499TIP3    H2 4504   3.908   2.645   0.115  1.2000 -0.0029 -2.4740
 1500TIP3   OH2 4505   5.875   4.043   3.081  0.2990 -0.1087 -0.4125
 1500TIP3    H1 4506   5.811   4.047   3.010  0.9855  0.7366 -1.0180
 1500TIP3    H2 4507   5.937   4.114   3.060 -0.0204  0.8096  1.5453
 1501TIP3   OH2 4508   0.125   1.384   2.904 -0.2882  0.1875 -0.2121
 1501TIP3    H1 4509   0.167   1.383   2.990 -2.0468 -1.1654  0.7080
 1501TIP3    H2 4510   0.188   1.428   2.847  0.5066  2.0513  1.9477
 1502TIP3   OH2 4511   2.332   1.196   2.753 -0.1932 -0.0671 -0.6063
 1502TIP3    H1 4512   2.373   1.163   2.673  0.4138  0.3840 -0.4829
 1502TIP3    H2 4513   2.341   1.291   2.748 -1.0514  0.0293 -0.4806
 1503TIP3   OH2 4514   5.469   4.870   3.368 -0.3698  0.2094 -0.0767
 1503TIP3    H1 4515   5.429   4.849   3.451  0.7637  0.1114  0.4687
 1503TIP3    H2 4516   5.477   4.966   3.369 -0.3307  0.2063 -0.0600
 1504TIP3   OH2 4517   3.993   3.326   4.309 -0.0921 -0.7758  0.0879
 1504TIP3    H1 4518   3.964   3.297   4.395 -3.4768  2.0255  0.0768
 1504TIP3    H2 4519   3.913   3.336   4.258  1.2894  2.4275 -1.7529
 1505TIP3   OH2 4520   0.084   0.917   1.451  0.2275  0.7310  0.0109
 1505TIP3    H1 4521  -0.002   0.876   1.451  0.4859  0.1495  0.6825
 1505TIP3    H2 4522   0.067   1.010   1.442 -0.6002  0.8077  1.8664
 1506TIP3   OH2 4523   2.926   2.907   2.226 -0.1828 -0.2645  0.3286
 1506TIP3    H1 4524   2.980   2.842   2.181 -0.4527 -0.2644  0.0058
 1506TIP3    H2 4525   2.847   2.859   2.252 -1.4126  0.4424 -1.8805
 1507TIP3   OH2 4526   0.864   4.937   0.738  0.0884  0.8949  0.2142
 1507TIP3    H1 4527   0.906   4.914   0.655  0.1747  0.8003  0.2847
 1507TIP3    H2 4528   0.925   4.996   0.781 -1.3207  3.5716 -1.2081
 1508TIP3   OH2 4529   1.502   1.413   0.842 -0.2196 -0.0827  0.2369
 1508TIP3    H1 4530   1.460   1.328   0.828  0.1946 -0.7953  2.8083
 1508TIP3    H2 4531   1.465   1.445   0.924  1.7589  0.8334  0.8415
 1509TIP3   OH2 4532   3.715   0.149   0.924  0.2965 -0.0407 -0.4456
 1509TIP3    H1 4533   3.781   0.080   0.922  0.3357  0.0050 -1.1222
 1509TIP3    H2 4534   3.764   0.231   0.914  0.2857  0.1220  0.7592
 1510TIP3   OH2 4535   2.482   5.630   0.361  0.0442 -0.0832  0.3360
 1510TIP3    H1 4536   2.420   5.594   0.424 -0.4118  0.8926  0.4682
 1510TIP3    H2 4537   2.450   5.601   0.276 -0.4679  0.2295  0.4210
 1511TIP3   OH2 4538   5.731   0.531   2.760 -0.0004  0.0944  0.0063
 1511TIP3    H1 4539   5.743   0.623   2.782 -1.7042 -0.1073  2.1598
 1511TIP3    H2 4540   5.644   0.526   2.721 -0.8948 -0.8294  1.9799
 1512TIP3   OH2 4541   4.864   3.128   3.512  0.3448  0.2005  0.1877
 1512TIP3    H1 4542   4.883   3.196   3.577 -0.4026 -1.1176  1.8638
 1512TIP3    H2 4543   4.950   3.098   3.484  0.6896  0.7737  0.5921
 1513TIP3   OH2 4544   1.045   4.745   1.764  0.2600  0.4934  0.6273
 1513TIP3    H1 4545   1.067   4.674   1.824  1.8956 -0.0163 -0.4862
 1513TIP3    H2 4546   1.100   4.728   1.687 -1.6414  1.1887 -0.9700
 1514TIP3   OH2 4547   2.979   2.763   2.852  0.2693  0.3349  0.4197
 1514TIP3    H1 4548   3.001   2.724   2.937 -0.1837  0.5748  0.6501
 1514TIP3    H2 4549   2.890   2.733   2.834 -0.8045  2.6495  1.4438
 1515TIP3   OH2 4550   1.419   3.805   1.177 -0.3375 -0.6405 -0.0484
 1515TIP3    H1 4551   1.398   3.893   1.144 -0.6133 -0.5536  0.3408
 1515TIP3    H2 4552   1.337   3.756   1.167 -0.1955 -0.8405 -0.2256
 1516TIP3   OH2 4553   0.666   3.090   2.708  0.1780 -0.0590  0.6391
 1516TIP3    H1 4554   0.700   3.172   2.745  0.5136 -0.0649  0.3496
 1516TIP3    H2 4555   0.719   3.022   2.749  1.5288  0.0090 -0.8678
 1517TIP3   OH2 4556   3.764   2.195   2.339  0.0587  0.0604  0.7848
 1517TIP3    H1 4557   3.770   2.167   2.247  0.9504 -3.5213  1.7939
 1517TIP3    H2 4558   3.672   2.216   2.351 -0.4189 -1.0615 -0.5599
 1518TIP3   OH2 4559   1.411   1.321   2.240 -0.1738 -0.4755 -0.3885
 1518TIP3    H1 4560   1.410   1.390   2.174 -0.7095  0.7914  0.8906
 1518TIP3    H2 4561   1.400   1.240   2.190 -2.5824  0.5570 -1.7254
 1519TIP3   OH2 4562   3.145   1.871   1.435 -0.0348  0.1513  0.0363
 1519TIP3    H1 4563   3.101   1.860   1.519 -0.7218  2.6565  0.0754
 1519TIP3    H2 4564   3.111   1.800   1.381 -1.0109 -0.3887  1.2947
 1520TIP3   OH2 4565   3.363   2.569   1.862  0.2683  0.0486  0.0238
 1520TIP3    H1 4566   3.340   2.578   1.769  2.1497  2.2748 -0.3071
 1520TIP3    H2 4567   3.303   2.627   1.908  1.0163  0.9396 -0.1117
 1521TIP3   OH2 4568   3.598   4.744   2.943 -0.3322 -0.1187  0.2716
 1521TIP3    H1 4569   3.627   4.670   2.890  1.5501 -0.4236  1.6164
 1521TIP3    H2 4570   3.641   4.731   3.027 -0.4228  2.1975  0.7400
 1522TIP3   OH2 4571   0.483   2.540   3.823  0.5695 -0.1532 -0.7708
 1522TIP3    H1 4572   0.553   2.516   3.884  2.6468 -0.5330 -3.1211
 1522TIP3    H2 4573   0.494   2.634   3.809 -0.3317  0.0688 -0.1268
 1523TIP3   OH2 4574   5.331   3.310   4.462 -0.7444  0.4508  0.6261
 1523TIP3    H1 4575   5.378   3.363   4.527 -1.4997  0.3979  1.2191
 1523TIP3    H2 4576   5.336   3.220   4.496 -2.1012  0.5715  1.2071
 1524TIP3   OH2 4577   2.929   5.723   2.874  0.1958 -0.3105  0.6691
 1524TIP3    H1 4578   2.960   5.634   2.861  2.1389  0.0989  1.9141
 1524TIP3    H2 4579   2.837   5.722   2.848  0.4756 -2.3876 -0.3775
 1525TIP3   OH2 4580   3.695   5.674   3.851  0.4256 -0.0871 -0.2792
 1525TIP3    H1 4581   3.640   5.746   3.819 -1.8241 -1.0927  1.0940
 1525TIP3    H2 4582   3.755   5.656   3.778  1.3827  3.3664 -0.5201
 1526TIP3   OH2 4583   0.219   3.192   2.403 -0.7342  0.0674  0.2127
 1526TIP3    H1 4584   0.148   3.217   2.462 -3.2261 -0.1479 -2.4711
 1526TIP3    H2 4585   0.217   3.258   2.334  1.6273 -0.0485 -0.0513
 1527TIP3   OH2 4586   2.034   1.891   2.782  0.6483  0.3492  0.1688
 1527TIP3    H1 4587   2.089   1.839   2.725  0.3607 -0.4144  0.5748
 1527TIP3    H2 4588   1.999   1.960   2.725  0.9275  0.0265 -0.4007
 1528TIP3   OH2 4589   4.256   0.520   4.268  0.4896 -0.0355  0.1386
 1528TIP3    H1 4590   4.160   0.525   4.267  0.5379  1.7760  0.1903
 1528TIP3    H2 4591   4.280   0.546   4.357  1.0418 -0.2565  0.0592
 1529TIP3   OH2 4592   2.675   0.874   1.919  0.2564 -1.1367 -0.5119
 1529TIP3    H1 4593   2.643   0.787   1.944 -1.4064  0.0188  1.7384
 1529TIP3    H2 4594   2.595   0.926   1.908  1.1029 -0.2773 -3.7617
 1530TIP3   OH2 4595   2.328   5.142   0.566 -0.6018 -0.1002 -0.3603
 1530TIP3    H1 4596   2.406   5.186   0.598 -0.8047 -0.6704  1.0208
 1530TIP3    H2 4597   2.256   5.185   0.612 -0.9246 -0.8496 -0.1437
 1531TIP3   OH2 4598   0.576   5.334   3.714 -0.6191  0.4350 -0.1533
 1531TIP3    H1 4599   0.520   5.395   3.665  0.8490  1.2805 -0.8411
 1531TIP3    H2 4600   0.659   5.335   3.667  0.4908  0.4008  1.7258
 1532TIP3   OH2 4601   1.214   2.568   1.156 -0.1849  0.3026 -0.4371
 1532TIP3    H1 4602   1.124   2.540   1.173 -0.6361  1.7021 -0.3665
 1532TIP3    H2 4603   1.253   2.576   1.242 -0.6611  1.7092 -0.3236
 1533TIP3   OH2 4604   2.110   3.155   0.351 -0.1827 -0.0887 -0.6761
 1533TIP3    H1 4605   2.061   3.160   0.432  2.7021 -0.9167  1.2733
 1533TIP3    H2 4606   2.081   3.231   0.300 -0.5392  1.7179  2.0428
 1534TIP3   OH2 4607   2.123   5.292   2.348 -0.1618 -0.0020  0.4661
 1534TIP3    H1 4608   2.128   5.301   2.443  0.9621 -0.1598  0.4321
 1534TIP3    H2 4609   2.060   5.359   2.321 -1.7567 -1.0185  1.4585
 1535TIP3   OH2 4610   1.519   4.938   4.059 -0.8529 -0.1555  0.2327
 1535TIP3    H1 4611   1.459   4.938   3.984 -0.5000 -0.4799 -0.0579
 1535TIP3    H2 4612   1.601   4.972   4.023 -1.1773  1.4220  0.8987
 1536TIP3   OH2 4613   1.672   4.082   4.188 -0.0531  0.4016 -0.0288
 1536TIP3    H1 4614   1.633   4.019   4.126 -0.6404  1.2973 -0.6003
 1536TIP3    H2 4615   1.604   4.094   4.255  1.7627 -3.0811  2.7777
 1537TIP3   OH2 4616   6.253   1.926   3.635  0.0439  0.5540 -0.4619
 1537TIP3    H1 4617   6.281   1.904   3.547 -2.0935  1.7617 -1.5035
 1537TIP3    H2 4618   6.160   1.946   3.628 -0.4004 -0.0805  2.2188
 1538TIP3   OH2 4619   5.052   4.408   4.393 -0.1463 -0.1941 -0.5553
 1538TIP3    H1 4620   5.127   4.349   4.382 -0.0325 -0.0039 -0.8091
 1538TIP3    H2 4621   4.988   4.378   4.327 -0.3689 -0.4729 -0.2159
 1539TIP3   OH2 4622   2.851   1.846   0.793  0.4927 -0.0279 -0.5642
 1539TIP3    H1 4623   2.931   1.841   0.741  1.0415 -0.4640  0.2893
 1539TIP3    H2 4624   2.815   1.757   0.789  0.4938 -0.0429 -0.2891
 1540TIP3   OH2 4625   4.766   5.195   0.506 -0.3413  0.1236 -0.2670
 1540TIP3    H1 4626   4.786   5.222   0.596  0.2727 -1.5699  0.1347
 1540TIP3    H2 4627   4.805   5.264   0.452  0.7636  0.3197  0.7247
 1541TIP3   OH2 4628   0.314   3.445   3.074  0.1942  0.0154 -0.2210
 1541TIP3    H1 4629   0.374   3.452   3.000 -0.1318  1.3653 -0.3963
 1541TIP3    H2 4630   0.257   3.522   3.065 -2.4440 -1.8660 -0.8110
 1542TIP3   OH2 4631   4.542   3.631   1.727 -0.4151 -0.5165 -0.6964
 1542TIP3    H1 4632   4.593   3.706   1.698  1.0965 -0.3743  1.9967
 1542TIP3    H2 4633   4.536   3.575   1.650  1.1190  0.9038 -1.9380
 1543TIP3   OH2 4634   0.222   2.251   0.719  0.1384  0.1751  0.5288
 1543TIP3    H1 4635   0.193   2.342   0.721 -3.1242 -0.7089 -0.4022
 1543TIP3    H2 4636   0.271   2.243   0.638 -0.0263  0.9998  0.3383
 1544TIP3   OH2 4637   1.152   4.914   2.214 -0.2705 -0.1888 -0.3015
 1544TIP3    H1 4638   1.155   4.819   2.206 -1.4431 -0.0859 -3.7124
 1544TIP3    H2 4639   1.242   4.940   2.233  0.8192 -1.8492 -2.7446
 1545TIP3   OH2 4640   2.144   5.155   3.432  0.1391 -0.6135 -0.2269
 1545TIP3    H1 4641   2.216   5.197   3.386  0.5240 -0.3977  0.5535
 1545TIP3    H2 4642   2.121   5.080   3.378  0.1942 -0.0434 -1.0608
 1546TIP3   OH2 4643   3.466   1.318   3.936  0.4738 -0.1168  0.3138
 1546TIP3    H1 4644   3.481   1.329   3.842 -0.4286 -2.0922 -0.1104
 1546TIP3    H2 4645   3.513   1.391   3.976  2.6805 -0.4057 -1.5247
 1547TIP3   OH2 4646   4.074   5.479   3.628  0.1934 -0.6110 -0.2657
 1547TIP3    H1 4647   4.058   5.573   3.616 -0.2757 -0.6178  0.2625
 1547TIP3    H2 4648   3.987   5.441   3.637  0.4198 -0.9032  0.8656
 1548TIP3   OH2 4649   0.318   4.503   2.092 -0.6782  0.6980  0.3640
 1548TIP3    H1 4650   0.318   4.592   2.056 -0.8612  0.5438 -0.0109
 1548TIP3    H2 4651   0.279   4.449   2.024 -1.3765  0.4651  0.9402
 1549TIP3   OH2 4652   5.479   3.470   4.661 -0.0856  0.0277  0.3738
 1549TIP3    H1 4653   5.458   3.423   4.741  1.2939  0.7151  1.1709
 1549TIP3    H2 4654   5.512   3.555   4.690  1.0313  0.0658 -0.8747
 1550TIP3   OH2 4655   2.354   1.575   2.605  0.3524  0.1973 -0.0772
 1550TIP3    H1 4656   2.305   1.644   2.561 -0.2865  0.0210  0.3228
 1550TIP3    H2 4657   2.429   1.619   2.645  0.5114  0.4797 -0.6866
 1551TIP3   OH2 4658   2.749   3.661   0.974 -0.0900 -0.0210 -0.1660
 1551TIP3    H1 4659   2.794   3.737   1.010 -0.6622  0.3175 -0.1395
 1551TIP3    H2 4660   2.661   3.665   1.013  0.3308 -1.5443  1.0129
 1552TIP3   OH2 4661   2.096   2.239   3.627 -0.7505 -0.6449  0.0218
 1552TIP3    H1 4662   2.009   2.205   3.609 -0.2347 -2.6624  0.9961
 1552TIP3    H2 4663   2.081   2.317   3.682 -1.9269 -1.7612  1.3504
 1553TIP3   OH2 4664   3.308   1.512   4.112  0.0980 -0.2778 -0.0923
 1553TIP3    H1 4665   3.345   1.567   4.043  1.1560 -1.0216 -0.1317
 1553TIP3    H2 4666   3.345   1.547   4.193  1.1563 -1.2076 -0.1560
 1554TIP3   OH2 4667   0.996   0.794   3.172 -0.0195  0.2829  0.2891
 1554TIP3    H1 4668   1.058   0.725   3.151 -1.0679 -0.3164 -0.9570
 1554TIP3    H2 4669   0.947   0.760   3.246  0.2107  0.1727  0.3929
 1555TIP3   OH2 4670   1.384   5.803   0.394 -0.3925 -0.0816 -0.0638
 1555TIP3    H1 4671   1.418   5.861   0.463  2.0080 -1.1595 -0.2110
 1555TIP3    H2 4672   1.415   5.842   0.313 -0.1435 -0.6940 -0.2696
 1556TIP3   OH2 4673   3.682   0.191   5.022  0.3368  0.2639 -0.2564
 1556TIP3    H1 4674   3.619   0.145   5.077  0.7257  0.7242  0.6099
 1556TIP3    H2 4675   3.642   0.276   5.004  1.1481  1.0132  1.2593
 1557TIP3   OH2 4676   1.374   2.129   4.800  0.2017  0.1310 -0.2294
 1557TIP3    H1 4677   1.334   2.138   4.886 -0.4243 -0.0512 -0.4956
 1557TIP3    H2 4678   1.457   2.176   4.807  0.8627 -1.1127  0.9242
 1558TIP3   OH2 4679   3.592   5.005   5.098  0.2129  0.6359 -0.0426
 1558TIP3    H1 4680   3.622   4.920   5.132  3.7028  1.5855 -0.3642
 1558TIP3    H2 4681   3.499   5.008   5.119  0.6614 -1.8604  2.9923
 1559TIP3   OH2 4682   0.816   1.355   3.222  0.0507  0.3191  0.6055
 1559TIP3    H1 4683   0.730   1.332   3.259 -0.4570  0.3219 -0.5455
 1559TIP3    H2 4684   0.845   1.430   3.275 -0.7269  0.4118  0.9146
 1560TIP3   OH2 4685   0.372   5.495   2.157 -0.2178 -0.4294  0.5121
 1560TIP3    H1 4686   0.320   5.573   2.138 -0.2412 -0.7238 -0.7242
 1560TIP3    H2 4687   0.307   5.429   2.183 -0.1168  0.2025  2.5395
 1561TIP3   OH2 4688   5.709   1.479   4.200 -0.2768 -0.3661  0.0844
 1561TIP3    H1 4689   5.685   1.512   4.114  1.2426  0.4534 -0.0756
 1561TIP3    H2 4690   5.632   1.494   4.254 -0.6438  0.7822 -0.7127
 1562TIP3   OH2 4691   5.900   0.556   2.494  0.1235 -0.3252  0.4392
 1562TIP3    H1 4692   5.943   0.599   2.421  1.1751 -0.5551  0.9051
 1562TIP3    H2 4693   5.810   0.543   2.465  0.0826  1.1454 -0.1358
 1563TIP3   OH2 4694   3.494   3.402   0.839  0.4426 -0.5858 -0.1030
 1563TIP3    H1 4695   3.529   3.484   0.874 -1.9548  0.4511  0.0350
 1563TIP3    H2 4696   3.522   3.402   0.747  0.6041  0.3107 -0.0614
 1564TIP3   OH2 4697   1.594   4.568   3.411  0.0829 -0.0012  0.2848
 1564TIP3    H1 4698   1.646   4.647   3.418 -0.9029  0.8430 -1.2621
 1564TIP3    H2 4699   1.603   4.541   3.319 -0.6324 -0.9197  0.4651
 1565TIP3   OH2 4700   1.424   5.545   0.857  0.2323 -0.6310 -0.1019
 1565TIP3    H1 4701   1.486   5.473   0.874 -0.7286 -1.6066 -0.5865
 1565TIP3    H2 4702   1.393   5.529   0.768 -0.3777  0.1032 -0.0310
 1566TIP3   OH2 4703   5.141   1.770   4.445 -0.1630 -0.0555  0.2475
 1566TIP3    H1 4704   5.143   1.710   4.370  1.8376  1.8649 -1.3570
 1566TIP3    H2 4705   5.140   1.857   4.406 -0.3791  1.0112  2.4916
 1567TIP3   OH2 4706   3.237   2.539   2.882  0.0458  0.0993 -0.0013
 1567TIP3    H1 4707   3.154   2.531   2.834 -0.2318  0.5016  0.4044
 1567TIP3    H2 4708   3.302   2.556   2.814 -0.5632  2.1532 -0.1556
 1568TIP3   OH2 4709   2.243   3.779   0.769  0.4402  0.7608  0.0362
 1568TIP3    H1 4710   2.241   3.742   0.681 -1.3213 -0.4247  0.5133
 1568TIP3    H2 4711   2.329   3.819   0.777  0.9931  0.0308 -1.8724
 1569TIP3   OH2 4712   1.387   4.820   4.297  0.0731  0.3948 -0.4831
 1569TIP3    H1 4713   1.439   4.868   4.232 -1.2753 -0.3369 -2.1734
 1569TIP3    H2 4714   1.421   4.731   4.294  0.4798  0.5136  0.3654
 1570TIP3   OH2 4715   1.505   3.599   3.527 -0.3926 -0.6783  0.0780
 1570TIP3    H1 4716   1.474   3.546   3.453  1.1291 -1.0727 -0.3063
 1570TIP3    H2 4717   1.525   3.684   3.489 -0.4612 -0.6036  0.2096
 1571TIP3   OH2 4718   0.795   3.575   4.383  0.0168  0.7148  0.2423
 1571TIP3    H1 4719   0.813   3.663   4.416 -1.7807  0.8615  0.9528
 1571TIP3    H2 4720   0.808   3.582   4.288  1.0914  1.4083  0.4248
 1572TIP3   OH2 4721   1.273   0.858   2.621 -0.1122 -0.1244  0.2698
 1572TIP3    H1 4722   1.255   0.949   2.645 -0.2711  0.0966 -0.6416
 1572TIP3    H2 4723   1.186   0.817   2.616  0.0111 -0.5665  1.5603
 1573TIP3   OH2 4724   3.167   0.923   1.934 -0.3909  0.3438 -0.3381
 1573TIP3    H1 4725   3.208   0.909   1.848 -1.1790 -0.0305 -0.6569
 1573TIP3    H2 4726   3.073   0.926   1.916 -0.5024  1.6914  0.3148
 1574TIP3   OH2 4727   4.650   0.688   4.593  0.0362 -0.1374 -0.0444
 1574TIP3    H1 4728   4.691   0.616   4.641  2.9218  0.9531 -0.6312
 1574TIP3    H2 4729   4.594   0.731   4.657 -0.1686 -1.6947  0.8698
 1575TIP3   OH2 4730   2.522   5.674   4.100 -0.5280 -0.0813  1.0000
 1575TIP3    H1 4731   2.533   5.684   4.005  0.7024  1.2284  1.2535
 1575TIP3    H2 4732   2.491   5.759   4.130  1.4836  0.3321  2.0761
 1576TIP3   OH2 4733   2.706   4.077   1.973  0.3342 -0.5626 -0.2629
 1576TIP3    H1 4734   2.756   4.063   1.893  0.1524 -0.9781 -0.3050
 1576TIP3    H2 4735   2.706   3.992   2.017 -0.0166 -0.4693 -0.0780
 1577TIP3   OH2 4736   4.479   0.038   3.146 -0.1395  0.1368 -0.1731
 1577TIP3    H1 4737   4.511   0.032   3.056 -2.2449 -0.2467 -0.9343
 1577TIP3    H2 4738   4.534  -0.023   3.195  1.9106  1.3022 -0.8784
 1578TIP3   OH2 4739   0.433   3.623   0.925 -0.1837 -0.1706  0.0912
 1578TIP3    H1 4740   0.488   3.702   0.919 -1.2203  0.5382 -0.3838
 1578TIP3    H2 4741   0.355   3.645   0.874  0.6764 -2.5064 -2.5243
 1579TIP3   OH2 4742   0.058   1.027   4.518 -0.1640 -0.1721 -0.0655
 1579TIP3    H1 4743   0.000   0.983   4.580 -1.5276  1.7598  0.1261
 1579TIP3    H2 4744  -0.002   1.065   4.453  1.0240  0.4159 -0.8537
 1580TIP3   OH2 4745   5.343   0.658   1.362 -0.1678  0.1717 -0.2079
 1580TIP3    H1 4746   5.389   0.706   1.431  1.3104 -1.4418 -0.0062
 1580TIP3    H2 4747   5.276   0.608   1.407  0.6893 -0.7537  0.0676
 1581TIP3   OH2 4748   2.436   5.907   1.329  0.5129  0.1151 -0.4891
 1581TIP3    H1 4749   2.393   5.830   1.366 -0.1945  0.7155 -0.0260
 1581TIP3    H2 4750   2.404   5.981   1.381  0.8313  0.7813 -1.1995
 1582TIP3   OH2 4751   6.270   2.252   0.706 -0.0166 -0.1273 -0.5775
 1582TIP3    H1 4752   6.352   2.202   0.710  0.8341  1.2909  0.5707
 1582TIP3    H2 4753   6.258   2.286   0.795 -0.9355  1.1218 -1.1436
 1583TIP3   OH2 4754   5.871   5.300   4.100 -0.1541  0.0497 -0.0424
 1583TIP3    H1 4755   5.778   5.322   4.101 -0.4377 -0.9210 -1.7419
 1583TIP3    H2 4756   5.874   5.207   4.122  0.1570 -0.5712 -2.5065
 1584TIP3   OH2 4757   3.010   2.446   2.720  0.6838  0.0739 -0.8180
 1584TIP3    H1 4758   2.959   2.451   2.801  1.3027  0.0756 -0.4218
 1584TIP3    H2 4759   2.998   2.356   2.689 -0.2282  0.3117 -1.1786
 1585TIP3   OH2 4760   2.593   5.232   3.455 -0.6880  0.9238  0.3791
 1585TIP3    H1 4761   2.644   5.268   3.528  0.9331  0.1791 -0.3364
 1585TIP3    H2 4762   2.542   5.161   3.495 -0.1051  0.7660  0.8580
 1586TIP3   OH2 4763   4.633   3.650   2.668  0.1475  0.2168  0.0223
 1586TIP3    H1 4764   4.593   3.583   2.724  0.5116 -1.5370 -1.7258
 1586TIP3    H2 4765   4.727   3.629   2.670  0.1309 -0.1023 -1.4744
 1587TIP3   OH2 4766   5.920   1.505   4.749  0.3832 -0.0937 -0.3733
 1587TIP3    H1 4767   5.993   1.485   4.807 -0.8904  2.5523  2.4351
 1587TIP3    H2 4768   5.955   1.571   4.689  0.8102 -0.2937 -0.3473
 1588TIP3   OH2 4769   1.951   2.349   4.926 -0.7290 -0.4024 -0.2448
 1588TIP3    H1 4770   1.928   2.257   4.927 -0.5415 -0.4752  1.8380
 1588TIP3    H2 4771   1.952   2.375   5.018 -1.7427  1.9255 -0.8079
 1589TIP3   OH2 4772   0.765   2.328   3.420  0.1642  0.0511  0.1444
 1589TIP3    H1 4773   0.709   2.253   3.401  0.6922 -0.2212 -0.3953
 1589TIP3    H2 4774   0.747   2.350   3.511 -1.5929  0.6416 -0.2978
 1590TIP3   OH2 4775   3.561   3.344   2.244 -0.1099 -0.0074 -0.3325
 1590TIP3    H1 4776   3.467   3.355   2.225  0.2629 -0.1220 -2.4134
 1590TIP3    H2 4777   3.564   3.336   2.340 -2.2082  0.1042 -0.1911
 1591TIP3   OH2 4778   3.043   3.540   0.102  0.3984  0.0914  0.1791
 1591TIP3    H1 4779   3.016   3.577   0.018  0.6979 -0.0347  0.0238
 1591TIP3    H2 4780   2.974   3.478   0.124 -0.4417  1.1979  0.7625
 1592TIP3   OH2 4781   6.069   5.918   2.536  0.0981  0.1909 -0.0798
 1592TIP3    H1 4782   6.136   5.850   2.532  2.5267  2.3655  1.5498
 1592TIP3    H2 4783   6.011   5.890   2.607  0.9341 -0.2876  0.4294
 1593TIP3   OH2 4784   1.651   0.107   0.096 -0.0686 -0.0786 -0.3657
 1593TIP3    H1 4785   1.706   0.053   0.040 -0.3910 -1.3763  0.5179
 1593TIP3    H2 4786   1.623   0.048   0.166  0.7488  1.6082  1.4810
 1594TIP3   OH2 4787   4.993   2.324   4.324  0.5944  0.0148 -0.1742
 1594TIP3    H1 4788   5.021   2.406   4.365 -1.0889  0.0290  1.0681
 1594TIP3    H2 4789   4.962   2.270   4.397 -1.8992 -0.2268 -1.3064
 1595TIP3   OH2 4790   4.919   0.904   2.208  0.9279  0.0358  0.0857
 1595TIP3    H1 4791   4.943   0.916   2.116 -1.3023  1.2444 -0.4051
 1595TIP3    H2 4792   4.896   0.992   2.238  0.0535 -0.5862  1.3145
 1596TIP3   OH2 4793   3.768   1.170   2.695 -0.2733  0.1625  0.1008
 1596TIP3    H1 4794   3.729   1.120   2.766 -0.4763  2.5249  1.7640
 1596TIP3    H2 4795   3.838   1.114   2.661 -0.9155 -1.4910  1.3669
 1597TIP3   OH2 4796   0.954   4.037   4.292 -0.0034  0.6553 -0.0173
 1597TIP3    H1 4797   0.952   4.124   4.252  1.6623  0.2908 -0.9373
 1597TIP3    H2 4798   1.044   4.025   4.320 -0.7073  0.1332  2.2287
 1598TIP3   OH2 4799   4.549   3.982   4.660  0.1589 -0.0838  0.4953
 1598TIP3    H1 4800   4.478   4.014   4.604  1.0985 -0.8920 -1.2661
 1598TIP3    H2 4801   4.552   3.888   4.642  3.1440  0.2393 -1.3646
 1599TIP3   OH2 4802   2.791   0.822   1.005  0.1708 -0.2184 -0.2482
 1599TIP3    H1 4803   2.760   0.912   1.010 -1.5909 -0.5345 -2.9831
 1599TIP3    H2 4804   2.766   0.783   1.089 -1.0023  1.2791  0.1420
 1600TIP3   OH2 4805   5.265   5.024   4.754 -0.0897 -0.4109 -0.3942
 1600TIP3    H1 4806   5.280   4.987   4.667 -0.0458 -0.1418 -0.5011
 1600TIP3    H2 4807   5.201   5.094   4.739  1.7253  1.2801 -0.5918
 1601TIP3   OH2 4808   5.137   3.597   0.890  0.6422  0.0692 -0.4661
 1601TIP3    H1 4809   5.061   3.620   0.836  0.1108  1.2039  0.7103
 1601TIP3    H2 4810   5.099   3.558   0.968  1.3767 -0.8972 -0.5691
 1602TIP3   OH2 4811   4.843   5.213   4.438 -0.2105  0.0787 -0.2076
 1602TIP3    H1 4812   4.796   5.241   4.516 -1.6283  0.9603 -1.3285
 1602TIP3    H2 4813   4.906   5.149   4.470 -0.4104  0.7733  1.7164
 1603TIP3   OH2 4814   0.892   1.031   1.546  0.1117 -0.5784  0.2117
 1603TIP3    H1 4815   0.977   1.039   1.503  0.1611  0.5457  0.4855
 1603TIP3    H2 4816   0.913   1.017   1.638  0.0203  0.7305  0.4490
 1604TIP3   OH2 4817   6.069   2.084   3.381  0.1243  0.3633  0.5289
 1604TIP3    H1 4818   6.078   2.176   3.359 -0.8369  0.3216 -0.0605
 1604TIP3    H2 4819   6.049   2.083   3.475  0.4072  0.7349  0.5920
 1605TIP3   OH2 4820   4.045   1.875   1.211 -0.4732  0.0912 -0.5043
 1605TIP3    H1 4821   3.954   1.905   1.206 -0.8773 -1.1270 -0.9722
 1605TIP3    H2 4822   4.050   1.826   1.293  0.0306  0.9368 -0.0139
 1606TIP3   OH2 4823   5.112   0.921   0.040 -0.1352  0.2327  0.5299
 1606TIP3    H1 4824   5.019   0.912   0.016  0.4163  0.8162 -2.2316
 1606TIP3    H2 4825   5.148   0.833   0.030 -0.2934  0.0998  1.1248
 1607TIP3   OH2 4826   5.127   3.696   4.258  0.4323  0.1171 -0.7994
 1607TIP3    H1 4827   5.162   3.715   4.346 -0.7135  0.0836 -0.3247
 1607TIP3    H2 4828   5.109   3.782   4.220 -1.8098  0.1131  0.1438
 1608TIP3   OH2 4829   3.981   2.695   4.532 -0.2739  0.0574 -0.4429
 1608TIP3    H1 4830   4.041   2.626   4.558 -0.3807  0.0447 -0.2215
 1608TIP3    H2 4831   3.901   2.649   4.507  0.2541 -0.0266 -2.0955
 1609TIP3   OH2 4832   1.993   4.074   2.631  0.2120  1.0315 -0.0728
 1609TIP3    H1 4833   2.021   4.068   2.540  1.3216  1.3218  0.2296
 1609TIP3    H2 4834   1.922   4.138   2.630  1.5076  2.5393 -0.4915
 1610TIP3   OH2 4835   5.230   4.562   4.620  0.0489  0.0100 -0.2755
 1610TIP3    H1 4836   5.181   4.598   4.695  0.4510 -2.4231  1.2673
 1610TIP3    H2 4837   5.174   4.493   4.586  1.3708 -1.3210  0.1140
 1611TIP3   OH2 4838   1.712   4.647   4.052 -0.1710  0.1501  0.3925
 1611TIP3    H1 4839   1.806   4.630   4.055 -0.1743  0.1462  0.4702
 1611TIP3    H2 4840   1.689   4.670   4.142 -0.6256 -1.7794  0.8121
 1612TIP3   OH2 4841   0.692   0.936   3.699 -0.4100  0.0311  0.2686
 1612TIP3    H1 4842   0.622   0.883   3.736 -0.6442  1.2577  1.6618
 1612TIP3    H2 4843   0.766   0.923   3.758 -0.4471  1.1712  0.5912
 1613TIP3   OH2 4844   4.718   0.424   5.136 -0.0771 -0.0433  0.6294
 1613TIP3    H1 4845   4.708   0.505   5.187  0.2957  0.6677 -0.3867
 1613TIP3    H2 4846   4.662   0.436   5.060 -1.2387 -1.4281  1.2260
 1614TIP3   OH2 4847   4.318   3.154   2.082 -0.1884  0.5327 -0.0716
 1614TIP3    H1 4848   4.355   3.098   2.150 -1.2693  0.3164  0.3639
 1614TIP3    H2 4849   4.229   3.174   2.113  0.2412  2.7298 -0.0565
 1615TIP3   OH2 4850   6.136   4.709   4.647 -0.3629  0.3723  0.6362
 1615TIP3    H1 4851   6.146   4.713   4.552  0.8360  1.0718  0.7750
 1615TIP3    H2 4852   6.225   4.722   4.681 -0.8242  0.4264  1.8614
 1616TIP3   OH2 4853   2.154   4.799   2.786  0.1652 -0.5676  0.4767
 1616TIP3    H1 4854   2.118   4.856   2.718  1.8623  0.6748  0.5470
 1616TIP3    H2 4855   2.194   4.727   2.737  0.8681  0.0213  0.1556
 1617TIP3   OH2 4856   5.436   0.340   0.344 -0.2033  0.0009 -0.2397
 1617TIP3    H1 4857   5.476   0.354   0.258 -1.0011 -1.0025 -0.7979
 1617TIP3    H2 4858   5.499   0.378   0.405  0.4377  0.6348 -1.2498
 1618TIP3   OH2 4859   1.255   5.039   3.352 -0.4493 -0.0666 -0.4514
 1618TIP3    H1 4860   1.253   4.955   3.400  0.1688  0.9874  1.5399
 1618TIP3    H2 4861   1.326   5.088   3.394 -1.4182  1.8219 -0.9265
 1619TIP3   OH2 4862   2.223   5.696   4.650 -0.3490 -0.3098 -0.4123
 1619TIP3    H1 4863   2.141   5.740   4.626  0.5005  1.7188  0.1788
 1619TIP3    H2 4864   2.244   5.643   4.574 -0.4370  1.8809 -2.0801
 1620TIP3   OH2 4865   2.542   5.580   1.692  0.3131 -0.3374  0.1656
 1620TIP3    H1 4866   2.484   5.606   1.620 -0.6163  1.2695  1.4297
 1620TIP3    H2 4867   2.625   5.622   1.671 -0.0102  0.2920  0.1050
 1621TIP3   OH2 4868   2.348   3.197   4.465 -0.1271  0.8301 -0.5253
 1621TIP3    H1 4869   2.258   3.181   4.438 -0.0263  0.2286 -0.5261
 1621TIP3    H2 4870   2.345   3.280   4.512 -0.8741  0.2967  0.3918
 1622TIP3   OH2 4871   5.104   3.719   2.249  0.0778  0.0980 -0.1843
 1622TIP3    H1 4872   5.077   3.803   2.286  1.8422  0.4485  0.4153
 1622TIP3    H2 4873   5.154   3.677   2.319  2.3824  0.2135 -1.6337
 1623TIP3   OH2 4874   1.133   0.268   4.525 -0.1397  0.5169  0.4344
 1623TIP3    H1 4875   1.228   0.271   4.528  0.1354 -2.5977 -0.8371
 1623TIP3    H2 4876   1.104   0.281   4.615  1.5951 -0.0118  1.0901
 1624TIP3   OH2 4877   0.085   2.828   3.053 -0.0715  0.8596 -0.3093
 1624TIP3    H1 4878   0.093   2.874   3.136 -0.2001  1.1926 -0.4764
 1624TIP3    H2 4879   0.106   2.894   2.987 -1.5993  1.0819 -0.6331
 1625TIP3   OH2 4880   0.395   3.998   0.426 -0.3663  0.1050  0.1411
 1625TIP3    H1 4881   0.434   3.912   0.440 -0.9741 -0.1300  0.4414
 1625TIP3    H2 4882   0.384   4.004   0.332  1.0049  0.4563 -0.0121
 1626TIP3   OH2 4883   5.452   1.289   3.445 -0.0958  0.1996 -0.1809
 1626TIP3    H1 4884   5.438   1.223   3.377 -0.4570  0.3661 -0.2702
 1626TIP3    H2 4885   5.392   1.264   3.515  1.3179 -0.8301  0.7142
 1627TIP3   OH2 4886   1.565   4.485   1.229 -0.2144  0.0389  0.0729
 1627TIP3    H1 4887   1.488   4.455   1.180  0.3325  0.3045 -0.9984
 1627TIP3    H2 4888   1.557   4.580   1.231  0.2526  0.0937 -0.3604
 1628TIP3   OH2 4889   6.003   2.297   2.388  0.0867  0.1188  0.0218
 1628TIP3    H1 4890   6.045   2.359   2.329  0.6360 -0.3324 -0.0689
 1628TIP3    H2 4891   5.948   2.242   2.331  1.3828 -0.9642 -0.2377
 1629TIP3   OH2 4892   4.928   2.687   3.598  0.0083 -0.0078  0.0033
 1629TIP3    H1 4893   4.869   2.695   3.524 -0.0967  2.5269  0.2622
 1629TIP3    H2 4894   5.015   2.689   3.559 -0.0572  0.4603 -0.1327
 1630TIP3   OH2 4895   5.518   2.035   1.572  0.0323  0.2931  0.4444
 1630TIP3    H1 4896   5.434   2.081   1.568 -0.1365 -0.0726 -0.5453
 1630TIP3    H2 4897   5.566   2.078   1.643 -1.0974  0.3280  1.2048
 1631TIP3   OH2 4898   5.894   0.104   0.669 -0.2816  0.1521 -0.4285
 1631TIP3    H1 4899   5.854   0.187   0.694 -0.7530  0.4497 -2.0901
 1631TIP3    H2 4900   5.901   0.056   0.752 -0.4218  1.6391  0.4994
 1632TIP3   OH2 4901   4.737   5.755   2.443  0.0003  0.0226 -0.4262
 1632TIP3    H1 4902   4.801   5.691   2.412  0.9998  0.7495  0.0382
 1632TIP3    H2 4903   4.652   5.715   2.426  0.5752 -0.9688 -1.0905
 1633TIP3   OH2 4904   6.027   5.669   2.153 -1.0416  0.0713  0.3075
 1633TIP3    H1 4905   5.974   5.748   2.153 -0.0357  0.7816  1.7094
 1633TIP3    H2 4906   5.964   5.598   2.142 -2.0391  1.0058 -0.1968
 1634TIP3   OH2 4907   0.188   4.130   0.532  0.0805 -0.4871 -0.2576
 1634TIP3    H1 4908   0.269   4.090   0.499 -0.3079 -0.8864 -0.7610
 1634TIP3    H2 4909   0.119   4.089   0.480 -0.4784 -0.4358  0.4303
 1635TIP3   OH2 4910   3.512   5.040   0.631 -0.2799  0.3165  0.1591
 1635TIP3    H1 4911   3.462   4.972   0.675  0.6958  0.0912  0.9439
 1635TIP3    H2 4912   3.472   5.122   0.660  0.1367  0.1562  1.2328
 1636TIP3   OH2 4913   4.152   4.219   4.400  0.2489 -0.1722 -0.0610
 1636TIP3    H1 4914   4.111   4.160   4.337  0.2037  0.5179 -0.6946
 1636TIP3    H2 4915   4.101   4.300   4.393 -0.3648 -0.3918  1.5631
 1637TIP3   OH2 4916   2.842   4.801   4.027  0.4959 -0.1619 -0.0645
 1637TIP3    H1 4917   2.911   4.773   4.088  0.1548 -0.6445  0.1121
 1637TIP3    H2 4918   2.878   4.878   3.983  0.1783  1.0946  1.7888
 1638TIP3   OH2 4919   3.093   1.542   1.480  0.1557  0.0743 -0.0084
 1638TIP3    H1 4920   3.122   1.494   1.557 -0.2432 -1.0744 -0.5504
 1638TIP3    H2 4921   3.018   1.593   1.510  0.0212 -0.3409  0.3619
 1639TIP3   OH2 4922   3.564   2.264   0.985  0.5747  0.1711  0.5349
 1639TIP3    H1 4923   3.527   2.177   0.971  0.6882  0.4380 -1.6762
 1639TIP3    H2 4924   3.512   2.322   0.930  0.5731  1.5273  1.8844
 1640TIP3   OH2 4925   6.016   1.723   3.289 -0.1348 -0.0134 -0.3100
 1640TIP3    H1 4926   6.045   1.641   3.330 -2.8014 -0.1577  1.5153
 1640TIP3    H2 4927   5.928   1.704   3.257  0.0979  1.5088 -2.0288
 1641TIP3   OH2 4928   6.009   1.560   2.695 -0.2905 -0.0225  0.5764
 1641TIP3    H1 4929   6.025   1.650   2.723 -0.5374 -0.4659  2.2223
 1641TIP3    H2 4930   6.081   1.509   2.733 -0.7373 -0.6769  0.5701
 1642TIP3   OH2 4931   0.654   3.496   4.622  0.5191 -0.3214  0.2719
 1642TIP3    H1 4932   0.687   3.502   4.532  2.1626  1.0858  0.9140
 1642TIP3    H2 4933   0.732   3.505   4.677 -0.5804 -0.0490  1.8512
 1643TIP3   OH2 4934   3.354   4.684   2.006  0.0080 -0.5674  0.5375
 1643TIP3    H1 4935   3.329   4.654   2.094  2.1809 -1.6421  0.8532
 1643TIP3    H2 4936   3.393   4.607   1.965  0.3716  0.3192 -0.8508
 1644TIP3   OH2 4937   2.356   0.058   2.589 -0.4951  0.5483  0.1055
 1644TIP3    H1 4938   2.351  -0.033   2.618 -1.5726  0.0573 -1.5165
 1644TIP3    H2 4939   2.275   0.097   2.622 -1.0419  0.3572 -0.9863
 1645TIP3   OH2 4940   1.932   4.032   3.335 -0.0093  0.1573  0.0170
 1645TIP3    H1 4941   1.902   4.031   3.245 -0.6787 -0.6878  0.2450
 1645TIP3    H2 4942   1.895   3.953   3.375  1.1075 -0.0203  0.7587
 1646TIP3   OH2 4943   4.095   4.914   2.430  0.4025  0.0877  0.6015
 1646TIP3    H1 4944   4.019   4.934   2.483  0.3823  1.3557  0.1239
 1646TIP3    H2 4945   4.059   4.872   2.351  0.1176  1.3014  0.0667
 1647TIP3   OH2 4946   0.970   5.019   1.755 -0.2023 -0.5866  0.2208
 1647TIP3    H1 4947   0.998   4.928   1.755 -1.5538 -1.0307  0.9830
 1647TIP3    H2 4948   0.977   5.046   1.847 -0.3115 -0.0820  0.0835
 1648TIP3   OH2 4949   5.907   3.157   0.287 -0.3857  0.1560 -0.3515
 1648TIP3    H1 4950   5.900   3.235   0.231 -3.2785 -0.2626 -0.7228
 1648TIP3    H2 4951   5.849   3.093   0.246 -0.5795 -1.0810  1.7214
 1649TIP3   OH2 4952   2.008   3.275   4.825 -0.3407 -0.0934  0.1014
 1649TIP3    H1 4953   1.996   3.192   4.872  0.4049 -1.0968 -1.3732
 1649TIP3    H2 4954   2.103   3.284   4.816 -0.4290 -0.7957 -2.5164
 1650TIP3   OH2 4955   5.509   2.887   1.028 -0.2870  0.0740 -0.0832
 1650TIP3    H1 4956   5.511   2.917   0.937  0.2098  1.8685  0.4732
 1650TIP3    H2 4957   5.432   2.930   1.065  0.0313  0.0848  0.5693
 1651TIP3   OH2 4958   1.489   1.736   3.550  0.0258 -0.6187  0.2399
 1651TIP3    H1 4959   1.536   1.711   3.630  1.7405 -0.6083 -0.7147
 1651TIP3    H2 4960   1.422   1.669   3.539 -0.2842 -0.5780  1.7143
 1652TIP3   OH2 4961   2.500   0.765   3.249  0.0678  0.2430  0.1316
 1652TIP3    H1 4962   2.454   0.838   3.291  1.0986  1.3965 -0.6744
 1652TIP3    H2 4963   2.587   0.766   3.288  0.5118  0.2900 -0.8357
 1653TIP3   OH2 4964   4.488   5.426   2.880  0.7190 -0.1731 -0.0976
 1653TIP3    H1 4965   4.453   5.514   2.867  0.6096 -0.3513 -1.0921
 1653TIP3    H2 4966   4.525   5.428   2.968  1.1931  1.0251 -0.3032
 1654TIP3   OH2 4967   2.664   0.633   0.515 -0.3073 -0.2056  0.3455
 1654TIP3    H1 4968   2.684   0.624   0.608  0.6418  2.9526  0.5678
 1654TIP3    H2 4969   2.584   0.686   0.513 -0.8161 -0.9811 -0.6776
 1655TIP3   OH2 4970   5.365   1.461   4.769  0.1942  0.8960 -0.3436
 1655TIP3    H1 4971   5.355   1.478   4.862 -0.3901  0.1897 -0.2680
 1655TIP3    H2 4972   5.373   1.548   4.729  2.3433  1.1704  0.5565
 1656TIP3   OH2 4973   4.341   5.995   3.564 -0.2519 -0.0050 -0.1833
 1656TIP3    H1 4974   4.346   5.942   3.644 -1.1199  0.1194 -0.0301
 1656TIP3    H2 4975   4.401   5.952   3.503  0.8864  0.2490  0.7209
 1657TIP3   OH2 4976   4.676   3.815   0.720 -0.0578  0.7869 -0.3735
 1657TIP3    H1 4977   4.716   3.848   0.639 -0.9423  2.6783 -0.0971
 1657TIP3    H2 4978   4.597   3.868   0.732  0.0680  0.5980  1.7579
 1658TIP3   OH2 4979   3.596   3.442   3.964 -0.0629  0.4553  0.0101
 1658TIP3    H1 4980   3.620   3.499   4.037  1.4346 -0.3685  0.1817
 1658TIP3    H2 4981   3.615   3.354   3.994 -2.7424 -0.2430 -0.1025
 1659TIP3   OH2 4982   1.842   4.297   3.336  0.2899 -0.0212 -0.1785
 1659TIP3    H1 4983   1.875   4.207   3.333 -1.6383 -0.7754 -0.0906
 1659TIP3    H2 4984   1.796   4.302   3.420  1.6275  1.5554  0.5269
 1660TIP3   OH2 4985   2.972   1.177   0.571 -0.2772  0.2097  0.1654
 1660TIP3    H1 4986   2.963   1.196   0.478 -1.3718  1.8261  0.5651
 1660TIP3    H2 4987   3.064   1.195   0.590 -0.1190  0.1699 -0.5370
 1661TIP3   OH2 4988   0.059   3.347   4.866  0.4475  0.1122  0.1484
 1661TIP3    H1 4989   0.151   3.323   4.870  0.2171 -1.6991 -2.7146
 1661TIP3    H2 4990   0.050   3.398   4.786 -0.6878  2.3304  1.6068
 1662TIP3   OH2 4991   5.542   0.588   0.515 -0.2392 -0.3820 -0.0618
 1662TIP3    H1 4992   5.503   0.674   0.533 -0.1833 -0.3282 -0.2008
 1662TIP3    H2 4993   5.501   0.530   0.579 -1.6870 -0.6426 -1.1698
 1663TIP3   OH2 4994   4.969   3.923   2.366 -0.0675  0.3778  0.0150
 1663TIP3    H1 4995   4.948   3.999   2.421  1.0965  0.2769  0.6246
 1663TIP3    H2 4996   4.962   3.957   2.277 -1.7095  0.6141  0.1939
 1664TIP3   OH2 4997   5.104   5.983   4.524 -0.3857  0.1296 -0.1611
 1664TIP3    H1 4998   5.076   5.896   4.552  1.4125 -0.2123  0.7153
 1664TIP3    H2 4999   5.062   6.043   4.585 -1.0099 -0.1639 -0.2900
 1665TIP3   OH2 5000   5.313   0.923   2.983  0.2559 -0.1251  0.1870
 1665TIP3    H1 5001   5.271   0.845   2.947 -1.3131  0.4161  0.7602
 1665TIP3    H2 5002   5.280   0.995   2.930  0.7984  0.2852  0.3911
 1666TIP3   OH2 5003   2.291   1.610   0.763 -0.1043 -0.2317  0.6324
 1666TIP3    H1 5004   2.214   1.554   0.761  1.2539 -2.1898 -0.3393
 1666TIP3    H2 5005   2.257   1.699   0.753 -2.1218 -1.1515 -1.5879
 1667TIP3   OH2 5006   4.356   5.700   0.528 -0.4878  0.3177 -0.4625
 1667TIP3    H1 5007   4.383   5.609   0.538 -0.1020  0.6275  2.2974
 1667TIP3    H2 5008   4.271   5.704   0.570 -0.7979  1.1202 -1.1443
 1668TIP3   OH2 5009   1.715   0.060   2.334 -0.1933 -0.4544 -0.1803
 1668TIP3    H1 5010   1.664  -0.006   2.288 -1.0248 -0.4444  0.6985
 1668TIP3    H2 5011   1.770   0.011   2.394  0.7111 -0.4536 -0.9918
 1669TIP3   OH2 5012   0.108   1.588   0.495 -0.2622  0.0460 -0.1956
 1669TIP3    H1 5013   0.023   1.628   0.482 -1.0074 -1.6555 -0.8540
 1669TIP3    H2 5014   0.101   1.543   0.579 -0.1472 -0.4065 -0.4237
 1670TIP3   OH2 5015   4.485   2.813   4.614 -0.5164  0.2880 -0.3418
 1670TIP3    H1 5016   4.455   2.735   4.662 -0.6465  0.2883 -0.4228
 1670TIP3    H2 5017   4.513   2.874   4.682 -2.4771  1.0575 -0.1412
 1671TIP3   OH2 5018   4.864   4.042   1.204  0.0941 -0.0215  0.3141
 1671TIP3    H1 5019   4.929   4.111   1.220 -0.0845 -0.3424  2.7821
 1671TIP3    H2 5020   4.863   4.032   1.109  0.2592  3.2306 -0.1292
 1672TIP3   OH2 5021   1.179   2.779   4.610  0.2850  0.1687 -0.0828
 1672TIP3    H1 5022   1.154   2.859   4.655  0.0274  0.1986 -0.2763
 1672TIP3    H2 5023   1.166   2.798   4.517 -1.8783 -0.7901 -0.0413
 1673TIP3   OH2 5024   3.683   5.163   4.440 -0.2667  0.2244 -0.0411
 1673TIP3    H1 5025   3.769   5.128   4.417  0.1785  0.7427  0.7686
 1673TIP3    H2 5026   3.621   5.098   4.409  0.4456 -0.3426 -0.2889
 1674TIP3   OH2 5027   1.713   4.749   2.062 -0.3002 -0.1349  0.6131
 1674TIP3    H1 5028   1.756   4.726   2.145  0.0355 -0.1825  0.4288
 1674TIP3    H2 5029   1.633   4.697   2.061  1.6079 -3.3790 -0.9473
 1675TIP3   OH2 5030   6.343  -0.000   4.537 -0.2094  0.2733  0.1433
 1675TIP3    H1 5031   6.321   0.093   4.532 -2.4356 -0.2453 -1.8002
 1675TIP3    H2 5032   6.388  -0.019   4.455  0.1913 -0.3747  0.4989
 1676TIP3   OH2 5033   2.361   3.882   2.443  0.1313  0.8594  0.2058
 1676TIP3    H1 5034   2.386   3.842   2.526  1.4133 -0.1173 -0.6178
 1676TIP3    H2 5035   2.342   3.974   2.466  0.8163  0.7049  1.5044
 1677TIP3   OH2 5036   2.045   4.436   1.359 -0.1549  0.2316  0.4055
 1677TIP3    H1 5037   2.035   4.410   1.451 -0.6713 -1.1421 -0.0180
 1677TIP3    H2 5038   1.985   4.510   1.350 -1.0182 -0.3794  0.9006
 1678TIP3   OH2 5039   1.282   5.763   5.165 -0.7089  0.6417  0.1141
 1678TIP3    H1 5040   1.244   5.839   5.121 -1.5709 -0.2328 -0.6989
 1678TIP3    H2 5041   1.239   5.688   5.125 -0.3217 -0.2640  1.3344
 1679TIP3   OH2 5042   1.654   3.196   0.816  0.0617 -0.7728 -0.2090
 1679TIP3    H1 5043   1.599   3.169   0.890  0.1457  1.3171  0.6633
 1679TIP3    H2 5044   1.742   3.200   0.853 -0.0994  1.7572  0.0647
 1680TIP3   OH2 5045   2.696   5.676   4.328  0.1489 -0.7686 -0.1439
 1680TIP3    H1 5046   2.673   5.725   4.407 -0.7759 -1.0639 -0.2211
 1680TIP3    H2 5047   2.635   5.708   4.261  1.5902  0.2317 -1.0345
 1681TIP3   OH2 5048   4.088   5.032   4.694  0.7783 -0.0014  0.6406
 1681TIP3    H1 5049   4.015   5.068   4.745  0.3313  0.5637 -0.3601
 1681TIP3    H2 5050   4.120   4.959   4.746  0.8742  1.0581  2.1346
 1682TIP3   OH2 5051   2.534   4.048   0.360  0.1844 -0.0689 -0.3484
 1682TIP3    H1 5052   2.494   4.074   0.443  0.8858  0.1680 -0.0699
 1682TIP3    H2 5053   2.509   3.956   0.349  0.0602 -0.0927  0.1140
 1683TIP3   OH2 5054   4.043   5.381   3.975 -0.3119  0.3892 -0.3691
 1683TIP3    H1 5055   3.993   5.391   3.894 -1.3072 -0.6218  0.0759
 1683TIP3    H2 5056   4.021   5.292   4.006  0.6616  0.4556  0.5927
 1684TIP3   OH2 5057   4.938   0.220   2.484 -0.8974 -0.2425 -0.5495
 1684TIP3    H1 5058   5.006   0.155   2.499  0.0700  0.7970 -0.3418
 1684TIP3    H2 5059   4.936   0.273   2.563 -1.8508 -0.1570 -0.6116
 1685TIP3   OH2 5060   1.774   3.392   4.005  0.1902 -0.1983  0.1814
 1685TIP3    H1 5061   1.844   3.449   3.973  0.9607 -0.6814  0.9705
 1685TIP3    H2 5062   1.817   3.309   4.025  0.0011  0.3557  3.3525
 1686TIP3   OH2 5063   3.426   3.015   4.801 -0.1994  0.5472 -0.7411
 1686TIP3    H1 5064   3.427   2.924   4.829 -1.7314  0.0834 -2.0507
 1686TIP3    H2 5065   3.434   3.012   4.706 -0.9696  1.7336 -0.8738
 1687TIP3   OH2 5066   4.703   4.352   3.085 -0.2989  0.0923 -0.6376
 1687TIP3    H1 5067   4.752   4.318   3.160  0.9195 -1.0153 -1.8821
 1687TIP3    H2 5068   4.611   4.341   3.109  0.0689 -0.0426  0.7713
 1688TIP3   OH2 5069   1.307   2.348   2.273  0.3652 -0.0962 -0.5403
 1688TIP3    H1 5070   1.228   2.310   2.233 -0.8582  2.4699 -0.7357
 1688TIP3    H2 5071   1.316   2.434   2.232  3.1438 -0.1831 -0.2977
 1689TIP3   OH2 5072   2.708   2.452   0.485  0.0924 -0.1195 -0.1425
 1689TIP3    H1 5073   2.719   2.471   0.392 -1.8175  0.1755 -0.3585
 1689TIP3    H2 5074   2.676   2.362   0.488 -0.1762 -0.0163  0.2015
 1690TIP3   OH2 5075   3.100   2.189   0.096  0.6137  0.5043 -0.0660
 1690TIP3    H1 5076   3.088   2.168   0.003 -1.1275 -0.3193  0.3081
 1690TIP3    H2 5077   3.074   2.109   0.142 -0.7788  1.6398  1.2004
 1691TIP3   OH2 5078   3.732   1.711   5.156  0.2800  0.3562 -0.3011
 1691TIP3    H1 5079   3.716   1.696   5.063 -0.7188 -1.3934  0.1208
 1691TIP3    H2 5080   3.827   1.722   5.162  0.2096  2.4071 -1.7339
 1692TIP3   OH2 5081   0.512   4.866   3.843 -0.1238  0.0354 -0.0422
 1692TIP3    H1 5082   0.542   4.856   3.752  0.8859  1.5419  0.0807
 1692TIP3    H2 5083   0.557   4.945   3.874 -0.5283 -0.3932  1.7465
 1693TIP3   OH2 5084   4.426   4.340   1.789  0.1148 -0.0593  0.6841
 1693TIP3    H1 5085   4.450   4.383   1.871  0.6661  1.9545 -0.4563
 1693TIP3    H2 5086   4.506   4.339   1.738 -0.2398 -1.2013  0.1145
 1694TIP3   OH2 5087   4.844   0.933   1.389 -0.0416  0.4285 -0.2919
 1694TIP3    H1 5088   4.755   0.957   1.416  0.0610  1.2528 -0.6513
 1694TIP3    H2 5089   4.900   0.984   1.448  0.2158 -0.8104  0.5779
 1695TIP3   OH2 5090   4.093   1.743   4.508 -0.0856  0.1649 -0.6549
 1695TIP3    H1 5091   4.157   1.734   4.578 -1.6526 -0.8831  0.7046
 1695TIP3    H2 5092   4.128   1.812   4.452  2.4182 -0.6456 -0.2117
 1696TIP3   OH2 5093   6.084   5.379   4.942 -0.0044  0.2326  0.5565
 1696TIP3    H1 5094   6.070   5.347   5.031  0.7506  2.4384  1.5218
 1696TIP3    H2 5095   6.171   5.419   4.944  0.1354  0.0879 -1.2647
 1697TIP3   OH2 5096   0.630   1.616   0.388 -0.2215  0.4258 -0.2388
 1697TIP3    H1 5097   0.535   1.632   0.390 -0.0139  1.6318  1.1085
 1697TIP3    H2 5098   0.651   1.586   0.476  0.3680 -1.8344 -1.0798
 1698TIP3   OH2 5099   4.144   3.707   5.191 -0.2096 -0.0547 -0.3871
 1698TIP3    H1 5100   4.223   3.742   5.232 -0.4312 -1.1578  1.0799
 1698TIP3    H2 5101   4.176   3.663   5.112  0.5046  0.4378 -0.3800
 1699TIP3   OH2 5102   1.235   3.631   1.309  0.4125 -0.0627 -0.1109
 1699TIP3    H1 5103   1.270   3.547   1.338 -0.8849 -0.7733 -0.4882
 1699TIP3    H2 5104   1.153   3.641   1.358  1.6835  2.1847  1.7515
 1700TIP3   OH2 5105   4.089   5.604   1.035  0.4528 -0.0886  0.0850
 1700TIP3    H1 5106   4.174   5.616   0.992 -0.1434  0.4511 -0.9914
 1700TIP3    H2 5107   4.109   5.555   1.115  1.6270 -0.9630 -0.7134
 1701TIP3   OH2 5108   5.266   2.243   1.517  0.4352 -0.4428 -0.1173
 1701TIP3    H1 5109   5.171   2.248   1.529  0.3856  0.1140 -0.6811
 1701TIP3    H2 5110   5.300   2.323   1.557  0.7650 -1.0843  0.9142
 1702TIP3   OH2 5111   2.954   3.063   2.502 -0.0114 -0.3855 -0.5267
 1702TIP3    H1 5112   2.893   3.067   2.429 -0.9928 -0.9928  0.2237
 1702TIP3    H2 5113   2.929   2.983   2.549  2.4612 -1.6082 -1.1378
 1703TIP3   OH2 5114   1.278   2.180   2.491  0.1274  0.6822 -0.9505
 1703TIP3    H1 5115   1.308   2.242   2.425  1.2025 -0.3384 -1.4703
 1703TIP3    H2 5116   1.204   2.136   2.450  0.2851  0.6128 -1.1634
 1704TIP3   OH2 5117   0.770   4.883   3.355  0.1880  0.1442 -0.0022
 1704TIP3    H1 5118   0.746   4.906   3.445  1.9728 -1.2628  0.9061
 1704TIP3    H2 5119   0.772   4.787   3.355  3.6505  0.0976 -0.4885
 1705TIP3   OH2 5120   2.870   1.439   4.680 -0.6690 -0.3531  0.2363
 1705TIP3    H1 5121   2.862   1.392   4.597 -0.1196 -0.5511  0.2928
 1705TIP3    H2 5122   2.854   1.531   4.657 -0.5522 -0.4112 -0.0798
 1706TIP3   OH2 5123   1.800   0.970   2.079  0.1964  0.6043 -0.2738
 1706TIP3    H1 5124   1.864   0.973   2.149 -0.9435 -1.8108  0.9925
 1706TIP3    H2 5125   1.766   1.059   2.073  2.8711  1.7087 -0.3110
 1707TIP3   OH2 5126   4.892   0.447   3.775  0.6913  0.1754  0.6707
 1707TIP3    H1 5127   4.803   0.433   3.807 -0.1418  2.9537 -0.0844
 1707TIP3    H2 5128   4.884   0.446   3.679  1.5414  0.0751  0.5915
 1708TIP3   OH2 5129   4.218   1.621   5.004 -0.2086 -0.2077  0.1699
 1708TIP3    H1 5130   4.275   1.640   5.079 -0.3385 -0.2522  0.2815
 1708TIP3    H2 5131   4.172   1.541   5.030 -1.8083  0.9080  0.9345
 1709TIP3   OH2 5132   2.701   0.129   4.789 -0.3961 -0.0197 -0.1054
 1709TIP3    H1 5133   2.743   0.177   4.718 -0.7423 -0.2930 -0.4981
 1709TIP3    H2 5134   2.617   0.172   4.802 -0.4387 -0.1242 -0.0279
 1710TIP3   OH2 5135   2.269   1.314   1.311  0.5367 -0.4307  0.3985
 1710TIP3    H1 5136   2.187   1.264   1.308  0.1104  0.2965 -1.5010
 1710TIP3    H2 5137   2.337   1.249   1.297  0.0011 -0.6087 -1.8340
 1711TIP3   OH2 5138   5.812   5.460   3.468  0.5361  0.1983  0.5832
 1711TIP3    H1 5139   5.767   5.424   3.544  1.5402  0.1177  1.1597
 1711TIP3    H2 5140   5.852   5.541   3.500 -0.2605  0.9461 -0.2517
 1712TIP3   OH2 5141   3.370   3.415   4.462  0.5443  0.3241 -0.6637
 1712TIP3    H1 5142   3.447   3.358   4.467 -0.4895 -1.0768 -0.3046
 1712TIP3    H2 5143   3.370   3.461   4.546  1.8769  1.5738 -1.2965
 1713TIP3   OH2 5144   5.593   5.621   4.304 -0.4408 -0.0704 -0.2021
 1713TIP3    H1 5145   5.579   5.667   4.387  0.2815 -0.2515  0.0336
 1713TIP3    H2 5146   5.515   5.639   4.252 -0.7580  0.3090  0.3996
 1714TIP3   OH2 5147   0.725   5.196   4.898 -0.4610 -0.5572 -0.3113
 1714TIP3    H1 5148   0.742   5.208   4.805 -2.1382  1.2693 -0.4283
 1714TIP3    H2 5149   0.630   5.193   4.906 -0.6042  3.2422  1.6646
 1715TIP3   OH2 5150   1.704   4.218   0.632  0.3200  0.3483 -0.4791
 1715TIP3    H1 5151   1.766   4.145   0.635  1.3903  1.2329  2.5639
 1715TIP3    H2 5152   1.757   4.295   0.656 -1.6081  1.4075  0.6269
 1716TIP3   OH2 5153   1.275   4.937   1.387  0.3134 -0.4690 -0.4591
 1716TIP3    H1 5154   1.350   4.987   1.355 -0.1608  0.0303 -0.8131
 1716TIP3    H2 5155   1.230   4.998   1.446  0.0262 -0.6682 -0.4743
 1717TIP3   OH2 5156   4.066   1.336   0.193 -1.1139  0.5132 -0.0997
 1717TIP3    H1 5157   4.082   1.410   0.134 -1.1964  0.7671  0.1933
 1717TIP3    H2 5158   3.973   1.316   0.181 -1.5111  1.5321  1.0294
 1718TIP3   OH2 5159   1.310   3.927   2.148  0.1401  0.4824 -0.5333
 1718TIP3    H1 5160   1.239   3.948   2.209 -1.4031  0.5055 -2.2430
 1718TIP3    H2 5161   1.342   4.012   2.118  0.1979  0.4750 -0.4899
 1719TIP3   OH2 5162   0.709   1.525   4.157  0.2335 -0.5180  0.2282
 1719TIP3    H1 5163   0.712   1.482   4.071 -2.3476 -1.2953  0.4340
 1719TIP3    H2 5164   0.658   1.605   4.142  1.0684  0.1142  0.7497
 1720TIP3   OH2 5165   1.167   3.074   2.241 -0.4228 -0.4031 -0.1968
 1720TIP3    H1 5166   1.221   3.067   2.320 -0.7345 -0.9064 -0.0257
 1720TIP3    H2 5167   1.224   3.116   2.177  0.8039 -2.5355 -0.5953
 1721TIP3   OH2 5168   4.267   4.943   0.783 -0.0263  0.9472 -0.4122
 1721TIP3    H1 5169   4.226   4.947   0.869  1.1613  0.7732  0.1848
 1721TIP3    H2 5170   4.196   4.961   0.721 -1.5307 -1.7237  0.3921
 1722TIP3   OH2 5171   2.543   5.232   4.825  0.0355  0.1512 -0.4242
 1722TIP3    H1 5172   2.465   5.235   4.769  1.2230  0.0599 -2.1593
 1722TIP3    H2 5173   2.578   5.144   4.813  0.4716  0.2208  0.2830
 1723TIP3   OH2 5174   1.208   0.208   3.324  0.2991 -0.4282  0.7357
 1723TIP3    H1 5175   1.234   0.301   3.327  2.6818 -1.0124  3.2770
 1723TIP3    H2 5176   1.214   0.185   3.232  0.5300  1.7425  0.1341
 1724TIP3   OH2 5177   0.940   3.818   1.938 -0.1132 -0.3675 -0.3200
 1724TIP3    H1 5178   1.029   3.805   1.971 -0.9981 -1.1509  1.9366
 1724TIP3    H2 5179   0.911   3.900   1.978 -1.6875 -2.0059  2.1250
 1725TIP3   OH2 5180   3.462   4.083   0.400  0.1252  0.4402  0.5500
 1725TIP3    H1 5181   3.436   3.997   0.367 -1.0699 -0.2080  2.9623
 1725TIP3    H2 5182   3.444   4.143   0.327 -1.2186 -1.0225 -0.3938
 1726TIP3   OH2 5183   0.105   2.497   4.297 -0.2641  0.1527  0.0638
 1726TIP3    H1 5184   0.142   2.574   4.254 -1.5217  2.1358  2.2716
 1726TIP3    H2 5185   0.181   2.444   4.323  0.5669 -0.4813 -3.2260
 1727TIP3   OH2 5186   1.376   0.368   4.575  0.3591  0.1401  0.1725
 1727TIP3    H1 5187   1.418   0.317   4.645  0.3195 -0.1811 -0.0383
 1727TIP3    H2 5188   1.449   0.400   4.522  0.3257 -0.7013 -0.3913
 1728TIP3   OH2 5189   5.610   0.718   4.145  0.1086  0.2466  0.1727
 1728TIP3    H1 5190   5.591   0.673   4.228 -0.9147 -1.5449 -0.9644
 1728TIP3    H2 5191   5.700   0.692   4.124 -0.3995 -1.1743 -0.3640
 1729TIP3   OH2 5192   4.681   1.597   4.401  0.2898  0.7967  0.0708
 1729TIP3    H1 5193   4.693   1.685   4.436  1.0571  1.0964 -0.8950
 1729TIP3    H2 5194   4.727   1.540   4.463  2.0258  1.3642 -0.6335
 1730TIP3   OH2 5195   0.379   2.396   4.177  0.1664  0.6043  0.5472
 1730TIP3    H1 5196   0.341   2.361   4.097  0.1476 -1.9259  1.5363
 1730TIP3    H2 5197   0.415   2.481   4.153  1.1367 -0.5330 -2.4084
 1731TIP3   OH2 5198   2.487   3.361   3.376  0.3784 -0.5660  0.0302
 1731TIP3    H1 5199   2.575   3.367   3.412  0.0026 -2.0599  1.2746
 1731TIP3    H2 5200   2.464   3.268   3.382 -0.4001 -0.6293 -2.4868
 1732TIP3   OH2 5201   6.170   5.224   1.397 -0.1357  0.3773  0.1016
 1732TIP3    H1 5202   6.221   5.153   1.359 -0.0979  0.5980 -0.2668
 1732TIP3    H2 5203   6.174   5.294   1.332  2.1372  1.7637  1.5621
 1733TIP3   OH2 5204   5.953   0.543   3.299 -0.0596 -0.1294 -0.3604
 1733TIP3    H1 5205   5.882   0.562   3.360 -0.1146 -1.8562  0.1513
 1733TIP3    H2 5206   5.944   0.450   3.279  4.1242 -1.4265  2.5230
 1734TIP3   OH2 5207   1.749   2.319   0.590 -0.2294 -0.7105 -0.0121
 1734TIP3    H1 5208   1.704   2.351   0.512  0.4370 -1.2938 -0.6539
 1734TIP3    H2 5209   1.770   2.398   0.640 -0.7860 -0.3444 -0.3544
 1735TIP3   OH2 5210   4.281   0.887   3.322  0.5142  0.2567 -0.0789
 1735TIP3    H1 5211   4.340   0.888   3.247 -1.4069 -0.5736 -1.6957
 1735TIP3    H2 5212   4.200   0.848   3.289 -1.0052  1.4171  1.9967
 1736TIP3   OH2 5213   2.105   1.181   0.745 -0.0366  0.3389 -0.1126
 1736TIP3    H1 5214   2.050   1.137   0.809 -0.4511  0.1616 -0.5837
 1736TIP3    H2 5215   2.195   1.157   0.770 -0.1450  0.8942  0.8436
 1737TIP3   OH2 5216   6.016   2.403   0.282 -0.2567 -0.4151  0.1917
 1737TIP3    H1 5217   6.011   2.481   0.227 -2.7200 -0.3677  0.3325
 1737TIP3    H2 5218   6.013   2.436   0.372  1.7222 -0.5868  0.3633
 1738TIP3   OH2 5219   4.089   2.709   2.677  0.2855  0.2815 -0.0833
 1738TIP3    H1 5220   4.002   2.671   2.689 -0.2712  1.0481 -1.5065
 1738TIP3    H2 5221   4.079   2.801   2.700  0.3075  0.7351 -1.7800
 1739TIP3   OH2 5222   4.532   5.909   0.925 -0.0587 -0.0411  0.7014
 1739TIP3    H1 5223   4.594   5.866   0.983 -0.7080 -1.3458  0.4857
 1739TIP3    H2 5224   4.525   5.998   0.958  0.5996 -0.3757  1.7904
 1740TIP3   OH2 5225   3.561   0.048   0.226  0.0797  0.3961 -0.1255
 1740TIP3    H1 5226   3.517   0.017   0.147 -1.5350  0.9203  0.5182
 1740TIP3    H2 5227   3.633   0.102   0.194 -0.4954  0.5248 -1.2395
 1741TIP3   OH2 5228   4.808   5.783   0.769 -0.7538  0.9175 -0.3879
 1741TIP3    H1 5229   4.818   5.833   0.688 -0.1150 -0.8572 -1.4621
 1741TIP3    H2 5230   4.872   5.822   0.829 -0.4007  1.5021 -1.1285
 1742TIP3   OH2 5231   6.149   0.733   1.111 -0.0736  0.5506 -0.1858
 1742TIP3    H1 5232   6.143   0.750   1.017 -0.1044 -2.1149 -0.7368
 1742TIP3    H2 5233   6.097   0.655   1.125 -0.0327  0.8627  2.0734
 1743TIP3   OH2 5234   3.151   2.019   4.293 -0.0799 -0.8969  0.3037
 1743TIP3    H1 5235   3.125   2.063   4.212 -1.1826  1.9046  2.0363
 1743TIP3    H2 5236   3.234   1.977   4.272  0.4127  0.9902 -1.8896
 1744TIP3   OH2 5237   5.551   0.439   1.812  0.1854 -0.2570  0.0830
 1744TIP3    H1 5238   5.589   0.429   1.724 -0.5326 -0.1729 -0.2489
 1744TIP3    H2 5239   5.581   0.362   1.860  0.9336 -0.0953 -0.1004
 1745TIP3   OH2 5240   3.447   1.586   4.332  0.4350 -0.3865 -0.2323
 1745TIP3    H1 5241   3.394   1.644   4.387  0.0501  0.4641 -1.4612
 1745TIP3    H2 5242   3.514   1.552   4.392  0.7542  1.4245  0.5275
 1746TIP3   OH2 5243   1.606   3.030   0.583  0.0872 -0.1406 -0.3424
 1746TIP3    H1 5244   1.637   3.045   0.672  0.1498 -0.8349 -0.2386
 1746TIP3    H2 5245   1.673   2.973   0.544 -0.7229 -1.1578 -0.3119
 1747TIP3   OH2 5246   1.118   3.985   3.424  0.1712 -0.0389  0.1606
 1747TIP3    H1 5247   1.071   3.901   3.426  0.8779 -0.4423  1.3754
 1747TIP3    H2 5248   1.147   3.997   3.515 -0.5674  1.9112  0.1716
 1748TIP3   OH2 5249   0.129   2.213   0.152  0.8290  0.4188 -0.3165
 1748TIP3    H1 5250   0.125   2.143   0.216 -1.2315 -0.6687 -1.5195
 1748TIP3    H2 5251   0.077   2.284   0.190 -1.1586 -0.5582 -1.0765
 1749TIP3   OH2 5252   3.597   1.173   2.921  0.6205  0.3924  1.3308
 1749TIP3    H1 5253   3.515   1.215   2.949  0.8866  1.5838  0.4278
 1749TIP3    H2 5254   3.579   1.080   2.926  0.1723  0.5363  3.9697
 1750TIP3   OH2 5255   3.790   4.114   1.551  0.1676  0.3798  0.8390
 1750TIP3    H1 5256   3.782   4.187   1.490 -0.7315 -0.2491  0.1735
 1750TIP3    H2 5257   3.876   4.076   1.532 -0.2139  0.0230 -0.2515
 1751TIP3   OH2 5258   2.972   2.943   1.224  0.1531  0.3640 -0.4362
 1751TIP3    H1 5259   2.958   3.031   1.190  1.5311  0.3555 -1.1141
 1751TIP3    H2 5260   2.918   2.887   1.169 -1.1669  0.8088  0.3489
 1752TIP3   OH2 5261   1.293   1.391   4.959 -0.4780  0.2940  0.0589
 1752TIP3    H1 5262   1.226   1.453   4.928 -0.2703  0.7019  0.4101
 1752TIP3    H2 5263   1.301   1.410   5.053  1.3177  1.3989 -0.2716
 1753TIP3   OH2 5264   0.144   2.781   3.625 -0.5195  0.1360 -0.1269
 1753TIP3    H1 5265   0.167   2.865   3.665  0.5701 -1.0704  1.8907
 1753TIP3    H2 5266   0.224   2.729   3.629 -1.1411 -0.9861 -1.4452
 1754TIP3   OH2 5267   0.369   5.480   3.245 -0.2324  0.5816  0.4346
 1754TIP3    H1 5268   0.380   5.391   3.210 -0.1517  0.9690 -0.5614
 1754TIP3    H2 5269   0.456   5.504   3.277 -0.2645  0.2929  0.7485
 1755TIP3   OH2 5270   5.030   0.309   3.043 -0.1832 -0.4041 -0.1879
 1755TIP3    H1 5271   5.104   0.323   2.984  0.4779 -1.4103  0.3782
 1755TIP3    H2 5272   4.967   0.258   2.991  0.4222 -1.3371 -0.0314
 1756TIP3   OH2 5273   1.586   4.578   2.350 -0.1246  0.4668  0.1868
 1756TIP3    H1 5274   1.566   4.523   2.274  0.7205 -0.1076  0.3623
 1756TIP3    H2 5275   1.504   4.622   2.370 -0.5244  0.1350 -0.6684
 1757TIP3   OH2 5276   3.986   3.514   3.010 -0.3067 -0.3524 -0.2216
 1757TIP3    H1 5277   3.907   3.546   2.966  0.0848  2.5263  0.9258
 1757TIP3    H2 5278   3.959   3.502   3.101  0.7713  2.0071  0.4959
 1758TIP3   OH2 5279   1.416   3.009   1.674 -0.2704 -0.9705  0.2269
 1758TIP3    H1 5280   1.440   2.959   1.596  0.7932 -1.0831  0.6078
 1758TIP3    H2 5281   1.445   2.955   1.747 -1.7946 -1.1479  0.7437
 1759TIP3   OH2 5282   1.577   5.103   3.149 -0.0864 -0.1225 -0.0616
 1759TIP3    H1 5283   1.632   5.026   3.157  1.4443  1.0924  2.1772
 1759TIP3    H2 5284   1.492   5.069   3.119  1.3165 -2.2510 -1.9830
 1760TIP3   OH2 5285   5.410   1.984   1.988 -0.0315  0.0445 -0.5799
 1760TIP3    H1 5286   5.423   2.029   2.072 -0.0308 -0.8745 -0.0806
 1760TIP3    H2 5287   5.322   1.946   1.994 -0.0227 -0.0459 -0.9854
 1761TIP3   OH2 5288   2.275   3.583   2.432  0.3861 -0.0868  0.1505
 1761TIP3    H1 5289   2.263   3.660   2.377  1.6467 -0.4146 -0.6138
 1761TIP3    H2 5290   2.334   3.612   2.502  0.0628 -0.0962  0.4288
 1762TIP3   OH2 5291   2.627   4.724   1.297 -0.0049 -0.3442  0.0287
 1762TIP3    H1 5292   2.588   4.653   1.247  0.4921 -1.0549  0.6426
 1762TIP3    H2 5293   2.567   4.738   1.370 -0.5375  0.4498 -0.5283
 1763TIP3   OH2 5294   5.608   2.340   2.975  0.1824 -0.2361  0.4075
 1763TIP3    H1 5295   5.612   2.284   2.898  1.8418  1.5291 -0.8941
 1763TIP3    H2 5296   5.564   2.420   2.946  0.4046  0.2774  1.4006
 1764TIP3   OH2 5297   4.509   0.395   2.839  0.0471  0.1620  0.5745
 1764TIP3    H1 5298   4.419   0.381   2.868 -0.5099 -0.1353 -1.1480
 1764TIP3    H2 5299   4.544   0.307   2.825 -0.2542  0.2781 -1.1290
 1765TIP3   OH2 5300   6.283   2.842   3.794  0.3315 -0.0950  0.6957
 1765TIP3    H1 5301   6.312   2.758   3.832 -1.8523 -1.4373 -0.4073
 1765TIP3    H2 5302   6.292   2.830   3.700  0.0428  0.9707  0.5244
 1766TIP3   OH2 5303   2.189   3.123   3.475  0.2176  0.0503  0.6457
 1766TIP3    H1 5304   2.235   3.136   3.558  0.2366  1.2764  0.4658
 1766TIP3    H2 5305   2.255   3.088   3.416  1.1585  2.3863  0.2061
 1767TIP3   OH2 5306   5.498   1.463   3.182 -0.2414  0.3383  0.5435
 1767TIP3    H1 5307   5.467   1.413   3.107  0.3920  0.4540  0.2057
 1767TIP3    H2 5308   5.586   1.430   3.200 -0.3719  0.3336  1.2188
 1768TIP3   OH2 5309   0.599   1.478   2.030 -0.1130  0.6066 -0.2291
 1768TIP3    H1 5310   0.604   1.395   2.078 -0.2563  1.0648  0.5857
 1768TIP3    H2 5311   0.512   1.478   1.991 -0.0187  0.2621 -0.4457
 1769TIP3   OH2 5312   6.047   1.121   0.800  0.3699  0.1809  1.0911
 1769TIP3    H1 5313   5.979   1.163   0.749  0.2806  1.2560  2.0684
 1769TIP3    H2 5314   6.129   1.146   0.756  0.1584 -2.4314 -1.0659
 1770TIP3   OH2 5315   4.887   0.780   4.063 -0.1025  0.4563  0.0384
 1770TIP3    H1 5316   4.909   0.863   4.107  0.2958  0.3537  0.0413
 1770TIP3    H2 5317   4.906   0.713   4.128  0.9615  0.2693 -0.4391
 1771TIP3   OH2 5318   0.505   3.979   5.141  0.4599 -0.1898  0.1160
 1771TIP3    H1 5319   0.558   3.900   5.132  0.7058 -0.0306  0.1719
 1771TIP3    H2 5320   0.483   3.983   5.234  0.3219 -0.2747  0.0867
 1772TIP3   OH2 5321   3.594   0.767   5.026  0.2250  0.4253  0.2452
 1772TIP3    H1 5322   3.622   0.804   5.110  1.4261  0.7801 -0.2917
 1772TIP3    H2 5323   3.633   0.825   4.960 -0.4643 -0.0174 -0.5744
 1773TIP3   OH2 5324   2.196   5.226   3.715  0.0556 -0.4183  0.3137
 1773TIP3    H1 5325   2.243   5.154   3.755 -1.3901 -1.5385  0.0984
 1773TIP3    H2 5326   2.198   5.207   3.621 -3.2178 -2.1341  0.4570
 1774TIP3   OH2 5327   0.688   2.084   4.596  0.3294  0.0373 -0.6708
 1774TIP3    H1 5328   0.737   2.028   4.657 -0.2204 -3.1543 -2.9008
 1774TIP3    H2 5329   0.596   2.069   4.619  0.1822  0.7934 -0.7372
 1775TIP3   OH2 5330   2.753   1.556   1.381 -0.1850 -0.0522  0.0231
 1775TIP3    H1 5331   2.738   1.625   1.445  0.1620  0.4352 -0.4193
 1775TIP3    H2 5332   2.666   1.539   1.343  0.0017  1.3624 -1.1017
 1776TIP3   OH2 5333   2.972   0.842   2.964 -0.4342  0.8144  0.4081
 1776TIP3    H1 5334   3.030   0.782   3.011 -1.5862 -0.1272  0.6961
 1776TIP3    H2 5335   2.886   0.830   3.006 -1.6738 -0.5211 -2.2291
 1777TIP3   OH2 5336   5.226   1.357   0.821 -0.4794  0.2696 -0.2965
 1777TIP3    H1 5337   5.255   1.316   0.739  1.1430  0.1762  0.2783
 1777TIP3    H2 5338   5.152   1.412   0.797 -0.1753  0.0512 -1.7823
 1778TIP3   OH2 5339   3.069   0.234   4.033  0.1397 -0.0248  0.0529
 1778TIP3    H1 5340   3.125   0.202   4.103 -1.0205  0.6975  1.3693
 1778TIP3    H2 5341   3.099   0.188   3.955  2.0766 -0.1685  0.8287
 1779TIP3   OH2 5342   5.327   4.941   2.971 -0.0424 -0.1112 -0.3664
 1779TIP3    H1 5343   5.245   4.985   2.948 -0.5001  0.3240  1.9245
 1779TIP3    H2 5344   5.299   4.867   3.025  0.9500 -1.4612 -1.6132
 1780TIP3   OH2 5345   2.981   1.560   4.269 -0.2490 -0.3699 -0.3325
 1780TIP3    H1 5346   3.038   1.626   4.229 -0.1898  0.3472  0.8853
 1780TIP3    H2 5347   2.906   1.556   4.210  0.3397 -0.1671 -1.1152
 1781TIP3   OH2 5348   4.568   5.042   1.986 -0.2084  0.1816  0.7103
 1781TIP3    H1 5349   4.573   4.964   2.040  0.0522 -0.3850 -0.1122
 1781TIP3    H2 5350   4.517   5.104   2.038 -1.2008 -0.8417  1.0120
 1782TIP3   OH2 5351   1.915   4.588   2.694 -0.2557  0.2380 -0.2583
 1782TIP3    H1 5352   1.885   4.604   2.783 -1.7693 -0.8650 -0.5297
 1782TIP3    H2 5353   1.873   4.657   2.642 -1.5510 -0.6724 -0.4759
 1783TIP3   OH2 5354   0.196   2.750   4.138  0.0759  0.7518 -0.4971
 1783TIP3    H1 5355   0.169   2.813   4.072 -0.0173  0.4491 -0.7490
 1783TIP3    H2 5356   0.290   2.740   4.126 -0.1237 -0.1767 -1.3485
 1784TIP3   OH2 5357   0.714   2.389   3.015  0.3110 -0.5511  0.3998
 1784TIP3    H1 5358   0.693   2.312   3.069 -2.2850  1.4899  2.5420
 1784TIP3    H2 5359   0.637   2.400   2.959  1.1458 -0.0946 -0.6916
 1785TIP3   OH2 5360   0.756   4.288   0.789  0.0642 -0.4925  0.4891
 1785TIP3    H1 5361   0.691   4.228   0.752  0.4750 -0.2418 -0.6642
 1785TIP3    H2 5362   0.816   4.231   0.838 -0.8076 -0.7626  1.2677
 1786TIP3   OH2 5363   1.022   0.908   0.088 -0.1529  0.3083  0.1972
 1786TIP3    H1 5364   1.008   0.999   0.061 -1.2793  0.1926  0.3299
 1786TIP3    H2 5365   1.052   0.914   0.179  1.9142  0.6162 -0.4477
 1787TIP3   OH2 5366   4.895   3.777   4.738 -0.2956 -0.5059  0.6219
 1787TIP3    H1 5367   4.876   3.871   4.747  1.7789  0.0985 -0.8254
 1787TIP3    H2 5368   4.882   3.743   4.827 -1.2747  1.0920  1.1504
 1788TIP3   OH2 5369   0.231   4.924   3.575  0.7032 -0.0932 -0.1552
 1788TIP3    H1 5370   0.274   4.880   3.501  1.6555  1.4502 -0.5503
 1788TIP3    H2 5371   0.288   4.997   3.597 -0.8341  0.9828  0.4649
 1789TIP3   OH2 5372   0.904   1.341   3.572  0.1882  0.2164  0.5010
 1789TIP3    H1 5373   0.937   1.429   3.590  0.0734  0.3380  0.1084
 1789TIP3    H2 5374   0.972   1.300   3.519  1.1672 -0.6146  2.3185
 1790TIP3   OH2 5375   3.003   2.492   2.088  0.4983 -1.0504  0.5032
 1790TIP3    H1 5376   2.976   2.584   2.090 -0.7061 -1.3740 -0.1177
 1790TIP3    H2 5377   2.935   2.448   2.037  2.0065 -1.9698 -0.8225
 1791TIP3   OH2 5378   4.416   4.254   0.502 -0.1516 -0.3417 -0.1583
 1791TIP3    H1 5379   4.346   4.242   0.566  0.5343 -1.2810  0.4571
 1791TIP3    H2 5380   4.378   4.228   0.418 -0.9642  0.5891 -0.0879
 1792TIP3   OH2 5381   4.631   2.475   3.760  0.7177 -0.0174 -0.3813
 1792TIP3    H1 5382   4.654   2.558   3.803 -0.8235 -0.3607  1.2457
 1792TIP3    H2 5383   4.535   2.473   3.763  0.7029 -3.1066  2.2695
 1793TIP3   OH2 5384   4.085   2.434   3.529 -0.9105 -0.4787  0.5260
 1793TIP3    H1 5385   4.082   2.338   3.531  0.1380 -0.5482 -0.5917
 1793TIP3    H2 5386   4.084   2.459   3.621 -1.0190 -1.5664  0.8414
 1794TIP3   OH2 5387   6.183   0.056   4.917 -0.2180  0.0673 -0.1749
 1794TIP3    H1 5388   6.228   0.134   4.886  0.2636 -0.0418  0.2382
 1794TIP3    H2 5389   6.106   0.089   4.963  1.0045  0.4330  1.7299
 1795TIP3   OH2 5390   2.161   3.198   1.845 -0.4904 -0.1284  0.2363
 1795TIP3    H1 5391   2.123   3.193   1.758 -0.0085 -1.0048  0.0700
 1795TIP3    H2 5392   2.252   3.224   1.831 -0.9113  1.6926  0.6178
 1796TIP3   OH2 5393   0.188   4.183   4.963  0.8462 -0.2969 -0.3049
 1796TIP3    H1 5394   0.255   4.203   4.897  1.1679 -0.3126  0.0121
 1796TIP3    H2 5395   0.175   4.265   5.010  0.2634 -0.1597 -0.6970
 1797TIP3   OH2 5396   2.493   3.633   0.035 -0.5468 -0.2316  0.0686
 1797TIP3    H1 5397   2.510   3.547   0.075  1.5543 -0.0527 -0.3482
 1797TIP3    H2 5398   2.498   3.694   0.108  0.7814 -0.1775 -0.0513
 1798TIP3   OH2 5399   5.320   1.699   2.228  0.6038  0.0952 -0.4565
 1798TIP3    H1 5400   5.350   1.625   2.280  1.9926 -0.2820 -1.7363
 1798TIP3    H2 5401   5.239   1.668   2.187 -1.1188  0.7459  2.1583
 1799TIP3   OH2 5402   1.884   5.791   4.862 -0.1900 -0.8009  0.0897
 1799TIP3    H1 5403   1.874   5.791   4.767  4.0457  1.7085 -0.6064
 1799TIP3    H2 5404   1.826   5.860   4.893 -0.2468 -0.3721 -0.9416
 1800TIP3   OH2 5405   4.876   4.952   2.471 -0.5957 -0.2399  0.2622
 1800TIP3    H1 5406   4.936   4.926   2.401  0.6079 -1.4324  1.6535
 1800TIP3    H2 5407   4.793   4.910   2.449 -0.1081 -0.9656 -0.2359
 1801TIP3   OH2 5408   3.111   3.320   0.893  0.6885  0.0576  0.4325
 1801TIP3    H1 5409   3.163   3.240   0.895  0.1514 -0.3064  0.2448
 1801TIP3    H2 5410   3.077   3.323   0.803  0.1423  0.1197  0.6362
 1802TIP3   OH2 5411   3.553   4.085   3.076  0.1233 -0.5347  0.2503
 1802TIP3    H1 5412   3.508   4.144   3.015  0.9985  1.0336  1.0633
 1802TIP3    H2 5413   3.511   4.001   3.062 -0.6165  0.0719 -1.5559
 1803TIP3   OH2 5414   0.972   4.818   1.149  0.8188  0.0628  0.4134
 1803TIP3    H1 5415   0.954   4.794   1.239  0.1859 -0.7879  0.0788
 1803TIP3    H2 5416   0.887   4.841   1.112  1.0481  0.2612 -0.0080
 1804TIP3   OH2 5417   2.946   4.401   1.570  0.0793  0.4951  0.5004
 1804TIP3    H1 5418   2.932   4.473   1.632 -1.4938  0.2277  0.4763
 1804TIP3    H2 5419   2.949   4.444   1.485 -1.9769  0.4671  0.3708
 1805TIP3   OH2 5420   0.146   1.595   1.868  0.0385  0.5741 -0.1720
 1805TIP3    H1 5421   0.181   1.674   1.910  2.0495  0.5637 -1.6908
 1805TIP3    H2 5422   0.223   1.549   1.835 -1.2607 -0.8656 -1.3396
 1806TIP3   OH2 5423   6.381   1.414   3.758 -0.0905  1.3258  0.2605
 1806TIP3    H1 5424   6.349   1.337   3.711  1.4074 -0.6849  2.2891
 1806TIP3    H2 5425   6.318   1.483   3.737 -0.0374  0.3883 -3.8387
 1807TIP3   OH2 5426   3.824   5.764   4.090  0.6568  0.0035 -0.1003
 1807TIP3    H1 5427   3.768   5.738   4.016 -0.4700  0.7886  0.4423
 1807TIP3    H2 5428   3.801   5.704   4.160 -1.0911  1.5848  0.7812
 1808TIP3   OH2 5429   5.544   1.337   0.813 -0.6940  0.1564 -0.1268
 1808TIP3    H1 5430   5.529   1.326   0.719  1.3163  1.2435 -0.6254
 1808TIP3    H2 5431   5.634   1.369   0.820 -1.0520  0.8653  2.1345
 1809TIP3   OH2 5432   3.594   0.498   4.182 -0.4481  0.3996  0.1054
 1809TIP3    H1 5433   3.677   0.492   4.134 -0.4156 -0.0800  0.2183
 1809TIP3    H2 5434   3.550   0.575   4.144 -0.2478  0.2620 -0.4180
 1810TIP3   OH2 5435   5.768   0.977   3.870 -0.1425 -0.2411  0.2077
 1810TIP3    H1 5436   5.769   1.006   3.961 -1.7667  0.2714  0.1038
 1810TIP3    H2 5437   5.729   1.050   3.822  1.9059  0.0637 -1.1509
 1811TIP3   OH2 5438   2.848   1.626   3.009  0.0234  0.0985  0.1590
 1811TIP3    H1 5439   2.900   1.697   2.970  3.5831 -0.9745  2.5239
 1811TIP3    H2 5440   2.899   1.547   2.992 -1.8625 -1.3747  1.0014
 1812TIP3   OH2 5441   1.688   2.427   3.704 -0.5993 -0.3397 -0.2389
 1812TIP3    H1 5442   1.701   2.332   3.699  0.7067 -0.3261  1.7636
 1812TIP3    H2 5443   1.773   2.464   3.683 -1.1240  0.4295 -1.0946
 1813TIP3   OH2 5444   4.861   3.797   4.377 -0.2485 -0.1608  0.3096
 1813TIP3    H1 5445   4.917   3.734   4.423  0.5557 -0.3976 -0.9405
 1813TIP3    H2 5446   4.785   3.746   4.348 -0.8218  0.0170  1.4442
 1814TIP3   OH2 5447   5.376   5.788   3.702 -0.8104  0.2970  0.0142
 1814TIP3    H1 5448   5.409   5.843   3.773  0.3933 -2.4762  1.7393
 1814TIP3    H2 5449   5.454   5.750   3.662 -1.6277 -1.1787 -0.2454
 1815TIP3   OH2 5450   4.620   3.125   3.354 -0.0693 -0.1517  0.5376
 1815TIP3    H1 5451   4.564   3.074   3.412  0.0061 -0.9313 -0.0643
 1815TIP3    H2 5452   4.704   3.131   3.400  0.3645 -1.7815  0.0154
 1816TIP3   OH2 5453   2.462   0.535   2.236 -0.3827  0.0026 -0.5012
 1816TIP3    H1 5454   2.508   0.566   2.314  0.1300  2.6877 -1.7510
 1816TIP3    H2 5455   2.387   0.487   2.271  0.9621 -0.7127  1.6080
 1817TIP3   OH2 5456   1.931   3.348   1.923  0.0803 -0.0739 -0.4662
 1817TIP3    H1 5457   2.021   3.319   1.934  0.0952 -0.2925 -1.1277
 1817TIP3    H2 5458   1.933   3.440   1.949  0.8018  0.3119 -1.7697
 1818TIP3   OH2 5459   2.095   5.483   3.461  0.2273  0.0113 -0.4778
 1818TIP3    H1 5460   2.103   5.412   3.524  0.3124  0.1613 -0.3193
 1818TIP3    H2 5461   2.029   5.453   3.398 -0.5422  0.2605  0.2059
 1819TIP3   OH2 5462   2.433   0.086   3.903 -0.2519 -0.0353 -0.0834
 1819TIP3    H1 5463   2.441   0.167   3.853  2.0846 -0.2499 -0.1495
 1819TIP3    H2 5464   2.354   0.044   3.868 -1.4037  2.0549 -0.1854
 1820TIP3   OH2 5465   4.289   3.166   1.349  0.2855  0.0449 -0.0908
 1820TIP3    H1 5466   4.284   3.203   1.261  1.9323  0.5719 -0.0066
 1820TIP3    H2 5467   4.350   3.224   1.396 -0.5076 -0.2683  1.3752
 1821TIP3   OH2 5468   5.141   3.954   4.963  0.3127  0.4458  0.1189
 1821TIP3    H1 5469   5.185   3.879   4.922  0.5490  1.2508 -1.1496
 1821TIP3    H2 5470   5.212   4.012   4.990  0.0950  0.9267 -0.3219
 1822TIP3   OH2 5471   2.327   5.013   2.381  0.0792 -0.1716  0.3762
 1822TIP3    H1 5472   2.263   5.055   2.439  1.0447  0.2132  1.1930
 1822TIP3    H2 5473   2.357   4.937   2.430  1.8113  0.8273  0.9542
 1823TIP3   OH2 5474   3.428   2.726   0.370 -0.1556 -0.4935  0.5079
 1823TIP3    H1 5475   3.379   2.660   0.322 -0.2878  0.0166 -0.0771
 1823TIP3    H2 5476   3.362   2.772   0.422 -0.1219 -0.5606  0.6110
 1824TIP3   OH2 5477   5.990   0.120   1.982  0.5182 -0.3307 -0.0652
 1824TIP3    H1 5478   6.009   0.033   2.016  0.3860 -0.1988  0.3497
 1824TIP3    H2 5479   6.073   0.168   1.990  0.6695 -0.5056 -0.5664
 1825TIP3   OH2 5480   1.186   2.328   0.484 -0.3665 -0.3098 -0.0992
 1825TIP3    H1 5481   1.211   2.406   0.533 -1.0709  0.0046 -0.2407
 1825TIP3    H2 5482   1.212   2.347   0.394  0.6996 -0.7896  0.0822
 1826TIP3   OH2 5483   3.254   0.716   3.674 -0.0431 -0.4443  0.0874
 1826TIP3    H1 5484   3.212   0.632   3.657  0.5507 -1.1617  1.9580
 1826TIP3    H2 5485   3.347   0.696   3.685  0.2132  0.5649 -0.0524
 1827TIP3   OH2 5486   4.805   4.832   0.831  0.2665  0.0681 -0.2665
 1827TIP3    H1 5487   4.710   4.818   0.830  0.2470  0.1843 -1.4131
 1827TIP3    H2 5488   4.817   4.907   0.889 -0.2574 -0.4220  0.5121
 1828TIP3   OH2 5489   2.746   0.420   2.246 -0.2270  0.0375  0.5856
 1828TIP3    H1 5490   2.681   0.363   2.206  0.3274  0.0624 -0.3862
 1828TIP3    H2 5491   2.737   0.504   2.200 -0.1660  0.3454  1.1206
 1829TIP3   OH2 5492   0.755   1.199   0.841 -0.2373 -0.0852  0.2703
 1829TIP3    H1 5493   0.782   1.135   0.775 -0.3261 -0.1951  0.3402
 1829TIP3    H2 5494   0.663   1.216   0.821 -0.4582 -0.6427  0.7912
 1830TIP3   OH2 5495   4.686   5.765   1.796  0.0006 -0.2232  0.0129
 1830TIP3    H1 5496   4.638   5.847   1.800 -0.3969 -0.4712  0.4149
 1830TIP3    H2 5497   4.638   5.706   1.854  0.0193 -0.8743 -0.6193
 1831TIP3   OH2 5498   2.561   2.934   5.148  0.5043 -0.4875  0.8900
 1831TIP3    H1 5499   2.577   3.022   5.180  0.5227 -0.4344  0.7385
 1831TIP3    H2 5500   2.468   2.932   5.127 -0.0733 -1.2914  3.2708
 1832TIP3   OH2 5501   4.739   4.845   3.422 -0.2748  0.0787  0.8515
 1832TIP3    H1 5502   4.654   4.850   3.467 -1.0806 -0.6633 -0.5266
 1832TIP3    H2 5503   4.779   4.930   3.439 -1.4748  0.6070  1.1900
 1833TIP3   OH2 5504   0.878   1.957   2.001  0.2501 -0.2972 -0.2422
 1833TIP3    H1 5505   0.808   1.891   1.999  1.2398 -1.3696 -0.9956
 1833TIP3    H2 5506   0.838   2.033   2.042 -1.5221 -0.6872 -1.1406
 1834TIP3   OH2 5507   2.829   1.701   0.449 -0.1782  0.1270  0.0680
 1834TIP3    H1 5508   2.917   1.701   0.412  0.2903  0.7723  1.1273
 1834TIP3    H2 5509   2.791   1.784   0.420 -1.5023 -1.3195 -2.6965
 1835TIP3   OH2 5510   6.264   4.140   0.704 -0.3940 -0.1695 -0.8791
 1835TIP3    H1 5511   6.304   4.076   0.644  1.7281  0.2767 -0.0225
 1835TIP3    H2 5512   6.291   4.225   0.669 -0.6112  0.1498 -0.2771
 1836TIP3   OH2 5513   5.994   5.906   1.081 -0.5398 -0.6120 -0.0417
 1836TIP3    H1 5514   5.922   5.921   1.020 -0.4052 -0.5740 -0.1924
 1836TIP3    H2 5515   5.965   5.833   1.136  0.2771 -2.2371 -1.6641
 1837TIP3   OH2 5516   2.966   3.590   1.595 -0.2341 -0.6493  0.6967
 1837TIP3    H1 5517   3.006   3.668   1.633  1.1261 -1.2213  0.4959
 1837TIP3    H2 5518   2.877   3.588   1.631  0.2658  0.0764  2.0123
 1838TIP3   OH2 5519   4.606   0.462   1.458 -0.4770 -0.1557 -0.5598
 1838TIP3    H1 5520   4.554   0.521   1.512  1.5823 -0.0425  1.4264
 1838TIP3    H2 5521   4.652   0.519   1.396  0.0919  0.1524  0.1358
 1839TIP3   OH2 5522   0.565   3.780   4.109  0.1204 -0.3364 -0.4247
 1839TIP3    H1 5523   0.542   3.795   4.201 -1.1600 -0.2587 -0.7355
 1839TIP3    H2 5524   0.653   3.817   4.100 -0.6679  1.8940  0.2067
 1840TIP3   OH2 5525   5.033   0.496   0.792  0.1668 -0.0079  0.1684
 1840TIP3    H1 5526   5.012   0.572   0.738 -2.1341  0.6455  1.8289
 1840TIP3    H2 5527   5.087   0.531   0.863 -1.2313  0.2369  1.1605
 1841TIP3   OH2 5528   0.763   4.116   2.262  0.8126 -0.0298 -0.0843
 1841TIP3    H1 5529   0.679   4.069   2.263  1.0688 -0.5745  3.0664
 1841TIP3    H2 5530   0.741   4.204   2.291  1.1194  0.3299 -0.9111
 1842TIP3   OH2 5531   5.874   2.827   2.228  0.0950 -0.0154  0.0315
 1842TIP3    H1 5532   5.881   2.885   2.152 -1.7336  1.1040  0.6543
 1842TIP3    H2 5533   5.950   2.849   2.282 -0.9266  2.4070  0.6066
 1843TIP3   OH2 5534   3.334   0.277   2.290  0.6600 -0.7001  0.3767
 1843TIP3    H1 5535   3.356   0.368   2.307 -0.5990 -0.3300  0.0742
 1843TIP3    H2 5536   3.281   0.279   2.211 -1.7477 -1.3753  1.8831
 1844TIP3   OH2 5537   4.677   1.560   0.665 -0.5314  0.0445 -0.0708
 1844TIP3    H1 5538   4.694   1.655   0.663 -0.0645 -0.0541 -1.3818
 1844TIP3    H2 5539   4.648   1.544   0.755 -3.5004  1.9234 -0.5446
 1845TIP3   OH2 5540   0.727   4.739   2.752  0.1325  0.4864 -0.8078
 1845TIP3    H1 5541   0.765   4.676   2.690  1.0977  1.4907 -1.2661
 1845TIP3    H2 5542   0.796   4.803   2.767 -0.1402  0.3913  1.1845
 1846TIP3   OH2 5543   0.508   3.363   0.788  0.1772 -0.0431  0.7337
 1846TIP3    H1 5544   0.530   3.456   0.799  1.4703 -0.4655  1.9764
 1846TIP3    H2 5545   0.571   3.331   0.724 -0.9056  0.1190 -0.4655
 1847TIP3   OH2 5546   4.318   0.807   1.973 -0.1068  0.0206 -0.2178
 1847TIP3    H1 5547   4.360   0.890   1.949  1.8238 -0.0920  2.2553
 1847TIP3    H2 5548   4.271   0.827   2.054  0.0382 -1.1866  0.1815
 1848TIP3   OH2 5549   0.456   4.383   4.560  0.3161  0.7027  0.3189
 1848TIP3    H1 5550   0.494   4.451   4.617  0.4497  0.4775  0.5035
 1848TIP3    H2 5551   0.395   4.430   4.504 -1.2797  0.6823  1.9406
 1849TIP3   OH2 5552   4.674   3.359   4.899  0.0021  0.9629 -0.3075
 1849TIP3    H1 5553   4.734   3.303   4.848  0.6456  1.3797 -0.0174
 1849TIP3    H2 5554   4.634   3.299   4.962  0.2883  0.7251 -0.3484
 1850TIP3   OH2 5555   4.707   4.205   0.527  0.7330 -0.5419 -0.4429
 1850TIP3    H1 5556   4.616   4.218   0.500  1.3908  1.0685 -2.1040
 1850TIP3    H2 5557   4.729   4.116   0.498  0.5100  0.0828 -2.6905
 1851TIP3   OH2 5558   2.580   1.023   4.219  0.0606 -0.1074 -0.4573
 1851TIP3    H1 5559   2.664   1.006   4.177 -0.3742 -0.3149 -1.2606
 1851TIP3    H2 5560   2.517   1.022   4.148 -0.3342  2.5123 -0.2274
 1852TIP3   OH2 5561   6.264   0.244   2.815  0.7766 -0.4775 -0.4266
 1852TIP3    H1 5562   6.214   0.277   2.741  0.3791 -1.1490 -0.4623
 1852TIP3    H2 5563   6.199   0.202   2.871  1.1569 -0.4805  0.0196
 1853TIP3   OH2 5564   1.888   0.560   2.651 -0.0516 -0.0536  0.1976
 1853TIP3    H1 5565   1.951   0.632   2.661 -0.6312  0.4387  0.3288
 1853TIP3    H2 5566   1.811   0.601   2.612 -0.0475 -0.7906 -0.6004
 1854TIP3   OH2 5567   3.587   4.837   2.545  0.0063  0.0867 -0.7320
 1854TIP3    H1 5568   3.496   4.807   2.550 -0.5768  1.4050 -2.4729
 1854TIP3    H2 5569   3.638   4.763   2.579 -1.7051 -0.5125  0.7347
 1855TIP3   OH2 5570   3.817   1.179   4.795 -0.1502  0.0768  0.1098
 1855TIP3    H1 5571   3.900   1.155   4.754 -0.5615  0.6098 -1.0915
 1855TIP3    H2 5572   3.834   1.262   4.838  0.1805 -0.2782  0.6649
 1856TIP3   OH2 5573   2.582   3.309   0.040 -0.7779 -0.2177  0.2840
 1856TIP3    H1 5574   2.610   3.248   0.107 -0.5491 -0.7356 -0.2719
 1856TIP3    H2 5575   2.486   3.308   0.044 -0.7618  0.1216  0.9163
 1857TIP3   OH2 5576   4.793   3.245   0.421 -0.6865 -0.1107  0.1406
 1857TIP3    H1 5577   4.732   3.270   0.351  1.0528  1.0864 -1.0367
 1857TIP3    H2 5578   4.870   3.212   0.375 -0.5239 -1.8986  1.6000
 1858TIP3   OH2 5579   2.823   5.838   3.175  0.4926 -0.4332 -0.3402
 1858TIP3    H1 5580   2.840   5.748   3.200 -1.3660 -0.7552 -0.0933
 1858TIP3    H2 5581   2.889   5.857   3.108 -0.8922 -3.0248 -2.6539
 1859TIP3   OH2 5582   5.930   3.655   1.994 -0.6101 -0.6831 -0.2766
 1859TIP3    H1 5583   6.012   3.681   2.035 -0.6290 -0.5521 -0.3227
 1859TIP3    H2 5584   5.910   3.725   1.931 -1.6846  0.1990  0.9933
 1860TIP3   OH2 5585   0.255   2.042   2.316 -0.3897  0.1870 -0.3663
 1860TIP3    H1 5586   0.338   2.063   2.274 -0.9151  0.1498 -1.4524
 1860TIP3    H2 5587   0.266   1.953   2.351  0.5837  0.8050  0.9999
 1861TIP3   OH2 5588   6.176   4.814   0.661  0.4395  0.0197  0.0425
 1861TIP3    H1 5589   6.207   4.796   0.750  1.1539 -1.7567 -0.5137
 1861TIP3    H2 5590   6.146   4.729   0.629 -1.7511  1.0205 -0.7226
 1862TIP3   OH2 5591   0.070   2.979   1.492 -0.0981 -0.1233  0.0445
 1862TIP3    H1 5592  -0.010   3.032   1.495  0.0253  0.3530 -2.7523
 1862TIP3    H2 5593   0.140   3.041   1.510 -0.2580 -0.3829  1.6983
 1863TIP3   OH2 5594   3.597   1.825   4.431  0.3388  0.2040  0.6530
 1863TIP3    H1 5595   3.622   1.809   4.340  0.1747  0.0414  0.6348
 1863TIP3    H2 5596   3.666   1.784   4.482  0.8327  0.9597  0.6010
 1864TIP3   OH2 5597   5.695   3.471   2.318 -0.4549 -0.2777  0.3638
 1864TIP3    H1 5598   5.773   3.469   2.373 -0.1569 -1.4917 -0.0805
 1864TIP3    H2 5599   5.631   3.418   2.367  0.1626 -2.3309 -0.9129
 1865TIP3   OH2 5600   6.165   4.708   1.817 -0.0988  0.1676 -0.1897
 1865TIP3    H1 5601   6.193   4.789   1.859  0.3468 -0.9232  1.7375
 1865TIP3    H2 5602   6.082   4.687   1.860 -1.2394  0.6004 -2.0841
 1866TIP3   OH2 5603   2.850   4.490   3.469 -0.0989  0.3904 -0.4666
 1866TIP3    H1 5604   2.889   4.409   3.499  0.7292  0.4129 -1.4483
 1866TIP3    H2 5605   2.870   4.554   3.538  0.3837  0.0753 -0.3154
 1867TIP3   OH2 5606   5.489   4.579   2.909  0.0898 -0.4121 -0.0435
 1867TIP3    H1 5607   5.545   4.517   2.956  1.1687  1.2497  0.9747
 1867TIP3    H2 5608   5.547   4.652   2.888 -0.9262 -0.1033 -2.0153
 1868TIP3   OH2 5609   0.151   2.823   1.230 -0.4893 -0.3331  0.2290
 1868TIP3    H1 5610   0.193   2.902   1.197 -0.8345 -1.2512 -2.6832
 1868TIP3    H2 5611   0.089   2.854   1.296  0.5180  1.6033  0.3305
 1869TIP3   OH2 5612   2.461   2.038   0.504 -0.2112  0.0903 -0.0231
 1869TIP3    H1 5613   2.383   2.034   0.448  0.1473  2.0767 -0.7379
 1869TIP3    H2 5614   2.529   1.996   0.452 -0.1841  0.7907 -0.5700
 1870TIP3   OH2 5615   5.647   5.681   1.718  0.1343  0.2529  0.1882
 1870TIP3    H1 5616   5.726   5.673   1.665  0.3321 -0.5844  0.5899
 1870TIP3    H2 5617   5.575   5.668   1.656  0.3184  0.5979 -0.1034
 1871TIP3   OH2 5618   2.253   4.148   1.170  0.0072  0.6400  0.0948
 1871TIP3    H1 5619   2.280   4.138   1.079 -0.7757 -1.8241  0.0739
 1871TIP3    H2 5620   2.176   4.206   1.165 -1.1982 -0.9655 -1.0815
 1872TIP3   OH2 5621   2.101   3.866   4.950  0.1540 -0.1215 -0.1597
 1872TIP3    H1 5622   2.108   3.883   4.856  0.7282 -1.8025 -0.4572
 1872TIP3    H2 5623   2.127   3.949   4.991 -0.6804  0.8323 -1.4659
 1873TIP3   OH2 5624   5.635   4.275   0.242 -0.2078 -0.0306  0.1584
 1873TIP3    H1 5625   5.562   4.289   0.303 -0.2920 -0.5991  0.1857
 1873TIP3    H2 5626   5.640   4.357   0.192  0.1756  0.6346  1.2509
 1874TIP3   OH2 5627   1.306   2.089   3.354  0.4638  0.0956  0.1097
 1874TIP3    H1 5628   1.267   2.176   3.342 -0.1727 -0.2521 -0.4188
 1874TIP3    H2 5629   1.371   2.081   3.285 -1.0585 -0.7100 -1.2961
 1875TIP3   OH2 5630   4.805   2.224   4.789 -0.3921  0.1244  0.1410
 1875TIP3    H1 5631   4.804   2.249   4.881 -0.0484 -0.5080  0.3276
 1875TIP3    H2 5632   4.765   2.137   4.788 -3.2481  1.3295 -0.7191
 1876TIP3   OH2 5633   0.837   5.965   4.486 -0.1822  0.1383 -0.0857
 1876TIP3    H1 5634   0.775   5.904   4.523  1.3862 -1.3453  0.2207
 1876TIP3    H2 5635   0.786   6.019   4.426 -1.7785 -0.8250  0.3701
 1877TIP3   OH2 5636   4.864   2.188   0.004 -0.1663 -0.2593 -0.5715
 1877TIP3    H1 5637   4.954   2.217   0.021  0.7811 -1.9837 -2.2560
 1877TIP3    H2 5638   4.871   2.092   0.002 -2.2154 -0.4572 -0.0037
 1878TIP3   OH2 5639   2.058   3.996   2.364  0.2727 -0.4186 -0.1084
 1878TIP3    H1 5640   2.002   4.055   2.314 -1.4835  0.1008  2.2670
 1878TIP3    H2 5641   2.146   4.035   2.357 -0.5657  1.6783  0.1248
 1879TIP3   OH2 5642   0.605   0.875   2.340  0.3232 -0.2910  0.3697
 1879TIP3    H1 5643   0.562   0.915   2.415 -2.6191 -1.2074 -0.6924
 1879TIP3    H2 5644   0.556   0.908   2.264  2.2535 -0.5531 -1.0804
 1880TIP3   OH2 5645   5.206   4.200   4.213 -0.1498 -0.0752 -0.3653
 1880TIP3    H1 5646   5.224   4.156   4.129 -0.9317 -0.9115 -0.1132
 1880TIP3    H2 5647   5.112   4.215   4.213 -0.2177 -0.4322  0.5298
 1881TIP3   OH2 5648   3.070   0.595   0.110  0.2482  0.0795 -0.1628
 1881TIP3    H1 5649   3.003   0.530   0.087 -0.1663  0.9714 -1.6449
 1881TIP3    H2 5650   3.020   0.671   0.140  0.4270  1.3102 -2.7072
 1882TIP3   OH2 5651   2.210   1.346   2.505 -0.0436 -0.0341 -0.2557
 1882TIP3    H1 5652   2.282   1.324   2.446  0.6397 -1.0438  0.9162
 1882TIP3    H2 5653   2.246   1.414   2.562 -1.0372  1.7218 -1.6094
 1883TIP3   OH2 5654   5.301   4.605   2.309  0.0700  0.0884  0.1641
 1883TIP3    H1 5655   5.289   4.556   2.228 -0.7107  1.4074 -0.5583
 1883TIP3    H2 5656   5.375   4.563   2.352  0.7541 -0.3960 -1.4238
 1884TIP3   OH2 5657   3.091   1.707   0.344 -0.2834 -0.3398  0.4160
 1884TIP3    H1 5658   3.170   1.759   0.361  0.7198 -0.5455 -2.9089
 1884TIP3    H2 5659   3.108   1.623   0.386  1.0677 -0.1988  0.2189
 1885TIP3   OH2 5660   6.298   0.213   0.227  0.3109  0.1573 -0.0513
 1885TIP3    H1 5661   6.247   0.142   0.187 -2.2195  0.9528  1.4966
 1885TIP3    H2 5662   6.289   0.286   0.167 -0.6636  0.3612  0.3138
 1886TIP3   OH2 5663   1.290   3.293   3.203  0.6860 -0.5367 -0.1429
 1886TIP3    H1 5664   1.299   3.247   3.120  1.2435  0.8798 -0.8934
 1886TIP3    H2 5665   1.196   3.310   3.211  0.8047  0.9586 -1.4344
 1887TIP3   OH2 5666   6.211   1.328   2.592  0.0211 -0.0495 -0.1903
 1887TIP3    H1 5667   6.291   1.276   2.587  0.5697  0.7894 -0.1688
 1887TIP3    H2 5668   6.161   1.302   2.515 -0.5375 -1.9400  0.7386
 1888TIP3   OH2 5669   4.529   0.732   1.108 -0.5440  0.8296 -0.4662
 1888TIP3    H1 5670   4.499   0.651   1.151 -0.6725  1.3634  0.4693
 1888TIP3    H2 5671   4.451   0.787   1.103  0.0702  1.9322  1.3121
 1889TIP3   OH2 5672   0.625   5.299   1.569  0.6805 -0.1499  0.1765
 1889TIP3    H1 5673   0.622   5.365   1.639  0.2416 -0.1794  0.1824
 1889TIP3    H2 5674   0.689   5.334   1.507  0.5893  0.1919  0.2720
 1890TIP3   OH2 5675   2.706   5.022   0.518 -0.1775 -0.3214  0.0577
 1890TIP3    H1 5676   2.777   4.959   0.501 -0.5190 -0.4061 -1.1945
 1890TIP3    H2 5677   2.640   5.000   0.452 -0.0364  1.7500 -0.8473
 1891TIP3   OH2 5678   4.327   2.515   4.302  0.2302  0.0588 -0.3426
 1891TIP3    H1 5679   4.359   2.582   4.362 -0.5185  0.9975 -0.9651
 1891TIP3    H2 5680   4.263   2.465   4.353  0.7318 -0.1422  0.0983
 1892TIP3   OH2 5681   2.655   5.266   0.371 -0.1726 -0.4556  0.1076
 1892TIP3    H1 5682   2.563   5.282   0.349 -0.7946  3.2673  4.2653
 1892TIP3    H2 5683   2.652   5.203   0.443  0.6371 -0.7906 -0.1350
 1893TIP3   OH2 5684   4.598   4.501   2.894 -0.0372 -0.0824  0.1445
 1893TIP3    H1 5685   4.671   4.540   2.846  1.1096 -2.3171 -0.0147
 1893TIP3    H2 5686   4.633   4.483   2.981 -1.0574  0.6785  0.7439
 1894TIP3   OH2 5687   3.224   2.773   1.987  0.1213  0.3794 -0.3241
 1894TIP3    H1 5688   3.130   2.770   1.968 -0.0572  0.8453  0.4281
 1894TIP3    H2 5689   3.254   2.855   1.947  0.5473 -0.5007 -1.9184
 1895TIP3   OH2 5690   2.919   1.284   1.819 -0.7128  0.8113 -0.1524
 1895TIP3    H1 5691   2.947   1.198   1.850  0.7820  1.6766  1.0646
 1895TIP3    H2 5692   2.825   1.287   1.837 -0.7761 -0.5473 -0.1970
 1896TIP3   OH2 5693   1.286   4.214   5.076 -0.1673  0.8467 -0.1193
 1896TIP3    H1 5694   1.305   4.248   5.164  1.3255 -0.3910  0.0780
 1896TIP3    H2 5695   1.369   4.224   5.029 -0.1482 -0.9831 -0.5278
 1897TIP3   OH2 5696   5.305   0.979   1.455 -0.4278 -0.1576  0.4633
 1897TIP3    H1 5697   5.253   1.052   1.421 -0.0963  0.8587  2.0546
 1897TIP3    H2 5698   5.387   1.019   1.485 -0.0633 -1.2413  0.9694
 1898TIP3   OH2 5699   5.142   2.053   4.837  0.1331 -0.1988  0.4540
 1898TIP3    H1 5700   5.109   2.143   4.841 -0.7084 -0.4310 -0.7903
 1898TIP3    H2 5701   5.076   2.005   4.788  0.3451 -1.6258  1.4821
 1899TIP3   OH2 5702   3.235   0.912   4.170 -0.5843 -0.1225 -0.2960
 1899TIP3    H1 5703   3.244   1.007   4.159 -0.9654 -0.3580 -3.5733
 1899TIP3    H2 5704   3.323   0.883   4.195 -0.4670  1.0527  0.7648
 1900TIP3   OH2 5705   2.300   1.627   4.094  0.6081  0.0348  0.4170
 1900TIP3    H1 5706   2.341   1.711   4.074  1.1050 -0.5170 -1.0804
 1900TIP3    H2 5707   2.212   1.648   4.123  1.1038  1.1147  1.2095
 1901TIP3   OH2 5708   1.085   5.988   0.264 -0.4967 -0.3538 -0.1208
 1901TIP3    H1 5709   1.037   5.944   0.334 -0.8913  0.9165  0.4408
 1901TIP3    H2 5710   1.166   6.018   0.306 -1.7159  2.4145  0.4899
 1902TIP3   OH2 5711   6.241   4.664   3.414 -0.1550 -0.4419  0.4239
 1902TIP3    H1 5712   6.174   4.731   3.396  0.7301  0.7269  1.2997
 1902TIP3    H2 5713   6.312   4.685   3.355  0.3254 -0.2853  1.0434
 1903TIP3   OH2 5714   1.579   1.612   2.693 -0.7136 -0.8548 -0.2495
 1903TIP3    H1 5715   1.672   1.595   2.706 -0.7075  0.0560  1.2123
 1903TIP3    H2 5716   1.535   1.536   2.733 -0.6020 -0.2340  1.1237
 1904TIP3   OH2 5717   4.465   1.722   3.629  0.0726  0.2904  0.4836
 1904TIP3    H1 5718   4.554   1.691   3.612  0.6549  0.8743  2.2106
 1904TIP3    H2 5719   4.430   1.743   3.543  1.5469 -0.1216 -0.2517
 1905TIP3   OH2 5720   5.903   2.349   4.527  0.3340  0.5632  0.1597
 1905TIP3    H1 5721   5.857   2.274   4.488  1.6377 -0.5313  0.6411
 1905TIP3    H2 5722   5.884   2.422   4.469  1.0131 -0.6938 -1.7351
 1906TIP3   OH2 5723   2.301   5.874   1.839 -0.3840  0.7073 -0.2161
 1906TIP3    H1 5724   2.318   5.943   1.774 -1.1941 -0.3521 -1.5982
 1906TIP3    H2 5725   2.388   5.846   1.868  0.0153  0.8362 -1.2479
 1907TIP3   OH2 5726   1.034   5.500   3.543 -0.2772 -0.2965 -0.2541
 1907TIP3    H1 5727   1.085   5.419   3.547 -0.6128 -0.5421 -0.8018
 1907TIP3    H2 5728   1.055   5.537   3.456 -2.0388 -1.0796 -1.0555
 1908TIP3   OH2 5729   1.279   2.364   0.195  0.0565 -0.2098 -0.0339
 1908TIP3    H1 5730   1.310   2.347   0.105 -1.2387 -0.1691 -0.5140
 1908TIP3    H2 5731   1.295   2.457   0.209  0.2371 -0.2103 -0.2242
 1909TIP3   OH2 5732   2.148   4.721   2.141 -0.2407  0.3496  0.1798
 1909TIP3    H1 5733   2.096   4.765   2.208 -2.3346 -0.2537 -0.9485
 1909TIP3    H2 5734   2.176   4.639   2.182  0.4731  0.9984  1.0313
 1910TIP3   OH2 5735   0.856   0.469   2.376 -0.0428  0.6220 -0.2122
 1910TIP3    H1 5736   0.775   0.512   2.349  0.5720  1.5680 -0.5938
 1910TIP3    H2 5737   0.828   0.385   2.412 -1.2188  1.0689 -0.0481
 1911TIP3   OH2 5738   2.333   3.186   1.195  0.0689  0.1174 -0.3808
 1911TIP3    H1 5739   2.351   3.094   1.214 -0.3143  0.3989  1.6121
 1911TIP3    H2 5740   2.260   3.209   1.253  1.1613  2.0687  0.3323
 1912TIP3   OH2 5741   6.231   2.379   3.931  0.1766  0.1325 -0.0418
 1912TIP3    H1 5742   6.300   2.395   3.866  1.7855  1.4224  1.8791
 1912TIP3    H2 5743   6.156   2.428   3.897  0.0406 -1.4737 -2.2823
 1913TIP3   OH2 5744   5.373   0.653   4.027  0.1760  0.8176  0.4505
 1913TIP3    H1 5745   5.455   0.695   4.054 -0.2005  2.3698 -0.6644
 1913TIP3    H2 5746   5.309   0.684   4.091 -0.1574  2.2210 -0.5331
 1914TIP3   OH2 5747   4.613   5.376   3.275 -0.4115  0.1703 -0.7192
 1914TIP3    H1 5748   4.656   5.290   3.270 -2.1269 -0.7264 -0.8616
 1914TIP3    H2 5749   4.685   5.439   3.275  1.1255 -1.3175  2.6077
 1915TIP3   OH2 5750   5.028   3.368   0.097 -0.1592 -0.4285 -0.0496
 1915TIP3    H1 5751   5.090   3.404   0.160 -0.2489  0.0934 -0.2537
 1915TIP3    H2 5752   5.066   3.283   0.072  1.6838  0.8184 -1.8467
 1916TIP3   OH2 5753   4.880   0.949   0.484  0.3983 -0.0412 -0.3908
 1916TIP3    H1 5754   4.868   1.037   0.519  0.2847  0.2494 -1.1406
 1916TIP3    H2 5755   4.791   0.918   0.466  0.4567 -0.1884 -0.4305
 1917TIP3   OH2 5756   1.283   4.737   3.828 -0.1790  0.2350  0.3421
 1917TIP3    H1 5757   1.239   4.655   3.852 -1.2902  0.2389 -1.5376
 1917TIP3    H2 5758   1.332   4.715   3.749 -4.1525  2.2874 -3.0977
 1918TIP3   OH2 5759   1.853   5.999   4.234  0.6300  0.0075 -0.0042
 1918TIP3    H1 5760   1.831   6.003   4.141 -0.1625 -0.0933  0.1786
 1918TIP3    H2 5761   1.798   5.930   4.270 -0.3610  1.2050  0.8844
 1919TIP3   OH2 5762   1.776   4.375   2.113  0.7936  0.1527 -0.0727
 1919TIP3    H1 5763   1.686   4.391   2.085  0.4332  0.3209  1.1226
 1919TIP3    H2 5764   1.774   4.287   2.150  0.8339  0.6031  1.0292
 1920TIP3   OH2 5765   4.157   4.640   0.641 -0.0553  0.0334 -0.4551
 1920TIP3    H1 5766   4.174   4.732   0.621  2.6636 -0.1620  0.5060
 1920TIP3    H2 5767   4.242   4.597   0.632 -0.4862 -1.7093  2.4929
 1921TIP3   OH2 5768   5.925   4.927   3.000 -0.3975  0.4877 -0.3094
 1921TIP3    H1 5769   5.844   4.930   2.949  0.5119  0.3759 -1.8038
 1921TIP3    H2 5770   5.956   4.837   2.989  0.1175  0.6291 -0.0262
 1922TIP3   OH2 5771   0.126   3.301   3.858 -0.0623 -0.2850 -0.3373
 1922TIP3    H1 5772   0.211   3.329   3.825  1.1780 -1.3611  1.7359
 1922TIP3    H2 5773   0.078   3.382   3.873  1.5660  0.5284  0.8292
 1923TIP3   OH2 5774   1.948   3.171   0.613  0.1601  0.0915 -0.3168
 1923TIP3    H1 5775   1.967   3.079   0.636 -0.9265  0.0511  0.4593
 1923TIP3    H2 5776   1.964   3.219   0.694 -0.9275  0.3470 -0.2471
 1924TIP3   OH2 5777   1.468   2.840   2.098 -0.7285  0.6441  0.0722
 1924TIP3    H1 5778   1.440   2.776   2.163 -1.0524  1.0244  0.3102
 1924TIP3    H2 5779   1.416   2.917   2.117 -0.7866  0.7728 -0.6130
 1925TIP3   OH2 5780   4.518   5.105   1.114  0.5562  0.1541 -0.4078
 1925TIP3    H1 5781   4.438   5.157   1.111  0.4088  0.3304  2.6711
 1925TIP3    H2 5782   4.487   5.015   1.128  0.8526  0.1142  0.0249
 1926TIP3   OH2 5783   1.159   4.697   0.222  0.3104  0.4387 -0.2789
 1926TIP3    H1 5784   1.090   4.698   0.155  1.5104  0.9876 -1.5524
 1926TIP3    H2 5785   1.191   4.787   0.224 -0.5687  0.7692  2.0198
 1927TIP3   OH2 5786   0.239   4.059   1.636  0.3454  0.1288  0.3625
 1927TIP3    H1 5787   0.305   3.994   1.657  0.0628  0.0273  0.9618
 1927TIP3    H2 5788   0.285   4.143   1.641  0.7855 -0.0334 -0.7252
 1928TIP3   OH2 5789   1.290   5.344   0.493 -0.3525 -0.8702  0.0003
 1928TIP3    H1 5790   1.305   5.278   0.560  0.8802 -0.3475  0.2609
 1928TIP3    H2 5791   1.342   5.420   0.521 -0.6320 -0.2832 -1.0050
 1929TIP3   OH2 5792   0.549   2.900   0.439 -0.3716  0.2402  0.9527
 1929TIP3    H1 5793   0.629   2.949   0.458 -0.6788  0.1885  2.5551
 1929TIP3    H2 5794   0.483   2.940   0.494 -0.6261 -1.9795  2.4118
 1930TIP3   OH2 5795   3.093   5.804   2.673 -0.0922 -0.2823  0.4590
 1930TIP3    H1 5796   3.041   5.799   2.753  0.0957  1.0016  0.6764
 1930TIP3    H2 5797   3.154   5.730   2.679 -2.9502 -2.9993 -0.6298
 1931TIP3   OH2 5798   3.605   4.378   5.103  0.1241  0.4474  0.2035
 1931TIP3    H1 5799   3.566   4.375   5.190  1.7001 -1.4974  0.9351
 1931TIP3    H2 5800   3.683   4.432   5.113  0.0280  0.6553 -0.1436
 1932TIP3   OH2 5801   6.291   5.699   2.509  0.1912  0.3889 -0.4055
 1932TIP3    H1 5802   6.313   5.606   2.504 -0.2261  0.3300 -1.2010
 1932TIP3    H2 5803   6.328   5.737   2.429 -1.4812  0.5146 -1.1557
 1933TIP3   OH2 5804   3.018   4.626   2.006  0.0989  0.3692  0.1279
 1933TIP3    H1 5805   2.934   4.586   2.026  0.1571  0.6046  0.8851
 1933TIP3    H2 5806   3.069   4.556   1.965 -0.1684 -0.0217  0.4548
 1934TIP3   OH2 5807   3.627   3.824   3.426 -0.2992  0.2976 -0.2653
 1934TIP3    H1 5808   3.538   3.855   3.443 -0.1600 -0.0154  1.1771
 1934TIP3    H2 5809   3.615   3.742   3.379 -0.7358  0.8853 -1.2062
 1935TIP3   OH2 5810   2.978   1.870   4.462 -0.1921 -0.2878 -0.4391
 1935TIP3    H1 5811   3.008   1.908   4.379 -0.7264  0.0589 -0.4806
 1935TIP3    H2 5812   2.982   1.943   4.524  0.6563 -0.6608 -0.0352
 1936TIP3   OH2 5813   3.411   3.239   1.038 -0.1386 -0.3309 -0.1152
 1936TIP3    H1 5814   3.441   3.266   0.951  0.7593  0.3938  0.4020
 1936TIP3    H2 5815   3.369   3.154   1.023 -2.7999  1.0993 -1.7624
 1937TIP3   OH2 5816   6.047   2.007   1.010  0.3433  0.6003 -0.6309
 1937TIP3    H1 5817   6.039   2.102   1.001 -1.7144  0.4310 -1.2043
 1937TIP3    H2 5818   6.049   1.993   1.105 -2.1354  1.1109 -0.4368
 1938TIP3   OH2 5819   1.783   4.212   2.705  0.7153 -0.1707  0.5321
 1938TIP3    H1 5820   1.751   4.189   2.792  1.0450  0.6541  0.8836
 1938TIP3    H2 5821   1.715   4.269   2.668  1.8386  1.8746  1.4188
 1939TIP3   OH2 5822   4.303   0.446   5.158 -0.1412  0.2679 -0.0889
 1939TIP3    H1 5823   4.222   0.482   5.122  0.9181  1.9619 -0.8860
 1939TIP3    H2 5824   4.308   0.358   5.122 -1.9247 -0.0935  0.4693
 1940TIP3   OH2 5825   4.261   2.543   1.066  0.1566  0.9813  0.0910
 1940TIP3    H1 5826   4.176   2.555   1.024  1.2270  0.7789 -2.2699
 1940TIP3    H2 5827   4.285   2.453   1.045  1.0546  1.1021  0.5666
 1941TIP3   OH2 5828   5.967   5.971   4.995  0.4704 -0.3408 -0.2873
 1941TIP3    H1 5829   6.042   5.919   5.026  0.5826  0.6082  1.1193
 1941TIP3    H2 5830   5.967   6.048   5.051  0.6092  1.4564 -2.6171
 1942TIP3   OH2 5831   2.720   1.901   3.944 -0.1197 -0.1387  0.2426
 1942TIP3    H1 5832   2.686   1.972   3.889  1.9179  0.5998 -0.1831
 1942TIP3    H2 5833   2.735   1.829   3.884  2.1592  0.6866 -0.3126
 1943TIP3   OH2 5834   2.391   0.374   4.303 -0.2809 -0.3760 -0.4790
 1943TIP3    H1 5835   2.324   0.378   4.371 -0.8219 -0.0968 -1.0195
 1943TIP3    H2 5836   2.441   0.295   4.323  0.1306  0.1694  0.7521
 1944TIP3   OH2 5837   1.473   2.546   4.613 -0.6810 -0.7062 -0.1148
 1944TIP3    H1 5838   1.385   2.539   4.650 -0.3202  2.5306  1.7099
 1944TIP3    H2 5839   1.507   2.629   4.646  3.5168 -2.2775  0.1707
 1945TIP3   OH2 5840   2.598   4.446   4.463 -0.1171  0.4336 -0.0483
 1945TIP3    H1 5841   2.590   4.527   4.413 -2.2312  0.6244  0.4870
 1945TIP3    H2 5842   2.516   4.440   4.513 -1.4843 -3.5307 -2.2812
 1946TIP3   OH2 5843   3.818   3.700   4.549 -0.1524  0.5219 -0.0939
 1946TIP3    H1 5844   3.880   3.641   4.591  0.0342  0.7507 -0.0427
 1946TIP3    H2 5845   3.870   3.778   4.529 -0.3194  0.5463 -0.4407
 1947TIP3   OH2 5846   0.955   1.176   0.066  0.1483  0.3799 -0.0206
 1947TIP3    H1 5847   0.928   1.202   0.154  0.9693  1.2618 -0.0208
 1947TIP3    H2 5848   0.947   1.255   0.014  1.4083  0.3178 -0.3273
 1948TIP3   OH2 5849   0.555   4.962   1.994 -0.2733 -0.4051  0.6355
 1948TIP3    H1 5850   0.541   5.056   1.985 -0.6198 -0.4474  0.7182
 1948TIP3    H2 5851   0.633   4.955   2.050  0.3311 -0.1646 -0.1668
 1949TIP3   OH2 5852   0.453   3.397   3.524  0.1917 -0.2914 -0.5324
 1949TIP3    H1 5853   0.398   3.475   3.512 -1.1117 -1.0593  0.1672
 1949TIP3    H2 5854   0.488   3.379   3.437  1.8225  1.9604 -0.4210
 1950TIP3   OH2 5855   1.310   3.519   1.016 -0.3296 -0.1324  0.2673
 1950TIP3    H1 5856   1.331   3.474   0.934 -2.7648 -0.3719 -0.3228
 1950TIP3    H2 5857   1.384   3.577   1.032 -0.5057  1.2338 -3.0680
 1951TIP3   OH2 5858   0.921   1.985   3.919 -0.2737  0.0652 -0.4470
 1951TIP3    H1 5859   1.006   1.959   3.884 -0.7310 -0.8880 -0.9212
 1951TIP3    H2 5860   0.919   2.080   3.911  1.5949  0.3375  1.5879
 1952TIP3   OH2 5861   5.621   4.998   1.135 -0.4968 -0.1095 -0.2143
 1952TIP3    H1 5862   5.610   5.089   1.107 -1.1734  0.1917  0.9624
 1952TIP3    H2 5863   5.548   4.951   1.093 -2.0576  0.5080  1.6537
 1953TIP3   OH2 5864   2.921   0.968   1.811 -0.3623  0.3795 -0.0922
 1953TIP3    H1 5865   2.888   0.969   1.721  0.0290  0.7655 -0.2340
 1953TIP3    H2 5866   2.844   0.946   1.864 -0.7521  0.8171 -0.4620
 1954TIP3   OH2 5867   4.806   0.847   4.993  0.4309 -0.0659  0.0276
 1954TIP3    H1 5868   4.870   0.893   4.938 -1.3306  1.0852 -1.1531
 1954TIP3    H2 5869   4.856   0.776   5.034  2.6446  1.3188 -0.1391
 1955TIP3   OH2 5870   5.061   4.608   0.527 -0.0475  0.1755  0.0107
 1955TIP3    H1 5871   4.998   4.667   0.568 -0.2678 -0.2967  0.3644
 1955TIP3    H2 5872   5.103   4.563   0.600  1.5484  1.3186 -0.1620
 1956TIP3   OH2 5873   2.757   1.241   3.298  0.4657 -0.1670 -0.0886
 1956TIP3    H1 5874   2.798   1.238   3.384  0.1955 -2.5834  0.0058
 1956TIP3    H2 5875   2.821   1.287   3.243  1.9725 -1.2014  0.7298
 1957TIP3   OH2 5876   5.504   1.572   2.638  0.2671  0.5224 -0.2796
 1957TIP3    H1 5877   5.442   1.505   2.666  0.1158  0.5091 -0.6397
 1957TIP3    H2 5878   5.586   1.551   2.684  0.0127  0.5277  0.1784
 1958TIP3   OH2 5879   3.364   0.247   4.397 -0.3741 -0.2013 -0.0418
 1958TIP3    H1 5880   3.456   0.264   4.419 -0.3054 -0.0758 -0.4265
 1958TIP3    H2 5881   3.317   0.322   4.432 -0.3456 -0.3276  0.2687
 1959TIP3   OH2 5882   4.134   4.726   1.418 -0.2945  0.1055  0.0565
 1959TIP3    H1 5883   4.197   4.733   1.490 -0.4866  1.0070  0.1552
 1959TIP3    H2 5884   4.135   4.634   1.394 -0.3916 -0.2588  1.3740
 1960TIP3   OH2 5885   2.159   5.205   1.041  0.1137 -0.0395 -0.1350
 1960TIP3    H1 5886   2.105   5.278   1.012  1.4516  1.8437  1.8310
 1960TIP3    H2 5887   2.105   5.158   1.104 -0.6589 -0.6387 -1.2161
 1961TIP3   OH2 5888   3.768   0.707   1.519 -0.1841  0.5390  0.0948
 1961TIP3    H1 5889   3.718   0.662   1.451 -0.3034 -0.0689  0.5808
 1961TIP3    H2 5890   3.768   0.799   1.492  0.4135  0.1992 -1.1193
 1962TIP3   OH2 5891   3.963   0.535   3.579 -0.1297 -0.2520 -0.2942
 1962TIP3    H1 5892   3.924   0.510   3.496  0.0613  0.1491 -0.5061
 1962TIP3    H2 5893   4.046   0.577   3.556  0.0698 -0.4106  0.1126
 1963TIP3   OH2 5894   5.326  -0.006   2.032  0.2019 -0.0725 -0.1301
 1963TIP3    H1 5895   5.307   0.087   2.016 -0.7913 -0.6236 -2.6164
 1963TIP3    H2 5896   5.376  -0.034   1.956  0.1809 -1.6823  0.4084
 1964TIP3   OH2 5897   1.639   4.105   2.153  0.0695 -0.0177 -0.2906
 1964TIP3    H1 5898   1.673   4.062   2.231  1.3815 -0.5749 -1.1298
 1964TIP3    H2 5899   1.551   4.133   2.177 -1.5914 -4.5245 -0.1381
 1965TIP3   OH2 5900   2.426   3.775   0.330  0.5067  0.2319 -0.2419
 1965TIP3    H1 5901   2.484   3.702   0.354  0.5252  0.5657  0.7477
 1965TIP3    H2 5902   2.343   3.754   0.372  1.1469  1.8917  1.9890
 1966TIP3   OH2 5903   0.640   0.582   1.143  0.2519 -0.2766  0.1355
 1966TIP3    H1 5904   0.684   0.613   1.222 -0.4612 -0.0962  0.4654
 1966TIP3    H2 5905   0.552   0.619   1.148  0.4386  0.4127 -1.1438
 1967TIP3   OH2 5906   0.217   5.875   4.641  0.0646 -0.6719  0.2808
 1967TIP3    H1 5907   0.211   5.793   4.593  1.7842 -1.3931  1.2242
 1967TIP3    H2 5908   0.252   5.851   4.726  1.4327  1.1203  0.2861
 1968TIP3   OH2 5909   3.600   2.495   3.080  0.3361  0.2664 -0.5968
 1968TIP3    H1 5910   3.534   2.426   3.091  0.3765  0.1203 -1.2472
 1968TIP3    H2 5911   3.551   2.576   3.086  0.2306  0.1773 -0.2044
 1969TIP3   OH2 5912   0.500   1.669   1.460  0.0943  0.3899  0.0380
 1969TIP3    H1 5913   0.559   1.629   1.396  0.0294  0.8043 -0.2804
 1969TIP3    H2 5914   0.431   1.710   1.408  0.3578  1.2450  0.3431
 1970TIP3   OH2 5915   2.361   5.652   1.466  0.3126 -0.3955 -0.6630
 1970TIP3    H1 5916   2.269   5.673   1.484  0.2168  0.9483 -2.3469
 1970TIP3    H2 5917   2.366   5.557   1.472 -1.0561 -0.4451  0.0503
 1971TIP3   OH2 5918   0.097   5.694   4.116  0.2394  0.3753 -0.3487
 1971TIP3    H1 5919   0.061   5.701   4.205 -0.0601  2.4013 -0.5809
 1971TIP3    H2 5920   0.029   5.730   4.060  0.2401 -1.2985 -1.5009
 1972TIP3   OH2 5921   1.283   1.223   3.836  0.6121  0.6465  0.4379
 1972TIP3    H1 5922   1.327   1.139   3.844  1.8120  1.1090 -0.9230
 1972TIP3    H2 5923   1.208   1.217   3.896  0.7870 -1.2976  0.5137
 1973TIP3   OH2 5924   4.813   1.120   3.173  0.2323  0.0106  0.0904
 1973TIP3    H1 5925   4.742   1.071   3.215  1.0243 -1.4915 -0.2503
 1973TIP3    H2 5926   4.771   1.167   3.102 -0.2056 -2.3622 -1.3296
 1974TIP3   OH2 5927   2.887   4.918   1.059  0.2741 -0.4703 -0.2217
 1974TIP3    H1 5928   2.840   4.924   1.142 -1.1043 -0.8813 -0.9430
 1974TIP3    H2 5929   2.974   4.884   1.082  0.3763  0.6594  1.1862
 1975TIP3   OH2 5930   4.673   2.367   2.788  0.2803  0.3780  0.1930
 1975TIP3    H1 5931   4.656   2.273   2.787 -0.0102  0.4307  0.1481
 1975TIP3    H2 5932   4.632   2.400   2.708  1.5860  0.3414 -0.5208
 1976TIP3   OH2 5933   1.023   5.074   4.801 -0.0058 -0.0473 -0.4428
 1976TIP3    H1 5934   0.999   5.157   4.760 -1.0678  0.1196  0.4698
 1976TIP3    H2 5935   1.118   5.069   4.791  0.2246  1.7998  0.3986
 1977TIP3   OH2 5936   5.697   4.743   2.898  0.4417  0.4492  0.3556
 1977TIP3    H1 5937   5.783   4.701   2.898  1.1934  1.9112  1.0559
 1977TIP3    H2 5938   5.658   4.717   2.981 -0.4856 -1.4624 -0.6080
 1978TIP3   OH2 5939   1.305   2.849   0.493  0.6548  0.0935  0.1297
 1978TIP3    H1 5940   1.275   2.871   0.581 -0.2017  1.0236 -0.3717
 1978TIP3    H2 5941   1.363   2.774   0.505 -0.8591 -0.9496  1.2825
 1979TIP3   OH2 5942   2.173   4.439   0.665  0.6087  0.1705 -0.1608
 1979TIP3    H1 5943   2.263   4.446   0.632  0.5571  0.0819 -0.3217
 1979TIP3    H2 5944   2.118   4.448   0.587  0.4553  0.8227  0.0138
 1980TIP3   OH2 5945   0.223   2.447   2.774 -0.0685  0.1953 -0.3978
 1980TIP3    H1 5946   0.229   2.542   2.768  0.9631  0.3477  2.0455
 1980TIP3    H2 5947   0.204   2.419   2.684  1.5716  2.5452 -1.5848
 1981TIP3   OH2 5948   3.084   2.130   4.053  0.3472  0.1568  0.5009
 1981TIP3    H1 5949   2.989   2.138   4.057  0.2795  0.5897 -1.1214
 1981TIP3    H2 5950   3.116   2.220   4.055  0.5447  0.1751 -1.4439
 1982TIP3   OH2 5951   5.712   5.334   0.737  0.0149 -0.1548  0.4015
 1982TIP3    H1 5952   5.630   5.285   0.731  0.8411 -1.5995  0.5239
 1982TIP3    H2 5953   5.775   5.282   0.687  0.7114  1.2797 -0.2692
 1983TIP3   OH2 5954   6.278   5.594   0.211 -0.4871  0.0673 -0.3814
 1983TIP3    H1 5955   6.200   5.648   0.198 -1.1338 -1.1716 -1.9093
 1983TIP3    H2 5956   6.257   5.539   0.287  0.2660  1.9945  1.3383
 1984TIP3   OH2 5957   0.547   0.961   0.900 -0.3594 -0.0966 -0.0242
 1984TIP3    H1 5958   0.551   0.871   0.869 -1.1122 -0.5681  1.1946
 1984TIP3    H2 5959   0.618   0.967   0.965 -0.0159  0.3340 -0.4276
 1985TIP3   OH2 5960   6.049   3.636   1.587  0.1534  0.0840  0.0382
 1985TIP3    H1 5961   6.079   3.709   1.533 -0.7221  0.7259  0.3937
 1985TIP3    H2 5962   6.129   3.590   1.611  0.9093  1.8501  1.1312
 1986TIP3   OH2 5963   1.458   1.293   3.609  0.3681 -0.1717  0.5483
 1986TIP3    H1 5964   1.402   1.235   3.660  1.5795 -1.4804  0.4679
 1986TIP3    H2 5965   1.540   1.297   3.658  0.3100  1.5296  0.5585
 1987TIP3   OH2 5966   4.857   1.864   2.761 -0.2471 -0.5159 -0.3747
 1987TIP3    H1 5967   4.862   1.783   2.710  0.2273  0.6877 -2.3553
 1987TIP3    H2 5968   4.836   1.932   2.697 -3.0221  0.6570  1.5685
 1988TIP3   OH2 5969   1.899   4.199   1.314 -0.1321  0.2454 -0.0628
 1988TIP3    H1 5970   1.823   4.210   1.370 -1.5039  0.7907 -1.9449
 1988TIP3    H2 5971   1.957   4.272   1.339 -0.4831  0.2020  0.9315
 1989TIP3   OH2 5972   5.963   3.625   4.241 -0.0556 -0.2832  0.2656
 1989TIP3    H1 5973   6.040   3.681   4.228 -0.4679  0.0098 -1.0820
 1989TIP3    H2 5974   5.965   3.603   4.334  3.6103 -3.1029 -0.2518
 1990TIP3   OH2 5975   3.400   5.411   4.250  0.1356  0.0364 -0.0760
 1990TIP3    H1 5976   3.329   5.468   4.280  0.8925  0.5921  0.6909
 1990TIP3    H2 5977   3.467   5.419   4.317 -0.6540 -3.6645  1.3884
 1991TIP3   OH2 5978   1.440   1.397   3.198 -0.0290 -0.5965  0.0973
 1991TIP3    H1 5979   1.465   1.482   3.161  0.7680 -0.5598  0.7032
 1991TIP3    H2 5980   1.382   1.359   3.132  0.5907 -0.1109 -0.7526
 1992TIP3   OH2 5981   5.789   5.955   0.314 -0.8000 -0.4789  0.0250
 1992TIP3    H1 5982   5.835   5.934   0.395  0.3557  0.9155 -0.2312
 1992TIP3    H2 5983   5.714   5.896   0.314 -0.3824 -1.0878  1.6969
 1993TIP3   OH2 5984   3.944   2.940   3.450 -0.1072  0.6354 -0.0630
 1993TIP3    H1 5985   3.987   2.995   3.384  1.4666  0.9208  1.1364
 1993TIP3    H2 5986   3.896   2.875   3.399 -1.5751  2.7217 -1.5151
 1994TIP3   OH2 5987   2.086   1.449   0.774 -0.5773  0.2538 -0.2663
 1994TIP3    H1 5988   2.074   1.357   0.797 -0.2925  0.0599 -0.8683
 1994TIP3    H2 5989   2.000   1.488   0.788 -0.2875  0.2852  1.6744
 1995TIP3   OH2 5990   2.552   3.211   1.533 -0.7475  0.8454  0.2959
 1995TIP3    H1 5991   2.520   3.210   1.443  0.1146  0.6093 -0.0137
 1995TIP3    H2 5992   2.625   3.273   1.533 -0.6194  0.7058  0.7881
 1996TIP3   OH2 5993   2.994   4.255   3.529 -0.0240 -0.0318 -0.4442
 1996TIP3    H1 5994   3.002   4.190   3.599 -1.7693  1.2174  0.9952
 1996TIP3    H2 5995   3.038   4.214   3.454  1.7817 -1.4822  1.2927
 1997TIP3   OH2 5996   1.822   2.465   0.274  0.7256 -0.0969 -0.2139
 1997TIP3    H1 5997   1.826   2.558   0.296  1.0109 -0.4343  1.2856
 1997TIP3    H2 5998   1.729   2.444   0.273  0.5401  0.5545 -2.3332
 1998TIP3   OH2 5999   3.611   5.263   1.528 -0.2871 -0.0878  0.4082
 1998TIP3    H1 6000   3.659   5.230   1.605  0.9929  0.4536 -0.1289
 1998TIP3    H2 6001   3.549   5.326   1.564  1.1440  1.0820  0.9185
 1999TIP3   OH2 6002   1.016   1.984   1.201 -0.8951 -0.1121  0.0779
 1999TIP3    H1 6003   1.019   2.056   1.138 -1.6974 -1.4650 -1.5625
 1999TIP3    H2 6004   1.107   1.973   1.229 -0.1652 -0.7278 -2.3421
 2000TIP3   OH2 6005   5.542   4.296   3.473 -0.9351  0.0687 -0.1416
 2000TIP3    H1 6006   5.581   4.382   3.463 -1.1851  0.2349  0.2914
 2000TIP3    H2 6007   5.541   4.260   3.384  0.1098  0.0890 -0.1763
 2001TIP3   OH2 6008   6.145   1.929   0.648 -0.1505 -0.2488 -0.1237
 2001TIP3    H1 6009   6.091   1.860   0.608 -2.3205  1.7981 -1.0021
 2001TIP3    H2 6010   6.190   1.969   0.574 -0.7759  0.7584  0.0195
 2002TIP3   OH2 6011   2.311   0.354   1.742 -0.0141  0.4557  0.1936
 2002TIP3    H1 6012   2.246   0.289   1.716  0.5785  0.1672 -0.5690
 2002TIP3    H2 6013   2.319   0.343   1.837 -0.6732  0.1227  0.2148
 2003TIP3   OH2 6014   4.718   1.134   4.785 -0.6413 -0.2191 -0.2405
 2003TIP3    H1 6015   4.641   1.172   4.745 -0.5631  0.1159 -0.0755
 2003TIP3    H2 6016   4.792   1.181   4.746 -0.6187  1.6315  1.8070
 2004TIP3   OH2 6017   4.397   5.369   4.263 -0.1563 -0.2546 -0.1359
 2004TIP3    H1 6018   4.371   5.295   4.208  0.9966 -1.0919  0.4000
 2004TIP3    H2 6019   4.469   5.411   4.214  0.0312 -0.2496  0.1402
 2005TIP3   OH2 6020   2.310   5.858   3.911  0.0664 -0.3691  0.1789
 2005TIP3    H1 6021   2.262   5.937   3.937  0.8240 -0.4001  1.8201
 2005TIP3    H2 6022   2.244   5.789   3.910 -0.6992  0.3098 -1.7203
 2006TIP3   OH2 6023   1.468   2.939   4.446 -0.4547 -0.5767 -0.1284
 2006TIP3    H1 6024   1.428   2.879   4.384  0.3942 -0.1295 -1.1355
 2006TIP3    H2 6025   1.460   3.025   4.405  0.4941 -0.3315  0.1744
 2007TIP3   OH2 6026   3.695   2.826   0.289  0.3463  0.1770  0.2630
 2007TIP3    H1 6027   3.600   2.815   0.297  0.5973 -2.5156  0.4479
 2007TIP3    H2 6028   3.719   2.880   0.364 -0.7707 -1.3490  1.8008
 2008TIP3   OH2 6029   3.547   5.363   0.615  0.1986 -1.0575  0.4470
 2008TIP3    H1 6030   3.476   5.322   0.665 -0.8200  0.3925  0.2726
 2008TIP3    H2 6031   3.503   5.431   0.564  1.2763 -2.0506 -1.9651
 2009TIP3   OH2 6032   0.878   5.055   4.401  0.0259  0.5690  0.1817
 2009TIP3    H1 6033   0.971   5.069   4.419 -0.2222  1.9137  0.5555
 2009TIP3    H2 6034   0.873   5.043   4.306  0.7074 -0.7217  0.3047
 2010TIP3   OH2 6035   0.160   4.310   1.929  0.3953 -0.4326 -0.0690
 2010TIP3    H1 6036   0.071   4.340   1.948  0.1504 -2.2805  2.1873
 2010TIP3    H2 6037   0.149   4.219   1.902  1.5446 -0.4623 -0.4690
 2011TIP3   OH2 6038   5.140   0.428   0.352 -0.1065  0.3739 -0.5364
 2011TIP3    H1 6039   5.091   0.386   0.281  1.1756  0.2614 -1.3756
 2011TIP3    H2 6040   5.231   0.407   0.334  0.2434  0.2566  1.2184
 2012TIP3   OH2 6041   5.857   0.411   0.078  0.2821 -0.0514  0.1730
 2012TIP3    H1 6042   5.923   0.391   0.011 -1.3186 -0.1186 -1.4612
 2012TIP3    H2 6043   5.908   0.432   0.156  2.2168 -1.9585 -0.4611
 2013TIP3   OH2 6044   5.282   3.810   0.793 -0.5088 -0.6687  0.5107
 2013TIP3    H1 6045   5.224   3.745   0.833 -1.9536 -0.1669 -0.6544
 2013TIP3    H2 6046   5.282   3.884   0.853 -2.4689 -0.0113 -0.2133
 2014TIP3   OH2 6047   1.453   4.840   2.490  0.0617 -0.6974  0.0385
 2014TIP3    H1 6048   1.385   4.799   2.543  0.8184 -1.7829  0.2061
 2014TIP3    H2 6049   1.500   4.897   2.550 -0.6118 -0.0278 -0.0525
 2015TIP3   OH2 6050   5.383   0.031   3.280  0.9726  0.1129 -0.6313
 2015TIP3    H1 6051   5.314   0.068   3.335  2.5629  0.2361  1.4220
 2015TIP3    H2 6052   5.348  -0.053   3.249 -0.8669  1.1340 -1.4477
 2016TIP3   OH2 6053   2.034   2.736   1.723  0.4817  0.2525  0.4048
 2016TIP3    H1 6054   1.993   2.667   1.774 -0.4547  0.9649  0.6491
 2016TIP3    H2 6055   2.014   2.713   1.632  1.6538 -0.7061  0.3734
 2017TIP3   OH2 6056   3.426   4.895   1.849 -0.2610 -0.0779 -0.0730
 2017TIP3    H1 6057   3.374   4.826   1.890 -0.8855  0.4117 -0.0337
 2017TIP3    H2 6058   3.400   4.975   1.895 -0.4068  0.3589 -0.9011
 2018TIP3   OH2 6059   0.821   3.812   3.272  0.3543 -0.1387  0.5259
 2018TIP3    H1 6060   0.851   3.892   3.315 -1.7897  0.5201  0.9257
 2018TIP3    H2 6061   0.865   3.812   3.187  1.4928  0.6870  1.0905
 2019TIP3   OH2 6062   2.207   2.113   3.419 -0.1284 -0.3413 -0.3695
 2019TIP3    H1 6063   2.184   2.139   3.509 -1.1178 -1.5495 -0.2478
 2019TIP3    H2 6064   2.268   2.040   3.430 -0.3239 -0.5539 -0.6664
 2020TIP3   OH2 6065   2.317   5.772   2.347 -0.4583  0.8960 -0.1802
 2020TIP3    H1 6066   2.405   5.795   2.378 -0.7785  1.8197  0.0828
 2020TIP3    H2 6067   2.332   5.716   2.271  0.3553  1.0592 -0.1513
 2021TIP3   OH2 6068   6.078   4.037   1.918 -0.6882  0.2539  0.5161
 2021TIP3    H1 6069   6.021   4.102   1.960 -1.8308 -0.8959  0.8371
 2021TIP3    H2 6070   6.057   4.043   1.825 -2.3042 -1.0075  0.7607
 2022TIP3   OH2 6071   4.330   1.689   0.405 -0.5513  0.3498  0.2431
 2022TIP3    H1 6072   4.367   1.600   0.409 -0.6529  0.3007  0.1091
 2022TIP3    H2 6073   4.290   1.702   0.491 -1.0352  0.0467  0.0695
 2023TIP3   OH2 6074   5.817   5.069   2.618  0.8799  0.0934 -0.5272
 2023TIP3    H1 6075   5.781   5.150   2.654  2.2351  0.5913 -0.2481
 2023TIP3    H2 6076   5.740   5.016   2.597  0.0151  0.4605  1.5160
 2024TIP3   OH2 6077   0.635   1.795   0.027 -0.2714  0.4284  0.2399
 2024TIP3    H1 6078   0.613   1.885   0.005  0.3689  0.5231 -0.0630
 2024TIP3    H2 6079   0.642   1.794   0.122 -2.9726  0.0403  0.4913
 2025TIP3   OH2 6080   0.197   1.356   0.034 -0.2777 -0.1023  0.6177
 2025TIP3    H1 6081   0.261   1.308   0.085  0.6695  0.1929 -0.2512
 2025TIP3    H2 6082   0.223   1.340  -0.057 -1.0146  0.6010  0.2750
 2026TIP3   OH2 6083   6.061   3.127   2.188  0.2410  0.2677 -0.8723
 2026TIP3    H1 6084   6.131   3.069   2.159  0.7430  0.3975  0.0440
 2026TIP3    H2 6085   6.104   3.211   2.203 -0.3476  0.6933 -1.4930
 2027TIP3   OH2 6086   2.238   5.495   2.819  0.5221  0.0262  0.1957
 2027TIP3    H1 6087   2.260   5.522   2.730 -0.0102 -0.5641 -0.1228
 2027TIP3    H2 6088   2.316   5.447   2.849 -0.1757 -1.8236 -0.8290
 2028TIP3   OH2 6089   3.811   1.291   1.916 -0.5738  0.6880 -0.3054
 2028TIP3    H1 6090   3.861   1.302   1.835 -0.1015 -0.1547 -0.1422
 2028TIP3    H2 6091   3.748   1.221   1.898  1.7117 -1.9190  0.9668
 2029TIP3   OH2 6092   6.155   2.476   1.891 -0.5901  0.0030  0.0254
 2029TIP3    H1 6093   6.169   2.397   1.840  1.5623  0.8256 -0.7433
 2029TIP3    H2 6094   6.138   2.544   1.826 -1.9827  0.2982  0.6564
 2030TIP3   OH2 6095   2.663   1.983   4.972 -0.0833  0.0246  0.1060
 2030TIP3    H1 6096   2.629   1.992   4.883  0.8810 -1.0810 -0.4079
 2030TIP3    H2 6097   2.619   1.905   5.006  1.1895 -0.8541 -0.2201
 2031TIP3   OH2 6098   1.616   4.954   0.166 -0.3426  0.0413  0.4575
 2031TIP3    H1 6099   1.693   4.905   0.195 -0.7931 -1.2732 -0.4549
 2031TIP3    H2 6100   1.640   5.046   0.178  0.6294 -0.3778  1.9852
 2032TIP3   OH2 6101   0.763   0.218   2.455 -0.7952  0.4682 -0.2699
 2032TIP3    H1 6102   0.777   0.215   2.550 -0.7769 -0.3241 -0.2873
 2032TIP3    H2 6103   0.737   0.129   2.432  0.2765  0.3643 -1.1678
 2033TIP3   OH2 6104   2.462   5.319   2.394 -0.3538 -0.1123  0.0540
 2033TIP3    H1 6105   2.461   5.331   2.299 -0.9254  0.2699  0.0986
 2033TIP3    H2 6106   2.420   5.399   2.428  0.5224  0.0991  0.6658
 2034TIP3   OH2 6107   1.594   5.263   0.545  0.3872 -0.1492 -0.1104
 2034TIP3    H1 6108   1.552   5.271   0.630  2.2072 -0.4557  0.8822
 2034TIP3    H2 6109   1.607   5.169   0.534 -0.8880 -0.2151 -1.3064
 2035TIP3   OH2 6110   3.993   1.755   3.913  0.3217  0.1724  0.5676
 2035TIP3    H1 6111   4.054   1.767   3.986  0.0493  0.8324  0.6947
 2035TIP3    H2 6112   3.989   1.660   3.901 -2.2768 -0.2977  3.7280
 2036TIP3   OH2 6113   4.493   4.965   0.245 -0.4381 -0.4030 -0.5745
 2036TIP3    H1 6114   4.400   4.970   0.225 -0.3286  1.2245 -0.8032
 2036TIP3    H2 6115   4.532   4.924   0.168 -0.6713  1.2376 -1.6181
 2037TIP3   OH2 6116   3.036   0.594   0.866  0.1023 -0.3703  0.0362
 2037TIP3    H1 6117   2.976   0.665   0.890 -1.0425 -1.3786  0.2198
 2037TIP3    H2 6118   3.021   0.581   0.772  1.0358  0.2749 -0.2195
 2038TIP3   OH2 6119   2.493   1.557   3.865 -0.0182 -0.0107  0.0619
 2038TIP3    H1 6120   2.444   1.582   3.944 -0.3064 -1.5846  0.4260
 2038TIP3    H2 6121   2.485   1.632   3.807  0.5955  1.3990  1.6940
 2039TIP3   OH2 6122   2.513   1.314   2.554  0.4491  0.2276  0.3891
 2039TIP3    H1 6123   2.549   1.226   2.542 -1.9277 -0.6917 -0.5111
 2039TIP3    H2 6124   2.516   1.328   2.649  0.0887 -1.1731  0.6308
 2040TIP3   OH2 6125   1.271   5.284   3.596 -0.6574  0.6970 -0.3860
 2040TIP3    H1 6126   1.211   5.215   3.626  0.0299  0.3567  0.2225
 2040TIP3    H2 6127   1.354   5.239   3.583 -0.7683  0.9476 -2.2485
 2041TIP3   OH2 6128   4.209   0.080   0.634 -0.0048 -0.1475  0.4953
 2041TIP3    H1 6129   4.154   0.032   0.573 -0.2286 -1.5159  1.7152
 2041TIP3    H2 6130   4.298   0.049   0.617  0.1300  0.5442 -0.0946
 2042TIP3   OH2 6131   2.699   3.308   4.004 -0.1800 -0.8110 -0.5490
 2042TIP3    H1 6132   2.700   3.218   4.035  1.4093 -0.3547  0.8487
 2042TIP3    H2 6133   2.783   3.320   3.962  0.3960  0.4947  0.8672
 2043TIP3   OH2 6134   2.835   1.298   1.488  0.7757 -0.0918  0.0196
 2043TIP3    H1 6135   2.900   1.312   1.557 -0.4659  0.7338  1.0622
 2043TIP3    H2 6136   2.842   1.377   1.433  1.2557 -0.4167 -0.4007
 2044TIP3   OH2 6137   6.244   6.014   5.098 -0.4300  0.2086  0.0802
 2044TIP3    H1 6138   6.243   5.925   5.063  2.2229  0.1738 -0.1607
 2044TIP3    H2 6139   6.240   6.003   5.193 -0.2358 -0.1669  0.0471
 2045TIP3   OH2 6140   0.418   2.138   1.046 -0.1235  0.0437  0.1515
 2045TIP3    H1 6141   0.363   2.075   0.999 -0.3140 -0.2875  0.8095
 2045TIP3    H2 6142   0.484   2.164   0.982  0.4689 -1.4545  0.0924
 2046TIP3   OH2 6143   0.877   5.272   0.794 -0.3351 -0.2514  0.2969
 2046TIP3    H1 6144   0.795   5.226   0.777 -0.7350  0.3402  0.5626
 2046TIP3    H2 6145   0.849   5.355   0.834  0.3343  0.4473 -0.6462
 2047TIP3   OH2 6146   4.466   3.263   3.954  0.2612  0.7338  0.4486
 2047TIP3    H1 6147   4.519   3.303   3.884  1.2664 -0.9209  0.2062
 2047TIP3    H2 6148   4.479   3.321   4.029 -0.3552  2.2282 -0.5334
 2048TIP3   OH2 6149   3.323   1.645   3.039  0.3302  0.1485 -0.1065
 2048TIP3    H1 6150   3.361   1.715   3.092  0.3305 -0.6758  1.0312
 2048TIP3    H2 6151   3.296   1.687   2.958 -3.1288  2.3163  1.9375
 2049TIP3   OH2 6152  -0.003   4.591   4.903  0.3781 -0.5519  0.4594
 2049TIP3    H1 6153  -0.006   4.638   4.986  0.7126 -0.8692  0.6538
 2049TIP3    H2 6154   0.012   4.659   4.837 -0.4100 -0.2327  0.5906
 2050TIP3   OH2 6155   0.929   1.398   4.491 -0.1280  0.7518  0.5175
 2050TIP3    H1 6156   0.911   1.329   4.428  0.7021  2.7237 -2.0566
 2050TIP3    H2 6157   1.007   1.368   4.538  0.4522  0.0767 -0.8202
 2051TIP3   OH2 6158   2.223   3.102   3.880 -0.2564  0.0470  0.5312
 2051TIP3    H1 6159   2.290   3.076   3.944  0.2628 -0.5031 -0.2204
 2051TIP3    H2 6160   2.268   3.098   3.795 -1.3992 -0.9203 -0.0518
 2052TIP3   OH2 6161   5.168   0.750   4.215 -0.2164 -0.4060  0.2531
 2052TIP3    H1 6162   5.104   0.690   4.177 -1.2354  0.3357  0.7566
 2052TIP3    H2 6163   5.150   0.749   4.309 -0.9057  1.3748  0.1886
 2053TIP3   OH2 6164   3.767   4.946   2.832 -0.1359  0.4500  0.8747
 2053TIP3    H1 6165   3.705   4.876   2.851 -0.9666  1.3720  1.7201
 2053TIP3    H2 6166   3.759   5.006   2.906  0.5170  1.4568  0.1603
 2054TIP3   OH2 6167   1.061   4.823   4.575 -0.3418  0.4778  0.1793
 2054TIP3    H1 6168   1.033   4.900   4.625 -0.0973  0.2800  0.6262
 2054TIP3    H2 6169   1.154   4.814   4.594  0.0001  1.0035 -1.1407
 2055TIP3   OH2 6170   2.587   2.462   1.598 -0.0345 -0.5535 -0.1477
 2055TIP3    H1 6171   2.628   2.415   1.526  0.3335 -0.3460 -0.0767
 2055TIP3    H2 6172   2.617   2.417   1.677 -1.4206 -1.5557 -0.1620
 2056TIP3   OH2 6173   2.423   0.186   3.569  0.3767 -0.1794 -0.4409
 2056TIP3    H1 6174   2.490   0.185   3.501  1.3506 -0.6865  0.4954
 2056TIP3    H2 6175   2.385   0.098   3.566 -1.7296  0.7084 -2.3436
 2057TIP3   OH2 6176   3.187   5.407   4.040 -0.0239  0.4497  0.1083
 2057TIP3    H1 6177   3.259   5.358   4.079 -0.7140 -0.3070  0.4595
 2057TIP3    H2 6178   3.199   5.497   4.071  0.9194  0.3850 -0.0652
 2058TIP3   OH2 6179   6.077   0.584   5.156 -0.1549 -0.2147  0.0510
 2058TIP3    H1 6180   6.104   0.493   5.171 -1.1318 -0.2170  2.2713
 2058TIP3    H2 6181   6.154   0.636   5.178 -0.0190 -0.4534  0.1442
 2059TIP3   OH2 6182   3.140   4.937   3.246  0.0656 -0.3616 -0.6432
 2059TIP3    H1 6183   3.103   4.905   3.328 -2.0996  1.4042 -0.8469
 2059TIP3    H2 6184   3.227   4.970   3.271 -0.0395 -1.0025  0.6680
 2060TIP3   OH2 6185   0.890   4.592   3.363  0.3131  0.2989 -0.9160
 2060TIP3    H1 6186   0.945   4.609   3.439 -1.5519 -1.1283  0.8489
 2060TIP3    H2 6187   0.924   4.511   3.326  0.3763  0.2736 -0.8021
 2061TIP3   OH2 6188   2.404   1.086   0.196  0.1588 -0.7873 -0.1268
 2061TIP3    H1 6189   2.492   1.100   0.230 -0.6649  0.4110  1.6045
 2061TIP3    H2 6190   2.362   1.172   0.199 -1.1120 -1.3472 -0.8251
 2062TIP3   OH2 6191   2.704   4.366   0.581  0.3865 -0.1456 -0.1393
 2062TIP3    H1 6192   2.738   4.278   0.562 -0.1409 -0.3060 -0.3754
 2062TIP3    H2 6193   2.760   4.399   0.650 -0.8239 -1.5945  1.6484
 2063TIP3   OH2 6194   2.422   1.986   2.470 -0.6683  0.5260 -0.0359
 2063TIP3    H1 6195   2.415   2.058   2.407 -0.1188  1.0103  0.4527
 2063TIP3    H2 6196   2.417   2.027   2.556  0.7844  0.1248  0.2686
 2064TIP3   OH2 6197   4.186   4.907   1.907  0.0505  0.1197 -0.2592
 2064TIP3    H1 6198   4.147   4.990   1.880  2.9725  0.8373 -2.9302
 2064TIP3    H2 6199   4.128   4.840   1.872  0.2166  1.1176 -2.6415
 2065TIP3   OH2 6200   1.402   1.260   1.258  0.1358  0.3692 -0.5536
 2065TIP3    H1 6201   1.435   1.185   1.210 -0.6646  0.7250 -1.7080
 2065TIP3    H2 6202   1.364   1.317   1.191 -0.1301  1.3541  0.3960
 2066TIP3   OH2 6203   3.766   3.607   1.105 -0.0221  0.5088 -0.3993
 2066TIP3    H1 6204   3.850   3.635   1.071 -0.9392  1.0907 -2.3040
 2066TIP3    H2 6205   3.714   3.584   1.028 -1.3942 -0.4963  0.7515
 2067TIP3   OH2 6206   3.105   5.623   1.964 -0.4131 -0.1713  0.4700
 2067TIP3    H1 6207   3.049   5.677   2.019 -1.2061  0.4059 -0.8569
 2067TIP3    H2 6208   3.174   5.592   2.023 -1.4057  0.1429  1.8443
 2068TIP3   OH2 6209   2.911   1.204   2.145  0.6748 -0.1752 -0.9830
 2068TIP3    H1 6210   2.934   1.297   2.136  1.9393 -0.3797 -0.0974
 2068TIP3    H2 6211   2.825   1.205   2.188  1.4128  0.6043  0.5637
 2069TIP3   OH2 6212   4.101   3.008   0.183  0.0910 -0.0279  0.1835
 2069TIP3    H1 6213   4.167   3.059   0.229  0.5061  0.9676 -1.4049
 2069TIP3    H2 6214   4.080   2.936   0.242  3.7385 -1.3085  0.1863
 2070TIP3   OH2 6215   4.335   3.228   3.234 -0.3942  0.2803  0.8785
 2070TIP3    H1 6216   4.393   3.164   3.274 -0.9272 -0.3857  0.5962
 2070TIP3    H2 6217   4.383   3.259   3.157  0.1714  0.7682  1.4200
 2071TIP3   OH2 6218   4.712   1.193   2.724 -0.3604 -0.6932 -0.2469
 2071TIP3    H1 6219   4.709   1.283   2.691 -1.7686 -0.5227  0.3065
 2071TIP3    H2 6220   4.708   1.138   2.646 -0.5489 -0.2877 -0.5221
 2072TIP3   OH2 6221   4.764   1.019   2.508  0.0647 -0.0227 -0.4623
 2072TIP3    H1 6222   4.724   0.933   2.498 -0.3407  0.3256 -2.1896
 2072TIP3    H2 6223   4.798   1.040   2.421  0.5880  1.3571  0.0416
 2073TIP3   OH2 6224   2.474   5.648   4.744 -0.2384  0.2806  0.0693
 2073TIP3    H1 6225   2.395   5.628   4.693  0.8110 -2.4956 -0.6393
 2073TIP3    H2 6226   2.545   5.604   4.697  1.0605 -0.9806  2.9572
 2074TIP3   OH2 6227   2.755   5.530   0.349 -0.0705 -0.0597 -0.0510
 2074TIP3    H1 6228   2.735   5.436   0.346 -0.7172  0.0890 -1.3529
 2074TIP3    H2 6229   2.670   5.572   0.354  0.1971  0.4799  0.0095
 2075TIP3   OH2 6230   3.679   3.404   2.498  0.3043  0.6772 -0.6365
 2075TIP3    H1 6231   3.769   3.409   2.530 -0.0651 -1.7526  1.0940
 2075TIP3    H2 6232   3.628   3.377   2.575 -1.7333  0.9116 -1.8301
 2076TIP3   OH2 6233   1.590   4.747   4.490  0.4937  0.0951 -0.8345
 2076TIP3    H1 6234   1.559   4.663   4.524  1.9587  0.2852  1.1128
 2076TIP3    H2 6235   1.525   4.810   4.520  0.5055 -0.0641 -0.4663
 2077TIP3   OH2 6236   2.184   2.970   1.631 -0.0216  0.0031  0.6552
 2077TIP3    H1 6237   2.130   2.918   1.691 -0.2898  0.6622  0.9868
 2077TIP3    H2 6238   2.239   2.905   1.587 -0.3485 -0.5659  1.0715
 2078TIP3   OH2 6239   1.312   5.343   1.062  0.0156 -0.1970 -0.2910
 2078TIP3    H1 6240   1.260   5.395   1.001 -0.4408  1.2172  1.2372
 2078TIP3    H2 6241   1.390   5.318   1.013 -0.7007  0.2198 -1.6830
 2079TIP3   OH2 6242   5.394   3.551   3.537  0.3662  0.1986  0.2812
 2079TIP3    H1 6243   5.397   3.518   3.446 -0.8336  0.2020  0.2185
 2079TIP3    H2 6244   5.318   3.609   3.538  0.8477  0.8186  1.0998
 2080TIP3   OH2 6245   2.015   1.365   3.912  0.4127  0.0309 -0.0864
 2080TIP3    H1 6246   2.065   1.306   3.967  2.3431  1.7205  0.0697
 2080TIP3    H2 6247   2.080   1.414   3.862 -1.1423  1.1438 -1.1482
 2081TIP3   OH2 6248   6.323   5.459   3.326  0.1928 -0.1901 -0.6079
 2081TIP3    H1 6249   6.299   5.444   3.418  0.0033  1.7154 -0.2950
 2081TIP3    H2 6250   6.386   5.531   3.329 -2.4513  2.4400 -2.1001
 2082TIP3   OH2 6251   4.169   2.358   1.622  0.0249  0.2029 -0.1159
 2082TIP3    H1 6252   4.166   2.453   1.638  0.8155 -0.2727  4.1158
 2082TIP3    H2 6253   4.263   2.337   1.620 -0.1450 -0.5213 -0.6941
 2083TIP3   OH2 6254   5.423   4.514   5.143 -0.0768  0.2351 -0.1280
 2083TIP3    H1 6255   5.455   4.598   5.176  0.9877  0.5254 -1.7445
 2083TIP3    H2 6256   5.328   4.520   5.149  0.0367  0.8164  1.4483
 2084TIP3   OH2 6257   4.064   1.402   5.088  0.2943 -0.4354 -0.0560
 2084TIP3    H1 6258   3.991   1.341   5.088  0.3749 -0.5798  1.7666
 2084TIP3    H2 6259   4.137   1.353   5.126  0.9315  0.1733 -0.4636
 2085TIP3   OH2 6260   2.114   0.618   2.068  0.4375 -0.0910  0.2801
 2085TIP3    H1 6261   2.067   0.656   1.995 -2.8398 -0.7671  1.8732
 2085TIP3    H2 6262   2.113   0.523   2.051  0.4526 -0.1840  0.7730
 2086TIP3   OH2 6263   0.667   0.344   4.309  0.8551 -0.7141  0.1848
 2086TIP3    H1 6264   0.602   0.326   4.377  0.2921  2.5219  0.6907
 2086TIP3    H2 6265   0.648   0.281   4.240 -1.3225 -1.3758  1.2953
 2087TIP3   OH2 6266   3.909   5.397   3.151 -1.1865  0.2179  0.5407
 2087TIP3    H1 6267   3.918   5.332   3.082  3.9103  1.2544 -0.1314
 2087TIP3    H2 6268   3.925   5.349   3.232 -3.3576 -0.2906  0.7290
 2088TIP3   OH2 6269   1.150   2.486   4.398  0.3766  0.3876  0.4424
 2088TIP3    H1 6270   1.133   2.540   4.475 -0.7162 -0.3347  0.7272
 2088TIP3    H2 6271   1.123   2.398   4.425  0.5544  0.0202 -0.5674
 2089TIP3   OH2 6272   1.294   5.173   1.529 -0.2833 -0.7094  0.1756
 2089TIP3    H1 6273   1.334   5.173   1.616  0.5551 -2.6631 -0.1595
 2089TIP3    H2 6274   1.353   5.226   1.475 -0.8927  0.6388  0.8165
 2090TIP3   OH2 6275   0.507   1.094   3.244 -0.3577  0.6357 -0.6370
 2090TIP3    H1 6276   0.494   1.079   3.150 -2.5447  1.8885 -0.5921
 2090TIP3    H2 6277   0.513   1.189   3.253 -1.7556  0.6395  0.6315
 2091TIP3   OH2 6278   4.729   3.719   0.971 -0.3639  0.5399 -0.1887
 2091TIP3    H1 6279   4.662   3.780   1.002 -0.0456  1.6390 -1.5679
 2091TIP3    H2 6280   4.712   3.711   0.877 -0.6078 -1.7933 -0.0075
 2092TIP3   OH2 6281   0.838   1.098   2.859 -0.1598  0.2378 -0.4796
 2092TIP3    H1 6282   0.903   1.091   2.788 -0.7708  0.4893 -1.0711
 2092TIP3    H2 6283   0.831   1.009   2.893 -0.7003 -0.1324 -1.4995
 2093TIP3   OH2 6284   1.203   3.313   1.184  0.2224  0.0657  0.4013
 2093TIP3    H1 6285   1.249   3.384   1.139  0.5458 -1.0535 -1.0924
 2093TIP3    H2 6286   1.259   3.290   1.258  1.1507 -0.0157 -0.3111
 2094TIP3   OH2 6287   3.322   2.257   4.429 -0.1779  0.2751  0.4130
 2094TIP3    H1 6288   3.365   2.342   4.432  0.4541 -0.0164 -0.0291
 2094TIP3    H2 6289   3.385   2.200   4.385 -0.9640 -0.2062 -0.1226
 2095TIP3   OH2 6290   2.621   4.498   3.262  0.7075 -0.2766 -0.1535
 2095TIP3    H1 6291   2.670   4.476   3.341  0.6566  0.5814  0.1203
 2095TIP3    H2 6292   2.560   4.566   3.289 -1.5016 -2.1104 -0.2063
 2096TIP3   OH2 6293   5.536   4.300   1.545  0.1552  0.0773 -0.5600
 2096TIP3    H1 6294   5.522   4.315   1.451 -1.0479  0.8621 -0.2806
 2096TIP3    H2 6295   5.459   4.251   1.573  1.4593 -1.9774 -0.3495
 2097TIP3   OH2 6296   3.615   1.287   1.296 -0.1242 -0.0489  0.1338
 2097TIP3    H1 6297   3.634   1.310   1.205 -0.9268  0.3056  0.0501
 2097TIP3    H2 6298   3.625   1.369   1.344 -1.1661  0.0958  0.1257
 2098TIP3   OH2 6299   2.399   1.955   3.303  0.1323 -0.6337 -0.0715
 2098TIP3    H1 6300   2.340   1.973   3.230  0.2556  2.2807  0.4194
 2098TIP3    H2 6301   2.485   1.942   3.263  0.0605  0.2115 -0.5283
 2099TIP3   OH2 6302   0.975   3.031   5.095  0.1469 -0.3029  0.8317
 2099TIP3    H1 6303   0.943   2.941   5.098 -0.8920 -0.0065 -0.2245
 2099TIP3    H2 6304   1.070   3.023   5.088  0.0663 -1.3159  0.7303
 2100TIP3   OH2 6305   2.911   3.537   4.777 -0.0496 -1.3724 -0.2562
 2100TIP3    H1 6306   2.897   3.466   4.839 -1.0142  0.4187  1.7152
 2100TIP3    H2 6307   2.823   3.572   4.761  0.6090  1.5845  1.7358
 2101TIP3   OH2 6308   0.131   5.388   3.844  0.1578  0.3011  0.2254
 2101TIP3    H1 6309   0.195   5.443   3.798  1.1288 -0.5202  0.5510
 2101TIP3    H2 6310   0.169   5.300   3.842 -1.7475 -0.5409 -0.9857
 2102TIP3   OH2 6311   5.902   1.735   0.352  0.5590 -0.6727  0.5246
 2102TIP3    H1 6312   5.924   1.696   0.436  0.1226 -0.5570  0.6917
 2102TIP3    H2 6313   5.844   1.808   0.373  0.2542 -0.7900  0.1074
 2103TIP3   OH2 6314   2.117   4.916   4.060  0.0052 -0.4870 -0.1471
 2103TIP3    H1 6315   2.069   4.835   4.045  0.1893 -0.7353  0.5239
 2103TIP3    H2 6316   2.209   4.893   4.046  0.0921 -0.4933  0.4011
 2104TIP3   OH2 6317   0.822   0.186   4.087 -0.1342 -0.1276  0.0753
 2104TIP3    H1 6318   0.877   0.196   4.165  0.9281 -1.0418 -0.5283
 2104TIP3    H2 6319   0.863   0.115   4.037 -0.6565  0.5802 -1.4350
 2105TIP3   OH2 6320   2.164   4.890   0.205  0.9518 -0.2117 -0.0292
 2105TIP3    H1 6321   2.157   4.795   0.207  0.5538 -0.1780  0.2070
 2105TIP3    H2 6322   2.209   4.913   0.286  2.0173 -0.2721 -0.5837
 2106TIP3   OH2 6323   4.439   3.242   1.658 -0.8617 -0.2349  0.1156
 2106TIP3    H1 6324   4.479   3.236   1.744  0.2643 -1.2065 -0.4542
 2106TIP3    H2 6325   4.453   3.333   1.632  0.1625 -0.3184  0.3283
 2107TIP3   OH2 6326   5.214   4.061   3.235 -0.0288 -0.3774 -0.1247
 2107TIP3    H1 6327   5.176   3.976   3.214  1.2412 -0.4495 -2.5197
 2107TIP3    H2 6328   5.308   4.043   3.245  0.2059  0.6581 -0.3122
 2108TIP3   OH2 6329   3.766   1.752   2.404 -0.0565 -0.3094  0.3349
 2108TIP3    H1 6330   3.768   1.768   2.498 -2.1575  0.7642  0.2665
 2108TIP3    H2 6331   3.820   1.674   2.392  1.9656  0.6909  2.1195
 2109TIP3   OH2 6332   3.216   3.555   0.607  0.4453 -0.0499  0.1888
 2109TIP3    H1 6333   3.178   3.469   0.592 -1.5027  0.8034 -0.0086
 2109TIP3    H2 6334   3.200   3.603   0.526  2.2922  0.2658 -0.0337
 2110TIP3   OH2 6335   5.368   1.483   2.419  0.1387 -0.5305  0.0012
 2110TIP3    H1 6336   5.445   1.512   2.371 -0.1394  0.9068  0.3759
 2110TIP3    H2 6337   5.393   1.489   2.511 -0.3894 -0.1206  0.1232
 2111TIP3   OH2 6338   1.156   3.425   0.317 -0.4135  0.1353 -0.3708
 2111TIP3    H1 6339   1.222   3.452   0.380  1.1816  1.9991 -2.6486
 2111TIP3    H2 6340   1.072   3.445   0.359  0.5514  0.9080  1.2807
 2112TIP3   OH2 6341   2.090   1.074   3.656  0.0749 -0.1307 -0.5363
 2112TIP3    H1 6342   2.052   1.111   3.576 -0.5436  1.2436  0.3489
 2112TIP3    H2 6343   2.102   0.981   3.637  1.0220  0.3590 -2.6205
 2113TIP3   OH2 6344   4.079   2.355   4.044  0.2099  0.4932  0.1623
 2113TIP3    H1 6345   4.038   2.353   4.130 -1.7778  2.2007 -0.6609
 2113TIP3    H2 6346   4.173   2.350   4.062 -0.2006 -0.6477  2.3048
 2114TIP3   OH2 6347   2.534   5.048   4.429 -0.0130 -0.1919 -0.0594
 2114TIP3    H1 6348   2.469   5.077   4.365  1.1967  0.7370 -0.8975
 2114TIP3    H2 6349   2.612   5.029   4.378  0.3952 -1.2983  0.9389
 2115TIP3   OH2 6350   5.130   2.375   2.328  0.5221  0.0926 -0.4603
 2115TIP3    H1 6351   5.174   2.388   2.244 -1.7041 -1.5662 -2.0113
 2115TIP3    H2 6352   5.078   2.454   2.340 -0.6677 -0.4501 -1.7167
 2116TIP3   OH2 6353   0.801   3.868   1.567 -0.2514  0.5601  0.2347
 2116TIP3    H1 6354   0.715   3.838   1.596 -0.1501 -0.9292 -0.8822
 2116TIP3    H2 6355   0.839   3.792   1.522  1.0501  1.6384 -0.5668
 2117TIP3   OH2 6356   2.537   4.289   4.128  0.0128  0.2533  0.6561
 2117TIP3    H1 6357   2.565   4.252   4.212 -1.4973 -0.0347  1.0618
 2117TIP3    H2 6358   2.520   4.213   4.073  0.5788  0.4371  0.2168
 2118TIP3   OH2 6359   2.831   1.205   5.127 -0.1858 -0.0522  0.4317
 2118TIP3    H1 6360   2.868   1.263   5.060  0.2881 -0.0349  0.7057
 2118TIP3    H2 6361   2.907   1.170   5.173 -0.5205  0.2953  1.2689
 2119TIP3   OH2 6362   2.889   6.015   4.592 -0.9088  0.2254  0.6155
 2119TIP3    H1 6363   2.932   5.945   4.642 -1.2115  1.8692  3.4556
 2119TIP3    H2 6364   2.904   5.992   4.501  0.7172 -2.4532  1.4184
 2120TIP3   OH2 6365   1.651   0.219   1.686  0.2614  0.2200  0.4182
 2120TIP3    H1 6366   1.594   0.217   1.764 -0.2583  0.8426  0.0676
 2120TIP3    H2 6367   1.740   0.213   1.721 -0.0365 -1.6393  0.9262
 2121TIP3   OH2 6368   5.676   2.958   3.777 -0.4950 -0.3461  0.7832
 2121TIP3    H1 6369   5.719   3.042   3.761 -2.6747  0.5727 -0.7772
 2121TIP3    H2 6370   5.604   2.979   3.837 -1.9486 -0.7354 -0.7437
 2122TIP3   OH2 6371   3.698   0.274   0.090 -0.2618  0.0077 -0.6139
 2122TIP3    H1 6372   3.746   0.283   0.008 -0.5243 -2.1387 -1.0814
 2122TIP3    H2 6373   3.609   0.303   0.070 -0.5182 -1.1997 -1.3631
 2123TIP3   OH2 6374   2.024   2.918   0.719 -0.3650 -0.2651 -0.5638
 2123TIP3    H1 6375   2.028   2.825   0.696 -0.8469 -0.2577 -0.6857
 2123TIP3    H2 6376   2.114   2.948   0.712 -0.2030 -0.7271 -0.5158
 2124TIP3   OH2 6377   0.546   5.674   2.347 -0.3848 -0.7373 -0.1022
 2124TIP3    H1 6378   0.459   5.654   2.310 -0.3879  0.2279 -0.6453
 2124TIP3    H2 6379   0.599   5.598   2.324 -0.8958 -1.0159 -0.4037
 2125TIP3   OH2 6380   5.145   3.960   4.405  0.5603 -0.5915 -0.1207
 2125TIP3    H1 6381   5.065   3.976   4.456  0.7039 -1.5054  0.4087
 2125TIP3    H2 6382   5.139   4.021   4.331 -0.5565 -0.5440 -0.0060
 2126TIP3   OH2 6383   0.729   4.754   4.092  0.4719  0.3131 -0.5273
 2126TIP3    H1 6384   0.693   4.667   4.075 -1.4758  1.2965 -1.8020
 2126TIP3    H2 6385   0.678   4.813   4.036  0.1870  2.5914  1.8988
 2127TIP3   OH2 6386   6.017   3.427   2.892  1.1881  0.4806 -0.3585
 2127TIP3    H1 6387   6.024   3.395   2.982 -0.3097  0.9744 -0.0480
 2127TIP3    H2 6388   5.997   3.520   2.900  3.5407  1.1438 -1.2471
 2128TIP3   OH2 6389   5.267   3.750   3.337 -0.7038  0.4561 -0.3186
 2128TIP3    H1 6390   5.281   3.666   3.293 -0.7734  0.7986 -1.0033
 2128TIP3    H2 6391   5.173   3.766   3.331 -0.8721  0.0277  0.8548
 2129TIP3   OH2 6392   3.912   4.711   4.529 -0.7247  0.1778  0.5843
 2129TIP3    H1 6393   3.921   4.685   4.620  0.3965 -0.7224  0.2384
 2129TIP3    H2 6394   3.982   4.664   4.483 -1.4038  0.4323 -0.7752
 2130TIP3   OH2 6395   4.029   5.588   4.755  0.2339  0.4939 -0.5432
 2130TIP3    H1 6396   4.068   5.551   4.834 -2.2603 -1.2766  0.0090
 2130TIP3    H2 6397   4.094   5.574   4.686  1.5263 -0.0382  0.7423
 2131TIP3   OH2 6398   6.255   2.557   1.166  0.1168  0.0182  0.4626
 2131TIP3    H1 6399   6.336   2.531   1.211 -0.3286  0.2012  1.4130
 2131TIP3    H2 6400   6.275   2.548   1.073  1.9126  1.9521  0.5764
 2132TIP3   OH2 6401   1.287   3.444   2.207 -0.5115 -0.3790  0.4292
 2132TIP3    H1 6402   1.370   3.471   2.169 -1.6681  1.1073 -1.1367
 2132TIP3    H2 6403   1.282   3.350   2.190  0.4170 -0.3019 -0.2883
 2133TIP3   OH2 6404   2.636   3.964   3.159 -0.0249 -0.3805 -0.3673
 2133TIP3    H1 6405   2.603   4.049   3.190  0.6165 -0.5196  0.7542
 2133TIP3    H2 6406   2.611   3.902   3.227  3.1044 -0.3755  0.9888
 2134TIP3   OH2 6407   6.275   1.946   3.948  0.4489  0.2213  0.4327
 2134TIP3    H1 6408   6.212   1.949   4.020  2.3548 -1.9152  2.3448
 2134TIP3    H2 6409   6.263   2.029   3.903 -0.2273  2.1455  3.8050
 2135TIP3   OH2 6410   3.013   4.416   5.133 -0.4689  0.0082 -0.0341
 2135TIP3    H1 6411   2.997   4.495   5.185 -0.4672  1.4297 -2.0737
 2135TIP3    H2 6412   2.943   4.416   5.067  2.0829  0.9640 -2.9971
 2136TIP3   OH2 6413   1.594   4.959   1.908 -0.4087 -0.0151  0.0214
 2136TIP3    H1 6414   1.588   5.036   1.964  0.7795  0.3135 -0.2814
 2136TIP3    H2 6415   1.664   4.907   1.947 -0.0360 -0.1123 -0.7561
 2137TIP3   OH2 6416   2.257   2.226   1.511 -0.1166 -0.3934 -0.1598
 2137TIP3    H1 6417   2.167   2.250   1.491 -0.0227  0.4139  0.3476
 2137TIP3    H2 6418   2.297   2.209   1.426 -0.0002  1.9752 -0.6470
 2138TIP3   OH2 6419   0.847   1.552   4.728 -0.5415 -0.2702  0.4360
 2138TIP3    H1 6420   0.774   1.615   4.734  0.8824  1.9279 -2.4793
 2138TIP3    H2 6421   0.817   1.487   4.665 -0.2690  0.3206 -0.3298
 2139TIP3   OH2 6422   5.318   2.692   2.162 -0.1973  0.5576 -0.4612
 2139TIP3    H1 6423   5.226   2.716   2.159 -0.6569 -1.0692 -0.2914
 2139TIP3    H2 6424   5.327   2.625   2.094  0.9819  1.0536 -0.8231
 2140TIP3   OH2 6425   6.306   4.342   3.288 -0.5967  0.1798 -0.3859
 2140TIP3    H1 6426   6.215   4.364   3.270 -1.6440 -3.1663  0.0743
 2140TIP3    H2 6427   6.308   4.323   3.381  0.3838 -0.5537 -0.5400
 2141TIP3   OH2 6428   3.248   5.961   2.339  0.7507  0.3959  0.5134
 2141TIP3    H1 6429   3.333   5.924   2.361  0.5726 -0.2826  0.0807
 2141TIP3    H2 6430   3.256   5.985   2.247  0.0756 -0.8436  0.1112
 2142TIP3   OH2 6431   1.072   3.456   3.745 -0.1951  0.0686 -0.3309
 2142TIP3    H1 6432   1.157   3.421   3.717 -0.1980 -1.5670  1.4840
 2142TIP3    H2 6433   1.093   3.513   3.819 -0.6190  0.2545 -0.3526
 2143TIP3   OH2 6434   5.777   1.989   0.652  0.8988  0.5385 -0.1741
 2143TIP3    H1 6435   5.763   2.029   0.567  0.9760 -1.4942 -1.1946
 2143TIP3    H2 6436   5.726   1.908   0.650  2.7055 -0.7161  0.8046
 2144TIP3   OH2 6437   0.043   0.572   0.685 -0.0698 -0.5794 -0.2299
 2144TIP3    H1 6438   0.033   0.477   0.676 -0.9615 -0.6431  1.1159
 2144TIP3    H2 6439  -0.046   0.607   0.672  0.3704  0.1621 -1.4456
 2145TIP3   OH2 6440   1.241   1.838   3.334 -0.2128 -0.4519  0.1994
 2145TIP3    H1 6441   1.290   1.801   3.407  0.6377 -2.3421 -1.2373
 2145TIP3    H2 6442   1.254   1.932   3.342  0.7611 -0.6834  1.8433
 2146TIP3   OH2 6443   0.815   2.510   5.032 -0.2834  0.2744  0.1296
 2146TIP3    H1 6444   0.785   2.575   4.968  0.5137 -1.2162 -1.8542
 2146TIP3    H2 6445   0.750   2.440   5.027  0.8665 -0.7781 -0.6250
 2147TIP3   OH2 6446   5.493   5.163   3.361  0.6852  0.0097  0.1743
 2147TIP3    H1 6447   5.467   5.194   3.448 -0.9698  0.6670 -0.5123
 2147TIP3    H2 6448   5.537   5.238   3.321  1.2999 -0.2400  0.3641
 2148TIP3   OH2 6449   2.453   3.533   0.904 -0.3838  0.0683  0.1267
 2148TIP3    H1 6450   2.467   3.573   0.990  1.2831  1.4453 -0.7255
 2148TIP3    H2 6451   2.427   3.444   0.923 -1.7729  0.8305  2.0837
 2149TIP3   OH2 6452   4.661   3.490   1.931  0.1764  0.0666 -0.0259
 2149TIP3    H1 6453   4.591   3.426   1.942  0.2810  0.0646  0.6878
 2149TIP3    H2 6454   4.641   3.534   1.849 -0.0135 -0.7352 -0.4183
 2150TIP3   OH2 6455   0.381   1.426   3.161  0.0430  0.1285  0.4936
 2150TIP3    H1 6456   0.469   1.448   3.191  0.0292  0.8460  0.0305
 2150TIP3    H2 6457   0.346   1.508   3.126 -0.0528 -0.5965 -1.2162
 2151TIP3   OH2 6458   3.124   2.257   2.020  0.3749  0.0155 -0.3042
 2151TIP3    H1 6459   3.119   2.221   2.109 -0.8669  0.2881 -0.2430
 2151TIP3    H2 6460   3.096   2.347   2.029  0.8151  0.2187 -0.8945
 2152TIP3   OH2 6461   3.229   5.289   0.131  0.2691 -0.4479  0.1851
 2152TIP3    H1 6462   3.240   5.289   0.226  0.7848 -0.4197  0.1253
 2152TIP3    H2 6463   3.196   5.202   0.110  0.5171 -0.5789  0.3454
 2153TIP3   OH2 6464   3.725   0.114   3.514 -0.0260  0.3571  0.1205
 2153TIP3    H1 6465   3.821   0.111   3.518  0.0911 -2.2468 -2.0945
 2153TIP3    H2 6466   3.705   0.105   3.421 -2.4386  0.0655  0.6144
 2154TIP3   OH2 6467   5.967   4.407   4.595 -0.4448  0.6722 -0.3545
 2154TIP3    H1 6468   5.952   4.457   4.514 -2.6874 -0.1203 -0.5037
 2154TIP3    H2 6469   5.943   4.468   4.665 -0.0106  0.8565 -0.3652
 2155TIP3   OH2 6470   2.081   4.756   4.564  0.0232 -0.5304 -0.0793
 2155TIP3    H1 6471   2.150   4.734   4.626  0.2776 -1.8710 -0.8027
 2155TIP3    H2 6472   2.029   4.823   4.609  1.2080 -0.2170  0.8664
 2156TIP3   OH2 6473   3.917   2.597   1.237 -0.9065  0.0909  0.1868
 2156TIP3    H1 6474   3.898   2.547   1.317  0.9545  0.6100  1.0056
 2156TIP3    H2 6475   3.926   2.531   1.169  0.9356 -0.7018  1.1339
 2157TIP3   OH2 6476   5.572   5.582   4.867  0.7300  0.2455 -0.2112
 2157TIP3    H1 6477   5.576   5.487   4.867  0.9818  0.2543 -0.5236
 2157TIP3    H2 6478   5.658   5.610   4.897  0.1957  0.3696  1.3191
 2158TIP3   OH2 6479   6.211   1.232   1.197 -0.3060 -0.0914  0.1216
 2158TIP3    H1 6480   6.259   1.208   1.118 -0.8537 -1.7354  0.2509
 2158TIP3    H2 6481   6.121   1.244   1.168  0.2012  4.0889 -0.3338
 2159TIP3   OH2 6482   5.943   1.123   4.399 -0.0991  0.4034 -0.1637
 2159TIP3    H1 6483   5.853   1.156   4.397 -0.5174 -0.6862 -0.4181
 2159TIP3    H2 6484   5.972   1.138   4.489 -0.7384  0.2918  0.0663
 2160TIP3   OH2 6485   4.006   0.853   3.422  0.6401  0.0839  0.1851
 2160TIP3    H1 6486   3.935   0.816   3.369  0.9899  0.7563 -0.7743
 2160TIP3    H2 6487   4.002   0.947   3.404 -0.2442  0.5878  2.5794
 2161TIP3   OH2 6488   1.758   3.112   4.047 -0.4304  0.6403  0.7253
 2161TIP3    H1 6489   1.699   3.100   3.973 -0.9436  1.1489  1.0435
 2161TIP3    H2 6490   1.839   3.066   4.022 -0.5223  0.9926 -0.2253
 2162TIP3   OH2 6491   4.006   1.894   0.519  0.4652  0.1091 -0.0912
 2162TIP3    H1 6492   3.957   1.910   0.600  1.1051 -0.0493  0.3363
 2162TIP3    H2 6493   3.970   1.957   0.456 -1.9716 -1.5754 -0.5354
 2163TIP3   OH2 6494   5.849   4.300   3.279 -0.1159  0.6135  0.3696
 2163TIP3    H1 6495   5.807   4.362   3.339 -1.3542 -0.9642  1.2098
 2163TIP3    H2 6496   5.779   4.242   3.250  1.0130 -0.5110 -0.2478
 2164TIP3   OH2 6497   4.436   0.699   2.879  0.4831 -0.1301 -0.3983
 2164TIP3    H1 6498   4.383   0.696   2.799  1.7249 -0.2014 -1.2666
 2164TIP3    H2 6499   4.515   0.650   2.856  0.5954 -0.7142  1.1091
 2165TIP3   OH2 6500   1.807   2.901   1.838  0.1662  0.7929  0.4370
 2165TIP3    H1 6501   1.870   2.873   1.771  0.4045  1.3761  0.4142
 2165TIP3    H2 6502   1.847   2.876   1.921 -0.4715 -0.6268  0.3496
 2166TIP3   OH2 6503   1.830   2.135   2.399  0.3489  0.1062  0.0341
 2166TIP3    H1 6504   1.770   2.209   2.388  1.5676  1.9879  4.0489
 2166TIP3    H2 6505   1.773   2.061   2.418 -0.8267  1.0101  0.1843
 2167TIP3   OH2 6506   0.744   3.581   0.806  0.4153  0.7425  0.4948
 2167TIP3    H1 6507   0.745   3.515   0.874 -2.9012  0.6193  0.5592
 2167TIP3    H2 6508   0.729   3.664   0.852 -0.3400  0.8641  0.0403
 2168TIP3   OH2 6509   0.394   2.798   2.374  0.2640 -0.3690 -0.5053
 2168TIP3    H1 6510   0.355   2.883   2.394  3.7951  1.5989 -1.1342
 2168TIP3    H2 6511   0.420   2.762   2.459  0.9047  0.3432 -0.3946
 2169TIP3   OH2 6512   1.285   1.125   2.781 -0.0217  0.3311 -0.1537
 2169TIP3    H1 6513   1.283   1.184   2.857 -1.2731  0.3701 -0.1942
 2169TIP3    H2 6514   1.254   1.041   2.815  0.9794 -0.0997 -0.2764
 2170TIP3   OH2 6515   3.693   4.660   2.047 -0.3506  0.2848  0.1573
 2170TIP3    H1 6516   3.659   4.583   2.094  0.2832  0.6418  1.2311
 2170TIP3    H2 6517   3.621   4.723   2.051 -1.1854 -0.4966 -1.4345
 2171TIP3   OH2 6518   4.695   1.965   3.861 -0.0051  0.0764  0.2288
 2171TIP3    H1 6519   4.662   2.043   3.817  0.4278  1.1464  1.7370
 2171TIP3    H2 6520   4.726   1.908   3.789 -0.5039  1.1826 -0.8970
 2172TIP3   OH2 6521   4.837   1.911   4.513 -0.0657  0.6554 -0.1433
 2172TIP3    H1 6522   4.912   1.869   4.472 -0.6752 -1.1448  0.4878
 2172TIP3    H2 6523   4.859   1.914   4.606 -0.7052  0.2254  0.0289
 2173TIP3   OH2 6524   2.446   3.889   1.774 -0.1889 -0.0459  0.2754
 2173TIP3    H1 6525   2.527   3.934   1.798 -2.0826  2.3511  2.9267
 2173TIP3    H2 6526   2.405   3.869   1.858 -2.6825 -0.4934 -0.9695
 2174TIP3   OH2 6527   4.901   0.696   2.362  0.2918  0.0256 -0.0815
 2174TIP3    H1 6528   4.912   0.762   2.293  0.7897 -0.1765 -0.1996
 2174TIP3    H2 6529   4.814   0.714   2.398 -0.9394 -1.2059 -2.1888
 2175TIP3   OH2 6530   2.089   1.482   0.457  0.2122 -0.2184  0.0245
 2175TIP3    H1 6531   2.174   1.449   0.485 -0.3955  0.1922  2.5766
 2175TIP3    H2 6532   2.028   1.410   0.476 -0.0942 -0.4338 -1.5933
 2176TIP3   OH2 6533   3.659   4.694   4.391 -0.6992 -0.0252 -0.2385
 2176TIP3    H1 6534   3.642   4.622   4.452  0.7205 -1.1708 -1.1349
 2176TIP3    H2 6535   3.718   4.753   4.439 -1.6670  0.4536  0.4055
 2177TIP3   OH2 6536   0.803   0.948   1.076  0.5908  0.3864  0.3645
 2177TIP3    H1 6537   0.748   0.932   1.153 -0.6400 -1.1202 -0.7475
 2177TIP3    H2 6538   0.887   0.907   1.097 -0.4489 -2.0320  0.1067
 2178TIP3   OH2 6539   3.962   2.591   3.348  0.0147  0.4647 -0.1126
 2178TIP3    H1 6540   3.965   2.545   3.264 -2.1047  0.3332 -0.1648
 2178TIP3    H2 6541   3.973   2.521   3.413 -1.7685  0.0220 -0.2323
 2179TIP3   OH2 6542   3.730   5.561   2.981  0.0202 -0.2744 -0.3536
 2179TIP3    H1 6543   3.765   5.503   3.049  0.2773  1.0858  0.7323
 2179TIP3    H2 6544   3.807   5.593   2.935 -0.2030 -1.8597 -1.8982
 2180TIP3   OH2 6545   5.934   2.215   2.652 -0.5373  0.1854 -0.1367
 2180TIP3    H1 6546   5.874   2.269   2.704 -1.7248 -0.4202 -0.8333
 2180TIP3    H2 6547   5.959   2.272   2.579  1.1374  1.0382  1.0402
 2181TIP3   OH2 6548   2.337   4.918   2.104 -0.4164 -0.6663 -0.5280
 2181TIP3    H1 6549   2.272   4.847   2.106 -0.9988 -0.1271  0.4721
 2181TIP3    H2 6550   2.327   4.962   2.188  0.6133  0.0119 -0.7424
 2182TIP3   OH2 6551   5.380   3.197   3.998  0.0903 -0.3111  0.1059
 2182TIP3    H1 6552   5.453   3.208   3.936  0.5218  0.6800  0.7471
 2182TIP3    H2 6553   5.306   3.170   3.944  0.6864 -0.3504 -0.7132
 2183TIP3   OH2 6554   0.904   2.865   0.500 -0.2078 -0.2447  0.0618
 2183TIP3    H1 6555   0.853   2.826   0.570  1.4414 -0.7627  1.0453
 2183TIP3    H2 6556   0.965   2.924   0.544  0.5583 -0.2289 -0.9611
 2184TIP3   OH2 6557   2.637   1.221   1.662  0.3048  0.2614 -0.6476
 2184TIP3    H1 6558   2.647   1.310   1.696 -1.0402  0.1824  0.0281
 2184TIP3    H2 6559   2.696   1.218   1.587  2.5764  0.7953  0.9900
 2185TIP3   OH2 6560   3.672   5.569   4.698 -0.2660 -0.1790 -0.5394
 2185TIP3    H1 6561   3.695   5.652   4.656  0.5017  0.2967  0.7669
 2185TIP3    H2 6562   3.746   5.511   4.678 -0.4717 -0.3371 -0.8544
 2186TIP3   OH2 6563   2.805   2.159   4.040 -0.9723  0.6613 -0.5082
 2186TIP3    H1 6564   2.751   2.159   3.961 -1.8488 -0.0843  0.0824
 2186TIP3    H2 6565   2.762   2.098   4.100  0.6523 -0.1556 -0.1044
 2187TIP3   OH2 6566   0.333   3.273   0.968 -0.5512 -0.3724 -0.3065
 2187TIP3    H1 6567   0.317   3.337   1.038 -0.1861 -1.1993  0.5542
 2187TIP3    H2 6568   0.393   3.318   0.909  0.8031 -0.3546  1.0003
 2188TIP3   OH2 6569   1.416   5.169   1.766 -0.1435 -0.2101  0.1499
 2188TIP3    H1 6570   1.421   5.224   1.844  1.4033  0.5635 -0.4503
 2188TIP3    H2 6571   1.469   5.092   1.788  0.9430  0.3599 -0.3663
 2189TIP3   OH2 6572   4.689   0.643   4.306 -0.4454 -0.5269  0.4711
 2189TIP3    H1 6573   4.668   0.645   4.400 -0.5460 -0.1936  0.4433
 2189TIP3    H2 6574   4.662   0.556   4.278 -0.3263 -0.6649  0.7729
 2190TIP3   OH2 6575   2.501   3.678   1.130 -0.0314  0.1427 -0.4423
 2190TIP3    H1 6576   2.432   3.654   1.192 -1.0767  0.9385 -1.2468
 2190TIP3    H2 6577   2.546   3.751   1.172 -0.4083  0.3523 -0.3953
 2191TIP3   OH2 6578   1.413   1.486   1.659 -0.3033 -0.0234 -0.5278
 2191TIP3    H1 6579   1.359   1.560   1.686  0.1295 -0.3253  1.2674
 2191TIP3    H2 6580   1.503   1.517   1.669 -0.1258 -0.5280 -0.5311
 2192TIP3   OH2 6581   1.275   1.129   0.132 -0.0702  0.1502  0.8265
 2192TIP3    H1 6582   1.192   1.096   0.165  0.4113 -0.4135  1.5166
 2192TIP3    H2 6583   1.341   1.087   0.187  0.6973  0.1994 -0.0184
 2193TIP3   OH2 6584   5.361   1.298   1.043  0.0125  0.4385 -0.0857
 2193TIP3    H1 6585   5.338   1.316   0.952 -1.2414  1.5777  0.4216
 2193TIP3    H2 6586   5.398   1.381   1.075  2.6829 -0.6172 -0.1716
 2194TIP3   OH2 6587   5.888   4.894   2.048 -0.3607 -0.0710 -0.3343
 2194TIP3    H1 6588   5.796   4.877   2.034  0.2584 -1.3375 -3.6194
 2194TIP3    H2 6589   5.927   4.808   2.061  0.5689  0.3040 -0.5458
 2195TIP3   OH2 6590   1.971   5.705   2.828  0.1675 -0.2489 -0.1358
 2195TIP3    H1 6591   1.944   5.759   2.754 -0.7705 -0.0721  0.3180
 2195TIP3    H2 6592   1.979   5.767   2.901  0.9033 -0.4493 -0.0371
 2196TIP3   OH2 6593   4.008   5.118   0.755  0.0191 -0.4153  0.5589
 2196TIP3    H1 6594   3.963   5.166   0.824 -2.0002  0.6567 -1.3947
 2196TIP3    H2 6595   3.951   5.044   0.735 -1.0046  0.8929 -1.8672
 2197TIP3   OH2 6596   2.478   5.682   3.559 -0.2586  0.1293 -0.0562
 2197TIP3    H1 6597   2.544   5.642   3.503  0.0459  0.4420  0.0783
 2197TIP3    H2 6598   2.497   5.776   3.555 -0.5849  0.2049  0.1245
 2198TIP3   OH2 6599   4.954   1.139   0.203  0.0929 -0.0816  0.0362
 2198TIP3    H1 6600   5.041   1.099   0.198  1.2915  2.4561 -2.2173
 2198TIP3    H2 6601   4.893   1.069   0.178  1.8703 -1.0252 -1.9424
 2199TIP3   OH2 6602   4.427   4.613   4.906 -0.0387  0.0021  1.1562
 2199TIP3    H1 6603   4.397   4.526   4.928 -0.5824 -0.0226  0.3593
 2199TIP3    H2 6604   4.372   4.672   4.957  0.0075 -0.1075  1.3320
 2200TIP3   OH2 6605   2.261   1.938   3.028 -0.0123  0.4094 -0.4916
 2200TIP3    H1 6606   2.269   1.844   3.039 -0.7810  0.3009 -0.8362
 2200TIP3    H2 6607   2.177   1.951   2.984 -0.4611  1.3205  0.5704
 2201TIP3   OH2 6608   3.629   3.030   3.529 -0.5151  0.5610 -0.1818
 2201TIP3    H1 6609   3.717   3.065   3.510 -0.6048  1.4833  0.9309
 2201TIP3    H2 6610   3.577   3.108   3.549 -1.3222 -0.0607  0.1780
 2202TIP3   OH2 6611   5.850   3.807   0.095 -0.6463  0.5285 -0.5118
 2202TIP3    H1 6612   5.789   3.755   0.147 -2.0875  0.8033 -1.8776
 2202TIP3    H2 6613   5.934   3.797   0.141 -1.4397 -0.8138  0.7435
 2203TIP3   OH2 6614   5.648   2.169   1.782  0.3479 -0.2124 -0.0270
 2203TIP3    H1 6615   5.683   2.095   1.832 -0.6922 -0.7859 -0.1459
 2203TIP3    H2 6616   5.693   2.245   1.820  0.4056 -0.7539  1.0314
 2204TIP3   OH2 6617   1.772   3.094   3.013 -0.2336  0.1579 -0.4226
 2204TIP3    H1 6618   1.863   3.107   2.984  0.2016 -0.1269  0.7825
 2204TIP3    H2 6619   1.776   3.101   3.108 -1.3957 -0.3634 -0.3274
 2205TIP3   OH2 6620   4.887   0.206   5.100 -0.2009  0.4821 -0.3878
 2205TIP3    H1 6621   4.853   0.117   5.089  0.6645 -0.0641  1.1041
 2205TIP3    H2 6622   4.810   0.262   5.095 -1.0100 -0.5078  0.4291
 2206TIP3   OH2 6623   4.638   2.189   3.703 -0.2704 -0.3020 -0.1931
 2206TIP3    H1 6624   4.586   2.217   3.628 -0.6094 -2.7404 -0.9736
 2206TIP3    H2 6625   4.638   2.264   3.763 -4.1206  0.1024 -0.4431
 2207TIP3   OH2 6626   6.212   1.363   4.480  0.0502  0.1209  0.2125
 2207TIP3    H1 6627   6.118   1.377   4.469  0.1260 -0.8423 -2.3800
 2207TIP3    H2 6628   6.233   1.291   4.419  2.3667 -0.0737  1.1358
 2208TIP3   OH2 6629   3.632   0.909   0.607  0.6554  0.4384 -0.5722
 2208TIP3    H1 6630   3.661   0.882   0.520 -0.0092 -0.9661 -0.3896
 2208TIP3    H2 6631   3.676   0.847   0.666  0.0138  0.4899 -0.0282
 2209TIP3   OH2 6632   1.221   5.425   2.358  0.0407  0.2891  0.1087
 2209TIP3    H1 6633   1.154   5.389   2.417  0.5216  1.4034  1.4031
 2209TIP3    H2 6634   1.257   5.500   2.406  2.9997 -0.8914 -0.0506
 2210TIP3   OH2 6635   0.661   3.808   0.956  0.1891 -0.6326 -0.5059
 2210TIP3    H1 6636   0.749   3.819   0.991  0.7950  1.6856 -2.4595
 2210TIP3    H2 6637   0.610   3.878   0.997 -0.7424 -1.7828  0.3984
 2211TIP3   OH2 6638   1.506   3.479   4.803  0.2967  0.1683  0.2740
 2211TIP3    H1 6639   1.586   3.437   4.770  0.4501  0.5963  0.0939
 2211TIP3    H2 6640   1.528   3.506   4.892  0.3269  0.2168  0.2517
 2212TIP3   OH2 6641   5.826   2.152   3.099  0.3255  0.0460  0.1675
 2212TIP3    H1 6642   5.870   2.236   3.115 -0.5377  0.4636  0.3968
 2212TIP3    H2 6643   5.756   2.173   3.037  0.7683 -0.7144 -0.6099
 2213TIP3   OH2 6644   1.392   2.249   3.586 -0.4977  0.3514 -0.0039
 2213TIP3    H1 6645   1.359   2.324   3.636  0.3819 -0.0354  1.2200
 2213TIP3    H2 6646   1.460   2.286   3.529  1.7138  0.2448  2.3465
 2214TIP3   OH2 6647   5.329   4.858   2.161  0.0798  0.1443  0.2310
 2214TIP3    H1 6648   5.354   4.767   2.144 -2.1061 -0.4054 -0.3439
 2214TIP3    H2 6649   5.299   4.891   2.076 -0.1128  1.0800  0.6489
 2215TIP3   OH2 6650   1.451   2.095   0.771 -0.3217  0.0871  0.7098
 2215TIP3    H1 6651   1.528   2.086   0.716 -0.3536  2.0960  0.2744
 2215TIP3    H2 6652   1.378   2.074   0.713 -0.1859 -0.7925  0.8420
 2216TIP3   OH2 6653   2.083   5.435   0.878 -0.6450 -0.4850  0.4587
 2216TIP3    H1 6654   2.008   5.445   0.937 -0.4882  0.3679  0.5177
 2216TIP3    H2 6655   2.074   5.506   0.815 -1.6075 -2.2205 -1.4771
 2217TIP3   OH2 6656   4.200   3.578   3.535 -0.3810  0.2026  0.8218
 2217TIP3    H1 6657   4.203   3.517   3.609 -0.8909  1.2537  1.7316
 2217TIP3    H2 6658   4.224   3.524   3.459 -0.4303 -1.0352  1.6511
 2218TIP3   OH2 6659   2.574   3.567   3.200  0.6114 -0.4365 -0.5809
 2218TIP3    H1 6660   2.656   3.526   3.170  1.4369 -0.4598  1.5122
 2218TIP3    H2 6661   2.535   3.502   3.258  0.4458  0.5856  0.4877
 2219TIP3   OH2 6662   3.146   3.766   1.147  0.2901 -0.2430 -0.2176
 2219TIP3    H1 6663   3.137   3.721   1.231  1.6819  0.1857  0.1870
 2219TIP3    H2 6664   3.138   3.696   1.082  1.3560 -0.9323  0.3639
 2220TIP3   OH2 6665   0.137   1.875   2.007  0.1746  0.8309 -0.4513
 2220TIP3    H1 6666   0.117   1.966   2.032 -0.5797  0.9144 -1.3135
 2220TIP3    H2 6667   0.231   1.867   2.020  0.2043  1.6393 -0.0645
 2221TIP3   OH2 6668   0.349   3.165   0.090 -0.1455  0.0016  0.5148
 2221TIP3    H1 6669   0.432   3.207   0.066 -0.6609  1.1458  0.6729
 2221TIP3    H2 6670   0.282   3.217   0.045 -0.7377 -1.4431 -0.3284
 2222TIP3   OH2 6671   1.174   1.738   1.482 -0.7404  0.3557 -0.2929
 2222TIP3    H1 6672   1.178   1.744   1.577 -1.6541  2.1452 -0.3309
 2222TIP3    H2 6673   1.262   1.712   1.456 -0.4204  0.0614  1.0162
 2223TIP3   OH2 6674   5.994   0.076   3.236 -0.7689 -0.1551 -0.2373
 2223TIP3    H1 6675   5.919   0.128   3.206 -2.2441 -2.0181 -0.0298
 2223TIP3    H2 6676   5.958   0.023   3.308  1.0559 -0.3485  0.5888
 2224TIP3   OH2 6677   0.652   0.316   1.059  0.2142  0.1385  0.1831
 2224TIP3    H1 6678   0.710   0.382   1.096  0.9064  0.0976 -0.8111
 2224TIP3    H2 6679   0.565   0.341   1.089  0.8073 -0.3329  2.4974
 2225TIP3   OH2 6680   2.025   3.513   3.938  0.1580  0.0625  0.4353
 2225TIP3    H1 6681   2.063   3.589   3.981 -0.6917 -0.1887  1.6910
 2225TIP3    H2 6682   2.061   3.515   3.849 -0.3433  2.2872  0.2156
 2226TIP3   OH2 6683   6.294   1.861   5.120  0.0680 -0.5526  0.3059
 2226TIP3    H1 6684   6.344   1.787   5.154  1.6682  0.9054  1.3237
 2226TIP3    H2 6685   6.339   1.886   5.040 -1.1724 -1.3531 -0.6838
 2227TIP3   OH2 6686   0.700   2.806   1.950 -0.4414  0.2655 -0.8272
 2227TIP3    H1 6687   0.690   2.829   2.043  1.3532 -0.6969 -0.3362
 2227TIP3    H2 6688   0.611   2.806   1.915 -1.2687 -0.3415  1.1543
 2228TIP3   OH2 6689   5.563   2.293   0.148 -0.3367  0.2449  0.1557
 2228TIP3    H1 6690   5.468   2.280   0.141 -0.2274 -1.1982  1.0245
 2228TIP3    H2 6691   5.585   2.264   0.236  1.1019 -0.7530 -0.4976
 2229TIP3   OH2 6692   4.482   0.629   2.287  0.0009 -1.0415 -0.1699
 2229TIP3    H1 6693   4.547   0.668   2.229 -0.7481  0.7487  0.1211
 2229TIP3    H2 6694   4.418   0.589   2.228 -0.7029  0.6781 -0.6188
 2230TIP3   OH2 6695   1.128   2.780   4.327 -0.2872 -0.4230 -0.0762
 2230TIP3    H1 6696   1.092   2.787   4.239 -2.2913 -1.6013  0.5928
 2230TIP3    H2 6697   1.221   2.800   4.316 -0.8852  1.7768 -2.0655
 2231TIP3   OH2 6698   4.678   0.790   2.128  0.3796  0.5051  0.0366
 2231TIP3    H1 6699   4.743   0.840   2.177 -0.3334  0.3492  1.1643
 2231TIP3    H2 6700   4.715   0.783   2.040  1.4602  1.1989  0.4174
 2232TIP3   OH2 6701   5.261   3.338   1.904  0.4272  0.3444 -0.5813
 2232TIP3    H1 6702   5.286   3.266   1.846  0.2907  0.5630 -0.9147
 2232TIP3    H2 6703   5.307   3.414   1.869  0.2053  0.5124 -0.5126
 2233TIP3   OH2 6704   2.572   5.397   2.734 -0.0551  0.2721  0.2326
 2233TIP3    H1 6705   2.645   5.349   2.696 -0.5692 -0.1289 -0.2662
 2233TIP3    H2 6706   2.544   5.457   2.665  0.1266  0.7972  0.6016
 2234TIP3   OH2 6707   0.319   5.024   2.944  0.4097 -0.0765 -0.5995
 2234TIP3    H1 6708   0.302   5.048   2.853  2.0896 -1.1563 -1.2549
 2234TIP3    H2 6709   0.409   4.991   2.943  0.7519  0.6554  1.6180
 2235TIP3   OH2 6710   3.453   4.179   1.421 -0.1848  0.0981  0.4567
 2235TIP3    H1 6711   3.532   4.180   1.367  0.9196 -1.3564  1.9388
 2235TIP3    H2 6712   3.412   4.095   1.401 -0.3683  0.0491  1.0292
 2236TIP3   OH2 6713   6.295   3.856   1.670 -0.1605 -0.1677  0.3365
 2236TIP3    H1 6714   6.249   3.851   1.587  2.7485  0.0714 -1.4276
 2236TIP3    H2 6715   6.306   3.765   1.697 -1.1995 -0.2423  0.5696
 2237TIP3   OH2 6716   4.024   3.952   0.334 -0.2450 -0.1987  0.0079
 2237TIP3    H1 6717   3.978   3.880   0.290  0.9816 -0.4774 -0.8455
 2237TIP3    H2 6718   4.105   3.964   0.284 -0.1206  1.3560  0.5198
 2238TIP3   OH2 6719   4.941   0.604   2.932 -0.7758 -0.2124 -0.4043
 2238TIP3    H1 6720   4.904   0.683   2.970 -1.6350 -0.0447 -1.5388
 2238TIP3    H2 6721   4.869   0.565   2.882 -0.1197 -1.2362 -0.5805
 2239TIP3   OH2 6722   4.431   5.073   3.306  0.2162 -0.2568  0.1933
 2239TIP3    H1 6723   4.371   5.050   3.236  1.0052  0.4787 -0.7472
 2239TIP3    H2 6724   4.404   5.160   3.334  2.0798  1.0144 -1.6885
 2240TIP3   OH2 6725   3.890   4.689   0.710 -0.2523 -0.0619  0.4180
 2240TIP3    H1 6726   3.847   4.732   0.636  0.7633 -1.6234 -1.1472
 2240TIP3    H2 6727   3.982   4.685   0.686 -0.0047 -1.2381  1.4406
 2241TIP3   OH2 6728   5.811   5.730   4.158 -0.5169 -0.2079  0.3061
 2241TIP3    H1 6729   5.747   5.674   4.200  0.1926  0.5115  2.4854
 2241TIP3    H2 6730   5.763   5.810   4.135 -1.2818 -1.2201 -1.8442
 2242TIP3   OH2 6731   4.523   2.361   5.082  0.2565  0.1288 -0.3581
 2242TIP3    H1 6732   4.544   2.394   5.170  2.1926 -0.5133 -0.5293
 2242TIP3    H2 6733   4.608   2.336   5.045 -0.2918  1.8537 -3.0497
 2243TIP3   OH2 6734   3.530   5.779   0.956 -0.6040  0.3327  0.4275
 2243TIP3    H1 6735   3.490   5.740   1.034 -2.2528 -0.5233 -0.8107
 2243TIP3    H2 6736   3.487   5.865   0.948  0.3673  0.9058  1.0408
 2244TIP3   OH2 6737   4.358   2.770   2.721 -0.0775  0.5712 -0.0868
 2244TIP3    H1 6738   4.269   2.745   2.699  0.8410 -2.9829 -0.4738
 2244TIP3    H2 6739   4.362   2.762   2.816 -0.4214  1.8188  0.0422
 2245TIP3   OH2 6740   3.722   2.083   2.080 -1.0020 -0.2242 -0.1592
 2245TIP3    H1 6741   3.627   2.083   2.096 -0.9568  0.1639  0.1072
 2245TIP3    H2 6742   3.733   2.131   1.998 -1.0894 -0.8298 -0.5341
 2246TIP3   OH2 6743   3.900   1.429   4.655 -0.4955 -0.1299  0.5064
 2246TIP3    H1 6744   3.904   1.405   4.562  0.7975  0.0541  0.4879
 2246TIP3    H2 6745   3.986   1.404   4.690 -0.1417  1.7588  1.1418
 2247TIP3   OH2 6746   5.707   4.463   4.027 -0.0002  0.1353 -0.1226
 2247TIP3    H1 6747   5.689   4.439   4.118  2.1584  0.9839  0.6031
 2247TIP3    H2 6748   5.780   4.406   4.001 -0.4316  0.0707 -1.2574
 2248TIP3   OH2 6749   2.763   1.741   4.795  0.5380  0.2748  0.5155
 2248TIP3    H1 6750   2.675   1.725   4.829 -0.0786  0.5976 -0.8523
 2248TIP3    H2 6751   2.756   1.722   4.701  2.4129 -1.6282  0.6670
 2249TIP3   OH2 6752   3.011   3.759   3.682  0.6220  0.0897 -0.2139
 2249TIP3    H1 6753   2.922   3.777   3.713  0.2696  0.3200 -1.3269
 2249TIP3    H2 6754   3.010   3.783   3.589  1.4305 -1.3016 -0.6166
 2250TIP3   OH2 6755   0.212   0.838   2.717  0.2301  0.4395  0.1486
 2250TIP3    H1 6756   0.175   0.750   2.722 -1.0894  0.8229 -1.6501
 2250TIP3    H2 6757   0.137   0.896   2.730  0.9701  1.2946  0.7008
 2251TIP3   OH2 6758   3.473   1.019   3.422  0.4594  0.5480 -0.6218
 2251TIP3    H1 6759   3.454   0.964   3.497  1.5421  0.8255 -0.1259
 2251TIP3    H2 6760   3.548   1.072   3.449  0.7404  0.7969 -1.8154
 2252TIP3   OH2 6761   3.075   1.448   3.828  0.5941 -0.6085 -0.1589
 2252TIP3    H1 6762   3.105   1.420   3.914  0.7975  0.5359  0.1553
 2252TIP3    H2 6763   3.110   1.536   3.817  0.3483 -0.6308 -1.3045
 2253TIP3   OH2 6764   2.574   4.285   2.887 -0.1050  0.0489 -0.1406
 2253TIP3    H1 6765   2.502   4.348   2.879 -0.2737  0.0572  1.2430
 2253TIP3    H2 6766   2.641   4.332   2.936  0.1328 -0.5558  0.1186
 2254TIP3   OH2 6767   1.585   4.799   1.485  0.0879 -0.2003 -0.0658
 2254TIP3    H1 6768   1.578   4.894   1.493 -0.1711 -0.3036  1.1923
 2254TIP3    H2 6769   1.557   4.780   1.395 -0.8269  0.8231 -0.0182
 2255TIP3   OH2 6770   3.987   0.532   0.209  0.6438  1.0378 -0.1102
 2255TIP3    H1 6771   3.999   0.489   0.124  2.7489  1.8168 -0.2706
 2255TIP3    H2 6772   4.054   0.601   0.210 -0.3870  2.0796  1.5441
 2256TIP3   OH2 6773   6.304   0.953   2.707 -0.4831  0.4960 -0.5513
 2256TIP3    H1 6774   6.268   0.965   2.795  0.1090  2.3856 -0.5157
 2256TIP3    H2 6775   6.229   0.927   2.654 -1.1092  0.5526  0.2836
 2257TIP3   OH2 6776   0.193   3.255   3.518 -0.5906 -0.2552  0.2983
 2257TIP3    H1 6777   0.262   3.321   3.517 -1.7071  0.9551  0.1933
 2257TIP3    H2 6778   0.219   3.192   3.450 -1.2161  1.9841 -2.2173
 2258TIP3   OH2 6779   3.975   2.278   0.279  0.3506  0.4076 -0.0498
 2258TIP3    H1 6780   3.906   2.217   0.306 -0.0947 -0.0128 -1.9915
 2258TIP3    H2 6781   4.036   2.279   0.353 -1.4445  0.3910  1.5151
 2259TIP3   OH2 6782   5.158   1.412   4.568  0.1237 -0.1071  0.3933
 2259TIP3    H1 6783   5.140   1.494   4.520  1.1498 -0.4066 -0.5419
 2259TIP3    H2 6784   5.196   1.441   4.651 -1.9219  0.4316  1.2196
 2260TIP3   OH2 6785   1.070   2.231   4.849 -0.0174 -0.3539  0.5641
 2260TIP3    H1 6786   1.131   2.237   4.923 -0.2114 -2.1303  0.9256
 2260TIP3    H2 6787   0.986   2.210   4.890 -0.4288  0.0588 -0.0637
 2261TIP3   OH2 6788   2.092   3.293   2.829 -0.5815 -0.0355 -0.0320
 2261TIP3    H1 6789   2.173   3.338   2.806 -0.1091 -0.2437  1.1159
 2261TIP3    H2 6790   2.027   3.326   2.767  0.4571 -0.1439 -1.2178
 2262TIP3   OH2 6791   1.040   5.230   1.173 -0.5516 -0.5780 -0.7332
 2262TIP3    H1 6792   1.020   5.319   1.143 -0.5905  0.0250  0.9640
 2262TIP3    H2 6793   1.128   5.213   1.140  0.8782  1.4496  1.6335
 2263TIP3   OH2 6794   3.218   3.592   0.306  0.4278  0.0532 -0.4008
 2263TIP3    H1 6795   3.157   3.583   0.233 -0.5325 -0.7984  0.4632
 2263TIP3    H2 6796   3.305   3.594   0.265 -0.0096 -1.5592 -1.5333
 2264TIP3   OH2 6797   3.311   5.721   5.017  0.1687  0.1556 -0.5539
 2264TIP3    H1 6798   3.226   5.710   5.060  0.1601  0.5874 -0.4590
 2264TIP3    H2 6799   3.375   5.705   5.086  0.1661  3.0697  0.2448
 2265TIP3   OH2 6800   3.419   1.041   0.971 -0.7867 -0.0069 -0.5519
 2265TIP3    H1 6801   3.490   1.092   0.932 -2.0449  0.5784 -2.1968
 2265TIP3    H2 6802   3.339   1.083   0.940 -1.9454  0.5289  2.7921
 2266TIP3   OH2 6803   0.776   1.963   3.581 -0.0968 -0.4577  0.5177
 2266TIP3    H1 6804   0.769   1.901   3.653 -0.8191 -0.7087  0.2348
 2266TIP3    H2 6805   0.863   2.002   3.592  0.2766 -1.3524  0.8269
 2267TIP3   OH2 6806   5.649   5.362   4.475  0.2486 -0.1148 -0.1455
 2267TIP3    H1 6807   5.658   5.451   4.440  1.0023  0.1859  0.7720
 2267TIP3    H2 6808   5.604   5.313   4.406  0.6878  0.7394 -1.0513
 2268TIP3   OH2 6809   3.176   0.146   0.547  0.2850 -0.2310  0.3993
 2268TIP3    H1 6810   3.271   0.135   0.551  0.1513 -1.5826  0.3270
 2268TIP3    H2 6811   3.141   0.057   0.539 -0.9969  0.2280  0.5304
 2269TIP3   OH2 6812   3.144   1.470   0.440  0.2999  0.4935 -0.0572
 2269TIP3    H1 6813   3.226   1.453   0.394  0.5622  0.4756  0.4144
 2269TIP3    H2 6814   3.082   1.407   0.403  0.7655 -0.1822  0.3045
 2270TIP3   OH2 6815   3.098   1.713   2.479 -0.4331 -0.1851 -0.1699
 2270TIP3    H1 6816   3.057   1.631   2.450 -1.0983 -0.2921  0.9978
 2270TIP3    H2 6817   3.191   1.693   2.482 -0.4199 -0.3804 -1.5035
 2271TIP3   OH2 6818   5.394   1.098   3.866  0.1697 -0.1820  0.2119
 2271TIP3    H1 6819   5.327   1.032   3.847 -0.9194  0.8896  0.2322
 2271TIP3    H2 6820   5.382   1.117   3.959 -1.1735  1.8098 -0.3306
 2272TIP3   OH2 6821   1.762   1.833   4.498  0.2660  0.1225  0.2201
 2272TIP3    H1 6822   1.795   1.902   4.556  0.7280  0.6624 -0.6593
 2272TIP3    H2 6823   1.702   1.877   4.439  2.0054  0.2049 -1.6006
 2273TIP3   OH2 6824   4.674   0.783   3.537  0.1911  0.0810 -0.6202
 2273TIP3    H1 6825   4.662   0.721   3.609  0.4805 -0.4079 -0.9830
 2273TIP3    H2 6826   4.740   0.844   3.569  0.9345 -0.6281 -0.7784
 2274TIP3   OH2 6827   2.019   2.516   2.932  0.4756 -0.4862  0.2646
 2274TIP3    H1 6828   2.026   2.432   2.886  0.0492 -0.1973 -0.3508
 2274TIP3    H2 6829   1.925   2.533   2.937  0.4544 -1.0432  2.2714
 2275TIP3   OH2 6830   0.747   3.520   1.614 -0.2962 -0.1270  0.2242
 2275TIP3    H1 6831   0.801   3.577   1.559 -2.0340  1.6048  0.1614
 2275TIP3    H2 6832   0.672   3.575   1.637 -1.0571 -1.7734  1.9104
 2276TIP3   OH2 6833   4.459   1.364   4.395 -0.1881 -0.5659  0.3457
 2276TIP3    H1 6834   4.449   1.456   4.419 -3.0168 -0.6581 -0.2048
 2276TIP3    H2 6835   4.426   1.359   4.306 -0.7494 -2.2399  0.6233
 2277TIP3   OH2 6836   1.029   3.457   4.475  0.4817 -0.2623  0.6440
 2277TIP3    H1 6837   0.934   3.469   4.464  0.4949  2.9003  2.6246
 2277TIP3    H2 6838   1.048   3.374   4.430 -3.3239 -1.4564  0.8321
 2278TIP3   OH2 6839   0.668   1.510   3.050  0.0459  0.6495 -0.1813
 2278TIP3    H1 6840   0.691   1.488   2.960  0.7032  1.2780 -0.1765
 2278TIP3    H2 6841   0.721   1.451   3.103  0.1985  0.7694 -0.1989
 2279TIP3   OH2 6842   5.594   1.573   1.508 -0.0262  0.3708  0.4588
 2279TIP3    H1 6843   5.589   1.493   1.456 -0.5755  1.6336 -1.5543
 2279TIP3    H2 6844   5.516   1.571   1.564 -0.4848 -0.1085 -0.1935
 2280TIP3   OH2 6845   5.928   1.977   1.619  0.2866 -0.4222 -0.3599
 2280TIP3    H1 6846   5.989   1.904   1.631 -0.6773 -1.3053 -0.6128
 2280TIP3    H2 6847   5.846   1.935   1.591 -0.2772  0.7687 -0.5685
 2281TIP3   OH2 6848   4.987   0.122   0.359  0.2896  0.2668 -0.3836
 2281TIP3    H1 6849   4.930   0.193   0.329 -1.1033 -1.1340 -1.2358
 2281TIP3    H2 6850   5.067   0.132   0.306  0.3837  1.5351 -0.0433
 2282TIP3   OH2 6851   3.527   5.520   4.937 -0.8730 -0.2669 -0.4561
 2282TIP3    H1 6852   3.579   5.534   4.858 -0.9602 -0.6008 -0.5761
 2282TIP3    H2 6853   3.472   5.598   4.944 -0.4783  0.0111 -0.4214
 2283TIP3   OH2 6854   5.242   0.198   1.457  0.2902 -1.0621  0.0538
 2283TIP3    H1 6855   5.336   0.212   1.443  0.2249 -1.5794 -1.0130
 2283TIP3    H2 6856   5.204   0.286   1.457  0.4908 -0.9327 -1.8227
 2284TIP3   OH2 6857   0.091   0.321   3.878  0.7468  0.4759  0.1987
 2284TIP3    H1 6858   0.119   0.371   3.802 -0.5207 -0.2081 -0.7536
 2284TIP3    H2 6859   0.136   0.362   3.952 -0.3432  3.1030 -0.4864
 2285TIP3   OH2 6860   5.265   0.175   3.459  0.7722  0.3783 -0.0111
 2285TIP3    H1 6861   5.197   0.116   3.491 -0.1131  0.6896 -1.2454
 2285TIP3    H2 6862   5.244   0.260   3.498  0.9559  0.3011  0.2652
 2286TIP3   OH2 6863   2.229   1.833   4.381  0.0261  0.0555 -0.3361
 2286TIP3    H1 6864   2.183   1.758   4.420  1.9125  0.4893  3.1987
 2286TIP3    H2 6865   2.163   1.901   4.373 -1.0354 -0.9712 -0.4591
 2287TIP3   OH2 6866   5.157   0.904   3.204  0.4348 -1.0435  0.0821
 2287TIP3    H1 6867   5.211   0.920   3.127  0.8118  0.1880  0.5792
 2287TIP3    H2 6868   5.128   0.990   3.232 -1.5920 -1.6591  0.0017
 2288TIP3   OH2 6869   2.163   1.108   0.472  0.7682  0.2535 -0.6531
 2288TIP3    H1 6870   2.122   1.101   0.559  0.3275  0.7777 -0.8118
 2288TIP3    H2 6871   2.222   1.033   0.468 -1.0827 -1.2676 -0.9030
 2289TIP3   OH2 6872   1.599   4.364   2.559 -0.2064  0.5323  0.6932
 2289TIP3    H1 6873   1.507   4.349   2.538  0.4962  0.2511 -2.8114
 2289TIP3    H2 6874   1.621   4.446   2.515  1.7452 -0.5916 -0.5781
 2290TIP3   OH2 6875   2.353   0.797   2.489  0.2564  0.1075 -0.6959
 2290TIP3    H1 6876   2.305   0.802   2.572 -0.2008  1.4022 -1.0125
 2290TIP3    H2 6877   2.285   0.794   2.422  0.6172  0.4074 -1.0823
 2291TIP3   OH2 6878   0.477   0.915   2.612  0.2292 -0.1354 -0.2421
 2291TIP3    H1 6879   0.397   0.893   2.659 -0.6567  2.3111 -0.4635
 2291TIP3    H2 6880   0.535   0.950   2.679  1.2884 -2.1087 -0.0398
 2292TIP3   OH2 6881   4.954   4.356   3.994  0.0549 -0.2229 -0.0561
 2292TIP3    H1 6882   4.929   4.420   3.928  1.9753 -1.4636 -2.1323
 2292TIP3    H2 6883   4.872   4.333   4.038 -1.5901 -0.3726 -2.9658
 2293TIP3   OH2 6884   4.179   1.924   4.323  0.0837  0.1709 -0.0737
 2293TIP3    H1 6885   4.109   1.984   4.299 -0.5571 -0.7037 -0.4390
 2293TIP3    H2 6886   4.239   1.926   4.248  1.6909  2.6226  1.1352
 2294TIP3   OH2 6887   2.676   1.185   2.303  0.0646  0.2693  0.6318
 2294TIP3    H1 6888   2.585   1.186   2.332 -0.0965 -0.5407  0.1780
 2294TIP3    H2 6889   2.728   1.186   2.383 -0.3171  1.6307  0.8937
 2295TIP3   OH2 6890   5.440   4.139   0.114  0.4937  0.5301  0.0304
 2295TIP3    H1 6891   5.448   4.195   0.037 -0.9881  2.1452  0.9563
 2295TIP3    H2 6892   5.515   4.162   0.169  2.0117 -1.2162 -1.2136
 2296TIP3   OH2 6893   5.281   4.028   2.264  0.3844 -0.9280  0.1408
 2296TIP3    H1 6894   5.219   4.082   2.213  0.6131  1.2778  2.0358
 2296TIP3    H2 6895   5.363   4.033   2.215  0.9663  2.2510  1.1871
 2297TIP3   OH2 6896   2.014   0.618   3.481  0.2521  0.1167  0.0698
 2297TIP3    H1 6897   1.950   0.547   3.479 -2.2741  2.1685  1.6169
 2297TIP3    H2 6898   1.974   0.687   3.428  0.5873  1.8599  1.9536
 2298TIP3   OH2 6899   0.572   2.132   3.539  0.1832 -0.0409  0.3796
 2298TIP3    H1 6900   0.494   2.084   3.511  0.2594 -0.6316  1.1649
 2298TIP3    H2 6901   0.641   2.066   3.545  0.4938  0.3025  0.6843
 2299TIP3   OH2 6902   3.746   4.529   4.814 -0.1054  0.0261 -0.0903
 2299TIP3    H1 6903   3.663   4.574   4.794  1.0773  2.5580  0.2150
 2299TIP3    H2 6904   3.799   4.596   4.858  1.6678 -1.8861  0.8603
 2300TIP3   OH2 6905   3.722   3.465   2.034 -0.4664  0.0831 -0.5353
 2300TIP3    H1 6906   3.722   3.387   1.979 -0.3719  0.5791 -1.2519
 2300TIP3    H2 6907   3.674   3.439   2.112  0.1589 -0.8970 -0.4599
 2301TIP3   OH2 6908   0.969   0.040   1.732  0.0335  0.0721 -0.0647
 2301TIP3    H1 6909   0.997   0.114   1.785 -1.6029  0.6393  0.0398
 2301TIP3    H2 6910   1.002  -0.037   1.779  0.5657  0.6629  0.5452
 2302TIP3   OH2 6911   1.671   3.680   3.904  0.6252 -0.0071 -0.2771
 2302TIP3    H1 6912   1.687   3.717   3.818 -0.6873  1.9277  0.2469
 2302TIP3    H2 6913   1.621   3.600   3.887 -0.2751  0.7437 -1.3028
 2303TIP3   OH2 6914   2.764   1.403   0.424 -0.0084  0.1314 -0.0035
 2303TIP3    H1 6915   2.776   1.498   0.418  0.9486 -0.0433 -3.5589
 2303TIP3    H2 6916   2.673   1.392   0.452 -0.0120  2.0743  0.9093
 2304TIP3   OH2 6917   0.212   1.589   4.142  0.0589 -0.1256  0.2048
 2304TIP3    H1 6918   0.278   1.596   4.073  1.5718  2.4291  1.7391
 2304TIP3    H2 6919   0.237   1.512   4.192  0.5089 -0.4721 -0.5301
 2305TIP3   OH2 6920   3.754   0.061   0.491 -0.2062  0.1533 -0.1664
 2305TIP3    H1 6921   3.791   0.131   0.437  1.1201 -0.9880 -0.7921
 2305TIP3    H2 6922   3.743  -0.013   0.431 -0.5147 -0.5363  0.7107
 2306TIP3   OH2 6923   2.003   1.799   1.265  0.3329  0.6276 -0.1067
 2306TIP3    H1 6924   2.008   1.705   1.250 -0.3109  0.8345 -1.9670
 2306TIP3    H2 6925   1.909   1.818   1.266  0.4165  1.1084  1.5211
 2307TIP3   OH2 6926   0.369   5.461   4.641  0.2094  0.4559  0.0817
 2307TIP3    H1 6927   0.323   5.533   4.597  0.7302  0.1762 -0.9519
 2307TIP3    H2 6928   0.358   5.387   4.582  0.9864  0.0846  0.3997
 2308TIP3   OH2 6929   1.786   2.191   2.055  0.8914 -0.6233  0.0579
 2308TIP3    H1 6930   1.777   2.101   2.086 -1.3972 -0.3286  0.4360
 2308TIP3    H2 6931   1.696   2.221   2.043  1.6242  0.9223 -2.1456
 2309TIP3   OH2 6932   3.302   2.314   2.645 -0.1254 -0.5454 -0.0107
 2309TIP3    H1 6933   3.234   2.356   2.594  1.2092 -0.1441 -1.5401
 2309TIP3    H2 6934   3.324   2.378   2.713 -1.3136 -0.7275  0.5731
 2310TIP3   OH2 6935   3.785   4.916   1.920  0.4804  0.1364 -0.2274
 2310TIP3    H1 6936   3.710   4.909   1.861  1.1693  1.6292 -1.3760
 2310TIP3    H2 6937   3.751   4.894   2.006 -1.2873  0.8226 -0.7094
 2311TIP3   OH2 6938   5.171   2.410   2.070 -0.4369 -0.0949  0.1532
 2311TIP3    H1 6939   5.214   2.335   2.029  0.9537  0.1892  1.0360
 2311TIP3    H2 6940   5.134   2.459   1.997  1.9908  0.4236 -0.8273
 2312TIP3   OH2 6941   5.448   3.950   3.338  0.0071  0.4560  0.5315
 2312TIP3    H1 6942   5.402   3.888   3.281 -1.0376  0.5508  1.2406
 2312TIP3    H2 6943   5.464   3.902   3.419  1.0895  0.4644  0.3372
 2313TIP3   OH2 6944   0.672   5.548   2.577  0.2717 -0.4143  0.0435
 2313TIP3    H1 6945   0.634   5.477   2.525  1.7372 -0.6303 -0.8031
 2313TIP3    H2 6946   0.614   5.623   2.563  0.3041 -0.6481 -1.4249
 2314TIP3   OH2 6947   4.339   5.121   1.637 -0.7735 -0.6942  0.0709
 2314TIP3    H1 6948   4.373   5.210   1.627  0.8866 -1.1738  1.0845
 2314TIP3    H2 6949   4.293   5.122   1.721 -1.5017 -0.5867 -0.3216
 2315TIP3   OH2 6950   5.866   0.913   0.779  0.5455 -0.3760 -0.2591
 2315TIP3    H1 6951   5.901   1.002   0.788 -2.2308  0.7400  0.7781
 2315TIP3    H2 6952   5.906   0.864   0.850  0.8865  0.4931  0.1660
 2316TIP3   OH2 6953   1.447   1.247   1.529 -0.2115 -0.1210 -0.1429
 2316TIP3    H1 6954   1.422   1.246   1.437  1.2500  0.8779 -0.5816
 2316TIP3    H2 6955   1.427   1.335   1.559  1.5077  0.3019 -0.1704
 2317TIP3   OH2 6956   2.467   4.992   0.024  0.4363  0.2607 -0.2510
 2317TIP3    H1 6957   2.375   4.995   0.049  0.8928  0.9809  1.4005
 2317TIP3    H2 6958   2.494   5.083   0.019  0.1770  0.3106 -4.4404
 2318TIP3   OH2 6959   3.986   0.514   4.008  0.1604  0.0590  0.1008
 2318TIP3    H1 6960   4.023   0.533   4.095  0.4418 -0.0202 -0.0026
 2318TIP3    H2 6961   3.942   0.430   4.019 -1.9318  1.1747  0.8231
 2319TIP3   OH2 6962   5.133   0.501   3.320 -0.3482  0.0905  0.0231
 2319TIP3    H1 6963   5.217   0.461   3.342 -0.2723  0.0787 -0.2769
 2319TIP3    H2 6964   5.155   0.569   3.257 -0.7625 -1.2951 -1.7009
 2320TIP3   OH2 6965   1.188   0.732   3.924 -0.1011 -0.6991 -0.1613
 2320TIP3    H1 6966   1.273   0.705   3.957  0.1902 -1.1721 -1.2393
 2320TIP3    H2 6967   1.176   0.681   3.843 -1.7615 -1.2284  0.3743
 2321TIP3   OH2 6968   2.717   5.140   2.914  0.3423  0.2557 -0.1934
 2321TIP3    H1 6969   2.790   5.197   2.939  0.8597 -0.0949 -0.8805
 2321TIP3    H2 6970   2.655   5.147   2.986  0.7349  1.1189  0.0677
 2322TIP3   OH2 6971   3.820   5.837   2.132  0.0909 -0.0916 -0.0940
 2322TIP3    H1 6972   3.822   5.758   2.186 -0.7700  0.3090  0.5404
 2322TIP3    H2 6973   3.883   5.896   2.174 -0.0489 -0.0491  0.0571
 2323TIP3   OH2 6974   2.654   0.097   0.469  0.0270  0.5032 -0.6159
 2323TIP3    H1 6975   2.651   0.151   0.389  0.3084  0.4440 -0.6698
 2323TIP3    H2 6976   2.691   0.013   0.439 -0.1854  0.3640 -0.4872
 2324TIP3   OH2 6977   1.552   2.000   1.026 -0.6202 -0.3023 -0.3793
 2324TIP3    H1 6978   1.617   2.064   1.053  0.2887 -1.2522 -0.2579
 2324TIP3    H2 6979   1.514   2.037   0.946  0.9359 -0.2860 -1.1554
 2325TIP3   OH2 6980   5.803   5.508   2.069  0.0308 -0.1313  0.5937
 2325TIP3    H1 6981   5.791   5.424   2.112  0.2438 -0.5775 -0.2009
 2325TIP3    H2 6982   5.814   5.487   1.976  1.5335  0.6346  0.5539
 2326TIP3   OH2 6983   0.782   4.753   2.225  0.0158 -0.5570  0.2578
 2326TIP3    H1 6984   0.815   4.705   2.301 -0.7830 -0.9888  0.3508
 2326TIP3    H2 6985   0.690   4.727   2.218  0.0931 -0.5984 -0.9144
 2327TIP3   OH2 6986   3.964   0.047   3.074 -0.4108 -0.2422  0.5557
 2327TIP3    H1 6987   3.938   0.127   3.120 -1.1321 -1.2553  1.9573
 2327TIP3    H2 6988   3.988  -0.015   3.142  1.9177 -0.7001 -0.5607
 2328TIP3   OH2 6989   4.192   4.460   1.319 -0.2215  0.8724 -0.3372
 2328TIP3    H1 6990   4.275   4.451   1.271 -0.7009  4.4151 -2.1530
 2328TIP3    H2 6991   4.127   4.480   1.251 -1.9581  1.3193  1.3559
 2329TIP3   OH2 6992   5.721   1.582   0.174 -0.2886  0.0513  0.1813
 2329TIP3    H1 6993   5.742   1.660   0.225 -0.3447  0.4763 -0.4407
 2329TIP3    H2 6994   5.799   1.566   0.121 -0.3652 -0.1791  0.1369
 2330TIP3   OH2 6995   4.504   5.849   3.408 -0.5922 -0.3407  0.7699
 2330TIP3    H1 6996   4.469   5.803   3.331 -0.0311 -2.8064  1.8991
 2330TIP3    H2 6997   4.599   5.839   3.401 -0.5290 -0.3942  1.6567
 2331TIP3   OH2 6998   0.410   2.848   0.978  0.3572 -0.0832  1.1419
 2331TIP3    H1 6999   0.335   2.901   0.949  1.6339  1.4060  0.4012
 2331TIP3    H2 7000   0.423   2.785   0.908 -0.8210 -1.0795  1.7665
 2332TIP3   OH2 7001   0.254   5.462   4.124  0.5543 -0.1892  0.3056
 2332TIP3    H1 7002   0.333   5.488   4.077  1.1090 -0.6796  0.9406
 2332TIP3    H2 7003   0.196   5.538   4.118  1.0513  0.1581 -0.2093
 2333TIP3   OH2 7004   0.682   2.249   4.108  0.6033 -0.2406  0.2547
 2333TIP3    H1 7005   0.607   2.207   4.065 -0.7345  1.8574  0.4005
 2333TIP3    H2 7006   0.677   2.221   4.199 -0.6017  0.6406  0.4741
 2334TIP3   OH2 7007   4.741   5.663   4.350  0.0803  0.1295 -0.1535
 2334TIP3    H1 7008   4.696   5.580   4.365 -0.9301  0.8406  0.9423
 2334TIP3    H2 7009   4.811   5.642   4.289  1.3447 -1.9955  1.9105
 2335TIP3   OH2 7010   2.994   3.051   0.886  0.6471 -0.0424 -0.0893
 2335TIP3    H1 7011   2.928   3.103   0.839 -0.1768  0.3419  1.4169
 2335TIP3    H2 7012   2.988   3.082   0.977  1.9077 -1.0336  0.3551
 2336TIP3   OH2 7013   1.087   3.842   2.629 -0.4897  0.3635 -0.3183
 2336TIP3    H1 7014   0.998   3.863   2.601 -0.5645 -2.1440 -2.2805
 2336TIP3    H2 7015   1.078   3.764   2.684  0.5423 -0.5770 -1.4249
 2337TIP3   OH2 7016   1.221   4.299   4.142  0.5271  0.2582  0.6178
 2337TIP3    H1 7017   1.238   4.371   4.203  0.3459  0.6078  0.2590
 2337TIP3    H2 7018   1.219   4.221   4.197  0.2746  0.5800  1.0709
 2338TIP3   OH2 7019   4.442   4.884   3.508  0.2915  0.1137  0.4930
 2338TIP3    H1 7020   4.438   4.947   3.436  0.4205  1.3698  1.5582
 2338TIP3    H2 7021   4.486   4.930   3.579  4.0084 -2.4018  0.1341
 2339TIP3   OH2 7022   5.674   1.775   4.852 -0.0046  0.1899 -0.0379
 2339TIP3    H1 7023   5.616   1.803   4.922 -0.5365  0.8841 -0.7399
 2339TIP3    H2 7024   5.617   1.766   4.775  0.4499 -1.1620 -0.2533
 2340TIP3   OH2 7025   1.843   1.562   1.501 -0.0092 -0.2793  0.2349
 2340TIP3    H1 7026   1.808   1.541   1.588 -0.5709  1.3685  0.4245
 2340TIP3    H2 7027   1.900   1.637   1.515 -1.1376  0.8604 -1.0001
 2341TIP3   OH2 7028   1.943   3.342   4.306  0.2329 -0.1376  0.3758
 2341TIP3    H1 7029   2.010   3.283   4.272 -0.4834 -1.5322  1.2631
 2341TIP3    H2 7030   1.985   3.428   4.309  1.4809 -0.6879 -0.4769
 2342TIP3   OH2 7031   0.213   2.784   0.416  0.2134 -0.4596 -0.0474
 2342TIP3    H1 7032   0.239   2.860   0.364 -0.6638  0.1756  0.4156
 2342TIP3    H2 7033   0.121   2.772   0.396 -0.2417  0.0258  1.6037
 2343TIP3   OH2 7034   2.668   0.284   2.950  0.1055 -0.2341 -0.3119
 2343TIP3    H1 7035   2.599   0.218   2.959  0.3384 -0.8309 -2.3025
 2343TIP3    H2 7036   2.688   0.285   2.856  2.3971  0.3455  0.1104
 2344TIP3   OH2 7037   5.281   4.489   2.738 -0.6836  0.1380  0.0061
 2344TIP3    H1 7038   5.354   4.437   2.706 -0.5181  0.8904 -0.8867
 2344TIP3    H2 7039   5.320   4.553   2.796 -0.2881  1.9104 -2.0925
 2345TIP3   OH2 7040   2.347   4.941   3.247  0.4120  0.1015 -0.4645
 2345TIP3    H1 7041   2.369   4.919   3.338 -1.4992  1.0132  0.2799
 2345TIP3    H2 7042   2.252   4.929   3.242  0.5413 -0.4392 -2.5161
 2346TIP3   OH2 7043   3.081   4.320   4.339  0.1274  0.1982  0.1300
 2346TIP3    H1 7044   2.989   4.299   4.357 -0.4494  1.9810 -0.5182
 2346TIP3    H2 7045   3.080   4.360   4.252  1.6931 -0.7349 -0.3662
 2347TIP3   OH2 7046   3.852   5.718   2.512  0.0250 -0.2231 -0.7618
 2347TIP3    H1 7047   3.779   5.662   2.485  0.2489 -0.9799  0.1593
 2347TIP3    H2 7048   3.930   5.668   2.490  0.2107 -0.8817  1.2576
 2348TIP3   OH2 7049   2.850   2.698   1.138  0.9368  0.4012  0.3158
 2348TIP3    H1 7050   2.824   2.621   1.088  1.1907 -0.0435  0.8546
 2348TIP3    H2 7051   2.878   2.663   1.223 -0.7866  1.2358  1.2799
 2349TIP3   OH2 7052   2.551   0.449   3.993  0.1215 -0.7688  0.5169
 2349TIP3    H1 7053   2.535   0.396   3.914  0.1994 -0.3005  0.1796
 2349TIP3    H2 7054   2.480   0.425   4.053 -0.0724 -0.9600  0.2156
 2350TIP3   OH2 7055   1.497   0.360  -0.020 -0.3915 -0.2378  0.2798
 2350TIP3    H1 7056   1.471   0.268  -0.010 -0.3949 -0.1075  1.5894
 2350TIP3    H2 7057   1.550   0.378   0.058 -1.5405  1.2693  0.7365
 2351TIP3   OH2 7058   1.095   0.617   2.357 -0.5127  0.0771  0.1641
 2351TIP3    H1 7059   1.006   0.583   2.362 -0.7875  0.8652  0.6880
 2351TIP3    H2 7060   1.150   0.539   2.347 -1.1451 -0.5226  1.2033
 2352TIP3   OH2 7061   4.168   5.895   1.726  0.1025  0.1357 -0.4346
 2352TIP3    H1 7062   4.215   5.817   1.694  0.5304 -0.4198  1.4389
 2352TIP3    H2 7063   4.201   5.966   1.672  2.1448 -0.4627 -0.0448
 2353TIP3   OH2 7064   5.686   2.845   1.519  0.0960 -0.2682  0.6556
 2353TIP3    H1 7065   5.701   2.939   1.521 -0.4891 -0.1633  0.3191
 2353TIP3    H2 7066   5.693   2.818   1.611  1.0786 -0.0381  0.6570
 2354TIP3   OH2 7067   5.515   3.435   2.755  0.5072  0.4221 -0.0271
 2354TIP3    H1 7068   5.506   3.409   2.664  1.1088 -1.9561  0.5296
 2354TIP3    H2 7069   5.601   3.403   2.782  1.9901  4.2754  0.4627
 2355TIP3   OH2 7070   1.302   4.481   0.688 -0.1782  0.0749  0.2276
 2355TIP3    H1 7071   1.270   4.402   0.645 -1.2101 -0.4339  1.8447
 2355TIP3    H2 7072   1.223   4.528   0.715  0.4189  0.6521  1.0269
 2356TIP3   OH2 7073   2.627   4.380   1.890  0.5515 -0.2910  0.5269
 2356TIP3    H1 7074   2.674   4.328   1.955 -0.2083  0.0103  1.3216
 2356TIP3    H2 7075   2.645   4.471   1.914  0.4808 -0.1747  0.1505
 2357TIP3   OH2 7076   2.363   0.912   1.569 -0.2458  0.1609 -0.1122
 2357TIP3    H1 7077   2.287   0.909   1.628 -0.5443 -1.2976 -0.5350
 2357TIP3    H2 7078   2.424   0.848   1.605  1.0355  1.6543  0.4989
 2358TIP3   OH2 7079   0.604   3.022   0.988 -0.3223  0.3181  0.2920
 2358TIP3    H1 7080   0.615   3.061   0.901  0.4728 -0.9373 -0.2065
 2358TIP3    H2 7081   0.538   2.954   0.974 -0.2453  0.1634  0.6849
 2359TIP3   OH2 7082   0.394   2.771   2.968 -0.0922 -0.2968  0.3305
 2359TIP3    H1 7083   0.340   2.760   3.047 -1.8310 -2.8891 -1.0851
 2359TIP3    H2 7084   0.331   2.775   2.896  1.4668 -2.4292 -1.3034
 2360TIP3   OH2 7085   0.082   0.388   4.581 -0.2822  0.7024  0.0810
 2360TIP3    H1 7086   0.001   0.356   4.543 -0.2304 -0.1887  0.6983
 2360TIP3    H2 7087   0.144   0.390   4.507 -0.9542  1.8033 -0.4839
 2361TIP3   OH2 7088   1.408   0.989   3.914  0.5307 -0.0334 -0.0492
 2361TIP3    H1 7089   1.393   1.041   3.993 -2.1870 -0.1467 -0.4010
 2361TIP3    H2 7090   1.363   0.907   3.931  0.1097 -0.1483 -1.6156
 2362TIP3   OH2 7091   0.451   2.221   3.795 -0.0563 -0.3824 -0.0687
 2362TIP3    H1 7092   0.508   2.184   3.863 -0.9083 -1.8628 -0.1151
 2362TIP3    H2 7093   0.493   2.196   3.713  0.3747  0.4316 -0.1040
 2363TIP3   OH2 7094   3.726   1.777   4.166 -0.1430  0.4399  0.1067
 2363TIP3    H1 7095   3.739   1.838   4.093 -0.7043 -3.7212 -3.8767
 2363TIP3    H2 7096   3.815   1.760   4.198  0.0531  2.9251  1.1416
 2364TIP3   OH2 7097   4.285   4.663   1.660  0.2840 -0.0969 -0.0750
 2364TIP3    H1 7098   4.348   4.722   1.702 -0.4158 -0.2674  1.2758
 2364TIP3    H2 7099   4.241   4.619   1.733  0.2131 -1.7019 -1.0293
 2365TIP3   OH2 7100   2.786   2.588   4.870  0.2335 -0.6897  0.3711
 2365TIP3    H1 7101   2.818   2.616   4.784  0.6487  0.7307  0.9533
 2365TIP3    H2 7102   2.695   2.563   4.855 -0.5785  2.1207 -0.0623
 2366TIP3   OH2 7103   4.981   5.265   1.766 -0.2355 -0.1312 -0.6869
 2366TIP3    H1 7104   4.935   5.324   1.826  1.6105 -0.5458  1.2514
 2366TIP3    H2 7105   4.954   5.177   1.793  1.9563 -0.4035  0.8182
 2367TIP3   OH2 7106   5.907   5.223   1.331  0.2884  0.2540 -0.7087
 2367TIP3    H1 7107   5.898   5.281   1.255 -0.8097  0.4872 -0.4186
 2367TIP3    H2 7108   5.989   5.251   1.373  0.8674  0.1666 -1.7635
 2368TIP3   OH2 7109   4.135   5.548   3.158 -0.1074  0.3816  0.4534
 2368TIP3    H1 7110   4.054   5.501   3.177 -0.3970  0.3909 -0.6976
 2368TIP3    H2 7111   4.180   5.493   3.093  0.8986  0.2797  1.2168
 2369TIP3   OH2 7112   6.089   3.990   2.876 -0.1067  0.9829 -0.0279
 2369TIP3    H1 7113   6.024   4.032   2.820 -0.9111 -0.3859 -0.1759
 2369TIP3    H2 7114   6.164   3.974   2.818 -1.2558 -1.2308 -1.0716
 2370TIP3   OH2 7115   0.193   5.296   0.943  0.2702  0.4096 -0.0627
 2370TIP3    H1 7116   0.237   5.378   0.965 -1.0469  1.2783 -0.4808
 2370TIP3    H2 7117   0.149   5.270   1.025  2.4059 -1.0699  0.6792
 2371TIP3   OH2 7118   5.758   1.976   0.119 -0.0594 -0.1740  0.1060
 2371TIP3    H1 7119   5.851   1.999   0.120  0.0136 -0.4496  1.5524
 2371TIP3    H2 7120   5.725   2.013   0.037  1.1922  0.4376 -0.1431
 2372TIP3   OH2 7121   0.474   4.800   5.097  0.0423 -0.3157 -0.4883
 2372TIP3    H1 7122   0.560   4.841   5.107 -0.0165 -0.0768 -0.9065
 2372TIP3    H2 7123   0.440   4.837   5.015 -0.4624 -0.3995 -0.3180
 2373TIP3   OH2 7124   2.703   5.629   5.063  0.0979 -0.1554 -0.7006
 2373TIP3    H1 7125   2.638   5.595   5.002 -1.3951  0.8579  0.2574
 2373TIP3    H2 7126   2.714   5.561   5.128 -1.7618  0.5325  0.3927
 2374TIP3   OH2 7127   1.729   4.615   1.630 -0.5864 -0.2553 -0.3980
 2374TIP3    H1 7128   1.671   4.683   1.597 -1.1832 -1.2927 -1.5787
 2374TIP3    H2 7129   1.679   4.572   1.699 -1.0224 -0.7899 -1.0371
 2375TIP3   OH2 7130   1.597   3.351   0.588 -0.2452 -0.0228  0.8337
 2375TIP3    H1 7131   1.619   3.316   0.675 -2.1268 -0.8623  1.0342
 2375TIP3    H2 7132   1.619   3.280   0.528  0.6175  0.3828  0.6572
 2376TIP3   OH2 7133   5.545   3.128   4.287 -0.1631  0.1516  0.3811
 2376TIP3    H1 7134   5.609   3.125   4.217 -1.4081 -0.7589 -0.7794
 2376TIP3    H2 7135   5.595   3.108   4.366  1.1036  0.2206 -0.3767
 2377TIP3   OH2 7136   4.198   2.213   4.336 -0.2177  0.1903 -0.5283
 2377TIP3    H1 7137   4.284   2.199   4.376 -1.1351 -0.0788  1.4436
 2377TIP3    H2 7138   4.151   2.270   4.397 -2.0510 -1.0631 -0.6736
 2378TIP3   OH2 7139   3.714   0.675   0.837 -0.3052  0.3560 -0.3887
 2378TIP3    H1 7140   3.760   0.748   0.880 -1.4417  0.8871 -0.0307
 2378TIP3    H2 7141   3.777   0.642   0.773  0.5352  1.1297  0.0037
 2379TIP3   OH2 7142   0.219   0.203   1.008 -0.2388 -0.3448 -0.0761
 2379TIP3    H1 7143   0.235   0.204   1.102 -0.8361 -0.6990  0.0277
 2379TIP3    H2 7144   0.155   0.272   0.993  2.1853  1.9439 -0.6643
 2380TIP3   OH2 7145   0.957   5.481   1.061  0.2201 -0.1299  0.1208
 2380TIP3    H1 7146   1.010   5.519   0.991  0.9155  0.9528  1.1868
 2380TIP3    H2 7147   0.867   5.496   1.034  0.4779  1.3103 -0.0195
 2381TIP3   OH2 7148   2.167   0.862   1.371 -0.5532  0.4882 -0.3686
 2381TIP3    H1 7149   2.084   0.909   1.381 -0.7259  0.0590  0.2781
 2381TIP3    H2 7150   2.221   0.893   1.444 -0.5729 -0.1055 -0.0942
 2382TIP3   OH2 7151   3.822   3.511   4.754  0.1516  0.5015 -0.4666
 2382TIP3    H1 7152   3.831   3.561   4.835  0.6556 -0.3301 -0.0033
 2382TIP3    H2 7153   3.728   3.498   4.745  0.0791  0.7552 -0.1133
 2383TIP3   OH2 7154   0.970   1.999   3.029 -0.5562 -0.0317 -0.0642
 2383TIP3    H1 7155   0.877   1.981   3.043 -0.2907 -0.8054  0.8296
 2383TIP3    H2 7156   0.999   1.930   2.970 -0.6807  0.5785 -0.8456
 2384TIP3   OH2 7157   0.827   1.655   2.336  0.1072 -0.5053  0.2870
 2384TIP3    H1 7158   0.887   1.680   2.266  0.0117 -0.2587  0.2908
 2384TIP3    H2 7159   0.880   1.659   2.415 -0.2061  0.9687  0.4672
 2385TIP3   OH2 7160   1.360   2.818   4.890 -0.0207  0.0225 -0.5464
 2385TIP3    H1 7161   1.321   2.839   4.805  2.4070 -1.8935 -2.3372
 2385TIP3    H2 7162   1.314   2.740   4.919 -1.8855  1.5286  0.7694
 2386TIP3   OH2 7163   0.864   4.632   2.445 -0.2090  0.1075 -0.4287
 2386TIP3    H1 7164   0.835   4.562   2.504  0.1266 -0.5463 -1.0333
 2386TIP3    H2 7165   0.958   4.639   2.461 -0.5090  1.6514  0.9165
 2387TIP3   OH2 7166   5.255   5.709   2.270 -0.1947 -0.2390 -0.3141
 2387TIP3    H1 7167   5.272   5.795   2.310  1.3849  0.1366 -1.6621
 2387TIP3    H2 7168   5.244   5.729   2.177 -2.2699 -1.2547 -0.3249
 2388TIP3   OH2 7169   2.440   3.554   0.606  0.3722  0.1956  0.4763
 2388TIP3    H1 7170   2.437   3.562   0.702 -3.4939  0.3415  0.4966
 2388TIP3    H2 7171   2.369   3.493   0.585  1.7842 -0.6504 -2.2883
 2389TIP3   OH2 7172   1.566   0.570   2.259  0.0827  0.5484 -0.6197
 2389TIP3    H1 7173   1.657   0.566   2.231 -0.1370 -0.6624 -1.2737
 2389TIP3    H2 7174   1.560   0.647   2.315  1.6549  0.2502 -0.0032
 2390TIP3   OH2 7175   6.182   3.546   0.590  0.3146  0.2505 -0.0691
 2390TIP3    H1 7176   6.136   3.616   0.637 -1.0445 -0.4169 -0.3607
 2390TIP3    H2 7177   6.113   3.491   0.554  1.3288 -1.6079  0.6580
 2391TIP3   OH2 7178   1.881   1.644   0.364 -0.5339  0.1504  0.1409
 2391TIP3    H1 7179   1.959   1.589   0.373 -0.3695  0.5686  1.6162
 2391TIP3    H2 7180   1.901   1.703   0.292  0.5406  0.2714  0.5185
 2392TIP3   OH2 7181   0.234   1.637   3.760 -0.1405  0.2898  0.1430
 2392TIP3    H1 7182   0.240   1.691   3.681  1.7690 -0.7469 -0.4818
 2392TIP3    H2 7183   0.220   1.548   3.727 -0.0998 -0.0470  1.0231
 2393TIP3   OH2 7184   3.026   5.327   2.221  0.4207 -0.5515 -0.1672
 2393TIP3    H1 7185   3.052   5.415   2.249  0.6854  0.3674 -2.9457
 2393TIP3    H2 7186   2.937   5.317   2.254  0.7015  0.3892  0.9353
 2394TIP3   OH2 7187   4.556   2.999   2.791 -0.5484 -0.4593  0.2078
 2394TIP3    H1 7188   4.523   2.915   2.821 -1.6769  0.2797  1.1071
 2394TIP3    H2 7189   4.491   3.063   2.820  0.4147  0.7628 -0.2062
 2395TIP3   OH2 7190   5.974   1.447   1.368  0.2045 -0.4059  0.4676
 2395TIP3    H1 7191   5.936   1.397   1.439 -0.0131  0.2242  0.8056
 2395TIP3    H2 7192   6.068   1.444   1.384  0.2848 -1.6680 -0.1704
 2396TIP3   OH2 7193   4.053   5.853   2.984 -0.0929  0.0046 -0.0780
 2396TIP3    H1 7194   4.146   5.847   2.962 -0.1593 -1.0680 -0.1443
 2396TIP3    H2 7195   4.015   5.773   2.946 -0.9933  0.3141  0.1620
 2397TIP3   OH2 7196   3.861   4.309   0.620 -0.2510 -0.5234 -0.6029
 2397TIP3    H1 7197   3.808   4.230   0.623  0.5369 -1.1230 -1.7713
 2397TIP3    H2 7198   3.856   4.338   0.529  0.0464  0.3748 -0.3434
 2398TIP3   OH2 7199   3.292   3.494   4.196  0.3114  0.2917 -0.0661
 2398TIP3    H1 7200   3.315   3.460   4.283  0.2932  0.2425 -0.0804
 2398TIP3    H2 7201   3.335   3.579   4.192 -0.2191  0.5875  0.2519
 2399TIP3   OH2 7202   1.988   1.009   2.263 -0.1281  0.3663  0.0619
 2399TIP3    H1 7203   2.070   0.961   2.251  0.5884  1.0924  1.8451
 2399TIP3    H2 7204   1.956   0.981   2.348 -2.4906 -0.9356 -1.1501
 2400TIP3   OH2 7205   0.470   3.856   1.224  0.1162 -0.8892  0.4168
 2400TIP3    H1 7206   0.400   3.824   1.166 -0.3233 -1.0988  1.0568
 2400TIP3    H2 7207   0.513   3.924   1.173 -1.0920 -0.1593  0.3206
 2401TIP3   OH2 7208   5.525   5.222   4.669  0.3948 -0.0548  0.5025
 2401TIP3    H1 7209   5.437   5.228   4.633  1.3629  1.6270 -1.8638
 2401TIP3    H2 7210   5.580   5.266   4.604  2.6137  1.3864  3.1580
 2402TIP3   OH2 7211   5.878   2.472   0.973 -0.0616 -0.1024 -0.4455
 2402TIP3    H1 7212   5.852   2.389   0.933  0.1650 -0.7782  0.7538
 2402TIP3    H2 7213   5.802   2.528   0.961 -0.7728 -0.9445 -0.0567
 2403TIP3   OH2 7214   6.333   3.366   4.422  0.4152  0.2656  0.2640
 2403TIP3    H1 7215   6.362   3.425   4.492  0.1538  0.7079  0.0075
 2403TIP3    H2 7216   6.331   3.421   4.343  0.3787 -0.1419 -0.0249
 2404TIP3   OH2 7217   0.749   1.026   5.113  0.0005 -0.0877 -0.7710
 2404TIP3    H1 7218   0.723   1.011   5.022 -1.1721 -0.8761 -0.3288
 2404TIP3    H2 7219   0.753   1.121   5.121  1.2610 -0.0072 -1.9322
 2405TIP3   OH2 7220   5.049   2.525   0.938 -0.0425 -0.4057  0.1330
 2405TIP3    H1 7221   5.061   2.504   0.845 -0.1528  0.6313 -0.1230
 2405TIP3    H2 7222   4.967   2.482   0.962 -0.4060 -0.0578 -0.4567
 2406TIP3   OH2 7223   1.029   3.417   2.120  0.2996 -0.1928  0.3113
 2406TIP3    H1 7224   1.118   3.425   2.155  0.1621 -1.0180  0.8831
 2406TIP3    H2 7225   1.038   3.357   2.046  0.5550  1.3950 -1.0098
 2407TIP3   OH2 7226   5.974   5.613   0.453  0.3245  0.2725  0.1688
 2407TIP3    H1 7227   6.064   5.585   0.439 -0.2626 -1.7686  0.2160
 2407TIP3    H2 7228   5.976   5.662   0.535  1.5590  1.2300 -0.4038
 2408TIP3   OH2 7229   6.091   0.145   2.995 -0.4340 -0.5823  0.4785
 2408TIP3    H1 7230   6.126   0.057   2.978  0.5046 -0.0969 -0.1700
 2408TIP3    H2 7231   6.034   0.134   3.071 -0.9979 -1.9220 -0.1073
 2409TIP3   OH2 7232   3.930   0.841   0.194 -0.2670  0.3905  0.3493
 2409TIP3    H1 7233   3.918   0.901   0.120 -0.5258 -0.3951 -0.2695
 2409TIP3    H2 7234   3.878   0.879   0.265 -0.4447  0.8867 -0.0414
 2410TIP3   OH2 7235   2.151   5.859   4.963  0.2161  0.9549  0.1054
 2410TIP3    H1 7236   2.056   5.847   4.956  0.0787  1.5221  0.7950
 2410TIP3    H2 7237   2.179   5.881   4.874 -0.5294  2.1933  0.1520
 2411TIP3   OH2 7238   0.680   5.834   3.674 -0.2474  0.0757 -0.1550
 2411TIP3    H1 7239   0.746   5.802   3.736  0.0339  0.7199 -0.1114
 2411TIP3    H2 7240   0.720   5.820   3.588  0.4293  1.4679 -0.0929
 2412TIP3   OH2 7241   3.578   2.187   3.788 -0.5629 -0.7998  0.1758
 2412TIP3    H1 7242   3.668   2.220   3.795 -0.6149 -0.6384  0.0744
 2412TIP3    H2 7243   3.528   2.240   3.850 -0.5742 -0.9445  0.2925
 2413TIP3   OH2 7244   5.951   3.192   0.705 -0.0432 -0.7984 -0.0446
 2413TIP3    H1 7245   5.979   3.251   0.635 -0.2975 -0.7103 -0.0721
 2413TIP3    H2 7246   5.908   3.249   0.769 -0.5477 -0.9928 -0.2084
 2414TIP3   OH2 7247   0.114   0.517   3.683  0.4633  0.0113 -0.2597
 2414TIP3    H1 7248   0.117   0.580   3.611  2.8841  0.5470  0.2271
 2414TIP3    H2 7249   0.144   0.565   3.759 -2.5528 -0.4060  1.3476
 2415TIP3   OH2 7250   1.567   0.601   3.084 -0.3068 -0.3889  0.1753
 2415TIP3    H1 7251   1.612   0.544   3.022  0.0025  0.5532 -0.4754
 2415TIP3    H2 7252   1.536   0.541   3.152 -0.9406 -1.4925 -1.0350
 2416TIP3   OH2 7253   1.933   3.233   0.929  0.1149  0.4047 -0.1045
 2416TIP3    H1 7254   1.899   3.312   0.971  1.4576 -0.3278  2.6537
 2416TIP3    H2 7255   2.027   3.250   0.918  0.1802 -0.2963 -0.7610
 2417TIP3   OH2 7256   0.828   3.575   3.407 -0.4578 -0.2901 -0.0651
 2417TIP3    H1 7257   0.788   3.631   3.341  0.2054 -1.8518 -1.8856
 2417TIP3    H2 7258   0.876   3.509   3.357  0.7785 -1.0627  1.9982
 2418TIP3   OH2 7259   1.562   0.322   0.964  0.4716  0.2541  0.2727
 2418TIP3    H1 7260   1.571   0.316   1.060 -2.3066 -0.1008  0.5864
 2418TIP3    H2 7261   1.573   0.232   0.934 -0.0024  0.1398  0.4274
 2419TIP3   OH2 7262   6.181   3.243   1.910  0.2360 -0.1758  0.1780
 2419TIP3    H1 7263   6.142   3.160   1.883  2.6025 -2.2444  2.5737
 2419TIP3    H2 7264   6.106   3.302   1.920 -1.3297 -0.7915 -4.7622
 2420TIP3   OH2 7265   1.153   0.077   4.110 -0.3496 -0.1064  0.1682
 2420TIP3    H1 7266   1.079   0.089   4.168  0.3224  0.3755  0.9418
 2420TIP3    H2 7267   1.219   0.139   4.141 -0.1852  0.5936 -1.4666
 2421TIP3   OH2 7268   5.978   4.393   2.716 -0.2896 -0.1177 -0.2501
 2421TIP3    H1 7269   5.989   4.484   2.745  0.9549 -0.3068 -0.0885
 2421TIP3    H2 7270   5.894   4.367   2.754  0.6403  0.0828  2.1460
 2422TIP3   OH2 7271   5.749   3.779   3.404 -0.8054  0.2403  0.6308
 2422TIP3    H1 7272   5.786   3.707   3.456 -0.5336 -0.5718 -0.6184
 2422TIP3    H2 7273   5.708   3.735   3.329  3.3065  1.4033 -2.6988
 2423TIP3   OH2 7274   5.558   0.229   3.729 -0.0521  0.5594  0.3899
 2423TIP3    H1 7275   5.559   0.175   3.650  1.1680  1.4454 -0.2228
 2423TIP3    H2 7276   5.647   0.223   3.764 -0.2244  1.2288  0.9681
 2424TIP3   OH2 7277   2.864   1.132   2.518 -0.6632  0.4754 -0.0049
 2424TIP3    H1 7278   2.918   1.069   2.471  1.1022  2.0025 -0.1308
 2424TIP3    H2 7279   2.856   1.097   2.606  0.3097  0.0593 -0.0721
 2425TIP3   OH2 7280   3.235   1.935   4.869 -0.3031 -0.5763 -0.2675
 2425TIP3    H1 7281   3.171   1.959   4.936  0.4225 -1.1750  0.6698
 2425TIP3    H2 7282   3.320   1.938   4.914  0.1551 -1.4487 -1.0189
 2426TIP3   OH2 7283   3.694   4.916   3.321 -0.2371 -0.9874  0.5309
 2426TIP3    H1 7284   3.613   4.871   3.343 -1.5936  0.6728 -0.7290
 2426TIP3    H2 7285   3.728   4.870   3.244 -0.3523 -1.2869  0.6605
 2427TIP3   OH2 7286   4.358   0.039   3.514  0.1538 -0.3129 -0.4061
 2427TIP3    H1 7287   4.316  -0.009   3.586 -0.5844  0.3612 -0.3751
 2427TIP3    H2 7288   4.397   0.116   3.557  0.1292 -0.1620 -0.6532
 2428TIP3   OH2 7289   2.690   2.165   2.087 -0.3458 -0.9411 -0.3066
 2428TIP3    H1 7290   2.749   2.093   2.069 -0.0957 -0.6128 -0.8342
 2428TIP3    H2 7291   2.729   2.211   2.162 -1.1025 -1.9926  0.7881
 2429TIP3   OH2 7292   2.368   1.206   1.713 -0.2403 -0.5011 -0.6589
 2429TIP3    H1 7293   2.355   1.212   1.619  0.1919 -1.1777 -0.7763
 2429TIP3    H2 7294   2.463   1.213   1.724 -0.3543  0.4060 -0.1958
 2430TIP3   OH2 7295   4.821   1.181   4.241  0.2374 -0.1174  0.1969
 2430TIP3    H1 7296   4.808   1.087   4.242 -0.0138 -0.0821  0.0680
 2430TIP3    H2 7297   4.734   1.218   4.229  0.2277  0.1535  1.0028
 2431TIP3   OH2 7298   5.752   4.499   3.450 -0.0426  0.2841  0.1289
 2431TIP3    H1 7299   5.753   4.486   3.545  0.2430 -0.0144  0.0878
 2431TIP3    H2 7300   5.810   4.574   3.435 -1.5027  1.5088  0.3461
 2432TIP3   OH2 7301   5.357   2.601   3.228  0.0064  0.3581 -0.2913
 2432TIP3    H1 7302   5.432   2.543   3.222  0.2577 -0.0659  3.9896
 2432TIP3    H2 7303   5.283   2.543   3.247 -0.5474  1.0964 -0.1146
 2433TIP3   OH2 7304   2.104   0.725   0.500  1.0788 -0.1575  0.1148
 2433TIP3    H1 7305   2.094   0.648   0.444 -1.0790  0.5800 -0.5950
 2433TIP3    H2 7306   2.095   0.690   0.589  1.2616 -0.8759 -0.1362
 2434TIP3   OH2 7307   3.379   0.987   0.568 -0.3094 -0.3473  0.0309
 2434TIP3    H1 7308   3.458   0.934   0.565 -0.7689 -1.3438  2.4754
 2434TIP3    H2 7309   3.319   0.937   0.624 -1.5957  1.7074  0.6158
 2435TIP3   OH2 7310   2.476   4.060   2.736 -0.1119  0.2255 -0.6772
 2435TIP3    H1 7311   2.394   4.096   2.702 -1.1637  0.3028  1.7259
 2435TIP3    H2 7312   2.498   4.116   2.811  0.9518 -1.0830  0.0428
 2436TIP3   OH2 7313   2.928   1.743   1.592  0.2077  0.0966  0.0049
 2436TIP3    H1 7314   2.950   1.798   1.667  1.4658  2.6066 -2.0420
 2436TIP3    H2 7315   2.834   1.756   1.580 -0.0816 -0.6354  1.3271
 2437TIP3   OH2 7316   5.622   5.327   4.892  0.3443  0.2563  0.9373
 2437TIP3    H1 7317   5.568   5.286   4.825 -0.8565  1.4628  1.1385
 2437TIP3    H2 7318   5.653   5.253   4.945 -1.5317 -0.4580  1.1296
 2438TIP3   OH2 7319   2.473   1.465   5.165 -0.3985  0.0433 -0.1522
 2438TIP3    H1 7320   2.496   1.373   5.151 -0.8041 -0.1388  0.3498
 2438TIP3    H2 7321   2.382   1.463   5.192  0.1726  0.3895  1.9827
 2439TIP3   OH2 7322   6.291   3.600   4.279 -0.4528 -0.2639  0.1644
 2439TIP3    H1 7323   6.259   3.666   4.217 -2.1156 -2.0787 -1.0078
 2439TIP3    H2 7324   6.385   3.598   4.265 -0.8016 -0.8095 -2.5576
 2440TIP3   OH2 7325   3.374   5.036   3.513  0.2838  0.5982 -0.1012
 2440TIP3    H1 7326   3.317   5.045   3.590 -1.4897 -0.3091 -1.2424
 2440TIP3    H2 7327   3.458   5.072   3.542 -0.8065  1.9215  1.7006
 2441TIP3   OH2 7328   5.285   5.047   3.691  0.1370  0.1268  0.6587
 2441TIP3    H1 7329   5.234   5.125   3.668 -0.2687  0.3872  2.3548
 2441TIP3    H2 7330   5.376   5.076   3.684  0.0286  0.3326 -0.0750
 2442TIP3   OH2 7331   1.173   2.256   3.118  0.4228 -0.2431  0.2051
 2442TIP3    H1 7332   1.100   2.306   3.154 -0.2790 -0.3021 -1.1012
 2442TIP3    H2 7333   1.136   2.170   3.098  0.8854 -0.3286 -0.3141
 2443TIP3   OH2 7334   5.803   0.995   2.431  0.0546  0.5699 -0.4819
 2443TIP3    H1 7335   5.790   1.087   2.411 -2.1320  0.4692  0.2673
 2443TIP3    H2 7336   5.715   0.957   2.428  0.9525 -1.5876 -1.1880
 2444TIP3   OH2 7337   3.779   0.969   2.123 -0.0943  0.3001 -0.4413
 2444TIP3    H1 7338   3.855   0.991   2.070 -1.5261  0.6918 -2.4186
 2444TIP3    H2 7339   3.709   0.952   2.060 -1.2052 -1.9510  1.2216
 2445TIP3   OH2 7340   5.092   0.259   4.916  0.4074 -0.4553  0.2201
 2445TIP3    H1 7341   5.122   0.347   4.894 -1.4243  0.0721 -0.3938
 2445TIP3    H2 7342   5.011   0.274   4.966 -0.0772 -1.7812 -0.1278
 2446TIP3   OH2 7343   1.176   4.402   4.399  0.1457 -0.2496 -0.1121
 2446TIP3    H1 7344   1.162   4.332   4.463 -0.1203 -0.0135  0.0937
 2446TIP3    H2 7345   1.109   4.467   4.420 -0.2210 -0.3632 -0.9042
 2447TIP3   OH2 7346   3.463   1.724   0.081  0.5772  0.1466  0.4890
 2447TIP3    H1 7347   3.434   1.813   0.063  0.3470 -0.0832 -0.3207
 2447TIP3    H2 7348   3.558   1.727   0.070  0.5469  0.2507  0.2421
 2448TIP3   OH2 7349   1.092   0.978   3.986 -0.3167 -0.0169 -0.2370
 2448TIP3    H1 7350   1.099   0.883   3.976 -1.2689 -0.1177 -0.0406
 2448TIP3    H2 7351   1.029   1.004   3.919 -0.1419  0.4606 -0.2168
 2449TIP3   OH2 7352   0.931   3.738   4.880  0.2834 -0.4510 -0.7727
 2449TIP3    H1 7353   0.959   3.799   4.948  0.1145 -0.3412 -0.8035
 2449TIP3    H2 7354   0.976   3.768   4.801  1.1542 -1.0732 -0.5424
 2450TIP3   OH2 7355   5.829   0.105   0.060  0.1938  0.4849 -0.0441
 2450TIP3    H1 7356   5.866   0.171   0.002 -0.7719  0.3484 -0.8294
 2450TIP3    H2 7357   5.766   0.152   0.114  0.1251  0.3712 -0.0231
 2451TIP3   OH2 7358   5.428   2.470   4.526  0.4261  0.2479  0.6730
 2451TIP3    H1 7359   5.447   2.410   4.454 -0.3686  1.3655 -0.5339
 2451TIP3    H2 7360   5.415   2.414   4.602  1.5628 -0.9577  0.0212
 2452TIP3   OH2 7361   5.781   2.871   2.513 -0.4594  0.0794  0.2830
 2452TIP3    H1 7362   5.826   2.791   2.540 -1.5382 -0.5960  0.1198
 2452TIP3    H2 7363   5.852   2.931   2.488  0.4065 -0.4361  1.4064
 2453TIP3   OH2 7364   4.812   1.500   1.268 -0.1210  0.1556  0.2103
 2453TIP3    H1 7365   4.807   1.512   1.363 -0.3349  0.4029  0.1695
 2453TIP3    H2 7366   4.761   1.573   1.232 -0.6799 -0.3657 -0.0752
 2454TIP3   OH2 7367   3.632   4.282   1.747 -0.4629 -0.0340 -0.3175
 2454TIP3    H1 7368   3.552   4.229   1.748  0.2766 -1.1870  1.5063
 2454TIP3    H2 7369   3.696   4.228   1.699  0.3413 -0.9824  1.6899
 2455TIP3   OH2 7370   0.922   3.884   3.003 -0.4373  0.0780 -0.2280
 2455TIP3    H1 7371   0.982   3.818   2.968 -1.0210 -0.7097  0.2172
 2455TIP3    H2 7372   0.864   3.905   2.929  0.5744  1.1091 -0.7680
 2456TIP3   OH2 7373   4.907   2.759   0.923  0.3718  0.3648 -1.1560
 2456TIP3    H1 7374   4.959   2.678   0.928  1.9540  1.4129  0.6655
 2456TIP3    H2 7375   4.869   2.768   1.010 -0.5094  1.1619 -1.6100
 2457TIP3   OH2 7376   2.344   0.856   4.971 -0.2094 -0.6342 -0.4489
 2457TIP3    H1 7377   2.278   0.925   4.982 -0.7536 -1.3935  1.5464
 2457TIP3    H2 7378   2.409   0.894   4.912  0.0105  1.9800  1.2987
 2458TIP3   OH2 7379   0.435   1.989   1.345  0.1227  0.3018 -0.0317
 2458TIP3    H1 7380   0.365   1.992   1.410 -0.9228 -0.3031 -1.0854
 2458TIP3    H2 7381   0.445   2.080   1.317 -2.4798  0.0944 -2.0987
 2459TIP3   OH2 7382   3.096   3.357   4.347  0.2425 -0.5349  0.6857
 2459TIP3    H1 7383   3.115   3.389   4.259 -0.9666  1.1256  0.9787
 2459TIP3    H2 7384   3.013   3.311   4.338 -0.1226  0.0481  1.0378
 2460TIP3   OH2 7385   3.041   0.121   4.940 -0.5325 -0.0092 -0.0043
 2460TIP3    H1 7386   3.014   0.032   4.964 -0.0016 -0.1506  0.0650
 2460TIP3    H2 7387   3.067   0.115   4.848  2.2364 -0.5669  0.7357
 2461TIP3   OH2 7388   3.037   3.351   3.087 -0.7775  0.2822 -0.0824
 2461TIP3    H1 7389   3.117   3.322   3.130 -0.1755  3.0602  0.8706
 2461TIP3    H2 7390   3.047   3.321   2.996  2.9541  3.1407 -0.8706
 2462TIP3   OH2 7391   6.089   4.983   2.652 -0.1248 -0.7430 -0.4760
 2462TIP3    H1 7392   5.997   4.999   2.672  0.1017 -1.5204  1.4018
 2462TIP3    H2 7393   6.100   4.889   2.666  1.0334 -0.5950 -0.3067
 2463TIP3   OH2 7394   0.494   0.559   2.653 -0.5134  0.0118 -0.3013
 2463TIP3    H1 7395   0.457   0.632   2.605  0.6727 -0.3005 -1.7569
 2463TIP3    H2 7396   0.578   0.541   2.610 -0.1975 -1.4027  0.8004
 2464TIP3   OH2 7397   0.718   2.198   0.415 -0.0118  0.7593 -0.0805
 2464TIP3    H1 7398   0.743   2.198   0.323 -0.5555 -1.7548 -0.3099
 2464TIP3    H2 7399   0.800   2.180   0.461  0.1418  1.3661 -0.1065
 2465TIP3   OH2 7400   3.517   3.007   1.915  0.5789 -0.1141  0.1184
 2465TIP3    H1 7401   3.518   2.921   1.958 -0.0240  0.2176  0.8208
 2465TIP3    H2 7402   3.609   3.033   1.911  0.7940 -0.9171 -0.3691
 2466TIP3   OH2 7403   2.729   0.186   1.423 -0.3102 -0.2615 -0.7350
 2466TIP3    H1 7404   2.795   0.164   1.489 -0.9536 -0.6794 -0.2222
 2466TIP3    H2 7405   2.646   0.188   1.471 -0.7327 -0.1640 -1.4537
 2467TIP3   OH2 7406   2.911   3.482   3.803  0.4143  0.5316 -0.3418
 2467TIP3    H1 7407   2.985   3.537   3.780  1.2130 -0.3523  0.0572
 2467TIP3    H2 7408   2.926   3.457   3.894 -1.2629  1.7137  0.3046
 2468TIP3   OH2 7409   0.757   3.137   1.951 -0.3271 -0.2840 -0.1613
 2468TIP3    H1 7410   0.811   3.184   1.888  0.7814  0.5739  1.3548
 2468TIP3    H2 7411   0.768   3.045   1.928  0.9997 -0.0634 -0.5111
 2469TIP3   OH2 7412   4.531   2.961   2.516 -0.2249  0.6107  0.7823
 2469TIP3    H1 7413   4.516   2.958   2.610 -0.2714  0.9922  0.7859
 2469TIP3    H2 7414   4.621   2.929   2.505  0.4438  2.2718  1.1185
 2470TIP3   OH2 7415   0.983   1.983   1.696 -0.4497  0.3161  0.1174
 2470TIP3    H1 7416   0.902   1.973   1.645  0.0994 -0.9743 -0.5501
 2470TIP3    H2 7417   0.961   1.949   1.782 -0.6640  0.1585  0.0026
 2471TIP3   OH2 7418   6.225   4.381   3.929 -0.3450 -0.1681 -0.3738
 2471TIP3    H1 7419   6.300   4.327   3.906 -0.3706 -0.7656  0.8678
 2471TIP3    H2 7420   6.245   4.467   3.892  1.4455 -0.0357  0.7839
 2472TIP3   OH2 7421   5.292   1.122   0.184  0.4247 -0.2838  0.1037
 2472TIP3    H1 7422   5.368   1.112   0.242 -1.0537 -1.2038  2.0064
 2472TIP3    H2 7423   5.271   1.034   0.155  1.2833  0.1850 -2.1568
 2473TIP3   OH2 7424   6.003   1.284   1.030  0.5587 -0.1432 -0.0072
 2473TIP3    H1 7425   5.931   1.327   0.983  0.2831  1.0225  1.4167
 2473TIP3    H2 7426   6.048   1.233   0.962 -0.4160  0.6726 -1.3360
 2474TIP3   OH2 7427   0.959   0.716   4.745  0.5148 -0.5876  0.0766
 2474TIP3    H1 7428   1.016   0.725   4.822  0.6750  0.0194 -0.1088
 2474TIP3    H2 7429   0.871   0.730   4.779  0.6009 -0.1419  0.1246
 2475TIP3   OH2 7430   2.874   2.791   3.751  0.4183  0.3256 -0.2853
 2475TIP3    H1 7431   2.853   2.699   3.731  1.9130 -0.5422  1.7550
 2475TIP3    H2 7432   2.867   2.836   3.667 -2.5854 -1.1539 -0.9882
 2476TIP3   OH2 7433   4.760   0.807   0.963  0.3361  0.3792  0.0259
 2476TIP3    H1 7434   4.845   0.790   1.003  0.7600  0.1503 -0.9419
 2476TIP3    H2 7435   4.696   0.776   1.027  0.9971 -0.0127  0.5011
 2477TIP3   OH2 7436   2.265   1.669   3.067  0.5513 -0.2498  0.6414
 2477TIP3    H1 7437   2.206   1.676   3.142  0.6814  1.7943  0.6045
 2477TIP3    H2 7438   2.336   1.613   3.097  1.0564  1.2452  2.3882
 2478TIP3   OH2 7439   4.202   2.025   4.894  0.3838  0.4884  0.1881
 2478TIP3    H1 7440   4.276   2.031   4.955 -1.2966  1.4774  2.2718
 2478TIP3    H2 7441   4.203   2.108   4.846  2.7538 -0.9698 -2.5962
 2479TIP3   OH2 7442   0.378   1.315   4.321 -0.6451  0.3277 -0.0488
 2479TIP3    H1 7443   0.311   1.252   4.345 -0.9237  0.7377  0.2618
 2479TIP3    H2 7444   0.404   1.290   4.232 -1.9542  0.7931 -0.5909
 2480TIP3   OH2 7445   5.211   5.867   2.948  0.1539  0.3097  0.2194
 2480TIP3    H1 7446   5.282   5.867   3.012  0.2225 -0.4369  0.1587
 2480TIP3    H2 7447   5.214   5.779   2.909  0.0414  0.7108 -0.7284
 2481TIP3   OH2 7448   4.396   5.188   2.115 -0.0463 -0.1323 -0.0157
 2481TIP3    H1 7449   4.363   5.256   2.056 -1.1606 -0.6583 -0.0134
 2481TIP3    H2 7450   4.386   5.225   2.202 -2.6746 -1.0596  0.1603
 2482TIP3   OH2 7451   0.144   0.516   1.994  0.4371 -0.4725 -0.4067
 2482TIP3    H1 7452   0.128   0.488   1.904  0.6805  1.0723 -0.9609
 2482TIP3    H2 7453   0.223   0.468   2.020  1.9708  1.0523 -1.9936
 2483TIP3   OH2 7454   3.445   0.878   2.927  0.4389  0.2921 -0.0751
 2483TIP3    H1 7455   3.408   0.934   2.995  0.6210  0.6668 -0.2780
 2483TIP3    H2 7456   3.369   0.834   2.888  0.3909 -0.3910  0.7718
 2484TIP3   OH2 7457   5.309   5.307   2.985  0.2862  0.1872  0.4064
 2484TIP3    H1 7458   5.327   5.280   3.075 -1.3853 -0.7703  0.5023
 2484TIP3    H2 7459   5.252   5.238   2.950  1.3502  0.2374 -1.5905
 2485TIP3   OH2 7460   3.102   4.762   1.120 -0.0726 -0.2254 -0.0867
 2485TIP3    H1 7461   3.158   4.828   1.161 -0.3295 -0.0859  0.0437
 2485TIP3    H2 7462   3.087   4.697   1.189  0.6898 -0.7465 -0.3992
 2486TIP3   OH2 7463   3.932   5.800   1.612 -0.6086  0.8664  0.6071
 2486TIP3    H1 7464   3.921   5.749   1.692  0.6531 -1.9879 -0.8974
 2486TIP3    H2 7465   4.007   5.856   1.630 -0.3331  0.2640  1.4019
 2487TIP3   OH2 7466   3.585   1.323   0.593 -0.0208  0.4987  0.0785
 2487TIP3    H1 7467   3.656   1.365   0.545 -1.5170  0.8963 -1.9050
 2487TIP3    H2 7468   3.545   1.263   0.530 -1.4474  0.2701  1.1406
 2488TIP3   OH2 7469   1.045   2.385   2.112 -0.2132 -0.0028 -0.4665
 2488TIP3    H1 7470   1.012   2.457   2.165  0.2953  0.6451 -1.0209
 2488TIP3    H2 7471   0.968   2.334   2.088 -0.5030 -0.0191  0.4684
 2489TIP3   OH2 7472   3.240   4.357   3.697  0.0565  0.3324  0.2132
 2489TIP3    H1 7473   3.264   4.435   3.647  1.7354  0.5495  1.2643
 2489TIP3    H2 7474   3.154   4.377   3.735  0.6793  1.8749  0.8526
 2490TIP3   OH2 7475   1.302   3.941   2.836  0.1914 -0.5616 -0.1086
 2490TIP3    H1 7476   1.244   3.996   2.888  1.9154  1.5321 -0.2826
 2490TIP3    H2 7477   1.257   3.932   2.752 -0.1374  0.5564 -0.0593
 2491TIP3   OH2 7478   0.998   5.657   4.389 -0.1057  0.3101 -0.0734
 2491TIP3    H1 7479   0.944   5.583   4.417 -0.8579  1.7551  2.6524
 2491TIP3    H2 7480   0.951   5.693   4.313 -0.9743 -0.6265 -0.0063
 2492TIP3   OH2 7481   6.253   0.296   4.110 -0.2231 -0.3311  0.1881
 2492TIP3    H1 7482   6.227   0.208   4.137  0.5502 -0.5431  0.2858
 2492TIP3    H2 7483   6.284   0.285   4.020  0.9292 -0.3900  0.5707
 2493TIP3   OH2 7484   5.479   3.907   0.398  0.5426 -0.1687 -0.7687
 2493TIP3    H1 7485   5.464   3.850   0.474  0.3444  1.3629  0.4001
 2493TIP3    H2 7486   5.478   3.848   0.323 -0.7057 -1.5620  0.2819
 2494TIP3   OH2 7487   5.173   1.558   1.854  0.1601 -0.1395  0.6097
 2494TIP3    H1 7488   5.216   1.525   1.933  0.7195 -0.9575 -0.0122
 2494TIP3    H2 7489   5.222   1.518   1.782 -0.7877  0.0153 -0.1403
 2495TIP3   OH2 7490   5.934   0.245   1.316  1.1194  0.4719  0.4596
 2495TIP3    H1 7491   6.026   0.256   1.337  1.1980 -0.5488  0.7083
 2495TIP3    H2 7492   5.926   0.153   1.291 -0.1424  0.0578  2.1882
 2496TIP3   OH2 7493   3.217   0.289   2.578 -0.0004 -0.8138 -0.1291
 2496TIP3    H1 7494   3.241   0.198   2.601  3.3233 -0.0274  0.0695
 2496TIP3    H2 7495   3.270   0.309   2.501 -0.3929  1.0708  0.0438
 2497TIP3   OH2 7496   1.537   1.132   4.618 -0.0134  0.6243  0.0177
 2497TIP3    H1 7497   1.607   1.166   4.561 -0.4524  1.6056  0.0432
 2497TIP3    H2 7498   1.474   1.203   4.623 -1.0383 -0.2632 -0.0147
 2498TIP3   OH2 7499   4.694   3.214   4.463  0.4645  0.3886  0.1341
 2498TIP3    H1 7500   4.766   3.151   4.468  1.2780  1.2060 -0.7327
 2498TIP3    H2 7501   4.634   3.187   4.532  1.3238 -0.6638  0.5100
 2499TIP3   OH2 7502   3.138   5.718   2.360 -0.1382  0.1134  0.3821
 2499TIP3    H1 7503   3.137   5.652   2.429  0.6655  0.1718  0.4637
 2499TIP3    H2 7504   3.149   5.801   2.407 -3.4462  0.6129  0.4784
 2500TIP3   OH2 7505   5.064   5.622   0.450 -0.0365  0.3063 -0.0409
 2500TIP3    H1 7506   5.062   5.567   0.372 -0.2953  1.6238 -1.0052
 2500TIP3    H2 7507   4.975   5.617   0.485 -0.1612  0.3826 -0.3378
 2501TIP3   OH2 7508   1.121   3.784   0.832 -0.0859 -0.4081  0.2918
 2501TIP3    H1 7509   1.198   3.839   0.819 -0.7180  0.1934 -1.0933
 2501TIP3    H2 7510   1.127   3.717   0.765 -0.7540 -0.3724  0.1903
 2502TIP3   OH2 7511   2.589   0.522   3.100 -0.0267  0.5756  0.2753
 2502TIP3    H1 7512   2.579   0.439   3.053  0.5292  1.0864 -0.8009
 2502TIP3    H2 7513   2.677   0.517   3.137  0.2300  0.9086 -0.2773
 2503TIP3   OH2 7514   4.885   5.752   5.029  0.4032  0.0179  0.3871
 2503TIP3    H1 7515   4.888   5.659   5.052  0.2277 -0.2214 -0.5382
 2503TIP3    H2 7516   4.861   5.796   5.111 -1.4515 -0.9223  0.3896
 2504TIP3   OH2 7517   1.830   1.284   1.092 -0.6202  0.0499 -0.0496
 2504TIP3    H1 7518   1.780   1.275   1.173  0.1115 -0.1701  0.3834
 2504TIP3    H2 7519   1.818   1.376   1.066  0.2604  0.4944  1.0569
 2505TIP3   OH2 7520   4.369   4.552   3.484 -0.0420  0.0259 -0.6212
 2505TIP3    H1 7521   4.393   4.644   3.473 -0.6848  0.1317 -1.2457
 2505TIP3    H2 7522   4.349   4.542   3.577  0.1530  0.4880 -0.5310
 2506TIP3   OH2 7523   4.996   4.777   3.094  0.0303  0.2409  0.1622
 2506TIP3    H1 7524   5.039   4.845   3.145  0.3960 -0.1236  0.3444
 2506TIP3    H2 7525   5.065   4.715   3.073 -0.6609 -1.2016  1.8600
 2507TIP3   OH2 7526   5.484   1.525   1.132  0.1836 -0.8756  0.1727
 2507TIP3    H1 7527   5.536   1.600   1.104 -0.0262 -0.7837  0.0309
 2507TIP3    H2 7528   5.539   1.481   1.197 -0.3524  0.3123  1.4961
 2508TIP3   OH2 7529   2.568   3.427   1.950  0.2590  0.3270  0.2328
 2508TIP3    H1 7530   2.511   3.437   1.873 -0.9709  0.6826  1.1526
 2508TIP3    H2 7531   2.532   3.351   1.997  2.0175 -0.9457 -0.3608
 2509TIP3   OH2 7532   5.139   3.934   3.600 -0.8195 -0.0580  0.4860
 2509TIP3    H1 7533   5.098   3.888   3.673 -1.4242  0.5500  0.5486
 2509TIP3    H2 7534   5.157   3.867   3.535 -2.1646 -0.3260  0.3527
 2510TIP3   OH2 7535   4.596   2.439   4.743 -0.2174  0.1692  0.2621
 2510TIP3    H1 7536   4.595   2.344   4.749  0.4555  0.2092  1.5647
 2510TIP3    H2 7537   4.506   2.464   4.725 -0.5987 -0.6742  0.9459
 2511TIP3   OH2 7538   3.218   1.409   2.440  0.5832 -0.0303  0.4550
 2511TIP3    H1 7539   3.275   1.343   2.401  2.1228  0.9309  0.9785
 2511TIP3    H2 7540   3.249   1.493   2.405 -1.7918  0.4367 -0.7754
 2512TIP3   OH2 7541   2.716   0.460   1.591 -0.0294 -0.0989 -0.2084
 2512TIP3    H1 7542   2.774   0.389   1.620  1.4699  0.8682 -0.7527
 2512TIP3    H2 7543   2.644   0.415   1.547  0.0647 -1.3558  0.8380
 2513TIP3   OH2 7544   4.839   5.549   3.339  0.2594  0.0999  0.0290
 2513TIP3    H1 7545   4.876   5.548   3.251  0.4785  0.6214  0.1140
 2513TIP3    H2 7546   4.803   5.637   3.350 -1.2339 -0.4681 -0.1334
 2514TIP3   OH2 7547   1.409   5.085   5.070 -0.1842  0.0465  0.2008
 2514TIP3    H1 7548   1.379   5.171   5.039  0.1382  1.0601  2.5453
 2514TIP3    H2 7549   1.334   5.049   5.118 -0.1248 -0.7578 -0.2832
 2515TIP3   OH2 7550   2.521   2.549   4.044  0.0132  0.8541  0.2449
 2515TIP3    H1 7551   2.430   2.519   4.039 -0.4583  2.2143  0.2744
 2515TIP3    H2 7552   2.550   2.523   4.131  0.2094 -1.0269 -0.3344
 2516TIP3   OH2 7553   3.192   4.732   2.832  0.0970 -0.1005 -0.4323
 2516TIP3    H1 7554   3.188   4.637   2.842  0.9497 -0.0450  0.8044
 2516TIP3    H2 7555   3.127   4.766   2.894 -0.3306  0.1288 -0.9954
 2517TIP3   OH2 7556   2.293   2.153   4.003 -0.4572  0.3912  0.0120
 2517TIP3    H1 7557   2.270   2.215   4.072 -3.4309  0.0615 -0.5599
 2517TIP3    H2 7558   2.297   2.068   4.048 -0.4586  0.4346  0.0952
 2518TIP3   OH2 7559   3.538   1.329   2.146  0.3832 -1.4015  0.2727
 2518TIP3    H1 7560   3.469   1.303   2.208 -0.3619 -0.4310 -0.1388
 2518TIP3    H2 7561   3.498   1.396   2.092  1.9788 -0.0332  0.7100
 2519TIP3   OH2 7562   6.069   0.476   3.954 -0.4951  0.0473 -0.2844
 2519TIP3    H1 7563   6.118   0.433   4.024 -0.7268  0.9625  0.4606
 2519TIP3    H2 7564   6.064   0.410   3.885 -1.4299 -1.3943  1.0687
 2520TIP3   OH2 7565   1.260   4.713   1.556 -0.5923  0.1423 -0.0111
 2520TIP3    H1 7566   1.249   4.785   1.495  0.3325 -0.9944 -1.6074
 2520TIP3    H2 7567   1.330   4.741   1.614 -2.7515  2.0375  1.8969
 2521TIP3   OH2 7568   1.961   3.879   1.673 -0.6707 -0.2741  0.0933
 2521TIP3    H1 7569   1.912   3.797   1.670  1.1387 -1.4096  0.2610
 2521TIP3    H2 7570   1.973   3.903   1.581  0.3433 -1.1805 -0.0241
 2522TIP3   OH2 7571   5.481   5.622   2.638 -0.2593 -0.2259  0.1121
 2522TIP3    H1 7572   5.488   5.556   2.570 -0.1560 -0.3416  0.2338
 2522TIP3    H2 7573   5.496   5.574   2.720  0.6817  0.1063  0.1389
 2523TIP3   OH2 7574   1.430   4.715   2.904  0.4928  0.1803 -0.2181
 2523TIP3    H1 7575   1.436   4.798   2.857 -0.1851  0.8475  0.8527
 2523TIP3    H2 7576   1.361   4.729   2.969  0.2965 -1.2558 -0.0895
 2524TIP3   OH2 7577   4.456   5.309   2.373 -0.0831 -0.8623  0.2619
 2524TIP3    H1 7578   4.540   5.344   2.345  0.3017 -1.2448  0.9092
 2524TIP3    H2 7579   4.465   5.296   2.467 -1.3463  0.4005  0.5898
 2525TIP3   OH2 7580   3.294   4.866   2.354 -0.1714 -0.6071 -0.1343
 2525TIP3    H1 7581   3.211   4.861   2.307 -0.9391  1.1262  0.9120
 2525TIP3    H2 7582   3.281   4.811   2.431  0.3295 -1.7740 -0.8639
 2526TIP3   OH2 7583   3.316   3.120   1.395 -0.1578  0.0355 -0.1292
 2526TIP3    H1 7584   3.287   3.175   1.322 -1.9855 -1.8791 -0.9587
 2526TIP3    H2 7585   3.246   3.056   1.405  0.7170 -0.6325  2.4187
 2527TIP3   OH2 7586   6.062   2.481   1.331 -0.1285  0.6906  0.0107
 2527TIP3    H1 7587   6.138   2.483   1.272  0.7194 -0.6668  0.9979
 2527TIP3    H2 7588   6.014   2.403   1.305 -0.2341  0.5829  0.5230
 2528TIP3   OH2 7589   1.114   4.280   3.693 -0.4310 -0.6798 -0.0871
 2528TIP3    H1 7590   1.019   4.272   3.687 -0.4790 -1.2301  1.1446
 2528TIP3    H2 7591   1.143   4.293   3.603 -1.6423 -0.8750 -0.5157
 2529TIP3   OH2 7592   2.315   5.541   4.453  0.6148  0.7531 -0.1442
 2529TIP3    H1 7593   2.407   5.517   4.440  0.3624 -0.1152 -0.4300
 2529TIP3    H2 7594   2.266   5.465   4.421 -0.1950  1.0574  0.3354
 2530TIP3   OH2 7595   3.209   4.399   1.873 -0.4521 -0.0403  0.0881
 2530TIP3    H1 7596   3.158   4.345   1.812 -1.0155 -0.6316  1.0671
 2530TIP3    H2 7597   3.242   4.471   1.818 -1.1873 -0.3920 -0.8550
 2531TIP3   OH2 7598   3.788   4.300   1.143  0.1671 -0.0605 -0.5054
 2531TIP3    H1 7599   3.873   4.343   1.149 -0.4395  1.0860  0.5608
 2531TIP3    H2 7600   3.762   4.311   1.051  1.8203 -1.8329 -1.2375
 2532TIP3   OH2 7601   0.311   1.065   1.022  0.0610 -0.2789  0.0843
 2532TIP3    H1 7602   0.394   1.023   0.998  0.5748  0.2171  0.9375
 2532TIP3    H2 7603   0.281   1.106   0.942  1.0420  0.1790 -0.0667
 2533TIP3   OH2 7604   5.553   0.432   0.111  0.3376  0.6736 -0.6854
 2533TIP3    H1 7605   5.503   0.488   0.051  0.6857  0.8295 -0.8309
 2533TIP3    H2 7606   5.581   0.358   0.058 -1.0820 -0.2432 -0.2350
 2534TIP3   OH2 7607   3.426   0.125   0.479  0.1528  0.2736  0.5214
 2534TIP3    H1 7608   3.466   0.134   0.393  2.4515 -2.1249  1.2091
 2534TIP3    H2 7609   3.484   0.172   0.538 -0.9062  1.1288  0.9191
 2535TIP3   OH2 7610   4.941   1.696   1.774 -0.2132 -0.2008  0.1821
 2535TIP3    H1 7611   4.889   1.643   1.714 -0.0416 -1.3185  0.9883
 2535TIP3    H2 7612   5.020   1.644   1.789 -0.4925 -0.2061  1.7828
 2536TIP3   OH2 7613   3.921   0.231   3.994 -0.0578  0.1390 -0.4255
 2536TIP3    H1 7614   3.917   0.137   3.977 -0.1468  0.4912 -2.7474
 2536TIP3    H2 7615   3.940   0.269   3.908  1.5944  2.1466  0.7653
 2537TIP3   OH2 7616   1.982   0.308   2.751  0.3846  0.3519 -0.2055
 2537TIP3    H1 7617   1.936   0.381   2.709  0.2481  1.7661  2.2405
 2537TIP3    H2 7618   2.074   0.319   2.725  0.7972  2.8862  1.9309
 2538TIP3   OH2 7619   5.693   2.756   1.230  0.2012  0.2173  0.2886
 2538TIP3    H1 7620   5.679   2.800   1.314  2.3868  0.0623  0.8153
 2538TIP3    H2 7621   5.625   2.789   1.173 -0.7189  1.1138  1.8446
 2539TIP3   OH2 7622   2.569   4.983   4.088  0.2297 -0.0693 -0.1064
 2539TIP3    H1 7623   2.580   4.888   4.078  0.6853 -0.1255  0.7287
 2539TIP3    H2 7624   2.653   5.012   4.125 -0.3050  0.4779  0.7158
 2540TIP3   OH2 7625   3.877   3.828   1.385 -0.4585 -0.0130  0.0020
 2540TIP3    H1 7626   3.813   3.765   1.419  0.0612 -0.1992  0.6543
 2540TIP3    H2 7627   3.935   3.846   1.459  1.1211 -0.9539 -0.9437
 2541TIP3   OH2 7628   0.590   3.266   0.384  0.0532  0.0286 -0.3908
 2541TIP3    H1 7629   0.525   3.207   0.347  1.0366 -0.6205 -1.1277
 2541TIP3    H2 7630   0.655   3.277   0.315 -0.1999  2.1537 -0.3561
 2542TIP3   OH2 7631   3.235   3.169   3.769 -0.0661 -0.5561 -0.1572
 2542TIP3    H1 7632   3.252   3.253   3.726  0.1500  0.4219  1.7199
 2542TIP3    H2 7633   3.162   3.187   3.828  0.9489 -1.2234  1.3928
 2543TIP3   OH2 7634   4.157   2.661   1.376 -0.4663 -0.0082 -0.0410
 2543TIP3    H1 7635   4.234   2.633   1.327 -1.0266 -0.1449 -0.8691
 2543TIP3    H2 7636   4.083   2.637   1.320 -1.1420 -0.3891  0.9818
 2544TIP3   OH2 7637   4.742   5.844   2.120  0.2259 -0.0211  0.1274
 2544TIP3    H1 7638   4.690   5.889   2.187 -0.4322 -0.4485 -0.0896
 2544TIP3    H2 7639   4.747   5.907   2.048  2.1418  1.0195  1.0854
 2545TIP3   OH2 7640   4.054   4.147   3.420 -0.3433 -0.4167 -0.2184
 2545TIP3    H1 7641   4.101   4.077   3.464 -0.6384  0.2301  1.1767
 2545TIP3    H2 7642   3.966   4.111   3.404  0.0227 -0.9533 -1.0912
 2546TIP3   OH2 7643   4.930   5.990   1.748  0.0644 -0.7184 -0.4686
 2546TIP3    H1 7644   4.910   5.903   1.715 -1.6716 -0.3155 -0.5838
 2546TIP3    H2 7645   5.024   5.999   1.736  0.4427 -2.9113  0.3842
 2547TIP3   OH2 7646   0.989   3.981   0.249 -0.1440  0.4472 -0.3883
 2547TIP3    H1 7647   0.905   4.008   0.210 -0.7244 -0.4889  0.1754
 2547TIP3    H2 7648   0.973   3.984   0.343 -0.2506 -1.8494 -0.2879
 2548TIP3   OH2 7649   5.125   3.172   1.006 -0.6504  0.5021  0.6048
 2548TIP3    H1 7650   5.062   3.140   1.070  0.0030  1.3776  1.7249
 2548TIP3    H2 7651   5.205   3.122   1.024 -0.5479  0.5401  0.2627
 2549TIP3   OH2 7652   4.242   3.532   4.975  0.2279 -0.1862 -0.3480
 2549TIP3    H1 7653   4.220   3.440   4.986  1.0535 -0.2409  0.9479
 2549TIP3    H2 7654   4.336   3.537   4.990  0.3929  0.7151 -1.5031
 2550TIP3   OH2 7655   2.255   1.965   0.306 -0.3314  0.1617 -0.0429
 2550TIP3    H1 7656   2.242   1.871   0.317  1.0585 -0.3204 -1.9275
 2550TIP3    H2 7657   2.278   1.975   0.213  1.1205  2.1599  0.4570
 2551TIP3   OH2 7658   1.050   4.841   3.129 -0.1881  0.0462 -0.0883
 2551TIP3    H1 7659   0.962   4.805   3.119 -0.8299  1.8795 -1.5626
 2551TIP3    H2 7660   1.037   4.925   3.173  0.5881  1.1368 -1.8341
 2552TIP3   OH2 7661   1.207   2.487   0.900  0.0951 -0.5201  0.0341
 2552TIP3    H1 7662   1.220   2.530   0.984 -0.3897 -1.9252  0.8754
 2552TIP3    H2 7663   1.289   2.438   0.886  0.5078  0.3735 -0.7384
 2553TIP3   OH2 7664   1.394   1.081   0.381  0.2976 -0.1512  0.0222
 2553TIP3    H1 7665   1.400   1.161   0.433 -0.2495 -0.0290 -0.0905
 2553TIP3    H2 7666   1.483   1.046   0.379  0.6037  0.6111 -0.1651
 2554TIP3   OH2 7667   5.703   2.435   1.846  0.1081 -0.2464 -0.1004
 2554TIP3    H1 7668   5.775   2.474   1.897  0.4876  0.1237 -0.8884
 2554TIP3    H2 7669   5.725   2.457   1.756 -1.4735  0.6619 -0.2880
 2555TIP3   OH2 7670   3.310   4.999   0.843  0.2516 -0.5115 -0.6703
 2555TIP3    H1 7671   3.217   5.007   0.863  1.0481 -0.3104  4.0146
 2555TIP3    H2 7672   3.322   4.906   0.822 -0.6938 -1.0748  1.1029
 2556TIP3   OH2 7673   2.524   3.369   1.214 -0.5085  0.1727  0.1653
 2556TIP3    H1 7674   2.482   3.451   1.241  0.9896  1.1244 -0.2584
 2556TIP3    H2 7675   2.453   3.305   1.209 -1.2453  0.4347  4.2065
 2557TIP3   OH2 7676   1.235   4.636   2.231 -0.5447  0.7407 -0.3996
 2557TIP3    H1 7677   1.183   4.557   2.245  1.5461 -0.6433 -0.0245
 2557TIP3    H2 7678   1.301   4.610   2.166  1.6136  1.4034  1.3805
 2558TIP3   OH2 7679   3.354   5.224   4.721 -0.1109 -0.0606  0.4631
 2558TIP3    H1 7680   3.320   5.276   4.794 -0.8729 -0.9579  0.7640
 2558TIP3    H2 7681   3.359   5.135   4.755 -2.2219 -0.8587 -1.1163
 2559TIP3   OH2 7682   4.250   0.390   3.498 -0.1543  0.6539  0.3886
 2559TIP3    H1 7683   4.231   0.479   3.468 -0.0602  0.4374 -0.3075
 2559TIP3    H2 7684   4.267   0.340   3.419  0.0261  0.0625  0.7923
 2560TIP3   OH2 7685   0.120   1.932   0.172 -0.2107 -0.1566 -0.0908
 2560TIP3    H1 7686   0.102   1.981   0.092 -1.4028  0.3753  0.4773
 2560TIP3    H2 7687   0.139   1.844   0.142 -3.9886 -0.8887 -0.8540
 2561TIP3   OH2 7688   4.932   3.401   1.989 -0.1288 -0.0398  0.3951
 2561TIP3    H1 7689   4.850   3.444   2.013  0.0540  0.5681 -0.0432
 2561TIP3    H2 7690   4.911   3.307   1.990 -1.1708  0.1468 -0.9299
 2562TIP3   OH2 7691   1.394   4.091   0.181 -0.6078 -0.1814  0.6853
 2562TIP3    H1 7692   1.426   4.110   0.093 -1.3815  0.9172  0.6237
 2562TIP3    H2 7693   1.461   4.127   0.239 -0.7077  0.2392  0.5454
 2563TIP3   OH2 7694   3.858   4.767   1.432 -0.1951  0.2015 -0.1713
 2563TIP3    H1 7695   3.952   4.750   1.437  0.1074  1.9913  1.4145
 2563TIP3    H2 7696   3.818   4.682   1.447  1.1285 -0.6835 -1.3085
 2564TIP3   OH2 7697   5.089   4.417   2.364 -0.5975  0.2999 -0.2543
 2564TIP3    H1 7698   5.117   4.350   2.426  0.8192 -1.4685 -2.6529
 2564TIP3    H2 7699   5.156   4.485   2.370  0.3170 -0.5302 -0.8308
 2565TIP3   OH2 7700   5.278   4.732   1.820  0.4583 -0.4266  0.3675
 2565TIP3    H1 7701   5.351   4.751   1.761  2.2628 -0.5144  2.4653
 2565TIP3    H2 7702   5.286   4.638   1.839 -0.0452 -0.3806  0.8237
 2566TIP3   OH2 7703   0.361   2.264  -0.001 -0.0573 -0.3474  0.2626
 2566TIP3    H1 7704   0.303   2.317  -0.057 -0.1308  0.2298  0.8679
 2566TIP3    H2 7705   0.316   2.260   0.083  1.8041  2.1167  1.5069
 2567TIP3   OH2 7706   3.362   1.135   1.699 -0.1847 -0.1480 -0.2216
 2567TIP3    H1 7707   3.304   1.181   1.760 -1.3793  0.0839 -1.4687
 2567TIP3    H2 7708   3.347   1.042   1.716 -0.0492 -0.0881  0.2423
 2568TIP3   OH2 7709   0.291   4.447   3.511 -0.1083 -0.2994  0.0643
 2568TIP3    H1 7710   0.196   4.456   3.520  0.0503 -0.1186  2.2170
 2568TIP3    H2 7711   0.320   4.417   3.597  2.0448  2.0730  0.2916
 2569TIP3   OH2 7712   5.118   3.909  -0.004 -0.1672 -0.1253 -0.6929
 2569TIP3    H1 7713   5.197   3.909  -0.056 -1.2939  3.0172 -2.6963
 2569TIP3    H2 7714   5.134   3.974   0.065 -1.6432  2.2752 -2.4735
 2570TIP3   OH2 7715   5.163   4.640   3.437  0.1854 -0.0403 -0.8131
 2570TIP3    H1 7716   5.117   4.581   3.497 -2.4653  0.7325 -1.9148
 2570TIP3    H2 7717   5.217   4.695   3.493 -0.8361 -0.5241  0.6970
 2571TIP3   OH2 7718   0.960   1.324   1.695 -0.4743 -0.5177 -0.1161
 2571TIP3    H1 7719   0.989   1.239   1.662  0.2586 -0.8880  1.3858
 2571TIP3    H2 7720   0.947   1.377   1.616 -0.4543 -1.8514 -1.0604
 2572TIP3   OH2 7721   3.400   0.875   0.028  0.0374 -0.3070 -0.7844
 2572TIP3    H1 7722   3.486   0.907  -0.001  0.0832 -1.1635 -1.6370
 2572TIP3    H2 7723   3.397   0.784  -0.002 -0.5900 -0.7302  0.5238
 2573TIP3   OH2 7724   3.405   4.139   1.781  0.0231  0.5029 -0.0977
 2573TIP3    H1 7725   3.331   4.114   1.726  0.5127  2.4667 -1.7794
 2573TIP3    H2 7726   3.368   4.148   1.869 -1.8758  1.9093 -0.9919
 2574TIP3   OH2 7727   1.533   2.132   1.423 -0.0584  0.5178 -0.0143
 2574TIP3    H1 7728   1.472   2.076   1.375  0.0351 -0.3038  0.8001
 2574TIP3    H2 7729   1.478   2.197   1.465 -0.1508  1.1987 -1.1445
 2575TIP3   OH2 7730   0.639   0.397   1.494  1.0472  0.0027  0.4694
 2575TIP3    H1 7731   0.564   0.452   1.471  0.1448 -0.7002  1.6292
 2575TIP3    H2 7732   0.682   0.443   1.566  0.1453 -0.8747  1.6133
 2576TIP3   OH2 7733   5.643   3.815   3.838 -0.3877 -0.1117 -0.4670
 2576TIP3    H1 7734   5.700   3.757   3.889 -2.0715 -1.6168 -0.2064
 2576TIP3    H2 7735   5.624   3.765   3.758 -3.2042 -0.7424  0.4780
 2577TIP3   OH2 7736   2.273   2.667   2.791 -0.0241 -0.1787  0.3144
 2577TIP3    H1 7737   2.201   2.604   2.801 -1.0259  0.8124 -0.3629
 2577TIP3    H2 7738   2.347   2.627   2.836 -0.9446 -1.3332  0.8475
 2578TIP3   OH2 7739   0.462   5.665   4.806  0.1603 -0.4605  0.1232
 2578TIP3    H1 7740   0.444   5.580   4.765 -0.8857  0.0553 -0.5531
 2578TIP3    H2 7741   0.552   5.686   4.781 -0.2163 -0.4861 -1.3756
 2579TIP3   OH2 7742   5.786   3.409   4.860 -0.5890 -0.4254 -0.4281
 2579TIP3    H1 7743   5.790   3.344   4.930 -3.8781 -2.3418 -1.7828
 2579TIP3    H2 7744   5.747   3.486   4.901 -0.9706 -0.9499  0.2224
 2580TIP3   OH2 7745   6.063   2.845   2.881  0.3233 -0.1326  0.1703
 2580TIP3    H1 7746   6.079   2.792   2.959  1.3935  0.9713  0.7317
 2580TIP3    H2 7747   6.010   2.918   2.912 -1.1121 -0.8167 -0.5914
 2581TIP3   OH2 7748   3.945   5.865   3.508  0.5866  0.0053  0.3428
 2581TIP3    H1 7749   3.866   5.879   3.455  0.0621 -1.0219  0.8323
 2581TIP3    H2 7750   4.012   5.840   3.444  0.5412  0.9290 -0.0818
 2582TIP3   OH2 7751   2.264   4.558   1.003  0.9991 -0.2200 -0.1356
 2582TIP3    H1 7752   2.240   4.646   0.974 -1.1653 -0.2124  1.3748
 2582TIP3    H2 7753   2.344   4.537   0.956  1.3172  2.3735 -0.8687
 2583TIP3   OH2 7754   0.758   5.018   3.054 -0.3761  0.1966  0.0271
 2583TIP3    H1 7755   0.852   5.035   3.051 -0.4786  1.1902  1.5056
 2583TIP3    H2 7756   0.752   4.922   3.050  0.6591  0.1387 -0.6114
 2584TIP3   OH2 7757   2.325   2.523   4.522 -0.3397  0.4002 -0.1844
 2584TIP3    H1 7758   2.372   2.504   4.603  0.7408  0.2034 -0.8457
 2584TIP3    H2 7759   2.300   2.437   4.488  0.4009  0.3925 -0.7416
 2585TIP3   OH2 7760   5.152   3.644   3.594 -0.1209 -0.3527  0.0097
 2585TIP3    H1 7761   5.171   3.600   3.677 -2.5719 -1.3011  0.1561
 2585TIP3    H2 7762   5.058   3.662   3.597  0.0729  1.3665 -1.7635
 2586TIP3   OH2 7763   1.824   5.398   0.762 -0.1661 -0.2279  0.0140
 2586TIP3    H1 7764   1.803   5.462   0.694 -0.5930  0.0720  0.4230
 2586TIP3    H2 7765   1.740   5.358   0.783  0.1212 -1.0408 -0.3451
 2587TIP3   OH2 7766   2.579   4.834   4.605  0.4666 -0.3381  0.4497
 2587TIP3    H1 7767   2.564   4.926   4.583  0.7687 -0.1022  1.1939
 2587TIP3    H2 7768   2.580   4.789   4.521 -1.7163  0.0135  0.1803
 2588TIP3   OH2 7769   2.725   0.559   4.197 -0.6766  0.1378 -0.6926
 2588TIP3    H1 7770   2.688   0.499   4.133 -0.5957  0.5049 -1.0915
 2588TIP3    H2 7771   2.820   0.546   4.190 -0.6633  0.2427 -0.7159
 2589TIP3   OH2 7772   3.178   0.121   4.255 -1.0667 -0.1099 -0.2565
 2589TIP3    H1 7773   3.111   0.148   4.319  0.3348  0.8470  0.8732
 2589TIP3    H2 7774   3.261   0.146   4.295  0.0438 -1.8189 -1.3402
 2590TIP3   OH2 7775   1.851   5.503   2.476 -0.3319 -0.4893 -0.7917
 2590TIP3    H1 7776   1.904   5.500   2.397 -0.7381 -0.1524 -1.0846
 2590TIP3    H2 7777   1.768   5.543   2.448 -0.4016 -0.1737 -0.1587
 2591TIP3   OH2 7778   4.521   3.538   5.063  0.2703 -0.0913  0.7790
 2591TIP3    H1 7779   4.569   3.543   5.145 -0.5783 -0.9216  1.3410
 2591TIP3    H2 7780   4.577   3.485   5.006  2.1113  2.5526 -0.1349
 2592TIP3   OH2 7781   3.563   0.949   1.482  0.6679  0.3072  0.1382
 2592TIP3    H1 7782   3.563   0.943   1.387 -0.1140  0.6548  0.1026
 2592TIP3    H2 7783   3.544   0.860   1.512 -0.1772  0.4058 -0.0700
 2593TIP3   OH2 7784   2.372   3.395   2.924 -0.6805 -0.0460  0.0091
 2593TIP3    H1 7785   2.461   3.415   2.954  0.6921 -2.7986 -1.8341
 2593TIP3    H2 7786   2.321   3.472   2.951  2.5072  2.3669 -0.1312
 2594TIP3   OH2 7787   1.130   1.145   0.667 -0.2053  0.6428  0.8122
 2594TIP3    H1 7788   1.159   1.071   0.614  1.0666  1.4725  0.2857
 2594TIP3    H2 7789   1.097   1.106   0.748  0.6643 -0.4779  0.6500
 2595TIP3   OH2 7790   0.806   2.983   3.602  0.2796  0.0223  0.8663
 2595TIP3    H1 7791   0.839   3.056   3.654  2.0245  0.1024 -0.2640
 2595TIP3    H2 7792   0.800   2.910   3.664  3.0608 -0.1037  1.1335
 2596TIP3   OH2 7793   4.165   1.392   0.856 -0.3174  0.0282  0.2304
 2596TIP3    H1 7794   4.078   1.386   0.817  0.0049 -1.1692 -0.3624
 2596TIP3    H2 7795   4.220   1.428   0.786 -0.5490  2.0354  1.0115
 2597TIP3   OH2 7796   0.490   0.544   0.399 -0.3047  0.7310  0.0409
 2597TIP3    H1 7797   0.454   0.497   0.474 -0.7113 -1.5469 -1.4986
 2597TIP3    H2 7798   0.415   0.562   0.343 -0.0548  2.7233  0.2943
 2598TIP3   OH2 7799   4.713   1.384   3.757  0.0306  0.3939  0.2252
 2598TIP3    H1 7800   4.764   1.461   3.731  0.5999  0.2380  0.8525
 2598TIP3    H2 7801   4.690   1.342   3.674  2.7520 -0.7148 -0.0840
 2599TIP3   OH2 7802   1.864   1.506   2.819  0.1408 -0.1560 -0.0320
 2599TIP3    H1 7803   1.936   1.494   2.880 -0.1587 -2.9181 -0.1161
 2599TIP3    H2 7804   1.872   1.434   2.757 -1.8024  0.3517 -0.9510
 2600TIP3   OH2 7805   4.002   5.415   0.558  0.4701 -0.8419  0.5129
 2600TIP3    H1 7806   4.072   5.395   0.620  1.1506  0.7883  0.3259
 2600TIP3    H2 7807   4.041   5.400   0.472  0.8801  0.8226  0.3824
 2601TIP3   OH2 7808   2.155   4.089   2.000 -0.0430  0.0304  0.0983
 2601TIP3    H1 7809   2.250   4.087   1.990  0.0808  1.3830  0.7185
 2601TIP3    H2 7810   2.141   4.125   2.088 -1.1332  0.2453 -0.1496
 2602TIP3   OH2 7811   4.065   5.054   1.700  0.4467 -0.3727 -0.9047
 2602TIP3    H1 7812   4.053   5.007   1.618 -0.3820 -1.4192 -0.2148
 2602TIP3    H2 7813   3.983   5.040   1.748  0.9822  0.0590  0.1763
 2603TIP3   OH2 7814   5.521   1.054   0.420  0.4525  0.4542 -0.0714
 2603TIP3    H1 7815   5.591   1.109   0.383  0.3909 -0.2471 -1.2734
 2603TIP3    H2 7816   5.564   1.005   0.490  0.7714  1.2032  0.2744
 2604TIP3   OH2 7817   2.877   4.178   2.881 -0.1411  0.0630 -0.3256
 2604TIP3    H1 7818   2.824   4.233   2.939  1.1403  2.0173 -0.8752
 2604TIP3    H2 7819   2.848   4.201   2.793  0.0254 -0.5882 -0.5574
 2605TIP3   OH2 7820   2.550   4.733   0.626  0.2128 -0.0923 -0.2003
 2605TIP3    H1 7821   2.518   4.813   0.584 -0.3538 -0.4994 -0.5626
 2605TIP3    H2 7822   2.553   4.755   0.719 -0.5937  0.1448 -0.2212
 2606TIP3   OH2 7823   6.094   4.181   4.089 -0.7388  0.5897  0.4988
 2606TIP3    H1 7824   6.132   4.194   4.176 -3.3664  0.0229  1.8120
 2606TIP3    H2 7825   6.138   4.247   4.035  0.1916  1.7153  2.4826
 2607TIP3   OH2 7826   2.462   2.648   2.972 -0.0345  0.2828 -0.4740
 2607TIP3    H1 7827   2.545   2.695   2.965  1.6190 -1.9415  2.1043
 2607TIP3    H2 7828   2.459   2.617   3.063 -2.6925 -1.4833 -1.0371
 2608TIP3   OH2 7829   5.390   3.175   2.264 -0.6047  0.3563 -0.3989
 2608TIP3    H1 7830   5.403   3.084   2.290 -0.7254 -0.0865 -1.7669
 2608TIP3    H2 7831   5.425   3.178   2.175 -4.1868  0.6130 -1.9526
 2609TIP3   OH2 7832   3.718   1.632   1.185  0.0745 -0.7662 -0.1253
 2609TIP3    H1 7833   3.766   1.606   1.106 -0.1167 -2.4419  0.2679
 2609TIP3    H2 7834   3.762   1.585   1.256 -0.4097 -0.1027  0.6348
 2610TIP3   OH2 7835   5.982   3.726   2.331 -0.4050  0.0294 -0.1715
 2610TIP3    H1 7836   5.959   3.809   2.290 -0.6975 -0.3607 -0.8212
 2610TIP3    H2 7837   5.899   3.690   2.363 -0.4937 -0.6381 -1.1081
 2611TIP3   OH2 7838   3.082   3.730   4.853  0.3556  0.0105  0.3272
 2611TIP3    H1 7839   3.008   3.688   4.810 -0.5590  1.7637  0.0709
 2611TIP3    H2 7840   3.145   3.746   4.782 -1.4486  3.5581 -0.7510
 2612TIP3   OH2 7841   4.340   1.972   2.682  0.2820  0.2969 -0.0944
 2612TIP3    H1 7842   4.405   1.902   2.687 -0.3401 -0.4456 -1.6718
 2612TIP3    H2 7843   4.391   2.052   2.692  1.2590 -0.3142  0.0035
 2613TIP3   OH2 7844   1.809   2.592   4.942 -0.3848  0.7558  0.2789
 2613TIP3    H1 7845   1.844   2.506   4.917 -1.3510  0.1167  1.0111
 2613TIP3    H2 7846   1.727   2.600   4.894 -0.0940  1.4623 -0.1052
 2614TIP3   OH2 7847   1.317   3.243   4.455 -0.3726 -0.2669  0.3104
 2614TIP3    H1 7848   1.404   3.228   4.491 -0.1427 -0.4990 -0.3390
 2614TIP3    H2 7849   1.319   3.334   4.425 -0.7819  0.1450  1.4693
 2615TIP3   OH2 7850   6.204   2.486   0.510  0.2846 -0.1549 -0.4345
 2615TIP3    H1 7851   6.259   2.434   0.568  0.4332  0.9372  0.4486
 2615TIP3    H2 7852   6.250   2.487   0.427  1.2564  0.1696  0.0971
 2616TIP3   OH2 7853   4.416   4.814   2.845  0.2037 -0.5053  0.1226
 2616TIP3    H1 7854   4.509   4.790   2.839  0.1479 -0.8131  0.4817
 2616TIP3    H2 7855   4.390   4.831   2.754  1.0237  1.1425  0.1713
 2617TIP3   OH2 7856   4.959   2.142   1.444 -0.1125 -0.1946  0.1884
 2617TIP3    H1 7857   4.895   2.203   1.480 -0.6521 -0.2712 -0.6161
 2617TIP3    H2 7858   4.952   2.154   1.349  2.0603  0.8127  0.0943
 2618TIP3   OH2 7859   5.813   3.307   4.122  0.1881  0.1922 -0.4935
 2618TIP3    H1 7860   5.793   3.214   4.122 -0.4146  0.1653  3.1098
 2618TIP3    H2 7861   5.905   3.312   4.097 -0.0728 -1.2267 -1.8503
 2619TIP3   OH2 7862   4.982   5.707   1.112 -0.2457 -0.0761  0.8760
 2619TIP3    H1 7863   4.988   5.729   1.205 -0.7431  2.2067  0.4237
 2619TIP3    H2 7864   4.986   5.791   1.067  0.4114 -1.1510 -1.2174
 2620TIP3   OH2 7865   5.012   3.409   4.024  0.5040 -0.4310 -0.0820
 2620TIP3    H1 7866   4.922   3.428   4.050  0.3290 -0.7038 -0.4820
 2620TIP3    H2 7867   5.058   3.394   4.107  0.1303 -0.5221  0.1114
 2621TIP3   OH2 7868   1.503   3.741   2.149  0.1714  0.1834  0.2560
 2621TIP3    H1 7869   1.551   3.763   2.069  2.4045  0.8975  1.7113
 2621TIP3    H2 7870   1.473   3.825   2.184  0.0015 -0.0297  0.6328
 2622TIP3   OH2 7871   0.400   4.740   3.405  0.3775 -0.2630  0.4511
 2622TIP3    H1 7872   0.369   4.650   3.420  0.3648 -0.3729 -0.1932
 2622TIP3    H2 7873   0.435   4.738   3.316  1.8575 -0.0343  1.0056
 2623TIP3   OH2 7874   5.891   2.540   3.537  0.0119 -0.1156  0.0501
 2623TIP3    H1 7875   5.901   2.625   3.581 -2.4472  0.0059  0.5230
 2623TIP3    H2 7876   5.864   2.562   3.448  0.4596 -0.4123 -0.1631
 2624TIP3   OH2 7877   0.194   0.193   0.330 -0.2240 -0.1556 -0.2312
 2624TIP3    H1 7878   0.223   0.113   0.285  0.8855  0.6801 -1.0481
 2624TIP3    H2 7879   0.110   0.214   0.289 -0.3738 -0.7205 -0.2300
 2625TIP3   OH2 7880   1.697   0.577   1.923  0.0937  0.2626 -0.3234
 2625TIP3    H1 7881   1.729   0.519   1.853  1.3841  1.9033 -1.1760
 2625TIP3    H2 7882   1.723   0.533   2.004 -0.8832 -1.3788 -0.8527
 2626TIP3   OH2 7883   0.830   5.370   5.109 -0.3549 -0.1392 -0.3380
 2626TIP3    H1 7884   0.752   5.424   5.124 -0.6006 -0.3424 -0.8898
 2626TIP3    H2 7885   0.802   5.304   5.046  0.1002 -0.5827 -0.0804
 2627TIP3   OH2 7886   3.448   5.601   0.519  0.2447 -0.4050  0.3089
 2627TIP3    H1 7887   3.509   5.652   0.573  2.8435 -0.2042 -2.5181
 2627TIP3    H2 7888   3.414   5.664   0.456 -1.7461 -0.8944  0.8237
 2628TIP3   OH2 7889   1.402   3.017   2.403  0.3455 -0.6612 -0.2140
 2628TIP3    H1 7890   1.475   3.065   2.364 -0.3883  0.2674 -0.4969
 2628TIP3    H2 7891   1.443   2.943   2.448  1.5520  0.3656  0.4450
 2629TIP3   OH2 7892   4.743   5.412   0.325 -0.0061 -0.4124  0.2560
 2629TIP3    H1 7893   4.818   5.439   0.273  0.1937 -0.1073  0.6962
 2629TIP3    H2 7894   4.704   5.339   0.276 -1.2452  1.3579 -1.5503
 2630TIP3   OH2 7895   1.376   2.867   3.002 -0.5091 -0.0278  0.0792
 2630TIP3    H1 7896   1.360   2.773   3.003  1.5628 -0.4272  0.2088
 2630TIP3    H2 7897   1.307   2.904   3.058 -0.1918 -1.6914  1.6612
 2631TIP3   OH2 7898   2.682   1.679   4.269  0.3054 -0.2874 -0.2503
 2631TIP3    H1 7899   2.744   1.734   4.222  0.5401  0.1227  0.5123
 2631TIP3    H2 7900   2.660   1.609   4.208  0.3204  0.4267 -1.0830
 2632TIP3   OH2 7901   1.931   0.204   1.743  0.3920 -0.7359 -0.2829
 2632TIP3    H1 7902   2.022   0.184   1.766  0.1683 -2.2782 -0.6500
 2632TIP3    H2 7903   1.937   0.248   1.658  0.8828  0.7422  0.4717
 2633TIP3   OH2 7904   2.852   4.443   0.817 -0.0323 -0.2917 -0.2867
 2633TIP3    H1 7905   2.860   4.493   0.898 -0.0659 -0.4620 -0.1777
 2633TIP3    H2 7906   2.909   4.367   0.830  0.1571 -0.1916 -0.5209
 2634TIP3   OH2 7907   2.243   3.496   2.071 -0.2391  0.5078  0.0239
 2634TIP3    H1 7908   2.239   3.470   1.979 -1.5936 -0.9663  0.4406
 2634TIP3    H2 7909   2.245   3.591   2.070 -1.1956  0.5317 -1.5046
 2635TIP3   OH2 7910   2.480   4.393   0.299  0.4911  0.5064  0.3690
 2635TIP3    H1 7911   2.441   4.416   0.383  0.5167  2.5463 -0.1260
 2635TIP3    H2 7912   2.549   4.458   0.286  0.6011  0.1330 -1.1376
 2636TIP3   OH2 7913   5.865   1.096   0.421  0.4604  0.0195 -0.1992
 2636TIP3    H1 7914   5.827   1.129   0.339  0.4409 -2.1719 -1.1566
 2636TIP3    H2 7915   5.945   1.051   0.393  1.6325  1.1154  1.2925
 2637TIP3   OH2 7916   4.708   4.149   0.809 -0.1745 -0.6238  0.2136
 2637TIP3    H1 7917   4.733   4.172   0.720 -0.9743 -2.5046 -0.5460
 2637TIP3    H2 7918   4.791   4.142   0.856  0.3805 -1.3638 -0.8453
 2638TIP3   OH2 7919   4.264   3.249   4.330 -0.6146  0.1911 -0.1794
 2638TIP3    H1 7920   4.289   3.162   4.299 -2.2489 -0.5815  0.5275
 2638TIP3    H2 7921   4.179   3.266   4.289 -0.6896  1.1015  0.3202
 2639TIP3   OH2 7922   2.334   4.404   2.009 -0.2020 -0.4888  0.2241
 2639TIP3    H1 7923   2.286   4.413   1.927  0.0821 -2.2237 -0.1797
 2639TIP3    H2 7924   2.422   4.376   1.983  0.2651  0.1071  1.0753
 2640TIP3   OH2 7925   4.119   5.578   2.010 -0.0814  0.0981 -0.2710
 2640TIP3    H1 7926   4.140   5.489   1.982 -2.5046 -0.6002 -0.1117
 2640TIP3    H2 7927   4.070   5.567   2.091  1.7776  1.7719  1.1554
 2641TIP3   OH2 7928   1.907   5.333   1.367 -0.0180  0.0929 -0.4682
 2641TIP3    H1 7929   1.949   5.248   1.372  3.3770  1.7040  1.4722
 2641TIP3    H2 7930   1.889   5.346   1.273  0.8308 -2.0469 -0.9658
 2642TIP3   OH2 7931   2.655   0.701   3.914 -0.0551 -0.0650 -0.1227
 2642TIP3    H1 7932   2.590   0.639   3.945 -0.3054 -0.0772 -0.6616
 2642TIP3    H2 7933   2.736   0.651   3.909 -0.0745 -0.1350  0.2233
 2643TIP3   OH2 7934   0.127   3.592   5.116  0.3607  0.0618 -0.4901
 2643TIP3    H1 7935   0.207   3.609   5.066 -0.6870  0.5340 -2.0467
 2643TIP3    H2 7936   0.085   3.677   5.124 -0.1870 -0.2506 -0.0118
 2644TIP3   OH2 7937   6.133   2.167   0.466 -0.1913 -0.3930 -0.0344
 2644TIP3    H1 7938   6.142   2.243   0.409 -0.7709 -0.3582 -0.0832
 2644TIP3    H2 7939   6.191   2.186   0.540  0.3990 -0.3424 -0.4985
 2645TIP3   OH2 7940   4.070   4.268   1.491 -0.0669 -0.0247 -0.2791
 2645TIP3    H1 7941   4.106   4.332   1.430 -2.0941  0.6903 -0.8055
 2645TIP3    H2 7942   4.063   4.187   1.440 -1.0985  0.3857 -0.8188
 2646TIP3   OH2 7943   1.761   3.140   4.346 -0.0604 -0.0663 -0.1454
 2646TIP3    H1 7944   1.827   3.203   4.373 -0.9001  1.2637 -1.0558
 2646TIP3    H2 7945   1.764   3.142   4.250 -1.6257  0.2808 -0.2146
 2647TIP3   OH2 7946   5.744   0.852   3.307 -0.0109  0.7750 -0.9889
 2647TIP3    H1 7947   5.795   0.832   3.385  1.1938  0.5222 -1.8179
 2647TIP3    H2 7948   5.653   0.838   3.333  0.3114  1.4805  0.5874
 2648TIP3   OH2 7949   3.441   0.382   1.583  0.3055  0.2848  0.1843
 2648TIP3    H1 7950   3.355   0.375   1.624  0.5945 -0.6396  0.6799
 2648TIP3    H2 7951   3.423   0.402   1.491 -0.4421  0.0195  0.2674
 2649TIP3   OH2 7952   6.281   4.350   2.995 -0.4217 -0.3685 -0.0331
 2649TIP3    H1 7953   6.269   4.439   2.961 -1.7642 -0.2577  0.6222
 2649TIP3    H2 7954   6.326   4.362   3.079  0.2054 -0.3857 -0.3665
 2650TIP3   OH2 7955   2.657   5.649   2.878  0.4034 -0.8254  0.8461
 2650TIP3    H1 7956   2.657   5.566   2.829 -1.0848  0.1959 -0.9734
 2650TIP3    H2 7957   2.577   5.646   2.930  0.6959 -0.8019  1.3041
 2651TIP3   OH2 7958   2.713   2.305   1.104 -0.2363  0.2523 -0.0362
 2651TIP3    H1 7959   2.795   2.266   1.134 -0.1180  1.5083  1.4112
 2651TIP3    H2 7960   2.739   2.388   1.063 -0.6485 -0.1684 -1.1850
 2652TIP3   OH2 7961   0.329   0.038   2.270  0.4166 -0.0367 -0.0595
 2652TIP3    H1 7962   0.418   0.042   2.304 -0.4954  0.7431  2.4418
 2652TIP3    H2 7963   0.289   0.121   2.295 -1.0126 -0.3169 -1.2120
 2653TIP3   OH2 7964   1.089   3.117   4.404  0.6775  0.1166 -0.5854
 2653TIP3    H1 7965   1.168   3.171   4.406  0.4673  0.4076 -0.2328
 2653TIP3    H2 7966   1.107   3.052   4.335  0.4421  1.3841 -1.8841
 2654TIP3   OH2 7967   4.204   1.148   0.048 -0.0063 -0.3299 -0.5095
 2654TIP3    H1 7968   4.262   1.206  -0.001  1.8464  0.2402  2.1508
 2654TIP3    H2 7969   4.171   1.202   0.120 -1.1024 -1.6274  0.0179
 2655TIP3   OH2 7970   2.150   0.218   3.364 -0.4803  0.2833  0.5822
 2655TIP3    H1 7971   2.194   0.169   3.295  0.0629  1.8129 -0.2108
 2655TIP3    H2 7972   2.058   0.191   3.359 -0.3892  0.1436 -0.5444
 2656TIP3   OH2 7973   5.942   4.688   3.450 -0.3607 -0.4593 -0.2127
 2656TIP3    H1 7974   5.961   4.755   3.384  1.8824  0.8493  1.6340
 2656TIP3    H2 7975   6.009   4.621   3.435 -0.4949 -0.6614  0.0865
 2657TIP3   OH2 7976   3.691   4.974   3.978  0.0896 -0.5544  0.0471
 2657TIP3    H1 7977   3.647   4.947   3.897  1.0275  0.0051 -0.6706
 2657TIP3    H2 7978   3.643   4.930   4.047 -0.6344 -1.1794 -0.8302
 2658TIP3   OH2 7979   0.399   4.791   4.639  0.0957 -0.6565 -0.6309
 2658TIP3    H1 7980   0.370   4.870   4.594 -0.5747 -0.0154  0.8720
 2658TIP3    H2 7981   0.351   4.720   4.596 -2.5799  0.2027  0.6842
 2659TIP3   OH2 7982   1.954   0.018   3.723 -0.0073  0.0195  0.1292
 2659TIP3    H1 7983   1.981  -0.034   3.647 -1.7320 -0.6512 -0.0809
 2659TIP3    H2 7984   1.994   0.104   3.709  0.1196 -0.2476 -1.2936
 2660TIP3   OH2 7985   1.299   2.611   2.144 -0.2487 -0.4423  0.2108
 2660TIP3    H1 7986   1.310   2.603   2.050  2.4538  2.5732  0.0712
 2660TIP3    H2 7987   1.235   2.681   2.155  0.0651 -0.2051  0.5623
 2661TIP3   OH2 7988   5.851   5.379   1.115  0.2740 -0.4777 -0.0316
 2661TIP3    H1 7989   5.847   5.465   1.071 -0.8196 -0.2635  0.4491
 2661TIP3    H2 7990   5.770   5.335   1.087  0.2149 -0.8553  0.7108
 2662TIP3   OH2 7991   5.167   2.537   4.441 -0.2366  0.3469  0.0292
 2662TIP3    H1 7992   5.134   2.611   4.491  0.7765  0.1853  0.9817
 2662TIP3    H2 7993   5.252   2.516   4.482 -0.1025 -0.7762 -0.7696
 2663TIP3   OH2 7994   5.412   0.654   1.913  0.5785  0.2536 -0.6650
 2663TIP3    H1 7995   5.441   0.563   1.908 -2.8514 -0.9443 -2.7015
 2663TIP3    H2 7996   5.425   0.678   2.004 -0.5706 -3.1908  0.5944
 2664TIP3   OH2 7997   3.906   2.643   4.033 -0.0474 -0.7662 -0.5236
 2664TIP3    H1 7998   3.914   2.667   3.941 -1.1557 -1.0784 -0.7122
 2664TIP3    H2 7999   3.911   2.726   4.080  1.7952 -0.7030 -0.7429
 2665TIP3   OH2 8000   5.914   0.253   0.441  0.2189  0.1539  0.0948
 2665TIP3    H1 8001   5.932   0.197   0.517  0.5493  0.9239  0.6048
 2665TIP3    H2 8002   5.960   0.211   0.369 -0.4351 -0.8144  0.2263
 2666TIP3   OH2 8003   0.641   5.960   1.785  0.3554 -0.5323  0.0584
 2666TIP3    H1 8004   0.684   6.015   1.850 -0.1606  1.4058 -1.1622
 2666TIP3    H2 8005   0.702   5.888   1.771  1.5938  0.3155  0.8935
 2667TIP3   OH2 8006   2.641   5.038   5.110  0.7732 -1.0684 -0.3961
 2667TIP3    H1 8007   2.632   4.999   5.023 -1.3757  0.1686 -0.8069
 2667TIP3    H2 8008   2.566   5.097   5.118  1.5052 -0.3207  1.8883
 2668TIP3   OH2 8009   5.912   4.048   4.438 -0.0033  0.1932 -0.0448
 2668TIP3    H1 8010   5.856   3.971   4.442  0.1443 -0.0699 -1.9342
 2668TIP3    H2 8011   6.001   4.013   4.441  0.0641  0.3527 -0.1601
 2669TIP3   OH2 8012   2.312   2.823   2.566  0.8915 -0.7723 -0.5054
 2669TIP3    H1 8013   2.223   2.824   2.529  0.8202 -2.4425 -0.4508
 2669TIP3    H2 8014   2.300   2.794   2.656  1.4333 -0.2746 -0.2681
 2670TIP3   OH2 8015   2.113   5.374   4.351 -0.4043  0.1468 -0.6489
 2670TIP3    H1 8016   2.037   5.330   4.313 -0.0889 -0.1034 -1.0060
 2670TIP3    H2 8017   2.093   5.467   4.345 -0.7911  0.0726 -0.5076
 2671TIP3   OH2 8018   5.254   2.297   4.969  0.1646 -0.1412  0.2378
 2671TIP3    H1 8019   5.210   2.340   5.042 -0.0029 -2.1877  1.4181
 2671TIP3    H2 8020   5.190   2.299   4.898 -1.6434 -2.3077  1.6562
 2672TIP3   OH2 8021   5.628   6.014   1.213  0.5224  0.2899 -0.0833
 2672TIP3    H1 8022   5.675   5.944   1.258 -0.1750  0.4001  0.8671
 2672TIP3    H2 8023   5.536   5.990   1.222  0.2570  1.3893  0.4039
 2673TIP3   OH2 8024   0.990   0.506   3.407 -0.2882 -0.4997 -0.4640
 2673TIP3    H1 8025   0.935   0.433   3.434  0.8312 -1.0023  0.5740
 2673TIP3    H2 8026   0.938   0.584   3.425 -0.8389 -0.9763  0.0607
 2674TIP3   OH2 8027   5.534   5.945   0.044  0.9131 -0.2226  0.0340
 2674TIP3    H1 8028   5.446   5.965   0.011 -0.3492  0.4828  3.3929
 2674TIP3    H2 8029   5.589   6.015   0.011 -0.0327 -0.0626 -1.2653
 2675TIP3   OH2 8030   3.267   2.166   0.646  0.2533  0.0199 -0.0500
 2675TIP3    H1 8031   3.305   2.104   0.707 -0.3581 -1.1439 -0.8103
 2675TIP3    H2 8032   3.185   2.195   0.688 -1.5067 -2.7134 -1.2959
 2676TIP3   OH2 8033   1.425   4.099   1.090  0.7915 -0.1762  0.3099
 2676TIP3    H1 8034   1.411   4.131   1.179 -0.1496 -1.5925  0.7061
 2676TIP3    H2 8035   1.520   4.086   1.084  0.8396 -0.3096  1.2122
 2677TIP3   OH2 8036   4.141   2.838   0.601  0.4453 -0.6606 -0.1197
 2677TIP3    H1 8037   4.218   2.894   0.592  0.2414 -0.2401  0.6901
 2677TIP3    H2 8038   4.104   2.835   0.513  0.7851  0.0145 -0.2951
 2678TIP3   OH2 8039   0.205   0.092   2.919  0.3699  0.4885 -0.1401
 2678TIP3    H1 8040   0.234   0.097   3.011 -0.5229  0.8171  0.1354
 2678TIP3    H2 8041   0.161   0.176   2.904 -0.5805 -0.0577 -0.4789
 2679TIP3   OH2 8042   3.635   5.979   4.880 -0.4063 -0.5119 -0.2775
 2679TIP3    H1 8043   3.592   6.011   4.800 -0.9211  0.3137  0.3153
 2679TIP3    H2 8044   3.700   5.917   4.848  0.0198  0.4612 -1.4120
 2680TIP3   OH2 8045   3.542   3.416   0.044  0.2233 -0.1631 -0.1105
 2680TIP3    H1 8046   3.503   3.331   0.066  2.2260 -1.0996  0.0529
 2680TIP3    H2 8047   3.630   3.395   0.012  0.6752  1.8400 -0.3502
 2681TIP3   OH2 8048   2.432   0.168   2.886 -0.2176  0.2722 -0.1349
 2681TIP3    H1 8049   2.341   0.164   2.857  0.6076  1.7639 -3.2990
 2681TIP3    H2 8050   2.470   0.085   2.859 -0.2104  0.3745 -0.4368
 2682TIP3   OH2 8051   5.886   2.458   0.632  0.1081 -0.0079 -0.1981
 2682TIP3    H1 8052   5.979   2.458   0.610  0.1394 -2.0732 -0.2769
 2682TIP3    H2 8053   5.877   2.389   0.698 -1.1751  1.0381  0.7786
 2683TIP3   OH2 8054   1.256   1.424   1.074 -0.0372  0.2926 -0.1634
 2683TIP3    H1 8055   1.223   1.388   0.991 -1.7890 -0.7871  0.9202
 2683TIP3    H2 8056   1.210   1.507   1.084 -2.7953 -1.2686  1.4049
 2684TIP3   OH2 8057   2.714   2.707   2.819 -0.6357  0.0446 -0.0670
 2684TIP3    H1 8058   2.722   2.614   2.800  0.5988  0.2493 -0.5953
 2684TIP3    H2 8059   2.686   2.746   2.737 -0.7070  0.2096  0.0351
 2685TIP3   OH2 8060   1.146   0.380   5.029 -0.3811 -0.1279  0.3284
 2685TIP3    H1 8061   1.194   0.298   5.028  0.4550  0.3450  0.6428
 2685TIP3    H2 8062   1.131   0.398   5.122  1.7984  1.3954  0.4557
 2686TIP3   OH2 8063   4.517   3.948   1.107 -0.1452 -0.2453  0.0390
 2686TIP3    H1 8064   4.430   3.973   1.136 -0.0928  0.3897 -0.3434
 2686TIP3    H2 8065   4.529   3.993   1.024  0.4188 -0.5952 -0.0767
 2687TIP3   OH2 8066   5.042   0.158   2.181  0.0771  0.0877  0.3471
 2687TIP3    H1 8067   5.081   0.125   2.100 -2.7689  0.4405 -1.3020
 2687TIP3    H2 8068   5.112   0.206   2.224  2.2506 -1.8067 -0.8509
 2688TIP3   OH2 8069   4.973   5.928   0.273 -0.4307  0.1357 -0.7547
 2688TIP3    H1 8070   4.886   5.893   0.291 -0.1034 -0.2928  0.0513
 2688TIP3    H2 8071   5.012   5.940   0.360  1.5532 -2.7970 -1.1011
 2689TIP3   OH2 8072   4.257   1.832   1.814  0.0270 -0.1374 -0.5629
 2689TIP3    H1 8073   4.347   1.865   1.819  0.0029 -0.1967  0.4155
 2689TIP3    H2 8074   4.210   1.878   1.883 -0.2933 -1.2851  0.0209
 2690TIP3   OH2 8075   0.359   0.620   2.345  0.6650  0.1700 -0.2462
 2690TIP3    H1 8076   0.390   0.673   2.271  1.0112  2.1581  1.2342
 2690TIP3    H2 8077   0.269   0.648   2.358  0.9912  0.7724  0.8375
 2691TIP3   OH2 8078   4.817   2.378   0.979 -0.2138  0.4600 -0.0488
 2691TIP3    H1 8079   4.825   2.396   0.886 -0.6106 -0.2868 -0.2375
 2691TIP3    H2 8080   4.740   2.428   1.007 -0.6659 -0.0664 -0.3329
 2692TIP3   OH2 8081   2.398   2.410   1.002 -0.3487  0.5421  0.3061
 2692TIP3    H1 8082   2.339   2.391   1.075 -1.3718  1.3987 -0.2781
 2692TIP3    H2 8083   2.400   2.328   0.951 -1.9390  0.8277 -0.2765
 2693TIP3   OH2 8084   2.284   0.793   1.128 -0.3496 -0.1611  0.0176
 2693TIP3    H1 8085   2.195   0.784   1.095 -1.4607  0.7377  2.6123
 2693TIP3    H2 8086   2.279   0.772   1.221  1.9698  0.7894  0.4462
 2694TIP3   OH2 8087   1.875   3.515   3.346  0.1752  0.0161 -0.3958
 2694TIP3    H1 8088   1.928   3.436   3.358  0.9182  0.4677 -0.6783
 2694TIP3    H2 8089   1.846   3.511   3.255  1.6853  0.9483 -0.9505
 2695TIP3   OH2 8090   5.583   1.159   4.968 -0.3255 -0.0518 -0.4679
 2695TIP3    H1 8091   5.523   1.162   4.894  0.1265 -0.1955 -0.8495
 2695TIP3    H2 8092   5.634   1.240   4.962  0.7324 -0.7469 -1.2036
 2696TIP3   OH2 8093   6.111   2.316   1.035  0.2382  0.3567  0.4150
 2696TIP3    H1 8094   6.033   2.365   1.009  0.6823  0.6812 -0.3385
 2696TIP3    H2 8095   6.182   2.355   0.983  0.7872 -0.3609  0.6131
 2697TIP3   OH2 8096   0.799   2.870   2.806  0.5495 -0.1981  0.0480
 2697TIP3    H1 8097   0.851   2.889   2.884 -0.5702  1.7510  0.3882
 2697TIP3    H2 8098   0.745   2.795   2.830  0.5396  0.1012  1.0103
 2698TIP3   OH2 8099   2.546   4.023   5.001  0.7185 -0.5871  0.2439
 2698TIP3    H1 8100   2.616   3.982   4.950  1.9445  0.1663  1.2717
 2698TIP3    H2 8101   2.585   4.040   5.087 -0.7678 -0.2569  0.8906
 2699TIP3   OH2 8102   3.465   3.712   2.147 -0.0978 -0.6789 -0.2877
 2699TIP3    H1 8103   3.395   3.772   2.123 -0.2932 -0.2228  1.2940
 2699TIP3    H2 8104   3.519   3.705   2.069  0.8489  2.8414 -0.1310
 2700TIP3   OH2 8105   3.135   1.586   3.411 -0.4794 -0.5804 -0.5303
 2700TIP3    H1 8106   3.092   1.671   3.398 -0.0960 -0.5989 -2.1431
 2700TIP3    H2 8107   3.227   1.603   3.390 -0.2780 -1.2350 -0.1824
 2701TIP3   OH2 8108   2.316   3.567   4.363 -0.4744  0.3475 -0.3799
 2701TIP3    H1 8109   2.390   3.591   4.308  1.4527 -1.9670  1.0257
 2701TIP3    H2 8110   2.252   3.528   4.303  0.5730 -0.0214 -1.2714
 2702TIP3   OH2 8111   2.149   2.010   0.919 -0.1083 -0.7943 -0.0397
 2702TIP3    H1 8112   2.150   2.009   1.015  0.5382  0.4825 -0.0116
 2702TIP3    H2 8113   2.061   2.041   0.897 -0.1477 -0.7688  0.1482
 2703TIP3   OH2 8114   0.370   2.108   1.841 -0.3541 -0.4764  0.4598
 2703TIP3    H1 8115   0.335   2.122   1.754  1.1699  0.9577  0.0291
 2703TIP3    H2 8116   0.293   2.090   1.895 -1.5068  0.2846 -0.8523
 2704TIP3   OH2 8117   0.725   2.001   3.292  0.0145 -0.1346  0.1837
 2704TIP3    H1 8118   0.727   2.008   3.388 -2.0240  0.5513  0.2288
 2704TIP3    H2 8119   0.710   1.908   3.276  2.8660 -0.7109  0.3952
 2705TIP3   OH2 8120   2.053   2.039   4.354 -0.3939  0.3773 -0.3042
 2705TIP3    H1 8121   2.047   2.063   4.447  0.7224  1.4375 -0.4901
 2705TIP3    H2 8122   1.991   2.098   4.310 -0.0901  0.6546 -0.3632
 2706TIP3   OH2 8123   6.009   4.359   0.384 -0.0199  0.0003 -0.3533
 2706TIP3    H1 8124   6.034   4.338   0.294  0.6420 -0.0832 -0.1554
 2706TIP3    H2 8125   6.084   4.332   0.437 -0.6613 -0.5494  0.2967
 2707TIP3   OH2 8126   2.086   2.169   2.318 -0.3958 -0.0434 -0.8383
 2707TIP3    H1 8127   2.094   2.074   2.311 -1.1675 -0.3634  1.5193
 2707TIP3    H2 8128   1.994   2.184   2.340  0.1536  1.0011  1.0532
 2708TIP3   OH2 8129   5.179   2.658   4.812 -0.3039 -0.6519  0.0604
 2708TIP3    H1 8130   5.109   2.641   4.750 -0.0769 -1.0731 -0.0810
 2708TIP3    H2 8131   5.164   2.596   4.883 -1.2240  0.5730  0.9834
 2709TIP3   OH2 8132   5.133   1.814   0.681 -0.5514 -0.4089  0.0886
 2709TIP3    H1 8133   5.079   1.752   0.632  0.4630 -1.3569  0.1305
 2709TIP3    H2 8134   5.190   1.855   0.616 -1.0761  0.3557  0.0922
 2710TIP3   OH2 8135   0.000   2.503   1.600 -0.1851  0.0144  0.0478
 2710TIP3    H1 8136  -0.045   2.419   1.593  0.1051 -0.1056 -0.5296
 2710TIP3    H2 8137   0.070   2.498   1.534 -1.2485  1.3806 -1.2875
 2711TIP3   OH2 8138   1.813   3.884   1.290  0.0471 -0.1544 -0.0301
 2711TIP3    H1 8139   1.812   3.968   1.243  0.7999  0.7463  1.4690
 2711TIP3    H2 8140   1.743   3.892   1.354 -0.4662 -1.0589 -0.4598
 2712TIP3   OH2 8141   1.368   0.250   2.840 -0.9196 -0.1119 -0.2734
 2712TIP3    H1 8142   1.462   0.259   2.828 -0.8202 -1.0842 -0.2765
 2712TIP3    H2 8143   1.330   0.285   2.759 -0.5598  0.1749 -0.3175
 2713TIP3   OH2 8144   6.109   0.050   2.259 -0.1974  0.2092  0.2189
 2713TIP3    H1 8145   6.084   0.063   2.351  0.8866  1.1642  0.3938
 2713TIP3    H2 8146   6.156   0.130   2.235 -1.8933  0.7254 -1.6936
 2714TIP3   OH2 8147   2.481   5.929   4.192  0.0777 -0.0380  0.2703
 2714TIP3    H1 8148   2.391   5.956   4.170 -0.3101 -0.1179  1.7066
 2714TIP3    H2 8149   2.532   6.010   4.188  0.1009 -0.0828 -1.1482
 2715TIP3   OH2 8150   4.064   0.300   3.219  0.5322  0.4049  0.7142
 2715TIP3    H1 8151   4.098   0.380   3.178 -0.3825  0.5790  0.2506
 2715TIP3    H2 8152   4.141   0.247   3.237  1.0397  0.7139 -0.4269
 2716TIP3   OH2 8153   2.757   5.236   1.191 -0.1211 -0.1189 -0.6415
 2716TIP3    H1 8154   2.774   5.189   1.273  0.8019 -0.4843 -1.0318
 2716TIP3    H2 8155   2.757   5.328   1.216  1.7880 -0.1143 -0.4545
 2717TIP3   OH2 8156   3.610   2.414   1.595 -0.1336 -0.2987 -0.4986
 2717TIP3    H1 8157   3.688   2.384   1.641  0.4364 -0.2831 -1.4208
 2717TIP3    H2 8158   3.562   2.334   1.575 -0.8516 -0.2458  0.8870
 2718TIP3   OH2 8159   1.322   1.697   2.788  0.2296  0.2619 -0.4080
 2718TIP3    H1 8160   1.416   1.684   2.776  0.2279 -0.5643  0.3563
 2718TIP3    H2 8161   1.281   1.655   2.713  0.4713  0.6699 -0.7698
 2719TIP3   OH2 8162   2.722   0.885   5.118  0.4381  0.3288 -0.1768
 2719TIP3    H1 8163   2.806   0.930   5.121  0.2508  0.7283 -0.6620
 2719TIP3    H2 8164   2.744   0.796   5.089  0.6273  0.6444 -1.0617
 2720TIP3   OH2 8165   3.879   5.157   4.064  0.5832  0.1098  0.0272
 2720TIP3    H1 8166   3.820   5.204   4.122  0.6109  1.7595 -1.2113
 2720TIP3    H2 8167   3.823   5.095   4.017  0.3018 -0.1215  0.6556
 2721TIP3   OH2 8168   1.060   1.509   4.896 -0.0336 -0.2352 -0.2079
 2721TIP3    H1 8169   0.988   1.524   4.834 -0.2398  0.0318  0.0916
 2721TIP3    H2 8170   1.025   1.538   4.980  0.0056 -1.2246  0.1677
 2722TIP3   OH2 8171   3.678   1.795   3.412  0.1151 -0.2041  0.2212
 2722TIP3    H1 8172   3.651   1.714   3.456 -0.6203  0.6233  1.3392
 2722TIP3    H2 8173   3.774   1.790   3.410  0.3040  0.4126  3.3833
 2723TIP3   OH2 8174   2.915   1.343   1.071  0.0655  0.3026 -0.7161
 2723TIP3    H1 8175   2.838   1.319   1.020 -0.0619 -1.8597  0.3519
 2723TIP3    H2 8176   2.898   1.432   1.101 -0.8638  0.7836 -2.5445
 2724TIP3   OH2 8177   3.202   0.586   1.492  0.4373  0.9067  0.0225
 2724TIP3    H1 8178   3.159   0.542   1.418  0.9773  0.5343 -0.0714
 2724TIP3    H2 8179   3.171   0.677   1.486 -1.9448  0.2540  1.1550
 2725TIP3   OH2 8180   4.858   3.461   3.668 -0.2385 -0.6865 -0.0187
 2725TIP3    H1 8181   4.867   3.557   3.670  0.9262 -0.7948  2.0800
 2725TIP3    H2 8182   4.765   3.446   3.682 -0.4309  0.1281 -0.3397
 2726TIP3   OH2 8183   3.442   1.729   5.066  0.3822  0.2907 -0.1275
 2726TIP3    H1 8184   3.350   1.717   5.089  0.0005  1.7492 -0.7382
 2726TIP3    H2 8185   3.457   1.667   4.995  0.4580 -1.3732  1.2856
 2727TIP3   OH2 8186   4.076   4.095   1.801 -0.3905  0.1540 -0.3738
 2727TIP3    H1 8187   4.141   4.119   1.867  0.0710  0.0247 -0.7745
 2727TIP3    H2 8188   4.017   4.170   1.797 -0.3595  0.2040  0.1116
 2728TIP3   OH2 8189   5.958   2.692   1.103 -0.7227 -0.4917 -0.4614
 2728TIP3    H1 8190   5.867   2.713   1.124 -0.7867 -1.5463  0.4053
 2728TIP3    H2 8191   5.952   2.617   1.044 -0.4112 -0.3879 -0.6293
 2729TIP3   OH2 8192   0.286   3.717   2.927  0.4442  0.0544 -0.1586
 2729TIP3    H1 8193   0.294   3.689   2.836 -1.1020  0.0085 -0.3145
 2729TIP3    H2 8194   0.301   3.812   2.925  0.2673  0.0756 -0.4953
 2730TIP3   OH2 8195   2.035   4.392   2.524  0.2786  0.6173 -0.2088
 2730TIP3    H1 8196   1.984   4.408   2.445 -2.0229 -2.5610  0.4452
 2730TIP3    H2 8197   1.975   4.414   2.596  1.1994  0.4520  0.6318
 2731TIP3   OH2 8198   1.053   5.399   4.825 -0.1136  0.5084 -0.2904
 2731TIP3    H1 8199   1.041   5.349   4.906 -2.4079 -0.0842 -0.9037
 2731TIP3    H2 8200   1.126   5.356   4.780 -0.6949 -1.0098  0.1460
 2732TIP3   OH2 8201   2.083   3.026   2.422  0.4360 -0.5456 -0.7727
 2732TIP3    H1 8202   2.044   2.943   2.395  0.6989 -0.6418 -0.8576
 2732TIP3    H2 8203   2.076   3.026   2.517 -1.5576  0.3109 -0.8698
 2733TIP3   OH2 8204   5.794   5.734   3.846 -0.1169  0.5873  0.4124
 2733TIP3    H1 8205   5.842   5.702   3.923  0.7164  1.5445  0.3103
 2733TIP3    H2 8206   5.712   5.768   3.880  0.2854  1.0838  0.9016
 2734TIP3   OH2 8207   6.203   1.349   1.613 -0.0599  0.3949 -0.5977
 2734TIP3    H1 8208   6.231   1.341   1.704 -2.4920 -1.6974  0.1007
 2734TIP3    H2 8209   6.107   1.359   1.618 -0.2277  0.5081 -2.9187
 2735TIP3   OH2 8210   0.792   3.203   2.928 -0.5974  0.3679 -0.4753
 2735TIP3    H1 8211   0.843   3.148   2.988  0.6599  0.4635 -1.4165
 2735TIP3    H2 8212   0.735   3.253   2.985 -0.9731 -1.0941  0.4855
 2736TIP3   OH2 8213   3.834   4.795   4.879  0.1793  0.0188 -0.4953
 2736TIP3    H1 8214   3.764   4.849   4.842  0.1083 -0.5143 -1.1536
 2736TIP3    H2 8215   3.910   4.854   4.884 -0.7987  1.2218  2.1297
 2737TIP3   OH2 8216   5.974   4.635   2.051 -0.1990 -0.5115  0.0737
 2737TIP3    H1 8217   6.037   4.599   2.114  2.2627 -0.7522 -2.3005
 2737TIP3    H2 8218   5.896   4.581   2.062  1.1214 -2.3834  1.0208
 2738TIP3   OH2 8219   5.251   1.772   3.436 -0.0811  0.0339  0.1588
 2738TIP3    H1 8220   5.323   1.708   3.428 -0.7595 -0.6583 -0.5336
 2738TIP3    H2 8221   5.207   1.769   3.352 -0.9564  0.4275  0.5951
 2739TIP3   OH2 8222   3.840   5.519   5.095  0.3912 -0.3223 -0.2911
 2739TIP3    H1 8223   3.930   5.501   5.068  0.2012 -0.0465 -1.1426
 2739TIP3    H2 8224   3.801   5.433   5.109 -0.0778 -0.6073 -2.8577
 2740TIP3   OH2 8225   0.472   1.971   4.359 -0.0243 -0.0248 -0.5011
 2740TIP3    H1 8226   0.405   2.019   4.410  0.1256 -1.2009  0.8786
 2740TIP3    H2 8227   0.540   2.036   4.342 -0.2365  0.4958  0.5416
 2741TIP3   OH2 8228   1.987   0.977   2.520  0.0368 -0.3205 -0.1882
 2741TIP3    H1 8229   2.074   0.955   2.553  0.8551  1.0856 -1.2549
 2741TIP3    H2 8230   1.941   1.013   2.595  1.0807  0.7214 -0.0074
 2742TIP3   OH2 8231   5.283   5.475   4.591 -0.1032  0.1327 -0.0264
 2742TIP3    H1 8232   5.345   5.540   4.559  0.7902 -1.0814 -0.8306
 2742TIP3    H2 8233   5.242   5.516   4.667  0.7183  1.4661 -0.2792
 2743TIP3   OH2 8234   6.147   3.382   2.645 -0.6144 -0.1019  0.0184
 2743TIP3    H1 8235   6.176   3.473   2.650  1.0691 -0.6343  0.6088
 2743TIP3    H2 8236   6.094   3.370   2.724 -2.5601  0.8647 -1.0444
 2744TIP3   OH2 8237   5.153   0.530   4.849 -0.4142 -0.0249 -0.2506
 2744TIP3    H1 8238   5.075   0.557   4.898 -0.5794 -2.9080  1.2958
 2744TIP3    H2 8239   5.221   0.591   4.876 -0.9906 -0.3499  2.1257
 2745TIP3   OH2 8240   6.163   2.926   1.175  0.0872 -0.0038  0.2583
 2745TIP3    H1 8241   6.173   2.899   1.083 -2.9520 -1.4346  0.2387
 2745TIP3    H2 8242   6.154   3.021   1.170 -0.0172 -0.0499 -0.9392
 2746TIP3   OH2 8243   2.042   1.402   2.982 -0.3177 -0.0350 -0.2096
 2746TIP3    H1 8244   2.099   1.465   2.937 -0.6505  0.9661  0.7353
 2746TIP3    H2 8245   2.090   1.319   2.977 -0.0564  0.1876 -1.8206
 2747TIP3   OH2 8246   5.291   3.226   1.644  0.5339  0.1031  0.4482
 2747TIP3    H1 8247   5.209   3.272   1.658  0.2959 -0.3448  0.5284
 2747TIP3    H2 8248   5.296   3.215   1.549 -0.4161 -1.5089  0.5441
 2748TIP3   OH2 8249   4.826   1.483   4.623 -0.1030  0.4331  0.4776
 2748TIP3    H1 8250   4.867   1.398   4.606 -0.6886  0.2964 -0.3513
 2748TIP3    H2 8251   4.887   1.528   4.681  1.3255  0.2969 -0.8275
 2749TIP3   OH2 8252   4.000   2.279   2.171  0.2109 -0.2345 -0.7075
 2749TIP3    H1 8253   3.961   2.364   2.194 -0.3024 -0.7996  0.6220
 2749TIP3    H2 8254   4.094   2.294   2.180  0.2172  0.5823 -1.9419
 2750TIP3   OH2 8255   0.331   3.652   2.671 -0.0661 -0.1369 -0.1524
 2750TIP3    H1 8256   0.295   3.611   2.593 -1.4391  0.8925 -0.0859
 2750TIP3    H2 8257   0.363   3.737   2.642 -0.8825  0.3904  0.4297
 2751TIP3   OH2 8258   5.329   2.541   2.542  0.1892 -0.6367  0.2438
 2751TIP3    H1 8259   5.417   2.572   2.522 -0.0320  0.7384  1.1977
 2751TIP3    H2 8260   5.331   2.448   2.524  1.5449 -0.4490 -0.7174
 2752TIP3   OH2 8261   2.959   1.987   3.129  0.3028 -0.0949  0.0731
 2752TIP3    H1 8262   2.918   2.046   3.065  0.4700 -0.2051 -0.1382
 2752TIP3    H2 8263   3.047   2.023   3.143 -0.6526  1.5537  2.3635
 2753TIP3   OH2 8264   0.520   5.484   1.770  0.3310  0.4283 -0.3667
 2753TIP3    H1 8265   0.564   5.468   1.854 -0.4520 -0.2032 -0.0567
 2753TIP3    H2 8266   0.509   5.579   1.766  0.7604  0.5000  0.0411
 2754TIP3   OH2 8267   3.927   3.853   5.152 -0.1599 -0.0943 -0.6222
 2754TIP3    H1 8268   4.011   3.807   5.150  0.5538  1.1761 -1.3803
 2754TIP3    H2 8269   3.888   3.834   5.067 -0.7539 -0.8829 -0.1737
 2755TIP3   OH2 8270   2.240   0.396   2.317  0.3566  0.3475 -0.1834
 2755TIP3    H1 8271   2.256   0.329   2.383  1.1226 -0.7255 -1.4058
 2755TIP3    H2 8272   2.154   0.431   2.338 -0.1782 -1.2213  0.3390
 2756TIP3   OH2 8273   3.496   5.574   3.239 -0.2748 -0.4560 -0.3337
 2756TIP3    H1 8274   3.419   5.614   3.198 -0.4715 -0.0861  0.3658
 2756TIP3    H2 8275   3.545   5.649   3.274  0.1919 -0.7195 -0.4191
 2757TIP3   OH2 8276   3.482   5.080   2.480  0.4940  0.3335  0.2369
 2757TIP3    H1 8277   3.526   5.026   2.546  0.0742  2.0923  2.0549
 2757TIP3    H2 8278   3.432   5.017   2.427  1.0958 -1.1732  1.3716
 2758TIP3   OH2 8279   6.117   5.814   0.178  0.6614  0.0611  0.1361
 2758TIP3    H1 8280   6.189   5.835   0.119  2.4606 -0.7996  1.8729
 2758TIP3    H2 8281   6.118   5.884   0.244  0.0108 -0.0537  0.2809
 2759TIP3   OH2 8282   1.227   2.841   1.371  0.3834 -0.3592 -0.2231
 2759TIP3    H1 8283   1.235   2.756   1.414 -0.8754 -0.4458 -0.1163
 2759TIP3    H2 8284   1.309   2.886   1.390  0.2025 -0.7118  1.5803
 2760TIP3   OH2 8285   1.598   3.939   3.959  0.0450  0.4724 -0.0526
 2760TIP3    H1 8286   1.510   3.907   3.941  0.6854 -0.2252 -2.3761
 2760TIP3    H2 8287   1.652   3.860   3.963  0.6821  0.9286  0.5812
 2761TIP3   OH2 8288   5.672   2.487   4.855  0.2951  0.6114 -0.7614
 2761TIP3    H1 8289   5.755   2.489   4.902  0.6598 -1.3128 -1.2450
 2761TIP3    H2 8290   5.627   2.409   4.888 -0.7322  0.8843 -1.4682
 2762TIP3   OH2 8291   6.073   3.407   3.655 -0.0824  0.7337  0.0838
 2762TIP3    H1 8292   6.163   3.397   3.624 -0.5052 -1.0585 -0.7362
 2762TIP3    H2 8293   6.076   3.374   3.745 -0.4579 -2.6845 -0.9894
 2763TIP3   OH2 8294   0.228   3.056   3.718 -0.4660 -0.3237  0.5073
 2763TIP3    H1 8295   0.300   3.074   3.657 -0.9264 -1.1806 -0.3215
 2763TIP3    H2 8296   0.175   3.135   3.717 -0.1546 -0.1164  0.2418
 2764TIP3   OH2 8297   4.263   5.555   4.612  0.5535 -0.5010  0.4107
 2764TIP3    H1 8298   4.253   5.468   4.575  0.6759  0.3236 -1.7498
 2764TIP3    H2 8299   4.355   5.578   4.595  0.0251  0.7924 -0.9894
 2765TIP3   OH2 8300   5.109   2.911   4.721  0.2205 -0.5633  0.2158
 2765TIP3    H1 8301   5.149   2.840   4.771 -0.2830 -1.3049 -0.4138
 2765TIP3    H2 8302   5.053   2.867   4.658  0.5267  0.3650 -0.7289
 2766TIP3   OH2 8303   4.996   5.468   0.957 -0.4915  0.6797  0.3958
 2766TIP3    H1 8304   5.025   5.540   1.013 -0.2935  0.4592  0.5823
 2766TIP3    H2 8305   5.006   5.500   0.868  2.3766 -0.1263  0.3503
 2767TIP3   OH2 8306   6.301   3.089   3.488  0.5908 -0.7504  0.0429
 2767TIP3    H1 8307   6.359   3.163   3.503 -0.2405 -0.4147  1.8596
 2767TIP3    H2 8308   6.359   3.019   3.456  1.1771  1.0180 -3.1190
 2768TIP3   OH2 8309   5.038   4.587   2.661  0.5142 -0.2716 -0.4548
 2768TIP3    H1 8310   5.075   4.506   2.627  0.2723 -1.0083  0.9684
 2768TIP3    H2 8311   5.114   4.643   2.677  0.8388 -0.9209  0.3063
 2769TIP3   OH2 8312   5.152   3.450   4.813  0.5391 -0.1472 -0.1443
 2769TIP3    H1 8313   5.233   3.454   4.863  1.5361  0.8261 -1.7565
 2769TIP3    H2 8314   5.152   3.362   4.775  0.1949 -0.5918  0.8680
 2770TIP3   OH2 8315   0.525   3.739   0.254  0.4539  0.2305 -0.5603
 2770TIP3    H1 8316   0.603   3.685   0.241 -0.2814 -0.9248 -0.3289
 2770TIP3    H2 8317   0.546   3.823   0.213  2.4721  0.5503  0.9886
 2771TIP3   OH2 8318   2.769   0.244   3.847  0.2630  0.6187 -0.6153
 2771TIP3    H1 8319   2.861   0.223   3.859 -0.2269 -1.1798  0.4317
 2771TIP3    H2 8320   2.765   0.339   3.848  1.7310  0.7864  2.9506
 2772TIP3   OH2 8321   3.325   4.990   1.606  0.0279  0.3617  0.5236
 2772TIP3    H1 8322   3.392   5.041   1.561 -0.2542 -0.9680 -1.5536
 2772TIP3    H2 8323   3.368   4.958   1.685  0.7660  2.2220  0.9289
 2773TIP3   OH2 8324   3.810   5.898   0.854 -0.0471  0.1443  0.0211
 2773TIP3    H1 8325   3.753   5.834   0.896 -0.5891  1.1344  0.8328
 2773TIP3    H2 8326   3.898   5.860   0.861 -0.0881  0.3451  2.2356
 2774TIP3   OH2 8327   4.428   0.967   0.850  0.0666 -0.1909  0.4497
 2774TIP3    H1 8328   4.399   0.944   0.938 -1.5049 -1.1205 -0.2659
 2774TIP3    H2 8329   4.406   0.890   0.797 -2.2077  1.5720 -1.4020
 2775TIP3   OH2 8330   2.094   4.001   0.812 -0.1380 -0.1011  0.1451
 2775TIP3    H1 8331   2.127   3.912   0.796  0.1430  0.3110 -1.8912
 2775TIP3    H2 8332   2.173   4.054   0.821 -0.2754  0.2098 -0.4453
 2776TIP3   OH2 8333   1.895   5.864   3.305 -0.2245  0.8260  0.6405
 2776TIP3    H1 8334   1.874   5.923   3.377 -2.9808  0.0368  0.6260
 2776TIP3    H2 8335   1.833   5.792   3.314  0.6604 -0.2934 -1.3883
 2777TIP3   OH2 8336   4.514   2.425   3.018 -0.1079  0.0996 -0.1491
 2777TIP3    H1 8337   4.434   2.406   2.970 -0.3836  1.7987 -0.4273
 2777TIP3    H2 8338   4.584   2.410   2.954 -0.2157 -0.9502 -0.0381
 2778TIP3   OH2 8339   2.815   1.601   4.027 -0.7336  0.3221 -0.0452
 2778TIP3    H1 8340   2.898   1.642   4.000  0.4676 -1.5431  0.6267
 2778TIP3    H2 8341   2.778   1.567   3.945  0.4712 -1.0725 -0.0425
 2779TIP3   OH2 8342   0.288   4.947   4.066 -0.1850 -0.0352 -0.0390
 2779TIP3    H1 8343   0.363   4.927   4.121  0.3127  0.1058 -0.6566
 2779TIP3    H2 8344   0.299   4.891   3.989 -0.5036  0.2728 -0.3155
 2780TIP3   OH2 8345  -0.007   3.493   3.494 -0.1750  0.3194 -0.4155
 2780TIP3    H1 8346   0.040   3.414   3.468  1.0961  1.1130 -0.6042
 2780TIP3    H2 8347   0.018   3.558   3.429 -0.6109  1.0791  0.1689
 2781TIP3   OH2 8348   4.068   2.129   3.631  0.4465  0.2997  0.1859
 2781TIP3    H1 8349   4.081   2.067   3.559 -0.0183 -0.8368  1.0295
 2781TIP3    H2 8350   4.133   2.103   3.696 -0.0741  0.3804  0.7466
 2782TIP3   OH2 8351   0.900   1.390   0.954 -0.2340 -0.1006  0.1596
 2782TIP3    H1 8352   0.970   1.425   0.899 -0.9687 -0.4639 -1.0215
 2782TIP3    H2 8353   0.871   1.311   0.910 -1.2405 -0.0807  0.7605
 2783TIP3   OH2 8354   0.459   0.494   2.056  0.1437 -0.0218  0.0388
 2783TIP3    H1 8355   0.514   0.434   2.106  1.0189 -0.3357 -1.2473
 2783TIP3    H2 8356   0.436   0.446   1.976  1.2644  1.4742 -1.2605
 2784TIP3   OH2 8357   2.539   1.359   3.418  0.1639 -0.2745  0.4206
 2784TIP3    H1 8358   2.594   1.316   3.352 -0.6570 -1.4419  0.4641
 2784TIP3    H2 8359   2.601   1.393   3.482  0.9816  0.8719 -0.9239
 2785TIP3   OH2 8360   3.494   5.740   3.539  0.3259 -0.5909 -0.1491
 2785TIP3    H1 8361   3.505   5.750   3.634  2.1697 -0.4960 -0.3273
 2785TIP3    H2 8362   3.402   5.761   3.523  0.2150  0.3934  1.4932
 2786TIP3   OH2 8363   4.765   0.476   4.760  0.1461 -0.1242  0.3064
 2786TIP3    H1 8364   4.816   0.396   4.749  0.0410 -0.2421  0.6601
 2786TIP3    H2 8365   4.702   0.455   4.829 -0.2196  0.0997  0.0429
 2787TIP3   OH2 8366   0.330   2.025   3.482  0.1106 -0.1610 -0.5659
 2787TIP3    H1 8367   0.283   2.071   3.551  0.2849 -1.6434  0.5912
 2787TIP3    H2 8368   0.264   2.011   3.413 -0.2703  0.6205 -0.3743
 2788TIP3   OH2 8369   1.204   2.914   0.753 -0.1187 -0.5796 -0.0983
 2788TIP3    H1 8370   1.134   2.968   0.789 -0.6907 -0.2015 -1.6741
 2788TIP3    H2 8371   1.172   2.824   0.764 -0.8278 -0.4136 -0.7023
 2789TIP3   OH2 8372   2.450   5.308   2.970  0.0834 -0.0175  0.0400
 2789TIP3    H1 8373   2.436   5.396   3.006  2.3442  0.4728 -0.1069
 2789TIP3    H2 8374   2.520   5.320   2.905  0.0457 -1.8353 -0.3773
 2790TIP3   OH2 8375   1.590   4.375   0.182 -0.4674 -0.2788 -0.0993
 2790TIP3    H1 8376   1.628   4.378   0.094 -1.8943  0.7728 -0.7153
 2790TIP3    H2 8377   1.627   4.452   0.226 -2.4722  1.2784 -0.9997
 2791TIP3   OH2 8378   5.405   2.117   0.481 -0.2728 -0.2245 -0.1449
 2791TIP3    H1 8379   5.493   2.143   0.453 -0.4052 -0.7746 -1.1373
 2791TIP3    H2 8380   5.402   2.137   0.574  0.4461  1.0476 -0.3714
 2792TIP3   OH2 8381   1.235   1.670   3.114 -0.2709  0.2223  0.1500
 2792TIP3    H1 8382   1.319   1.659   3.070 -0.7521 -0.6884 -0.5885
 2792TIP3    H2 8383   1.248   1.742   3.175  0.2793  1.9258 -1.8962
 2793TIP3   OH2 8384   0.349   5.857   4.085  0.5123  0.3341  0.0768
 2793TIP3    H1 8385   0.289   5.783   4.076  2.1189 -0.8661 -1.3569
 2793TIP3    H2 8386   0.304   5.930   4.043 -0.4316 -0.2343  0.0782
 2794TIP3   OH2 8387   2.272   4.210   0.846 -0.6836  0.2553  0.6814
 2794TIP3    H1 8388   2.332   4.277   0.880  0.1197  0.3388 -0.8096
 2794TIP3    H2 8389   2.208   4.260   0.794  0.8594 -0.1816 -1.7886
 2795TIP3   OH2 8390   4.000   0.554   4.272  0.2824 -0.2901  0.1171
 2795TIP3    H1 8391   3.926   0.613   4.287  0.0528 -0.1045 -1.5452
 2795TIP3    H2 8392   3.964   0.466   4.284  0.1339 -0.1644  0.6162
 2796TIP3   OH2 8393   0.524   4.116   4.164 -0.1534  0.1698  0.1288
 2796TIP3    H1 8394   0.447   4.061   4.154 -0.5972  0.5904  1.1726
 2796TIP3    H2 8395   0.526   4.139   4.257  0.8590  0.7013 -0.0079
 2797TIP3   OH2 8396   0.494   2.702   2.632 -0.0552  0.1699  0.3868
 2797TIP3    H1 8397   0.556   2.693   2.705 -0.1059  1.0883  0.5602
 2797TIP3    H2 8398   0.410   2.674   2.669 -0.3922  2.0928  1.1757
 2798TIP3   OH2 8399   2.076   5.628   0.655  0.7679  0.2963  0.1828
 2798TIP3    H1 8400   2.085   5.671   0.569 -1.0378 -0.2997 -0.3396
 2798TIP3    H2 8401   2.058   5.700   0.715 -3.1820  0.3734 -0.8352
 2799TIP3   OH2 8402   4.435   0.950   4.621 -0.0472 -0.1621 -0.2236
 2799TIP3    H1 8403   4.476   0.908   4.697  1.8006  0.5779 -0.7593
 2799TIP3    H2 8404   4.343   0.923   4.626 -0.3694  1.0067  3.0661
 2800TIP3   OH2 8405   3.351   1.293   2.966  0.6793 -0.2778  0.1503
 2800TIP3    H1 8406   3.338   1.285   2.872 -0.1293  1.2522  0.0992
 2800TIP3    H2 8407   3.266   1.319   3.000  1.5610  1.8240  0.9268
 2801TIP3   OH2 8408   1.417   0.555   0.886  0.3257 -0.2932 -0.6279
 2801TIP3    H1 8409   1.481   0.488   0.910  0.6854 -0.6015 -2.3315
 2801TIP3    H2 8410   1.448   0.590   0.803 -0.5344  1.1382 -0.3983
 2802TIP3   OH2 8411   0.828   5.556   0.527  0.4394  0.8312 -0.3962
 2802TIP3    H1 8412   0.783   5.501   0.591  0.2651  0.5502 -0.7546
 2802TIP3    H2 8413   0.757   5.603   0.482  0.4793  0.2217 -1.1134
 2803TIP3   OH2 8414   5.894   2.982   4.906 -0.1703 -0.3960  0.1343
 2803TIP3    H1 8415   5.805   2.948   4.910 -0.6900  0.8715  0.1040
 2803TIP3    H2 8416   5.929   2.948   4.824  0.4552 -3.3072  1.5103
 2804TIP3   OH2 8417   3.914   4.108   3.856  0.4251  0.2122 -0.0935
 2804TIP3    H1 8418   3.829   4.152   3.854 -0.5372 -1.5662 -0.5369
 2804TIP3    H2 8419   3.908   4.041   3.788  1.7083 -0.7838  0.7340
 2805TIP3   OH2 8420   3.848   4.737   2.399 -0.2204 -0.2931 -0.0322
 2805TIP3    H1 8421   3.897   4.688   2.334  0.5364 -0.6248  0.7736
 2805TIP3    H2 8422   3.849   4.682   2.477 -1.3955 -0.0493  0.1744
 2806TIP3   OH2 8423   1.794   0.784   0.844 -0.1727  0.1307  0.3098
 2806TIP3    H1 8424   1.727   0.849   0.820  0.2505  0.4297 -0.0704
 2806TIP3    H2 8425   1.788   0.718   0.775 -1.4451 -0.8819  1.3490
 2807TIP3   OH2 8426   2.387   4.438   4.617 -0.9735 -0.6522  0.5041
 2807TIP3    H1 8427   2.412   4.381   4.689 -0.0527 -1.8152 -0.6984
 2807TIP3    H2 8428   2.328   4.385   4.563 -3.3183  0.8586  1.3861
 2808TIP3   OH2 8429   2.401   0.715   0.472 -0.2185 -0.0262 -0.3808
 2808TIP3    H1 8430   2.363   0.781   0.529  1.7529  0.9784 -0.1368
 2808TIP3    H2 8431   2.334   0.646   0.466 -0.8781  0.2879  2.3363
 2809TIP3   OH2 8432   1.177   2.582   1.490 -0.4486 -1.1336 -0.3362
 2809TIP3    H1 8433   1.126   2.507   1.459 -1.7383 -1.1718  1.7153
 2809TIP3    H2 8434   1.141   2.601   1.577  1.3692  0.4549  0.1215
 2810TIP3   OH2 8435   4.876   5.973   2.380 -0.2540 -0.5491  0.3159
 2810TIP3    H1 8436   4.967   5.948   2.398 -0.4430 -0.2456  1.8530
 2810TIP3    H2 8437   4.824   5.898   2.409 -0.4697 -1.4468 -2.1317
 2811TIP3   OH2 8438   3.617   2.648   4.785 -0.2002  0.1045  0.2511
 2811TIP3    H1 8439   3.543   2.625   4.729 -0.4296 -0.3696  0.7491
 2811TIP3    H2 8440   3.624   2.577   4.848 -0.7854  1.2660  1.6979
 2812TIP3   OH2 8441   1.566   3.408   2.448 -0.1249 -0.2803  0.4505
 2812TIP3    H1 8442   1.543   3.394   2.540  1.4603 -0.2216  0.8826
 2812TIP3    H2 8443   1.527   3.493   2.427  0.5667  0.3041  1.4573
 2813TIP3   OH2 8444   4.583   0.103   1.804  0.4319  0.3208 -0.3835
 2813TIP3    H1 8445   4.612   0.153   1.727 -1.0070  1.5035 -0.2086
 2813TIP3    H2 8446   4.664   0.076   1.847  1.2628 -0.0372 -2.0897
 2814TIP3   OH2 8447   3.884   2.606   0.506  0.0181  0.5811 -0.0551
 2814TIP3    H1 8448   3.918   2.546   0.572  0.6521 -0.2198 -1.0892
 2814TIP3    H2 8449   3.802   2.565   0.477 -0.1666  0.8395  0.0967
 2815TIP3   OH2 8450   1.206   1.979   4.320 -0.3427  0.4888  0.2792
 2815TIP3    H1 8451   1.220   1.923   4.243 -0.3332  1.7748 -0.6827
 2815TIP3    H2 8452   1.263   1.941   4.387  0.1680 -0.2667 -0.5486
 2816TIP3   OH2 8453   3.799   3.861   3.042 -0.5122  0.3937 -0.0900
 2816TIP3    H1 8454   3.771   3.942   2.998  0.6919 -0.5813 -2.8536
 2816TIP3    H2 8455   3.790   3.793   2.975  1.0208 -1.2911  1.3164
 2817TIP3   OH2 8456   6.150   3.202   2.964 -0.1896 -0.3439 -0.2159
 2817TIP3    H1 8457   6.195   3.153   3.033 -0.9334 -1.0030 -0.1815
 2817TIP3    H2 8458   6.182   3.163   2.883 -0.1178 -0.2894 -0.2139
 2818TIP3   OH2 8459   1.062   0.732   1.912  0.2857  0.0904 -0.0997
 2818TIP3    H1 8460   0.981   0.748   1.960 -0.7970  1.1703 -2.1614
 2818TIP3    H2 8461   1.123   0.797   1.946  0.7864 -1.5624  2.3958
 2819TIP3   OH2 8462   3.309   1.452   4.865  0.4406  0.6192 -0.3156
 2819TIP3    H1 8463   3.260   1.415   4.791 -0.6508  1.5657 -0.0855
 2819TIP3    H2 8464   3.348   1.532   4.830  1.2726  0.2255 -0.3037
 2820TIP3   OH2 8465   3.907   4.608   3.331 -0.0904  0.6452 -0.3569
 2820TIP3    H1 8466   3.893   4.627   3.424 -1.0287 -1.7494  0.0610
 2820TIP3    H2 8467   3.988   4.557   3.329 -0.2208  0.4513 -0.8216
 2821TIP3   OH2 8468   0.786   0.413   0.080  0.3011  0.4914  0.3524
 2821TIP3    H1 8469   0.778   0.509   0.079  0.8886  0.5566  1.0460
 2821TIP3    H2 8470   0.769   0.389   0.171  1.3731  0.0590  0.4521
 2822TIP3   OH2 8471   3.689   4.191   2.808  0.2588  0.7603  0.1247
 2822TIP3    H1 8472   3.631   4.179   2.883  1.5451  1.7954  1.3458
 2822TIP3    H2 8473   3.707   4.103   2.777  0.2565  0.2537  1.4858
 2823TIP3   OH2 8474   1.354   4.179   4.688  0.5967  0.3223 -0.3500
 2823TIP3    H1 8475   1.398   4.179   4.602 -0.0644  0.2433 -0.6954
 2823TIP3    H2 8476   1.261   4.187   4.667  0.4858  1.1283  0.3933
 2824TIP3   OH2 8477   1.402   4.604   3.600 -0.0405 -0.7680 -0.7129
 2824TIP3    H1 8478   1.469   4.590   3.534  1.0486  0.1600  0.1717
 2824TIP3    H2 8479   1.420   4.538   3.667  0.8659  0.3503  0.1788
 2825TIP3   OH2 8480   3.359   2.552   4.969 -0.1378  0.2281  0.0815
 2825TIP3    H1 8481   3.399   2.601   5.040 -0.5065  0.7038 -0.0367
 2825TIP3    H2 8482   3.303   2.615   4.923 -1.0542 -0.4194  0.2651
 2826TIP3   OH2 8483   5.963   2.230   5.078  0.0812 -0.2593  0.3327
 2826TIP3    H1 8484   6.052   2.202   5.101 -0.4144 -0.7510  1.8037
 2826TIP3    H2 8485   5.965   2.242   4.983  2.2621  1.6897  0.5397
 2827TIP3   OH2 8486   5.506   0.936   3.657  0.7727 -0.0703 -0.4874
 2827TIP3    H1 8487   5.448   0.947   3.733 -0.9966  0.6512 -1.8526
 2827TIP3    H2 8488   5.567   1.010   3.663 -0.6725  1.2123 -0.8209
 2828TIP3   OH2 8489   1.363   0.191   2.280  0.1103 -0.1095  0.0389
 2828TIP3    H1 8490   1.299   0.212   2.212 -1.9086 -1.4422  1.4202
 2828TIP3    H2 8491   1.374   0.096   2.273  0.3629 -0.1700  1.1428
 2829TIP3   OH2 8492   3.479   2.998   4.526  0.3512  0.3769 -0.5434
 2829TIP3    H1 8493   3.536   2.921   4.530 -0.9429 -0.5565  0.5965
 2829TIP3    H2 8494   3.539   3.070   4.506  1.5981 -0.8953 -1.6404
 2830TIP3   OH2 8495   5.664   2.533   0.486 -0.3018  0.5356  0.6168
 2830TIP3    H1 8496   5.750   2.572   0.501 -0.2452  0.7102 -0.1462
 2830TIP3    H2 8497   5.635   2.505   0.573 -0.3072  2.2183  1.1972
 2831TIP3   OH2 8498   4.197   5.343   2.971 -0.2576 -0.4331  0.1147
 2831TIP3    H1 8499   4.263   5.304   2.914 -2.6984  0.5878 -3.7574
 2831TIP3    H2 8500   4.125   5.280   2.971 -0.9247  0.2986  0.8313
 2832TIP3   OH2 8501  -0.006   1.683   4.782 -0.1991  0.2510 -0.1709
 2832TIP3    H1 8502   0.048   1.608   4.759 -1.6403 -0.6020 -0.9156
 2832TIP3    H2 8503   0.056   1.751   4.807  1.2445 -0.4437 -1.6956
 2833TIP3   OH2 8504   4.840   0.825   3.062  0.3854  0.0113 -0.4316
 2833TIP3    H1 8505   4.894   0.895   3.100  0.1771  0.0239 -0.1600
 2833TIP3    H2 8506   4.780   0.800   3.132 -0.4047  0.4530 -0.9427
 2834TIP3   OH2 8507   1.696   1.903   0.374  0.1403  0.0921  0.2763
 2834TIP3    H1 8508   1.770   1.848   0.401  1.0924  1.1275 -0.1377
 2834TIP3    H2 8509   1.737   1.976   0.327 -1.2038  0.3312 -0.5617
 2835TIP3   OH2 8510   4.238   4.260   2.369  0.3273 -0.1050 -0.0582
 2835TIP3    H1 8511   4.296   4.184   2.364  0.5465  0.1248 -2.1034
 2835TIP3    H2 8512   4.175   4.247   2.297 -0.4852  0.9720  0.4222
 2836TIP3   OH2 8513   4.205   2.422   2.956  0.3561 -0.1019  0.0246
 2836TIP3    H1 8514   4.161   2.401   2.873  1.7439  0.5308 -0.9130
 2836TIP3    H2 8515   4.138   2.409   3.022 -1.7300  2.2044 -1.4386
 2837TIP3   OH2 8516   2.119   3.605   1.707 -0.4570 -0.1337  0.0849
 2837TIP3    H1 8517   2.135   3.535   1.644  2.4191 -0.2771  0.8465
 2837TIP3    H2 8518   2.033   3.640   1.683 -1.0962 -2.5910 -1.5506
 2838TIP3   OH2 8519   3.278   2.689   1.597  0.1082 -0.1366 -0.0210
 2838TIP3    H1 8520   3.249   2.692   1.506  0.7918 -0.4670 -0.2586
 2838TIP3    H2 8521   3.257   2.776   1.632 -1.8096 -0.5929  0.0448
 2839TIP3   OH2 8522   4.796   2.046   1.727  0.6746 -0.6819  0.0504
 2839TIP3    H1 8523   4.855   2.121   1.734  0.7195 -0.6644 -0.5051
 2839TIP3    H2 8524   4.762   2.050   1.638  0.0922 -0.8885  0.2569
 2840TIP3   OH2 8525   3.488   4.869   2.167 -0.0635 -0.3331  0.1034
 2840TIP3    H1 8526   3.435   4.859   2.245  0.3353 -0.8288  0.3188
 2840TIP3    H2 8527   3.451   4.806   2.104  0.6915 -1.2090  0.4986
 2841TIP3   OH2 8528   1.064   0.557   3.693 -0.1010  0.4604 -0.4520
 2841TIP3    H1 8529   1.136   0.501   3.664 -0.1397 -0.8577  1.7739
 2841TIP3    H2 8530   0.988   0.498   3.695 -0.5164  1.0149  0.3236
 2842TIP3   OH2 8531   1.453   0.115   0.648  0.3308  0.4512 -0.0001
 2842TIP3    H1 8532   1.496   0.166   0.717  1.3079 -0.4093  0.0445
 2842TIP3    H2 8533   1.490   0.028   0.655 -0.2941  0.0842 -0.9812
 2843TIP3   OH2 8534   2.959   4.297   0.235 -0.4060 -0.0028  0.1967
 2843TIP3    H1 8535   3.010   4.348   0.299 -0.7641 -0.1898  0.6406
 2843TIP3    H2 8536   2.901   4.244   0.289  0.5885 -1.5744 -0.2135
 2844TIP3   OH2 8537   4.288   3.140   0.350  0.5647  0.1798 -0.3552
 2844TIP3    H1 8538   4.301   3.229   0.316 -0.3734  0.3840 -0.2072
 2844TIP3    H2 8539   4.245   3.153   0.435 -0.7653 -0.4365 -0.9060
 2845TIP3   OH2 8540   5.636   1.095   3.050 -0.0022  0.7814  0.0395
 2845TIP3    H1 8541   5.708   1.040   3.019 -0.1324  0.8394 -0.3748
 2845TIP3    H2 8542   5.619   1.155   2.978  0.4494  1.6803  0.6666
 2846TIP3   OH2 8543   1.762   1.472   2.328 -0.2476  0.0880  0.6592
 2846TIP3    H1 8544   1.688   1.530   2.346  0.6036  2.0807 -1.5438
 2846TIP3    H2 8545   1.746   1.394   2.380 -2.4733  1.5444  2.3301
 2847TIP3   OH2 8546   3.361   3.030   3.150  0.2888 -0.2074  0.2963
 2847TIP3    H1 8547   3.406   3.005   3.230  0.8991 -2.8775 -0.7507
 2847TIP3    H2 8548   3.372   2.954   3.092 -3.6711 -0.1443 -0.8325
 2848TIP3   OH2 8549   5.384   4.405   2.070  0.0383  0.0211 -0.4012
 2848TIP3    H1 8550   5.344   4.349   2.004 -0.4475  2.2425 -2.1236
 2848TIP3    H2 8551   5.383   4.353   2.150 -4.3875 -0.8839 -0.8042
 2849TIP3   OH2 8552   3.886   4.670   0.232 -0.2453 -0.5825  0.4367
 2849TIP3    H1 8553   3.829   4.747   0.237 -0.9331 -1.1443  1.5911
 2849TIP3    H2 8554   3.862   4.628   0.149 -0.9263 -0.3455  0.5053
 2850TIP3   OH2 8555   5.123   5.238   3.982 -0.1184 -0.2012  0.8222
 2850TIP3    H1 8556   5.086   5.155   3.951 -0.4676  0.3256 -0.2066
 2850TIP3    H2 8557   5.071   5.261   4.059 -0.5317 -0.5366  0.6427
 2851TIP3   OH2 8558   3.374   5.587   4.655  0.8115 -0.2399 -0.0752
 2851TIP3    H1 8559   3.453   5.629   4.689  1.4548  1.9427 -3.6738
 2851TIP3    H2 8560   3.400   5.496   4.640  1.7238 -0.2317  1.3281
 2852TIP3   OH2 8561   5.730   4.823   3.610  0.1114 -0.2156  0.0414
 2852TIP3    H1 8562   5.723   4.737   3.651  2.4264 -0.3979  0.1901
 2852TIP3    H2 8563   5.804   4.815   3.550  2.3708  2.4548  2.2453
 2853TIP3   OH2 8564   4.955   4.964   4.532 -0.0059  0.0459  0.1146
 2853TIP3    H1 8565   5.046   4.940   4.512  0.4015  0.2713  1.5440
 2853TIP3    H2 8566   4.935   4.915   4.612 -1.2022 -0.1103 -0.2599
 2854TIP3   OH2 8567   2.141   4.620   0.192 -0.3683  0.3771 -0.4170
 2854TIP3    H1 8568   2.050   4.623   0.162 -0.6754  1.0452  0.5431
 2854TIP3    H2 8569   2.135   4.587   0.281  0.5572 -1.9529 -1.1294
 2855TIP3   OH2 8570   1.476   4.314   4.882  0.8406 -0.2290 -0.0915
 2855TIP3    H1 8571   1.516   4.386   4.834 -1.2938  0.7633 -0.5188
 2855TIP3    H2 8572   1.424   4.268   4.816  0.1699 -0.6099  0.6822
 2856TIP3   OH2 8573   3.656   0.098   3.233  0.4474  0.5920  0.2931
 2856TIP3    H1 8574   3.677   0.124   3.143  0.2648  1.4272  0.4829
 2856TIP3    H2 8575   3.671   0.004   3.234 -1.8706  0.0937 -1.2895
 2857TIP3   OH2 8576   5.804   5.985   4.471 -0.3669  0.1257  0.1149
 2857TIP3    H1 8577   5.724   5.974   4.420  0.5444 -2.3988 -0.9490
 2857TIP3    H2 8578   5.795   5.923   4.544  1.2632 -1.4832 -0.9647
 2858TIP3   OH2 8579   1.675   1.240   1.799 -0.3789  0.1290 -0.4460
 2858TIP3    H1 8580   1.682   1.333   1.777  0.4236  0.3692  0.7101
 2858TIP3    H2 8581   1.682   1.238   1.894  1.6599 -1.2434 -0.5549
 2859TIP3   OH2 8582   4.858   5.837   3.990  0.2191 -0.4728  0.2399
 2859TIP3    H1 8583   4.945   5.808   3.965  0.3104  0.3790 -0.4333
 2859TIP3    H2 8584   4.805   5.824   3.911  0.3505  1.5509 -0.2239
 2860TIP3   OH2 8585   1.801   0.463   2.141 -0.0588 -0.5841 -0.1592
 2860TIP3    H1 8586   1.779   0.371   2.128  0.8498 -1.0327  1.2605
 2860TIP3    H2 8587   1.883   0.462   2.190  0.3100  0.9932 -0.6816
 2861TIP3   OH2 8588   4.692   3.741   0.328 -0.2387 -0.1128  0.7867
 2861TIP3    H1 8589   4.608   3.740   0.283  0.2499  1.1925 -0.2239
 2861TIP3    H2 8590   4.749   3.687   0.274  0.4425  1.7393 -0.4307
 2862TIP3   OH2 8591   3.191   0.383   1.696 -0.8709  0.2706 -0.1994
 2862TIP3    H1 8592   3.175   0.473   1.667  2.6254  1.2144  0.3038
 2862TIP3    H2 8593   3.206   0.391   1.791  1.5634 -0.3673 -0.4529
 2863TIP3   OH2 8594   4.987   5.729   2.100 -0.6752 -0.0496 -0.1380
 2863TIP3    H1 8595   4.903   5.772   2.119 -0.6058 -0.6410  1.6758
 2863TIP3    H2 8596   4.999   5.667   2.172  1.5303  0.3107 -0.1341
 2864TIP3   OH2 8597   5.202   3.437   4.244 -0.5775 -0.0850  0.2442
 2864TIP3    H1 8598   5.259   3.428   4.321  1.2157 -0.0447 -1.0150
 2864TIP3    H2 8599   5.186   3.531   4.237 -2.1278 -0.2098  1.4665
 2865TIP3   OH2 8600   0.226   3.550   1.791  0.5188  0.3280 -0.0466
 2865TIP3    H1 8601   0.181   3.468   1.807  4.1067 -1.9684 -0.4274
 2865TIP3    H2 8602   0.264   3.573   1.876  1.2178  0.4121 -0.3724
 2866TIP3   OH2 8603   5.736   4.845   1.636  0.1582 -0.6151 -0.3943
 2866TIP3    H1 8604   5.831   4.845   1.623  0.3567  1.3953  0.6073
 2866TIP3    H2 8605   5.700   4.855   1.549  1.0178  1.6347 -0.5547
 2867TIP3   OH2 8606   4.584   5.489   3.563 -0.5085 -0.0523 -0.2488
 2867TIP3    H1 8607   4.572   5.471   3.470  0.0852  1.2538 -0.5997
 2867TIP3    H2 8608   4.495   5.496   3.598 -0.7700  1.3127 -1.1188
 2868TIP3   OH2 8609   3.695   4.616   0.872  0.4376 -0.2117  0.1220
 2868TIP3    H1 8610   3.767   4.647   0.817 -0.3918 -0.8714 -1.3799
 2868TIP3    H2 8611   3.675   4.528   0.840 -0.8532 -0.1555  0.6915
 2869TIP3   OH2 8612   3.334   2.643   2.629 -0.3578 -0.1757  0.3911
 2869TIP3    H1 8613   3.419   2.656   2.671  0.4748 -1.3906 -0.8280
 2869TIP3    H2 8614   3.354   2.631   2.536 -1.9324  0.1862 -0.0290
 2870TIP3   OH2 8615   1.713   2.168   2.700  0.0375  0.2279  0.6175
 2870TIP3    H1 8616   1.676   2.244   2.743  0.9924 -0.6878  3.2589
 2870TIP3    H2 8617   1.648   2.142   2.635 -0.8511  2.4983  0.5351
 2871TIP3   OH2 8618   1.896   1.598   4.467 -0.3820  0.1228 -0.0487
 2871TIP3    H1 8619   1.839   1.667   4.501 -0.1927  0.3823 -0.2508
 2871TIP3    H2 8620   1.934   1.635   4.387  0.7125  0.2949  0.5211
 2872TIP3   OH2 8621   2.688   0.642   0.795 -0.1603 -0.8066  0.3995
 2872TIP3    H1 8622   2.766   0.683   0.833  1.1778 -1.7827 -1.1691
 2872TIP3    H2 8623   2.614   0.689   0.835  1.2419  1.4871  0.4616
 2873TIP3   OH2 8624   2.460   1.434   0.916  0.1452 -1.1360  0.3448
 2873TIP3    H1 8625   2.420   1.480   0.842  0.8787 -0.4041  0.3881
 2873TIP3    H2 8626   2.412   1.351   0.922  0.6667 -1.6142 -1.5215
 2874TIP3   OH2 8627   4.087   4.432   2.807 -0.1667 -0.1306 -0.0652
 2874TIP3    H1 8628   4.142   4.393   2.739  0.3459  0.1897  0.1595
 2874TIP3    H2 8629   4.122   4.521   2.818  1.2775 -0.9098  2.2614
 2875TIP3   OH2 8630   2.110   2.992   4.705 -0.0430  0.1698  0.5481
 2875TIP3    H1 8631   2.027   2.986   4.659  0.0049  3.2236 -0.1476
 2875TIP3    H2 8632   2.151   2.906   4.693 -1.0923  0.0243 -3.0928
 2876TIP3   OH2 8633   1.979   0.492   2.383 -0.6106 -0.0444  0.3336
 2876TIP3    H1 8634   1.927   0.434   2.438 -2.6460  0.7423 -0.6150
 2876TIP3    H2 8635   1.945   0.580   2.402  1.5138  0.7198  0.8165
 2877TIP3   OH2 8636   0.589   3.381   4.886  0.2406 -0.0383  0.2576
 2877TIP3    H1 8637   0.654   3.356   4.951 -0.5998  1.8741  1.9490
 2877TIP3    H2 8638   0.627   3.457   4.841  1.4428 -2.1778 -2.6457
 2878TIP3   OH2 8639   6.202   0.263   4.470  0.2547  0.1532 -0.6301
 2878TIP3    H1 8640   6.203   0.201   4.397 -1.8159 -1.3332  0.4845
 2878TIP3    H2 8641   6.109   0.280   4.486  0.7373  2.3900  0.0962
 2879TIP3   OH2 8642   5.106   4.869   0.307  0.4175  0.1872  0.6075
 2879TIP3    H1 8643   5.186   4.816   0.301 -0.2650 -0.9543  1.1124
 2879TIP3    H2 8644   5.059   4.851   0.225 -0.2451 -0.7555  1.1704
 2880TIP3   OH2 8645   3.578   2.689   1.589  0.3297  0.5664 -0.1538
 2880TIP3    H1 8646   3.620   2.605   1.605  1.2786  1.0535 -0.0415
 2880TIP3    H2 8647   3.486   2.667   1.573  0.5830 -0.4954 -0.2145
 2881TIP3   OH2 8648   0.242   5.045   3.210  0.0196 -0.0416  0.1273
 2881TIP3    H1 8649   0.290   4.965   3.231 -0.0632 -1.0091 -2.8074
 2881TIP3    H2 8650   0.260   5.060   3.117 -1.7357  2.1372  0.0351
 2882TIP3   OH2 8651   2.341   5.181   4.269 -0.2873 -0.2266  0.2484
 2882TIP3    H1 8652   2.303   5.267   4.290 -2.2099 -1.0525  0.3779
 2882TIP3    H2 8653   2.380   5.193   4.182 -0.2512  0.8568  0.3962
 2883TIP3   OH2 8654   0.324   4.524   1.745 -0.0732 -0.5442 -0.2496
 2883TIP3    H1 8655   0.241   4.534   1.793  0.0906  2.0831 -0.3427
 2883TIP3    H2 8656   0.320   4.436   1.708 -2.6069 -0.6684  0.1278
 2884TIP3   OH2 8657   1.246   0.312   1.641 -0.2582  0.2697 -0.1272
 2884TIP3    H1 8658   1.216   0.369   1.711 -0.7211  1.9173 -1.5922
 2884TIP3    H2 8659   1.337   0.338   1.626  0.9151 -2.2512  1.8950
 2885TIP3   OH2 8660   4.324   4.291   4.027  0.4625  0.0102  0.0005
 2885TIP3    H1 8661   4.305   4.366   4.084  1.2275  0.7816 -0.7117
 2885TIP3    H2 8662   4.260   4.298   3.957  0.1534 -0.3612  0.2432
 2886TIP3   OH2 8663   1.543   5.635   4.182 -0.0973 -0.3911 -0.2708
 2886TIP3    H1 8664   1.564   5.544   4.205 -1.3989 -0.2528  1.6114
 2886TIP3    H2 8665   1.457   5.650   4.219  0.6078  2.0197  0.5809
 2887TIP3   OH2 8666   1.863   1.213   4.678 -0.4206 -0.3747 -0.3108
 2887TIP3    H1 8667   1.942   1.238   4.630 -1.1877  1.5930 -0.6275
 2887TIP3    H2 8668   1.848   1.122   4.651  0.0684  0.1488 -2.6181
 2888TIP3   OH2 8669   2.907   0.650   1.555  0.1711 -0.4972  0.4064
 2888TIP3    H1 8670   2.844   0.718   1.576  1.8113  0.9013  1.0389
 2888TIP3    H2 8671   2.873   0.571   1.599 -0.7882  0.3612  1.2613
 2889TIP3   OH2 8672   2.412   5.380   4.021  0.3762 -0.3666 -0.1719
 2889TIP3    H1 8673   2.456   5.319   3.961  0.7348 -1.1190  0.8386
 2889TIP3    H2 8674   2.477   5.447   4.039  1.3505 -1.7185  1.6812
 2890TIP3   OH2 8675   2.376   5.198   4.610 -0.2635 -0.5660 -0.2834
 2890TIP3    H1 8676   2.300   5.147   4.581 -1.5501  0.9021  0.3546
 2890TIP3    H2 8677   2.450   5.161   4.561 -1.7445 -0.4873 -2.7418
 2891TIP3   OH2 8678   4.085   3.678   2.794  0.1345  1.2241 -0.0987
 2891TIP3    H1 8679   4.168   3.664   2.749 -0.2596  2.1184 -1.1528
 2891TIP3    H2 8680   4.081   3.608   2.859  1.1116  0.3950 -0.8922
 2892TIP3   OH2 8681   0.937   3.974   3.845 -0.7143 -0.2429 -0.7258
 2892TIP3    H1 8682   0.901   3.938   3.926 -1.0369  1.7377  0.0740
 2892TIP3    H2 8683   0.873   3.951   3.778 -1.5813 -0.0079  0.0009
 2893TIP3   OH2 8684   3.452   4.706   3.728  0.2492 -0.1670  0.3690
 2893TIP3    H1 8685   3.443   4.799   3.747  0.1395  0.3269 -1.7706
 2893TIP3    H2 8686   3.366   4.680   3.693  0.4614 -0.9339  0.3900
 2894TIP3   OH2 8687   5.145   5.918   2.429 -0.4195  0.2682  0.7277
 2894TIP3    H1 8688   5.168   5.835   2.471  0.2960 -0.0299 -0.1975
 2894TIP3    H2 8689   5.222   5.973   2.442 -0.2579  0.2320  0.0017
 2895TIP3   OH2 8690   5.236   2.243   4.243 -0.2701 -0.3347  0.1796
 2895TIP3    H1 8691   5.274   2.253   4.331  0.5084  1.4180 -0.3179
 2895TIP3    H2 8692   5.149   2.282   4.249  0.4018  1.2945 -0.1989
 2896TIP3   OH2 8693   4.990   2.178   2.464  0.3617 -0.0538 -0.3847
 2896TIP3    H1 8694   5.002   2.270   2.441 -1.0614  0.2818  0.1297
 2896TIP3    H2 8695   5.055   2.132   2.411  3.4206  1.4938  1.6775
 2897TIP3   OH2 8696   6.099   1.851   4.473  0.0739 -0.1438  0.2116
 2897TIP3    H1 8697   6.022   1.871   4.419  1.2337  0.0939 -1.4369
 2897TIP3    H2 8698   6.094   1.757   4.487 -0.9853 -0.0027  0.8933
 2898TIP3   OH2 8699   1.795   3.665   0.295 -0.5604 -0.3783  0.1042
 2898TIP3    H1 8700   1.774   3.683   0.203 -0.2735  1.4116  0.3640
 2898TIP3    H2 8701   1.713   3.635   0.333 -1.2380  0.9964 -0.2392
 2899TIP3   OH2 8702   4.504   3.602   3.483  0.3715  0.3782  0.1199
 2899TIP3    H1 8703   4.544   3.553   3.555 -0.1086 -0.5240 -0.2110
 2899TIP3    H2 8704   4.413   3.575   3.482  0.6158 -0.5467 -1.5528
 2900TIP3   OH2 8705   5.954   4.586   1.017 -0.1437 -0.3565 -0.0634
 2900TIP3    H1 8706   5.907   4.618   1.095 -0.1858  0.8287 -0.5510
 2900TIP3    H2 8707   5.885   4.576   0.951  0.2951  1.8370 -0.9232
 2901TIP3   OH2 8708   3.754   2.414   4.022  0.5638  0.0045  0.1216
 2901TIP3    H1 8709   3.789   2.374   3.942 -0.9525  2.4446 -1.9486
 2901TIP3    H2 8710   3.828   2.461   4.060  0.9492  0.1577 -0.7930
 2902TIP3   OH2 8711   1.583   5.740   1.256 -0.4138 -0.7786  0.0687
 2902TIP3    H1 8712   1.668   5.712   1.291  0.3581  1.0986 -0.2120
 2902TIP3    H2 8713   1.520   5.718   1.325  0.5015 -0.8416  0.9002
 2903TIP3   OH2 8714   3.116   0.209   4.676  0.3343 -0.0081  0.6050
 2903TIP3    H1 8715   3.060   0.169   4.609  0.4923  0.7031  0.0262
 2903TIP3    H2 8716   3.167   0.274   4.628 -0.0999  1.0709  1.5518
 2904TIP3   OH2 8717   3.507   1.332   4.987  0.1275  0.0083 -0.5213
 2904TIP3    H1 8718   3.500   1.241   4.958 -1.6335 -0.4899  1.2714
 2904TIP3    H2 8719   3.435   1.376   4.943 -1.9008 -0.5294  2.0191
 2905TIP3   OH2 8720   4.281   2.620   1.721 -0.5846  0.2913  0.0078
 2905TIP3    H1 8721   4.311   2.621   1.630 -1.7322 -0.4189 -0.3975
 2905TIP3    H2 8722   4.324   2.696   1.761  0.6209  0.1188 -0.8908
 2906TIP3   OH2 8723   4.568   2.508   1.811  0.4086  0.0881 -0.4655
 2906TIP3    H1 8724   4.544   2.600   1.822 -0.7779 -0.2685  0.0628
 2906TIP3    H2 8725   4.659   2.511   1.782  1.5712  1.3250  2.8851
 2907TIP3   OH2 8726   4.125   4.502   4.175 -0.2794  0.1569 -0.3624
 2907TIP3    H1 8727   4.048   4.530   4.126 -1.0421  0.1063  0.7653
 2907TIP3    H2 8728   4.090   4.471   4.259  1.0266  0.7773  0.4392
 2908TIP3   OH2 8729   4.931   2.870   3.799 -0.5890 -0.2227 -0.1520
 2908TIP3    H1 8730   4.958   2.800   3.739 -1.6817 -0.5582 -0.2700
 2908TIP3    H2 8731   4.918   2.946   3.742 -0.8357 -0.3231 -0.2307
 2909TIP3   OH2 8732   2.278   2.758   4.885  0.3845 -0.0723 -0.3067
 2909TIP3    H1 8733   2.322   2.843   4.883  0.2605 -0.0080 -0.3447
 2909TIP3    H2 8734   2.193   2.776   4.926  0.5912 -0.2898  0.2358
 2910TIP3   OH2 8735   1.979   2.324   0.083 -0.0121  0.2284  0.0539
 2910TIP3    H1 8736   1.926   2.381   0.139 -0.0640  1.2311 -0.9827
 2910TIP3    H2 8737   2.069   2.337   0.114 -0.3048 -1.4723  1.8090
 2911TIP3   OH2 8738   2.186   4.790   0.896  0.3696  0.4909  0.5738
 2911TIP3    H1 8739   2.175   4.778   0.802  0.7998 -0.6372  0.6583
 2911TIP3    H2 8740   2.214   4.881   0.905  1.8383  0.1725 -0.5236
 2912TIP3   OH2 8741   5.809   0.471   1.359 -0.3257 -0.3653 -0.0346
 2912TIP3    H1 8742   5.799   0.505   1.270 -0.5041 -1.0998 -0.3011
 2912TIP3    H2 8743   5.860   0.390   1.349 -1.2432 -1.0209  0.3989
 2913TIP3   OH2 8744   0.872   2.635   3.546  0.2333  0.1992 -0.2554
 2913TIP3    H1 8745   0.845   2.553   3.586  0.4616 -0.4205 -1.3193
 2913TIP3    H2 8746   0.796   2.664   3.496  0.3921  0.2400 -0.4790
 2914TIP3   OH2 8747   4.921   4.664   1.281 -0.1334  0.1351 -0.5975
 2914TIP3    H1 8748   4.881   4.586   1.243 -1.6985  0.6774 -0.1691
 2914TIP3    H2 8749   4.848   4.709   1.324  0.7795  1.7148 -0.6366
 2915TIP3   OH2 8750   0.336   5.765   0.498  0.0493 -0.4319 -0.1028
 2915TIP3    H1 8751   0.428   5.741   0.483  0.2860  0.2890  0.1564
 2915TIP3    H2 8752   0.300   5.776   0.410 -0.0501 -1.6219 -0.2329
 2916TIP3   OH2 8753   2.902   0.936   1.265 -0.4310 -0.4019  0.1931
 2916TIP3    H1 8754   2.959   0.992   1.211 -0.1542 -0.3075  0.5783
 2916TIP3    H2 8755   2.814   0.954   1.233 -0.3514  0.3199  0.3696
 2917TIP3   OH2 8756   2.101   5.248   4.600  0.2846 -0.1057 -0.0532
 2917TIP3    H1 8757   2.114   5.320   4.661 -1.0811 -0.0267  0.1687
 2917TIP3    H2 8758   2.134   5.281   4.517  0.7083  0.3600  0.2926
 2918TIP3   OH2 8759   6.000   5.991   0.703  0.1902 -0.4441 -1.0340
 2918TIP3    H1 8760   6.095   5.981   0.705  0.1755 -0.8020 -1.6284
 2918TIP3    H2 8761   5.967   5.902   0.696 -0.3069 -0.5104  1.4918
 2919TIP3   OH2 8762   2.205   4.615   2.560 -0.4561  0.1238 -0.1492
 2919TIP3    H1 8763   2.160   4.674   2.500 -0.2416  0.8246  0.3592
 2919TIP3    H2 8764   2.146   4.540   2.569 -1.5582  1.0449  0.5457
 2920TIP3   OH2 8765   2.048   5.871   0.861  0.1282  0.2294 -0.3545
 2920TIP3    H1 8766   2.092   5.880   0.946  1.1723 -0.4863 -0.8057
 2920TIP3    H2 8767   2.097   5.928   0.802  0.8417 -1.0140 -0.9984
 2921TIP3   OH2 8768   1.271   0.910   0.575 -0.1627  0.4723  0.4309
 2921TIP3    H1 8769   1.323   0.965   0.517 -1.4885  0.9595 -0.3397
 2921TIP3    H2 8770   1.221   0.853   0.517 -0.7528  0.2546  1.1264
 2922TIP3   OH2 8771   1.835   5.607   3.727  0.7630  0.2332 -0.2875
 2922TIP3    H1 8772   1.856   5.547   3.799  0.7357  1.1799  0.5249
 2922TIP3    H2 8773   1.785   5.553   3.665  1.2924 -0.7472  0.1109
 2923TIP3   OH2 8774   5.141   5.676   2.590  0.4860 -0.3648 -0.0097
 2923TIP3    H1 8775   5.090   5.660   2.670 -0.2309 -1.2278 -0.6213
 2923TIP3    H2 8776   5.208   5.608   2.591 -0.8518 -1.7592 -1.2087
 2924TIP3   OH2 8777   3.767   1.697   0.083 -0.4554  0.2543  0.5322
 2924TIP3    H1 8778   3.847   1.716   0.034 -0.7362 -0.7546 -0.3558
 2924TIP3    H2 8779   3.776   1.746   0.164  0.5456  1.0562 -0.0468
 2925TIP3   OH2 8780   4.556   2.189   3.210  0.2443 -0.0099 -0.8246
 2925TIP3    H1 8781   4.478   2.216   3.161 -0.0069  3.2037  1.0794
 2925TIP3    H2 8782   4.629   2.214   3.154 -0.0549  0.1286 -1.1617
 2926TIP3   OH2 8783   5.429   3.669   0.614 -0.3467 -0.4668  0.1780
 2926TIP3    H1 8784   5.360   3.609   0.584 -0.0184 -0.2645 -1.0380
 2926TIP3    H2 8785   5.385   3.727   0.676 -1.1549 -0.6669 -0.1913
 2927TIP3   OH2 8786   2.062   3.567   2.640  0.0818 -0.3928  0.1403
 2927TIP3    H1 8787   1.991   3.503   2.637  0.2421 -0.5745  0.2022
 2927TIP3    H2 8788   2.102   3.562   2.554 -0.4820  0.2864 -0.1715
 2928TIP3   OH2 8789   5.551   2.571   3.620 -0.2868  0.3127 -0.2075
 2928TIP3    H1 8790   5.504   2.534   3.695 -1.6027  1.2414 -0.5372
 2928TIP3    H2 8791   5.586   2.495   3.574 -1.7970 -0.4687 -0.1471
 2929TIP3   OH2 8792   5.463   0.453   1.162 -0.9815 -0.1866 -0.3208
 2929TIP3    H1 8793   5.449   0.425   1.252 -0.3868  0.8036  0.0949
 2929TIP3    H2 8794   5.445   0.547   1.162  2.3419  0.5969 -0.3863
 2930TIP3   OH2 8795   5.463   3.523   3.902 -0.4872 -0.0747 -0.5389
 2930TIP3    H1 8796   5.541   3.504   3.849  1.0903 -0.8505  1.8852
 2930TIP3    H2 8797   5.487   3.496   3.991 -3.5674 -0.3776  0.3275
 2931TIP3   OH2 8798   2.025   4.258   0.371 -0.1699  1.0539 -0.2599
 2931TIP3    H1 8799   1.956   4.195   0.348  0.6931  0.9520 -2.9841
 2931TIP3    H2 8800   2.095   4.205   0.409 -0.2620  0.6484 -0.6442
 2932TIP3   OH2 8801   5.800   5.732   4.993  0.2695 -0.1713 -0.5582
 2932TIP3    H1 8802   5.846   5.816   4.999 -0.8357  0.6172 -2.2205
 2932TIP3    H2 8803   5.786   5.706   5.084 -0.5444  2.1569  0.0616
 2933TIP3   OH2 8804   6.316   2.748   2.795  0.0726 -0.0331  0.1810
 2933TIP3    H1 8805   6.230   2.780   2.819  0.4498 -0.2951  2.0310
 2933TIP3    H2 8806   6.304   2.655   2.778 -0.2936  0.2561 -1.2414
 2934TIP3   OH2 8807   0.210   2.028   0.892  0.6649 -0.1682 -0.0411
 2934TIP3    H1 8808   0.124   1.986   0.893  0.8028 -0.4583  0.9039
 2934TIP3    H2 8809   0.201   2.100   0.829 -0.3091 -0.1094  0.1427
 2935TIP3   OH2 8810   2.079   4.184   1.679  0.0772  0.4426  0.6816
 2935TIP3    H1 8811   2.168   4.208   1.703 -0.0240  0.0587  1.5156
 2935TIP3    H2 8812   2.039   4.265   1.649  0.8967  0.4812 -0.3316
 2936TIP3   OH2 8813   4.533   1.098   4.074  0.0970  0.3949 -0.2316
 2936TIP3    H1 8814   4.455   1.064   4.030  0.2378  1.4379 -1.3527
 2936TIP3    H2 8815   4.604   1.082   4.011  0.7098 -0.0884  0.5610
 2937TIP3   OH2 8816   5.066   4.086   2.899 -0.1743 -0.1169 -0.2539
 2937TIP3    H1 8817   5.108   4.165   2.932 -1.8945  0.6094  0.3572
 2937TIP3    H2 8818   5.113   4.014   2.942  1.5430  0.5364 -0.9721
 2938TIP3   OH2 8819   5.295   1.134   4.829  0.3487  0.1373 -0.1508
 2938TIP3    H1 8820   5.263   1.211   4.782  0.8286 -0.1467 -0.9689
 2938TIP3    H2 8821   5.266   1.147   4.920 -0.4648  0.7692 -0.4892
 2939TIP3   OH2 8822   5.795   4.014   0.868 -0.4052 -0.0702 -0.4815
 2939TIP3    H1 8823   5.712   3.972   0.845  0.7548 -2.0069 -1.3981
 2939TIP3    H2 8824   5.834   3.956   0.934  0.1543  0.9025  0.0624
 2940TIP3   OH2 8825   5.145   4.159   0.450  0.0631 -0.3738 -0.2606
 2940TIP3    H1 8826   5.234   4.155   0.484  0.1115 -1.5956 -0.5122
 2940TIP3    H2 8827   5.097   4.093   0.499 -0.4403 -0.4966 -0.9077
 2941TIP3   OH2 8828   3.673   5.648   1.286 -0.1197 -0.7914 -0.3154
 2941TIP3    H1 8829   3.687   5.664   1.193 -1.6328 -0.6077 -0.5431
 2941TIP3    H2 8830   3.592   5.597   1.289 -1.1299  0.7953  0.9842
 2942TIP3   OH2 8831   0.056   3.554   4.654 -0.4265  0.4760  0.3153
 2942TIP3    H1 8832   0.004   3.633   4.666 -0.9644  0.2750 -0.6118
 2942TIP3    H2 8833   0.134   3.584   4.607 -0.2638  0.5786  0.6472
 2943TIP3   OH2 8834   0.279   0.477   0.241  0.5261 -0.0758  0.0631
 2943TIP3    H1 8835   0.273   0.489   0.147  1.1703 -0.3551 -0.0157
 2943TIP3    H2 8836   0.235   0.394   0.258  1.3360 -0.5597 -0.1318
 2944TIP3   OH2 8837   0.943   3.043   0.752  0.4136  0.1856 -0.0997
 2944TIP3    H1 8838   0.963   3.100   0.827 -1.9331 -0.3828  1.0528
 2944TIP3    H2 8839   0.848   3.044   0.746  0.4539 -1.4133 -1.8253
 2945TIP3   OH2 8840   3.638   0.812   2.556  0.1229 -0.3665  0.0014
 2945TIP3    H1 8841   3.601   0.724   2.556  0.9912 -0.7459  0.8320
 2945TIP3    H2 8842   3.581   0.862   2.498  0.2091 -1.7277 -1.3337
 2946TIP3   OH2 8843   2.404   1.019   1.086  0.1629 -0.1241 -0.1179
 2946TIP3    H1 8844   2.444   1.054   1.167  0.5736 -1.9810  0.5280
 2946TIP3    H2 8845   2.350   0.946   1.116 -1.0305  0.2107 -1.3789
 2947TIP3   OH2 8846   2.954   0.348   2.492 -0.0133  0.0258  0.5049
 2947TIP3    H1 8847   3.047   0.351   2.513  0.6800  2.2951 -2.2986
 2947TIP3    H2 8848   2.930   0.439   2.474 -2.2585 -0.7362 -0.7782
 2948TIP3   OH2 8849   0.149   1.219   1.891 -0.4592  0.2207  0.3427
 2948TIP3    H1 8850   0.116   1.163   1.961  1.2806  1.4178  2.2486
 2948TIP3    H2 8851   0.084   1.289   1.883 -0.4929  0.2740  1.0405
 2949TIP3   OH2 8852   2.282   2.887   0.509 -0.6357 -0.8310 -0.2980
 2949TIP3    H1 8853   2.284   2.931   0.424  1.4162 -2.0221 -0.9445
 2949TIP3    H2 8854   2.276   2.958   0.573 -0.0471  0.2401 -1.3859
 2950TIP3   OH2 8855   3.558   5.770   1.916 -0.0635  0.0933  0.0777
 2950TIP3    H1 8856   3.579   5.804   2.002 -2.4724  0.1954  0.7024
 2950TIP3    H2 8857   3.615   5.818   1.856  0.0634  1.6608  1.4022
 2951TIP3   OH2 8858   1.819   4.725   2.457 -0.4559  0.5480 -0.1523
 2951TIP3    H1 8859   1.738   4.749   2.503 -0.8071 -0.3733 -0.2782
 2951TIP3    H2 8860   1.804   4.635   2.428  0.9553  0.0475  0.6014
 2952TIP3   OH2 8861   6.243   3.034   4.247  0.0873 -0.2842 -0.2352
 2952TIP3    H1 8862   6.318   3.074   4.204 -0.7024  2.3348  0.6430
 2952TIP3    H2 8863   6.281   2.983   4.319  1.1004 -0.4104 -0.8528
 2953TIP3   OH2 8864   5.265   3.534   1.656  0.0792  0.3251 -0.4773
 2953TIP3    H1 8865   5.189   3.545   1.713  0.5203 -0.3992  0.2727
 2953TIP3    H2 8866   5.340   3.545   1.715  0.5534  0.3585 -1.0819
 2954TIP3   OH2 8867   0.860   4.252   3.631  0.0704  0.3568  0.1959
 2954TIP3    H1 8868   0.793   4.252   3.700 -0.4670 -0.4202 -0.3002
 2954TIP3    H2 8869   0.832   4.182   3.572  1.1431  0.2627 -0.2106
 2955TIP3   OH2 8870   0.348   2.799   5.119  0.2719 -0.1862 -0.6580
 2955TIP3    H1 8871   0.382   2.718   5.079 -1.1168 -0.8888 -0.4520
 2955TIP3    H2 8872   0.390   2.803   5.205  0.5153 -0.5680 -0.7572
 2956TIP3   OH2 8873   4.669   3.568   1.323  0.0815  0.0629  0.1687
 2956TIP3    H1 8874   4.705   3.652   1.352 -0.3962 -0.6233  3.1248
 2956TIP3    H2 8875   4.745   3.513   1.308  0.3695  0.3325  0.6184
 2957TIP3   OH2 8876   1.628   2.530   2.700 -0.2780  0.5069  0.0749
 2957TIP3    H1 8877   1.669   2.540   2.786  2.5499  2.6472 -1.3560
 2957TIP3    H2 8878   1.538   2.562   2.712 -0.2245 -0.0406  2.3676
 2958TIP3   OH2 8879   4.221   5.858   1.994  0.1902 -0.2216 -0.9510
 2958TIP3    H1 8880   4.173   5.779   2.019  1.6645 -0.4793  1.3075
 2958TIP3    H2 8881   4.160   5.906   1.938 -1.3016 -2.2256 -1.1570
 2959TIP3   OH2 8882   1.791   0.792   0.556 -0.0171  0.0758 -0.4047
 2959TIP3    H1 8883   1.869   0.797   0.501 -0.9744  2.2187 -1.7175
 2959TIP3    H2 8884   1.746   0.713   0.526  1.8158 -1.4975  0.7384
 2960TIP3   OH2 8885   5.422   0.845   0.229 -0.0703  0.0592 -1.2463
 2960TIP3    H1 8886   5.464   0.875   0.148  0.7192  0.0314 -0.8603
 2960TIP3    H2 8887   5.465   0.895   0.298  0.1525 -0.8149 -0.7361
 2961TIP3   OH2 8888   4.212   0.644   3.457 -0.2380 -0.6413 -0.1425
 2961TIP3    H1 8889   4.292   0.692   3.435  0.1216 -1.0625  0.2235
 2961TIP3    H2 8890   4.144   0.711   3.457  0.1626 -0.2232 -0.1718
 2962TIP3   OH2 8891   2.519   1.597   0.204  0.1260 -0.0702 -0.6475
 2962TIP3    H1 8892   2.459   1.626   0.135 -0.1767 -1.3110 -0.9191
 2962TIP3    H2 8893   2.605   1.599   0.164  0.0931  0.2918 -0.7076
 2963TIP3   OH2 8894   3.147   2.903   2.377  0.5184 -0.0992 -0.6225
 2963TIP3    H1 8895   3.061   2.943   2.367 -0.3209 -1.4784  0.6981
 2963TIP3    H2 8896   3.157   2.889   2.471  0.6399 -3.0947 -0.9653
 2964TIP3   OH2 8897   0.663   5.077   3.934 -0.3327  0.0106  0.0485
 2964TIP3    H1 8898   0.718   5.100   4.009 -2.3050 -0.7355  1.8227
 2964TIP3    H2 8899   0.674   5.150   3.874  0.8700  0.9290  1.3039
 2965TIP3   OH2 8900   6.241   5.345   3.572  0.2239  0.0002  0.6494
 2965TIP3    H1 8901   6.294   5.265   3.577  0.1795  0.0046  1.3775
 2965TIP3    H2 8902   6.151   5.315   3.588 -0.0692 -0.0575 -0.9328
 2966TIP3   OH2 8903   6.174   2.520   2.514 -0.0977 -0.0157 -0.0694
 2966TIP3    H1 8904   6.122   2.439   2.510  0.9659 -0.7177 -0.1934
 2966TIP3    H2 8905   6.185   2.537   2.607 -0.0968 -0.1699 -0.0405
 2967TIP3   OH2 8906   5.408   4.203   5.174  0.1136  0.3429  0.4784
 2967TIP3    H1 8907   5.385   4.192   5.082  1.8567 -0.5539  0.1023
 2967TIP3    H2 8908   5.371   4.125   5.217 -0.6227  0.7170  0.5329
 2968TIP3   OH2 8909   4.827   0.223   2.881  0.3597  0.3003  0.1493
 2968TIP3    H1 8910   4.785   0.247   2.964 -1.0879  0.1678 -0.5265
 2968TIP3    H2 8911   4.815   0.128   2.875 -0.2347  0.4111 -0.5662
 2969TIP3   OH2 8912   2.178   0.105   2.206  0.4204 -0.9157 -0.2475
 2969TIP3    H1 8913   2.147   0.138   2.290 -1.6325  0.1120 -1.3136
 2969TIP3    H2 8914   2.268   0.077   2.222 -0.4903 -2.5731  2.7327
 2970TIP3   OH2 8915   1.071   3.504   5.151  0.0684 -0.0061  0.5408
 2970TIP3    H1 8916   1.104   3.416   5.167  2.2806  0.8132  0.8924
 2970TIP3    H2 8917   1.098   3.524   5.062  0.6499  0.7342  0.8728
 2971TIP3   OH2 8918   2.794   3.615   0.242 -0.6709  0.6031  0.2487
 2971TIP3    H1 8919   2.790   3.622   0.337 -1.4505  0.2562  0.2472
 2971TIP3    H2 8920   2.800   3.706   0.211 -0.5218  0.7198  0.6203
 2972TIP3   OH2 8921   3.381   5.314   5.111  0.1768 -0.2378 -0.2524
 2972TIP3    H1 8922   3.302   5.356   5.077  1.0666  0.8668 -1.0181
 2972TIP3    H2 8923   3.451   5.377   5.095  1.3367 -1.4545 -0.1843
 2973TIP3   OH2 8924   4.062   3.940   1.550  0.6820  0.3924  0.4468
 2973TIP3    H1 8925   4.145   3.892   1.545  0.9366  0.7284  1.1879
 2973TIP3    H2 8926   4.045   3.947   1.644 -0.7400 -0.5815  0.2927
 2974TIP3   OH2 8927   2.793   5.908   2.008 -0.3304  0.4109  0.1493
 2974TIP3    H1 8928   2.827   5.903   1.918 -0.6864 -0.2219  0.0445
 2974TIP3    H2 8929   2.864   5.872   2.062  0.3503  1.8621  0.2563
 2975TIP3   OH2 8930   1.678   5.209   0.258  0.3904 -0.0747  0.4525
 2975TIP3    H1 8931   1.738   5.197   0.331  0.2228  0.3833  0.6718
 2975TIP3    H2 8932   1.593   5.226   0.299  0.4892  1.2083  0.1679
 2976TIP3   OH2 8933   1.114   1.051   1.684 -0.1001 -0.2883  0.5931
 2976TIP3    H1 8934   1.185   1.097   1.727  2.4027 -1.2719 -2.1411
 2976TIP3    H2 8935   1.084   0.987   1.748  1.9367 -0.2838  1.6245
 2977TIP3   OH2 8936   2.649   5.919   5.111 -0.5725  0.1982  0.2900
 2977TIP3    H1 8937   2.593   5.871   5.172 -0.9991 -3.1570 -2.4516
 2977TIP3    H2 8938   2.692   5.851   5.059  1.3803  2.8057 -1.7764
 2978TIP3   OH2 8939   2.981   1.311   0.287  0.2506  0.2241  0.5469
 2978TIP3    H1 8940   2.938   1.271   0.211 -0.0290 -0.2723  0.9591
 2978TIP3    H2 8941   2.909   1.344   0.341  0.4822  3.2576 -0.7676
 2979TIP3   OH2 8942   5.174   2.672   1.486 -0.1615 -0.1594  0.3202
 2979TIP3    H1 8943   5.207   2.722   1.560  1.1718 -0.0617 -0.2994
 2979TIP3    H2 8944   5.179   2.581   1.515 -0.9225 -0.0545  0.8140
 2980TIP3   OH2 8945   5.803   3.933   5.159 -0.3153 -0.4494  0.2263
 2980TIP3    H1 8946   5.883   3.889   5.130  0.4982 -0.6354  2.5482
 2980TIP3    H2 8947   5.817   4.025   5.135  0.1032 -0.6528 -0.3501
 2981TIP3   OH2 8948   2.277   3.269   2.232  0.3286  0.1717  0.1433
 2981TIP3    H1 8949   2.201   3.211   2.221 -0.1616  0.6701  0.8043
 2981TIP3    H2 8950   2.248   3.353   2.195  0.0461  0.7563  1.6108
 2982TIP3   OH2 8951   6.034   4.845   3.245 -0.1378  0.7380  0.0225
 2982TIP3    H1 8952   6.076   4.765   3.215  2.5873  1.6092  1.1698
 2982TIP3    H2 8953   5.980   4.873   3.171  1.1847 -0.5847 -1.5272
 2983TIP3   OH2 8954   5.067   2.761   2.247 -0.3842  0.3193  0.1188
 2983TIP3    H1 8955   5.010   2.825   2.288  0.1199  0.5458  0.4805
 2983TIP3    H2 8956   5.068   2.687   2.308 -0.0876  0.4248  0.2479
 2984TIP3   OH2 8957   3.454   5.080   1.361 -0.0070  0.1405  0.7553
 2984TIP3    H1 8958   3.544   5.049   1.366  0.1576  0.2040 -1.1719
 2984TIP3    H2 8959   3.461   5.175   1.373  0.0442  0.0483  1.5648
 2985TIP3   OH2 8960   1.856   5.674   1.441  0.2492 -0.6993 -0.2333
 2985TIP3    H1 8961   1.805   5.726   1.502 -0.0753 -0.9505 -0.2898
 2985TIP3    H2 8962   1.850   5.584   1.474 -1.6977 -1.2028 -1.7823
 2986TIP3   OH2 8963   2.703   2.051   4.321  0.5130  0.1523 -0.3015
 2986TIP3    H1 8964   2.625   2.003   4.349  0.5455 -0.2464 -0.8614
 2986TIP3    H2 8965   2.763   1.982   4.291  2.1177  0.1909  2.4955
 2987TIP3   OH2 8966   4.628   4.360   1.601 -0.0899 -0.0628 -0.2275
 2987TIP3    H1 8967   4.610   4.294   1.534 -0.2999 -0.6811  0.4315
 2987TIP3    H2 8968   4.715   4.393   1.581  0.3382 -1.1017 -0.0973
 2988TIP3   OH2 8969   2.267   4.420   1.728  0.1098  0.6518  0.3700
 2988TIP3    H1 8970   2.277   4.449   1.637 -2.1759 -0.4105 -0.2890
 2988TIP3    H2 8971   2.320   4.340   1.733  3.0312  2.4762  1.0328
 2989TIP3   OH2 8972   1.879   3.454   0.509  0.1529  0.0926 -0.6681
 2989TIP3    H1 8973   1.870   3.360   0.526 -0.0244  0.3099  0.5247
 2989TIP3    H2 8974   1.790   3.483   0.490 -0.0177  0.2536  0.3165
 2990TIP3   OH2 8975   0.451   5.450   3.934 -0.6107  0.2023 -0.4177
 2990TIP3    H1 8976   0.524   5.395   3.907 -1.9414 -1.6414 -0.4480
 2990TIP3    H2 8977   0.409   5.476   3.851  0.1407  1.4837 -0.4130
 2991TIP3   OH2 8978   4.443   1.712   0.143 -0.9372  0.3543 -0.0751
 2991TIP3    H1 8979   4.530   1.705   0.183 -0.7038  3.0818  0.0747
 2991TIP3    H2 8980   4.383   1.724   0.216 -1.0091  1.4214 -0.2821
 2992TIP3   OH2 8981   0.037   1.085   3.821  0.1302 -0.1117 -0.0271
 2992TIP3    H1 8982  -0.045   1.119   3.784 -1.7876 -1.8280  2.2885
 2992TIP3    H2 8983   0.085   1.052   3.745 -3.3208 -3.0194 -1.2492
 2993TIP3   OH2 8984   1.602   4.633   3.110  0.0366  0.0773  0.4009
 2993TIP3    H1 8985   1.664   4.705   3.125  1.6151 -1.2676  0.7028
 2993TIP3    H2 8986   1.546   4.663   3.039  1.7399  0.9815 -0.6296
 2994TIP3   OH2 8987   1.115   4.113   1.955  0.0878  0.3234 -0.0784
 2994TIP3    H1 8988   1.107   4.089   1.863  1.6933 -0.8629  0.0626
 2994TIP3    H2 8989   1.035   4.078   1.995  0.7068 -1.7794 -0.5327
 2995TIP3   OH2 8990   2.566   2.026   0.845  0.3478  0.0435  0.0383
 2995TIP3    H1 8991   2.500   2.008   0.779 -1.1257  1.5601  1.0471
 2995TIP3    H2 8992   2.635   1.961   0.828 -0.6567 -0.5505 -2.0150
 2996TIP3   OH2 8993   1.240   4.305   3.438  0.6376 -0.1084  0.0171
 2996TIP3    H1 8994   1.332   4.295   3.463 -0.0124 -2.2836  1.8222
 2996TIP3    H2 8995   1.229   4.246   3.363  1.3759  2.5712 -2.3528
 2997TIP3   OH2 8996   4.288   5.434   1.746  0.0603  0.1957  0.6137
 2997TIP3    H1 8997   4.321   5.417   1.834  1.1992  0.3074  0.2330
 2997TIP3    H2 8998   4.198   5.401   1.746  0.6482 -1.4884  1.2830
 2998TIP3   OH2 8999   4.767   4.582   1.916  0.5154 -0.3436  0.3207
 2998TIP3    H1 9000   4.835   4.650   1.914 -1.8907  2.2852 -2.1433
 2998TIP3    H2 9001   4.730   4.588   2.004  0.3075  1.7084  0.1421
 2999TIP3   OH2 9002   2.799   5.058   4.263 -0.1186 -0.2536 -0.1492
 2999TIP3    H1 9003   2.855   5.135   4.256 -0.1511 -0.2369 -0.2303
 2999TIP3    H2 9004   2.856   4.990   4.298 -0.1877 -0.0882  0.2929
 3000TIP3   OH2 9005   4.652   0.249   1.279 -0.2937 -0.2163  0.2941
 3000TIP3    H1 9006   4.584   0.182   1.280 -0.8930  0.3786  1.1143
 3000TIP3    H2 9007   4.628   0.309   1.350 -0.4874  1.5653 -1.1707
 3001TIP3   OH2 9008   4.934   2.792   0.634  0.3119  0.3986 -0.0908
 3001TIP3    H1 9009   4.860   2.778   0.575  1.2871 -1.2174 -1.0029
 3001TIP3    H2 9010   4.893   2.808   0.719 -1.0985 -0.3676 -0.5774
 3002TIP3   OH2 9011   5.290   2.452   0.397 -0.0613 -0.1188 -0.3545
 3002TIP3    H1 9012   5.355   2.499   0.345 -0.1031 -0.0154 -0.3133
 3002TIP3    H2 9013   5.320   2.361   0.396  0.3371  0.0057  0.0442
 3003TIP3   OH2 9014   3.955   2.415   4.274 -0.3290  0.2851  0.0866
 3003TIP3    H1 9015   3.998   2.414   4.360 -0.1210  1.9722  0.0347
 3003TIP3    H2 9016   3.884   2.479   4.284 -0.7999 -0.0967 -0.7646
 3004TIP3   OH2 9017   3.597   0.230   2.499 -0.3064  0.7592 -0.2450
 3004TIP3    H1 9018   3.571   0.148   2.456 -0.5426  1.1196 -0.8120
 3004TIP3    H2 9019   3.519   0.256   2.548  0.2398 -0.0969  1.1424
 3005TIP3   OH2 9020   1.106   4.920   3.977 -0.1229 -0.2071 -0.1972
 3005TIP3    H1 9021   1.150   4.844   3.939 -1.2008 -0.1883 -1.5985
 3005TIP3    H2 9022   1.160   4.946   4.051  1.4555 -0.9910 -1.0306
 3006TIP3   OH2 9023   4.505   2.231   4.353 -0.1259 -0.0273 -0.3251
 3006TIP3    H1 9024   4.531   2.155   4.403  0.0289  1.1966  1.5520
 3006TIP3    H2 9025   4.587   2.263   4.314 -0.1888 -0.7767 -1.1021
 3007TIP3   OH2 9026   3.650   5.953   2.948  0.6627  0.1761 -0.3722
 3007TIP3    H1 9027   3.613   6.021   2.892 -1.2492 -0.6804 -0.2030
 3007TIP3    H2 9028   3.709   5.904   2.891  0.4344  0.6652 -1.0347
 3008TIP3   OH2 9029   4.900   3.735   3.685 -0.4239  0.1980  0.0373
 3008TIP3    H1 9030   4.840   3.802   3.651  1.3568  2.4442  1.0841
 3008TIP3    H2 9031   4.923   3.765   3.773  1.4487 -1.1192  0.0587
 3009TIP3   OH2 9032   0.385   1.255   1.529  0.3798  0.0209  0.7608
 3009TIP3    H1 9033   0.346   1.252   1.441 -1.0605 -0.4788  1.3821
 3009TIP3    H2 9034   0.469   1.211   1.519  0.0498 -0.4067 -0.2921
 3010TIP3   OH2 9035   4.001   1.682   5.176  0.1296 -0.2205 -0.3230
 3010TIP3    H1 9036   4.009   1.601   5.126  2.3264 -0.8731  0.9704
 3010TIP3    H2 9037   4.088   1.721   5.174 -0.9042  2.2916 -1.0996
 3011TIP3   OH2 9038   2.505   1.692   3.434 -0.0839 -0.6191 -0.1146
 3011TIP3    H1 9039   2.478   1.610   3.475 -0.5232 -1.4988 -2.0623
 3011TIP3    H2 9040   2.451   1.699   3.356 -0.3678  1.7858  0.2282
 3012TIP3   OH2 9041   2.302   4.080   3.647  0.3222  0.0968  0.1075
 3012TIP3    H1 9042   2.373   4.141   3.629 -0.4619  1.1916  0.6204
 3012TIP3    H2 9043   2.240   4.092   3.576 -0.0484  0.2324  0.4480
 3013TIP3   OH2 9044   6.101   5.317   3.232  0.3010 -1.0172  0.3462
 3013TIP3    H1 9045   6.151   5.391   3.266 -0.7365 -0.1582  0.0609
 3013TIP3    H2 9046   6.157   5.241   3.247 -0.2334 -0.8329  4.3858
 3014TIP3   OH2 9047   5.491   4.660   4.563 -0.1985 -0.2750 -0.2390
 3014TIP3    H1 9048   5.531   4.696   4.642  0.7579  0.8548 -1.1858
 3014TIP3    H2 9049   5.408   4.622   4.592  0.6764 -0.9569  1.4753
 3015TIP3   OH2 9050   0.397   4.389   0.201  0.1271 -0.2561 -0.3002
 3015TIP3    H1 9051   0.484   4.355   0.222 -0.7148 -2.6692 -0.3155
 3015TIP3    H2 9052   0.347   4.377   0.282 -0.0744  1.6084 -0.1229
 3016TIP3   OH2 9053   0.287   1.672   3.075  0.3071  0.0924  0.4235
 3016TIP3    H1 9054   0.363   1.706   3.027  0.3754 -2.1256 -1.1599
 3016TIP3    H2 9055   0.213   1.719   3.038  0.5057 -0.6667 -1.0018
 3017TIP3   OH2 9056   1.982   5.069   4.268  0.3616 -0.4439 -0.5346
 3017TIP3    H1 9057   2.003   5.010   4.195 -1.3720 -0.4973 -1.0571
 3017TIP3    H2 9058   2.054   5.059   4.329  0.3900 -2.7358 -0.8477
 3018TIP3   OH2 9059   6.121   3.770   3.293  0.0362  0.0821 -0.5392
 3018TIP3    H1 9060   6.065   3.842   3.322  0.8198  0.8883 -1.0179
 3018TIP3    H2 9061   6.192   3.811   3.246 -0.7273 -1.1218 -2.9039
 3019TIP3   OH2 9062   1.706   1.265   3.939 -0.4068 -0.2216 -0.2481
 3019TIP3    H1 9063   1.793   1.226   3.930 -1.2821 -1.8759 -2.5368
 3019TIP3    H2 9064   1.647   1.202   3.899 -2.2241  2.3882 -2.0424
 3020TIP3   OH2 9065   0.043   5.529   1.168 -0.4370  0.6220 -0.0660
 3020TIP3    H1 9066   0.076   5.576   1.091  0.7383 -0.6485 -0.3680
 3020TIP3    H2 9067   0.056   5.590   1.241  3.1069  0.0657 -0.0650
 3021TIP3   OH2 9068   6.064   3.505   3.317 -0.3508  0.0864 -0.2122
 3021TIP3    H1 9069   6.072   3.598   3.295 -1.3072 -0.1219 -1.6577
 3021TIP3    H2 9070   6.038   3.504   3.409 -1.0826  1.2985 -0.3801
 3022TIP3   OH2 9071   3.774   2.575   0.959  0.0819  0.0800  0.3894
 3022TIP3    H1 9072   3.731   2.565   0.874  1.2858  0.0434 -0.2416
 3022TIP3    H2 9073   3.703   2.590   1.021 -0.8891 -0.7715 -0.4848
 3023TIP3   OH2 9074   4.693   4.409   2.550 -0.0130  0.0798 -0.4059
 3023TIP3    H1 9075   4.707   4.346   2.479  2.6773 -0.0186  0.1048
 3023TIP3    H2 9076   4.664   4.356   2.624 -0.2865 -0.1885 -0.7007
 3024TIP3   OH2 9077   1.810   1.491   3.755  0.3101  0.6124 -0.0040
 3024TIP3    H1 9078   1.819   1.435   3.832  1.3380  1.9805  0.9213
 3024TIP3    H2 9079   1.887   1.473   3.702 -0.1772 -0.0098 -0.5156
 3025TIP3   OH2 9080   5.071   5.933   0.523  0.2454 -0.2495  0.3544
 3025TIP3    H1 9081   5.146   5.975   0.565  0.8301  0.7474 -1.5504
 3025TIP3    H2 9082   5.095   5.841   0.516  0.7204 -0.1720  0.9089
 3026TIP3   OH2 9083   6.179   2.666   2.218 -0.3306 -0.0336  0.0323
 3026TIP3    H1 9084   6.158   2.572   2.221 -2.2197  0.3240 -0.9017
 3026TIP3    H2 9085   6.156   2.698   2.305 -2.1881  0.0251 -0.4509
 3027TIP3   OH2 9086  -0.011   5.041   1.287 -0.2113  0.4130  0.1047
 3027TIP3    H1 9087   0.036   5.124   1.294  0.9222 -0.2979  1.3577
 3027TIP3    H2 9088   0.057   4.974   1.292 -1.1685 -0.6148 -0.1506
 3028TIP3   OH2 9089   1.168   0.708   3.450 -0.7163 -0.2836  0.3578
 3028TIP3    H1 9090   1.131   0.780   3.502  1.8022  1.0601  0.4467
 3028TIP3    H2 9091   1.137   0.629   3.494 -2.3045  0.7326  1.1895
 3029TIP3   OH2 9092   1.507   1.674   4.600 -0.3936  0.5203 -0.2510
 3029TIP3    H1 9093   1.528   1.669   4.507  1.6071  1.4047  0.0978
 3029TIP3    H2 9094   1.432   1.733   4.605  0.1827  1.3672 -1.2377
 3030TIP3   OH2 9095   1.764   5.077   2.194  0.1715 -0.3951 -0.3580
 3030TIP3    H1 9096   1.723   5.148   2.145  0.0249 -1.2037 -1.4467
 3030TIP3    H2 9097   1.848   5.064   2.151  1.5324  1.0405  1.6611
 3031TIP3   OH2 9098   0.712   1.587   0.928 -0.5398  0.2070  0.4891
 3031TIP3    H1 9099   0.753   1.665   0.964  0.3650  0.4676 -1.0157
 3031TIP3    H2 9100   0.773   1.516   0.948  0.4264  0.4978 -1.2222
 3032TIP3   OH2 9101   2.042   3.640   0.916  0.8797 -0.1814  0.4048
 3032TIP3    H1 9102   2.113   3.704   0.910  0.6408  0.0785  0.3350
 3032TIP3    H2 9103   2.077   3.562   0.872  0.4248  0.5872 -1.4025
 3033TIP3   OH2 9104   3.502   2.299   4.025 -0.2803  0.2049  0.4489
 3033TIP3    H1 9105   3.427   2.356   4.008 -0.6100  0.1009  1.4854
 3033TIP3    H2 9106   3.578   2.357   4.020 -0.6997  1.0635  2.7484
 3034TIP3   OH2 9107   1.270   5.129   2.480 -0.1651 -0.2720 -0.1757
 3034TIP3    H1 9108   1.266   5.058   2.545  0.3082 -0.7484 -0.6536
 3034TIP3    H2 9109   1.323   5.093   2.409 -1.2849 -0.0293 -1.1680
 3035TIP3   OH2 9110   5.665   0.170   2.774  1.0606  0.0856 -0.3692
 3035TIP3    H1 9111   5.617   0.104   2.724  2.8752 -2.7658  1.4151
 3035TIP3    H2 9112   5.694   0.234   2.708 -1.7829 -0.1266 -1.9957
 3036TIP3   OH2 9113   3.802   2.234   2.842 -0.3552 -0.3947  0.0046
 3036TIP3    H1 9114   3.779   2.214   2.932  0.1697 -1.6795 -0.1243
 3036TIP3    H2 9115   3.738   2.186   2.789 -0.9027  0.6529 -0.3350
 3037TIP3   OH2 9116   1.914   2.067   3.063  0.5092  0.2445  0.5541
 3037TIP3    H1 9117   1.968   1.990   3.052 -0.2681 -0.0585 -1.6295
 3037TIP3    H2 9118   1.827   2.041   3.032 -0.0706  1.6583  0.8688
 3038TIP3   OH2 9119   5.039   5.495   0.156 -0.3248 -0.9560  0.3922
 3038TIP3    H1 9120   5.085   5.440   0.093  0.3027  0.3417 -0.3230
 3038TIP3    H2 9121   4.980   5.549   0.102 -1.0189 -1.0007  1.0830
 3039TIP3   OH2 9122   5.584   0.970   4.223  0.9430  0.5084 -0.0582
 3039TIP3    H1 9123   5.592   0.875   4.209  0.1727  0.5166 -0.5893
 3039TIP3    H2 9124   5.638   1.008   4.153  0.2698  0.4793 -0.5988
 3040TIP3   OH2 9125   2.728   2.741   2.311 -0.5401  0.0134 -0.0834
 3040TIP3    H1 9126   2.652   2.685   2.323 -0.0660 -0.5415  0.4313
 3040TIP3    H2 9127   2.692   2.827   2.289 -1.2779 -0.4773 -0.8287
 3041TIP3   OH2 9128   1.529   0.935   4.216 -0.1468  0.2543 -1.0419
 3041TIP3    H1 9129   1.572   1.016   4.243  1.5881 -0.7324 -0.6284
 3041TIP3    H2 9130   1.570   0.913   4.133 -0.5400 -0.2428 -1.1091
 3042TIP3   OH2 9131   3.178   3.278   0.187 -0.1099 -0.1199 -0.1668
 3042TIP3    H1 9132   3.265   3.239   0.189 -0.0334  0.0704  0.7149
 3042TIP3    H2 9133   3.194   3.372   0.174 -0.3185 -0.3999 -3.0585
 3043TIP3   OH2 9134   3.043   3.424   2.083 -0.2355  0.5575 -0.0951
 3043TIP3    H1 9135   3.058   3.432   1.988 -1.7983  1.9249 -0.2825
 3043TIP3    H2 9136   3.036   3.330   2.098 -0.5816  0.3398 -1.4579
 3044TIP3   OH2 9137   5.025   3.269   1.736  0.8390  0.4532  0.0308
 3044TIP3    H1 9138   4.932   3.291   1.740  0.7404  0.1474 -0.5409
 3044TIP3    H2 9139   5.068   3.341   1.783  0.3678  0.9006 -0.2044
 3045TIP3   OH2 9140   4.800   1.300   0.867 -0.4947 -0.0197 -0.2945
 3045TIP3    H1 9141   4.780   1.289   0.960 -0.5155  0.6547 -0.2111
 3045TIP3    H2 9142   4.828   1.213   0.838  1.4804  0.1752  0.8178
 3046TIP3   OH2 9143   0.261   0.858   3.697 -0.7970 -0.3583  0.1840
 3046TIP3    H1 9144   0.331   0.812   3.650 -0.2697  0.7415 -0.1530
 3046TIP3    H2 9145   0.240   0.933   3.642 -1.5547 -0.1286  0.7635
 3047TIP3   OH2 9146   3.448   2.005   5.187 -0.1431  0.1676 -0.8894
 3047TIP3    H1 9147   3.458   2.000   5.092 -2.0461 -1.3971 -1.0796
 3047TIP3    H2 9148   3.475   1.918   5.218 -0.3123  0.3940 -0.0868
 3048TIP3   OH2 9149   5.027   1.861   3.701 -0.0042  0.0565 -0.0700
 3048TIP3    H1 9150   5.115   1.829   3.681  0.0035  0.2724 -0.3955
 3048TIP3    H2 9151   5.003   1.817   3.782  0.2416 -0.3184 -0.1975
 3049TIP3   OH2 9152   4.373   5.659   4.955  0.0304 -0.0117  0.2627
 3049TIP3    H1 9153   4.321   5.730   4.918  1.1341  0.0188 -1.3322
 3049TIP3    H2 9154   4.463   5.679   4.930  0.4588 -1.5595  0.4530
 3050TIP3   OH2 9155   1.807   5.354   5.111 -0.4999 -0.6390 -0.0656
 3050TIP3    H1 9156   1.814   5.308   5.028 -1.9374  1.2061 -1.2841
 3050TIP3    H2 9157   1.862   5.431   5.101 -0.7256 -0.3658  0.6888
 3051TIP3   OH2 9158   3.273   4.406   4.542  0.0333 -0.2023  0.1502
 3051TIP3    H1 9159   3.281   4.330   4.600  0.8266 -0.8101 -0.7241
 3051TIP3    H2 9160   3.216   4.377   4.471  1.0184 -0.2795 -0.6280
 3052TIP3   OH2 9161   6.095   4.393   1.232 -0.6939 -0.1119 -0.7066
 3052TIP3    H1 9162   6.081   4.462   1.168 -1.3075 -0.5265 -1.0312
 3052TIP3    H2 9163   6.008   4.355   1.246 -0.2409 -1.3534 -1.1507
 3053TIP3   OH2 9164   2.046   2.480   3.753  0.2389 -0.2676 -0.4322
 3053TIP3    H1 9165   2.068   2.528   3.833  1.1037  0.4663 -1.0809
 3053TIP3    H2 9166   2.066   2.542   3.682  0.1836 -1.1548 -1.2436
 3054TIP3   OH2 9167   1.353   4.208   2.101  0.1067 -0.4795 -0.7874
 3054TIP3    H1 9168   1.272   4.192   2.053 -2.3472  1.5332  2.2649
 3054TIP3    H2 9169   1.363   4.303   2.101  0.5103 -0.4389  1.6843
 3055TIP3   OH2 9170   5.994   2.787   3.635 -0.2106  0.0771 -0.4624
 3055TIP3    H1 9171   5.950   2.741   3.707  0.3164  1.1355  0.5605
 3055TIP3    H2 9172   5.984   2.880   3.656 -1.6688  0.5091 -2.7333
 3056TIP3   OH2 9173   6.100   1.261   4.967  0.0896  0.2505  0.1634
 3056TIP3    H1 9174   6.158   1.208   5.022  0.6163 -0.9291 -1.4368
 3056TIP3    H2 9175   6.158   1.299   4.901 -0.8786 -0.8154 -1.3678
 3057TIP3   OH2 9176   4.492   3.595   3.818 -0.1060 -0.0960 -0.5341
 3057TIP3    H1 9177   4.407   3.635   3.799 -0.0126  0.4161  0.0749
 3057TIP3    H2 9178   4.519   3.636   3.901  0.5037 -0.6179 -0.4725
 3058TIP3   OH2 9179   2.924   4.638   2.643  0.5556 -0.2460  0.0348
 3058TIP3    H1 9180   2.964   4.682   2.567  1.8732 -0.9303  0.2926
 3058TIP3    H2 9181   2.892   4.710   2.698  0.0285  0.2730 -0.9238
 3059TIP3   OH2 9182   1.777   1.812   3.628 -0.6004  0.7194  0.0944
 3059TIP3    H1 9183   1.776   1.854   3.715 -1.2063  0.7184  0.0910
 3059TIP3    H2 9184   1.754   1.721   3.645  0.5072  0.4261  0.0741
 3060TIP3   OH2 9185   4.239   4.866   0.491 -0.4804  0.2240 -0.2117
 3060TIP3    H1 9186   4.326   4.903   0.510 -0.3655  1.1868 -2.3324
 3060TIP3    H2 9187   4.248   4.828   0.404 -1.9571 -0.4842 -0.0770
 3061TIP3   OH2 9188   3.590   4.465   3.679  0.6625  0.4293  0.4236
 3061TIP3    H1 9189   3.548   4.541   3.719 -0.2250 -0.1881  0.7103
 3061TIP3    H2 9190   3.680   4.468   3.710  0.3292  0.6995  1.4090
 3062TIP3   OH2 9191   2.604   3.753   3.709  0.5606 -0.0916 -0.0146
 3062TIP3    H1 9192   2.630   3.674   3.661  0.1237  0.2923 -0.9127
 3062TIP3    H2 9193   2.564   3.721   3.789  1.5736 -0.7476  0.2525
 3063TIP3   OH2 9194   3.270   2.233   3.337 -0.0067  0.3756  0.8372
 3063TIP3    H1 9195   3.266   2.150   3.289  1.2331 -0.1669  1.6392
 3063TIP3    H2 9196   3.178   2.252   3.358 -0.3495 -0.5667  0.2656
 3064TIP3   OH2 9197   1.113   2.726   3.462  0.1412  0.0564 -0.4855
 3064TIP3    H1 9198   1.116   2.687   3.374 -2.0993 -0.2768 -0.4656
 3064TIP3    H2 9199   1.021   2.719   3.488  0.1743  2.8439  0.6865
 3065TIP3   OH2 9200   4.890   3.382   4.671  0.4216  0.0551  0.2907
 3065TIP3    H1 9201   4.923   3.458   4.718 -0.4531  0.5852  0.0629
 3065TIP3    H2 9202   4.902   3.309   4.732  1.8554  0.2505  0.2643
 3066TIP3   OH2 9203   2.865   3.667   4.186 -0.5358  0.5209  0.1634
 3066TIP3    H1 9204   2.906   3.689   4.103 -1.1023 -0.8265 -0.5166
 3066TIP3    H2 9205   2.796   3.732   4.197 -1.8755 -0.5137 -1.5503
 3067TIP3   OH2 9206   2.202   0.402   1.114  0.1422  0.3621  0.3921
 3067TIP3    H1 9207   2.285   0.445   1.095 -0.8919  1.4017 -2.3158
 3067TIP3    H2 9208   2.162   0.454   1.183  1.3595  0.3019  1.1699
 3068TIP3   OH2 9209   0.690   2.935   4.950  0.2369 -0.0308  0.1996
 3068TIP3    H1 9210   0.768   2.887   4.976  1.3145  0.4301 -1.9217
 3068TIP3    H2 9211   0.629   2.867   4.920  0.0579 -0.3389  1.2162
 3069TIP3   OH2 9212   6.188   5.835   4.777  0.0832 -0.2364 -0.0987
 3069TIP3    H1 9213   6.177   5.808   4.868  2.0644 -0.7201  0.0235
 3069TIP3    H2 9214   6.217   5.757   4.732  0.6443  0.3736 -0.8240
 3070TIP3   OH2 9215   4.228   5.272   0.435 -0.3393  0.4952  0.0063
 3070TIP3    H1 9216   4.182   5.189   0.420 -0.2197  0.5366 -0.6010
 3070TIP3    H2 9217   4.310   5.246   0.477 -0.3886  0.3260 -0.0009
 3071TIP3   OH2 9218   4.428   4.283   3.426 -0.3816  0.4649 -0.0477
 3071TIP3    H1 9219   4.516   4.259   3.454  0.2858 -1.8045 -3.4740
 3071TIP3    H2 9220   4.413   4.370   3.464  3.1768  0.7688  0.9398
 3072TIP3   OH2 9221   2.158   5.671   1.677  0.0611 -0.4947 -0.2254
 3072TIP3    H1 9222   2.220   5.740   1.701  0.1785  0.5969 -3.2314
 3072TIP3    H2 9223   2.074   5.716   1.669 -0.2928 -1.1315 -0.1016
 3073TIP3   OH2 9224   3.380   1.976   0.033  0.7199 -0.2838  0.2845
 3073TIP3    H1 9225   3.310   1.973  -0.033 -1.2499 -0.0250  2.2472
 3073TIP3    H2 9226   3.420   2.062   0.020  0.3121 -0.2055 -0.5350
 3074TIP3   OH2 9227   5.918   5.003   1.081 -0.4435 -0.2385 -0.0033
 3074TIP3    H1 9228   5.845   5.012   1.142 -2.4334 -1.7670 -1.9879
 3074TIP3    H2 9229   5.988   4.962   1.132 -0.5771  2.0215  2.1729
 3075TIP3   OH2 9230   5.072   2.660   2.755  0.4280  0.1731 -0.5323
 3075TIP3    H1 9231   5.151   2.647   2.807  0.8924 -0.6278 -1.4094
 3075TIP3    H2 9232   5.002   2.674   2.819  1.1563  0.1870  0.2629
 3076TIP3   OH2 9233   0.790   0.968   2.584  0.1638 -0.1424  0.6772
 3076TIP3    H1 9234   0.757   0.888   2.542  2.0391  0.0135 -1.3065
 3076TIP3    H2 9235   0.758   1.039   2.528  0.6989  0.2801  0.9009
 3077TIP3   OH2 9236   5.012   5.426   2.833 -0.1725 -0.2102  0.0516
 3077TIP3    H1 9237   4.958   5.491   2.788 -1.5199 -2.4412 -1.7670
 3077TIP3    H2 9238   5.075   5.396   2.767 -1.2203 -2.5054  0.0041
 3078TIP3   OH2 9239   2.112   4.336   0.111  0.4655  0.5512 -0.2531
 3078TIP3    H1 9240   2.103   4.245   0.083  2.9460  0.2931 -0.4197
 3078TIP3    H2 9241   2.113   4.331   0.207  0.6356  0.3869 -0.2627
 3079TIP3   OH2 9242   4.475   0.232   3.663  0.6965  0.1187  0.0580
 3079TIP3    H1 9243   4.541   0.186   3.716  0.6345  0.7210  0.6610
 3079TIP3    H2 9244   4.428   0.287   3.725  0.7370  0.9696 -0.6572
 3080TIP3   OH2 9245  -0.025   0.760   5.022 -0.0153  0.1701  0.3667
 3080TIP3    H1 9246  -0.030   0.781   5.116  1.7338 -1.2161  0.8242
 3080TIP3    H2 9247   0.068   0.761   5.002 -0.2960 -0.5588 -1.1233
 3081TIP3   OH2 9248   1.215   4.102   3.197 -0.0768 -0.1661 -0.1213
 3081TIP3    H1 9249   1.298   4.054   3.188 -0.6746 -1.0446 -1.1555
 3081TIP3    H2 9250   1.171   4.059   3.270  0.1444 -0.0523  0.0806
 3082TIP3   OH2 9251   0.354   0.075   3.187 -0.0679  0.2879 -0.3392
 3082TIP3    H1 9252   0.435   0.024   3.192  0.0968  0.5975  0.3606
 3082TIP3    H2 9253   0.306   0.049   3.266 -0.7093  0.0163 -0.8105
 3083TIP3   OH2 9254   1.101   1.456   1.870  0.2448  0.1514  0.2305
 3083TIP3    H1 9255   1.079   1.429   1.960  1.2535 -1.2400  0.1053
 3083TIP3    H2 9256   1.044   1.403   1.815  2.6364 -2.4365 -0.0401
 3084TIP3   OH2 9257   1.551   2.327   0.357 -0.2766  0.4854  0.0788
 3084TIP3    H1 9258   1.492   2.383   0.307  0.2901  1.4990  0.5111
 3084TIP3    H2 9259   1.554   2.245   0.308 -1.4510  0.6743 -0.3402
 3085TIP3   OH2 9260   0.065   6.008   2.882  0.0560 -0.1929  0.6269
 3085TIP3    H1 9261   0.046   6.000   2.788 -0.6157  1.2817  0.6180
 3085TIP3    H2 9262   0.050   5.919   2.916  2.3350 -1.3012 -0.9596
 3086TIP3   OH2 9263   4.531   0.056   1.095  0.5201  0.5278  0.0693
 3086TIP3    H1 9264   4.532  -0.006   1.168  1.0935  0.7558  0.2608
 3086TIP3    H2 9265   4.496   0.006   1.022 -1.6575  0.7417  0.8712
 3087TIP3   OH2 9266   3.266   2.842   0.570 -0.1675 -0.2981  0.2397
 3087TIP3    H1 9267   3.175   2.846   0.598  0.2640 -0.5827  1.8310
 3087TIP3    H2 9268   3.302   2.765   0.615  0.9328  0.0008 -0.0780
 3088TIP3   OH2 9269   4.952   4.104   0.946  0.3519 -0.2122 -0.2254
 3088TIP3    H1 9270   5.011   4.159   0.894  1.7745 -1.5738 -0.1353
 3088TIP3    H2 9271   5.002   4.023   0.961 -1.0696 -0.9177  0.9524
 3089TIP3   OH2 9272   1.703   5.442   3.563  0.0564  0.6717  0.4801
 3089TIP3    H1 9273   1.743   5.356   3.550 -0.8724  0.0955  1.2507
 3089TIP3    H2 9274   1.618   5.435   3.520 -0.1852  1.0615  0.8864
 3090TIP3   OH2 9275   3.893   1.724   1.792 -0.3307  0.2461 -0.3969
 3090TIP3    H1 9276   3.860   1.724   1.882 -0.8355  1.3145 -0.5606
 3090TIP3    H2 9277   3.896   1.817   1.768  0.7453  0.0307 -1.1445
 3091TIP3   OH2 9278   1.134   1.670   0.979 -0.0270  0.2251  0.0828
 3091TIP3    H1 9279   1.214   1.719   0.960  0.5178 -0.2330  1.0763
 3091TIP3    H2 9280   1.118   1.618   0.901  1.3210 -0.5521  0.2963
 3092TIP3   OH2 9281   1.495   1.388   2.813 -0.6672  0.0528  0.4818
 3092TIP3    H1 9282   1.491   1.308   2.760 -0.2138  0.0165  0.5019
 3092TIP3    H2 9283   1.533   1.360   2.896  0.9202  0.5527 -0.0348
 3093TIP3   OH2 9284   1.352   3.818   3.891  0.5373  0.0476  0.0643
 3093TIP3    H1 9285   1.334   3.786   3.980 -2.9472 -1.2615 -0.9063
 3093TIP3    H2 9286   1.372   3.739   3.841 -1.3264  0.1818 -0.9997
 3094TIP3   OH2 9287   2.752   5.224   2.659 -0.0785 -0.3385 -0.2002
 3094TIP3    H1 9288   2.777   5.183   2.741 -1.7206 -0.0075  0.4851
 3094TIP3    H2 9289   2.689   5.165   2.619  0.4107 -0.3112 -1.0639
 3095TIP3   OH2 9290   4.385   4.886   5.000  0.0739  0.1113  0.1626
 3095TIP3    H1 9291   4.301   4.916   4.965  0.0516  0.1651  0.2620
 3095TIP3    H2 9292   4.380   4.904   5.094  0.0175 -0.3011  0.2416
 3096TIP3   OH2 9293   3.390   4.282   2.051 -0.4478  0.0431 -0.3396
 3096TIP3    H1 9294   3.344   4.349   2.001 -1.0689  0.5870  0.9253
 3096TIP3    H2 9295   3.481   4.289   2.022 -0.7785  0.3693 -1.3363
 3097TIP3   OH2 9296   3.953   0.756   2.233 -0.2411  0.2467 -0.5941
 3097TIP3    H1 9297   3.922   0.817   2.166 -0.8786 -0.4982 -0.9964
 3097TIP3    H2 9298   3.886   0.760   2.302 -0.6571 -0.4926 -0.9347
 3098TIP3   OH2 9299   1.253   4.487   1.361  0.1350  0.4081 -0.5803
 3098TIP3    H1 9300   1.166   4.450   1.375  0.7393 -0.9852 -0.3364
 3098TIP3    H2 9301   1.254   4.567   1.413 -0.6515 -0.1070  0.2445
 3099TIP3   OH2 9302   2.552   3.898   1.295 -0.1409  0.8038  0.1402
 3099TIP3    H1 9303   2.504   3.839   1.352  0.5493  0.2244  0.1379
 3099TIP3    H2 9304   2.606   3.951   1.354  2.0011 -1.0581  0.0058
 3100TIP3   OH2 9305   2.630   5.811   0.170  0.3236 -0.3765  0.1451
 3100TIP3    H1 9306   2.633   5.896   0.214 -0.5903 -0.2422 -0.0364
 3100TIP3    H2 9307   2.592   5.752   0.235 -1.3799 -0.0973 -0.5651
 3101TIP3   OH2 9308   2.497   2.800   4.278  0.0574  0.4648  0.0847
 3101TIP3    H1 9309   2.403   2.814   4.264  0.2913  0.9952 -1.1503
 3101TIP3    H2 9310   2.523   2.870   4.338 -0.8941 -1.5682  3.1100
 3102TIP3   OH2 9311   0.053   4.129   4.562 -0.3008  0.4958 -0.5089
 3102TIP3    H1 9312   0.138   4.085   4.562 -0.3671  0.2886  1.2322
 3102TIP3    H2 9313   0.068   4.210   4.514  0.5485 -0.1228 -1.3116
 3103TIP3   OH2 9314   6.282   2.135   2.663  0.1020  0.2778  0.9181
 3103TIP3    H1 9315   6.374   2.111   2.668  0.2507  0.5563 -0.1687
 3103TIP3    H2 9316   6.278   2.199   2.592 -1.3362 -1.8759 -1.1059
 3104TIP3   OH2 9317   5.417   3.072   0.799  0.0611 -0.4573 -0.1723
 3104TIP3    H1 9318   5.493   3.095   0.746 -0.3625  0.2411 -0.4805
 3104TIP3    H2 9319   5.372   3.154   0.814 -1.4684 -1.0505 -1.2801
 3105TIP3   OH2 9320   0.690   2.517   0.638 -0.4557 -0.1125  0.7224
 3105TIP3    H1 9321   0.764   2.465   0.608 -1.1459 -1.4778  1.3144
 3105TIP3    H2 9322   0.729   2.602   0.661  0.2861  0.7198 -2.9167
 3106TIP3   OH2 9323   1.886   3.684   5.030  0.2564  0.4837  0.2905
 3106TIP3    H1 9324   1.975   3.712   5.007  0.3384  0.3176  0.3971
 3106TIP3    H2 9325   1.861   3.741   5.102 -0.5634  1.9796 -1.1196
 3107TIP3   OH2 9326   3.838   4.642   5.102 -0.2479 -0.2735  0.0228
 3107TIP3    H1 9327   3.836   4.703   5.028 -2.3361 -2.0710 -1.5481
 3107TIP3    H2 9328   3.781   4.683   5.168  2.4728  1.8669  1.2406
 3108TIP3   OH2 9329   1.933   4.129   4.263  0.0847  0.0836 -0.3698
 3108TIP3    H1 9330   1.839   4.145   4.259  0.2005  0.7585 -0.4282
 3108TIP3    H2 9331   1.941   4.045   4.309 -0.5171  0.3165  0.1644
 3109TIP3   OH2 9332   1.379   5.569   4.792  0.2284 -0.2821  0.3309
 3109TIP3    H1 9333   1.308   5.611   4.743 -0.3140 -0.0865  1.2565
 3109TIP3    H2 9334   1.334   5.511   4.853  0.9349 -1.4932 -0.2566
 3110TIP3   OH2 9335   1.510   3.828   4.854  0.7204  0.4424  0.5416
 3110TIP3    H1 9336   1.530   3.758   4.916 -1.6498 -0.3541  0.4945
 3110TIP3    H2 9337   1.551   3.800   4.772  0.3528 -0.5665  0.6906
 3111TIP3   OH2 9338   3.987   0.546   1.618 -0.1653  0.5407  0.4429
 3111TIP3    H1 9339   3.959   0.494   1.693 -2.4493 -1.4581 -1.5703
 3111TIP3    H2 9340   3.907   0.591   1.589  0.2137 -0.0357 -1.6834
 3112TIP3   OH2 9341   5.975   1.669   2.119  0.4447 -0.2654 -0.0099
 3112TIP3    H1 9342   5.997   1.576   2.123 -0.5362 -0.5515 -0.9170
 3112TIP3    H2 9343   5.896   1.673   2.065  0.7893  1.1417 -0.4616
 3113TIP3   OH2 9344   4.244   2.538   2.564 -0.4730  0.3498 -0.3592
 3113TIP3    H1 9345   4.236   2.595   2.488  1.7185  1.8380  0.4144
 3113TIP3    H2 9346   4.191   2.580   2.632  1.3116  1.6603  0.2738
 3114TIP3   OH2 9347   1.639   4.199   5.191  0.6133 -0.3411 -0.0476
 3114TIP3    H1 9348   1.604   4.144   5.121  0.7125 -0.2995 -0.1291
 3114TIP3    H2 9349   1.651   4.285   5.151 -0.9309  0.1378  0.4589
 3115TIP3   OH2 9350   3.218   3.409   2.843 -0.7714  0.0149 -0.9005
 3115TIP3    H1 9351   3.223   3.497   2.807  1.0029 -0.3268 -1.6221
 3115TIP3    H2 9352   3.262   3.415   2.928  0.5686 -0.4052 -1.5318
 3116TIP3   OH2 9353   3.013   3.148   2.133 -0.4436 -0.6419 -0.2938
 3116TIP3    H1 9354   3.027   3.055   2.148 -0.5566 -0.4334  1.3578
 3116TIP3    H2 9355   2.931   3.168   2.180  0.1167  0.4713  0.2588
 3117TIP3   OH2 9356   1.418   0.500   3.851 -0.2089 -0.5503  0.3377
 3117TIP3    H1 9357   1.344   0.465   3.802  0.2374 -0.7639 -0.1892
 3117TIP3    H2 9358   1.391   0.494   3.943 -0.2722 -1.9688  0.2396
 3118TIP3   OH2 9359   3.985   3.933   0.590  0.1356  0.0491  0.4011
 3118TIP3    H1 9360   3.896   3.899   0.590 -1.7513  4.2891 -0.4022
 3118TIP3    H2 9361   4.000   3.961   0.499  2.0010  0.0935  0.6753
 3119TIP3   OH2 9362   2.814   1.591   0.077 -0.1890 -0.3027 -0.1749
 3119TIP3    H1 9363   2.795   1.510   0.029 -1.2140 -0.5851  0.6895
 3119TIP3    H2 9364   2.910   1.591   0.086 -0.0492 -0.6666 -1.4527
 3120TIP3   OH2 9365   1.334   0.518   2.069 -0.0220  0.1272  0.2503
 3120TIP3    H1 9366   1.356   0.593   2.013 -0.4045  0.1460  0.1247
 3120TIP3    H2 9367   1.391   0.527   2.145  1.3475 -0.5278 -0.6515
 3121TIP3   OH2 9368   5.632   0.604   2.065  0.0913  0.3680  0.5437
 3121TIP3    H1 9369   5.677   0.614   1.981 -0.4257 -1.5479 -0.0107
 3121TIP3    H2 9370   5.623   0.509   2.077 -0.8563  0.6207  2.2231
 3122TIP3   OH2 9371   4.228   0.658   0.163 -0.5788 -0.7101 -0.7411
 3122TIP3    H1 9372   4.300   0.604   0.129 -0.2237 -0.9623  0.3507
 3122TIP3    H2 9373   4.224   0.733   0.104  1.3932 -0.0829 -0.1661
 3123TIP3   OH2 9374   3.954   2.039   3.942  0.6124  0.2961  0.4169
 3123TIP3    H1 9375   3.985   2.041   4.033  1.0717 -0.0925  0.2745
 3123TIP3    H2 9376   3.869   1.997   3.946  0.6944  0.1509  0.6497
 3124TIP3   OH2 9377   3.137   0.893   1.440 -0.2806  0.5066 -0.1661
 3124TIP3    H1 9378   3.056   0.943   1.442  0.7894  2.3315  1.7545
 3124TIP3    H2 9379   3.160   0.888   1.347 -2.6358 -0.2523 -0.7606
 3125TIP3   OH2 9380   4.633   5.861   4.166 -0.3065  0.1771 -0.2008
 3125TIP3    H1 9381   4.700   5.876   4.100 -1.5735 -1.8221 -2.0897
 3125TIP3    H2 9382   4.676   5.805   4.231  0.2754  0.1679 -0.5899
 3126TIP3   OH2 9383   0.950   1.130   3.794  0.1245 -0.4968 -0.0605
 3126TIP3    H1 9384   0.920   1.159   3.880 -1.2885 -0.3411 -0.5864
 3126TIP3    H2 9385   0.944   1.208   3.739  2.0266 -0.3166 -0.0948
 3127TIP3   OH2 9386   0.928   4.274   0.121 -0.6789  0.9143  0.3773
 3127TIP3    H1 9387   1.020   4.299   0.123 -0.2973 -0.4214  0.2212
 3127TIP3    H2 9388   0.898   4.287   0.211 -0.4639  1.7777  0.3294
 3128TIP3   OH2 9389   2.745   4.549   0.351  0.3620 -1.1210  0.3287
 3128TIP3    H1 9390   2.725   4.491   0.424 -2.2809 -0.5625  0.1238
 3128TIP3    H2 9391   2.782   4.627   0.392  0.6701 -1.5413  0.8766
 3129TIP3   OH2 9392   5.161   3.168   4.731 -0.0583 -0.0594 -0.2502
 3129TIP3    H1 9393   5.127   3.083   4.703 -0.8186  0.7803 -2.0322
 3129TIP3    H2 9394   5.252   3.169   4.701 -0.4678  0.2830 -1.5657
 3130TIP3   OH2 9395   5.856   4.970   1.382  0.2799  0.2934 -0.3455
 3130TIP3    H1 9396   5.861   5.064   1.396 -0.6723  0.2793  0.1230
 3130TIP3    H2 9397   5.930   4.934   1.431  0.5551  0.7764 -0.4040
 3131TIP3   OH2 9398   4.948   2.421   3.348  0.3654 -0.2716 -0.0899
 3131TIP3    H1 9399   4.890   2.430   3.424 -1.9106 -1.3650 -1.5802
 3131TIP3    H2 9400   4.929   2.499   3.295  1.3038  0.0564  0.0480
 3132TIP3   OH2 9401   0.310   3.367   5.054 -0.1744 -0.0322  0.5731
 3132TIP3    H1 9402   0.360   3.359   4.973  0.9114  0.5873  1.1579
 3132TIP3    H2 9403   0.229   3.411   5.027 -0.4025 -0.9887 -0.3734
 3133TIP3   OH2 9404   3.517   3.718   1.300 -0.4851 -0.2215  0.2175
 3133TIP3    H1 9405   3.497   3.631   1.265 -0.8836  0.1038 -0.3756
 3133TIP3    H2 9406   3.599   3.742   1.257 -0.7641  0.0074 -0.1926
 3134TIP3   OH2 9407   6.086   2.373   3.389  0.5248 -0.5161  0.0805
 3134TIP3    H1 9408   6.162   2.323   3.420 -0.3840 -0.7645  2.0760
 3134TIP3    H2 9409   6.055   2.419   3.467 -2.0094 -1.2783 -0.3954
 3135TIP3   OH2 9410   4.890   0.280   0.635  0.3884 -0.5155  0.5286
 3135TIP3    H1 9411   4.932   0.363   0.659  0.5228 -0.7662  1.1778
 3135TIP3    H2 9412   4.913   0.267   0.543  1.9999 -0.8004  0.9428
 3136TIP3   OH2 9413   2.494   4.582   2.612  0.4149  0.1583 -0.1465
 3136TIP3    H1 9414   2.482   4.570   2.706  0.3544 -0.1020 -0.1857
 3136TIP3    H2 9415   2.405   4.584   2.577  0.4399  0.1323 -0.2117
 3137TIP3   OH2 9416   1.857   5.088   0.426  0.6045  0.4118  0.4892
 3137TIP3    H1 9417   1.921   5.020   0.451 -1.0936 -1.8714 -0.9874
 3137TIP3    H2 9418   1.801   5.097   0.503  0.0356 -0.9097  0.2532
 3138TIP3   OH2 9419   6.277   0.096   3.309 -0.7239  0.0436  0.5560
 3138TIP3    H1 9420   6.190   0.109   3.271  0.7385 -1.1579 -3.6796
 3138TIP3    H2 9421   6.273   0.008   3.348 -1.5326  0.2576  0.9945
 3139TIP3   OH2 9422   2.782   2.306   2.302  0.7253  0.3466 -0.0637
 3139TIP3    H1 9423   2.718   2.288   2.371  0.6688 -0.9670 -0.4347
 3139TIP3    H2 9424   2.848   2.361   2.344 -0.0912  0.8200  0.6153
 3140TIP3   OH2 9425  -0.021   2.276   3.467 -0.3382 -0.3064 -0.6420
 3140TIP3    H1 9426   0.050   2.235   3.516  0.3915  2.0877  0.5048
 3140TIP3    H2 9427   0.023   2.334   3.405 -1.3035 -0.4338 -1.4779
 3141TIP3   OH2 9428   2.144   2.635   0.383 -0.1874  0.4381 -0.4385
 3141TIP3    H1 9429   2.070   2.664   0.331  1.1332  2.4613 -1.3247
 3141TIP3    H2 9430   2.164   2.710   0.439  0.7322 -0.3464  0.3134
 3142TIP3   OH2 9431   2.412   4.734   0.154  0.4057  0.0656  0.1628
 3142TIP3    H1 9432   2.338   4.675   0.170  1.8586 -1.8463  0.1842
 3142TIP3    H2 9433   2.377   4.801   0.095 -0.6608 -2.4649 -2.3536
 3143TIP3   OH2 9434   0.738   1.548   0.642 -0.0188  0.5543  0.1252
 3143TIP3    H1 9435   0.772   1.464   0.612 -0.1754  0.0877  1.2077
 3143TIP3    H2 9436   0.756   1.549   0.736 -1.3432  1.0842  0.3958
 3144TIP3   OH2 9437   3.937   4.233   0.092  0.6768 -0.4341  0.1319
 3144TIP3    H1 9438   3.881   4.183   0.152  1.8925 -0.6461  1.1325
 3144TIP3    H2 9439   3.971   4.305   0.145  0.4080  0.4094 -0.7996
 3145TIP3   OH2 9440   3.958   0.401   4.658  0.1936  0.2316 -0.5904
 3145TIP3    H1 9441   3.880   0.434   4.703  0.3962 -0.0749 -0.0153
 3145TIP3    H2 9442   3.933   0.314   4.628 -0.1966  0.7147 -1.7436
 3146TIP3   OH2 9443   3.997   3.409   1.935  0.4461  0.6634 -0.4109
 3146TIP3    H1 9444   4.087   3.428   1.963  1.1820  1.0990 -2.8376
 3146TIP3    H2 9445   4.007   3.341   1.868 -0.7716  2.3644 -2.4231
 3147TIP3   OH2 9446   0.856   0.353   3.722  0.0008  0.1411 -0.3768
 3147TIP3    H1 9447   0.859   0.301   3.802 -0.3692 -0.3750 -0.6872
 3147TIP3    H2 9448   0.764   0.352   3.696  0.2093 -0.2351 -1.1403
 3148TIP3   OH2 9449   1.420   3.824   4.352 -0.0339 -0.7878  0.1059
 3148TIP3    H1 9450   1.454   3.913   4.361 -0.2556 -0.6910 -0.0205
 3148TIP3    H2 9451   1.425   3.787   4.441 -0.0470 -0.6144  0.1779
 3149TIP3   OH2 9452   1.247   1.612   3.513  0.6582  0.3242 -0.3418
 3149TIP3    H1 9453   1.227   1.528   3.471  1.2836 -0.2901  0.5384
 3149TIP3    H2 9454   1.168   1.633   3.563  1.6246 -1.5487  2.2483
 3150TIP3   OH2 9455   0.550   2.556   1.756  0.1832 -0.0133 -0.3873
 3150TIP3    H1 9456   0.483   2.489   1.769  0.5012 -0.4722 -1.0884
 3150TIP3    H2 9457   0.503   2.639   1.762 -0.2894 -0.3062  0.0215
 3151TIP3   OH2 9458   3.231   0.574   4.244 -0.0213 -0.2252  0.1142
 3151TIP3    H1 9459   3.272   0.594   4.160 -0.6886  0.3211 -0.0898
 3151TIP3    H2 9460   3.147   0.535   4.221 -0.9443  1.4442  0.5039
 3152TIP3   OH2 9461   2.572   1.066   3.247 -0.0620 -0.0315 -0.0615
 3152TIP3    H1 9462   2.515   1.059   3.323 -0.5775 -0.6370 -0.4920
 3152TIP3    H2 9463   2.639   1.129   3.273 -0.9031  0.6616  0.4654
 3153TIP3   OH2 9464   4.703   4.183   1.834  0.5252  0.2748 -0.3737
 3153TIP3    H1 9465   4.686   4.229   1.916  1.0168 -1.1993  0.6084
 3153TIP3    H2 9466   4.777   4.229   1.795 -0.0995  1.3625 -0.3172
 3154TIP3   OH2 9467   3.347   2.688   4.640 -0.7864  0.5190  0.3400
 3154TIP3    H1 9468   3.292   2.692   4.718  1.6577  1.2328  2.1391
 3154TIP3    H2 9469   3.324   2.767   4.590 -0.4917  1.5384  1.7468
 3155TIP3   OH2 9470   1.093   5.477   2.960  0.2934 -0.3620  0.1920
 3155TIP3    H1 9471   1.152   5.550   2.979  0.9252 -0.2637 -1.8605
 3155TIP3    H2 9472   1.006   5.517   2.954 -0.1849 -0.5966  3.8072
 3156TIP3   OH2 9473   3.926   4.347   2.031  0.1634 -0.4918 -0.3869
 3156TIP3    H1 9474   3.839   4.307   2.037  1.5481 -3.7851 -0.0194
 3156TIP3    H2 9475   3.934   4.373   1.940 -1.2492  0.0244 -0.3857
 3157TIP3   OH2 9476   6.362   5.710   4.371 -0.1186  0.4890  0.2921
 3157TIP3    H1 9477   6.338   5.692   4.462 -1.4408 -0.0595 -0.1287
 3157TIP3    H2 9478   6.318   5.641   4.321 -0.1963  1.3303 -0.8430
 3158TIP3   OH2 9479   2.973   2.271   1.480  0.0005  0.2907  0.0755
 3158TIP3    H1 9480   2.935   2.238   1.399 -0.2163  0.6189  0.0410
 3158TIP3    H2 9481   3.059   2.305   1.455  0.2803 -0.3667  0.1363
 3159TIP3   OH2 9482   1.494   0.717   1.100  0.1497  0.6730  0.4298
 3159TIP3    H1 9483   1.421   0.685   1.047  0.1620  1.2126  0.0697
 3159TIP3    H2 9484   1.572   0.696   1.049  0.2094  0.5469  0.5743
 3160TIP3   OH2 9485   1.923   2.755   0.279  0.4546  0.4747  0.0707
 3160TIP3    H1 9486   1.835   2.751   0.242 -0.2951  1.5927  1.6194
 3160TIP3    H2 9487   1.979   2.774   0.204 -0.6963  0.3268 -0.8638
 3161TIP3   OH2 9488   3.754   2.004   3.179  0.4345  0.1501  0.4442
 3161TIP3    H1 9489   3.718   2.022   3.266  1.0540  0.2914  0.6729
 3161TIP3    H2 9490   3.715   2.071   3.123 -0.0305  0.0079  0.5944
 3162TIP3   OH2 9491   5.036   0.010   3.400 -0.3885 -0.0797  0.4524
 3162TIP3    H1 9492   5.043   0.100   3.370  0.6320  0.2102  1.4906
 3162TIP3    H2 9493   4.985  -0.034   3.332  0.3725  0.9272 -0.8107
 3163TIP3   OH2 9494   2.154   3.791   2.781 -0.0892 -0.2675  0.2014
 3163TIP3    H1 9495   2.242   3.769   2.752 -0.3658  0.4380 -1.2369
 3163TIP3    H2 9496   2.097   3.730   2.735 -0.3235 -1.3538  1.8439
 3164TIP3   OH2 9497   3.203   2.100   5.130  0.1214  0.1535 -0.2814
 3164TIP3    H1 9498   3.262   2.155   5.078  0.7413 -1.1973 -1.0711
 3164TIP3    H2 9499   3.261   2.044   5.181 -0.4889 -0.1160  0.1259
 3165TIP3   OH2 9500   4.308   2.067   2.132  0.3749  0.9478 -0.4852
 3165TIP3    H1 9501   4.337   1.978   2.111  1.9817  1.7060 -1.7199
 3165TIP3    H2 9502   4.262   2.058   2.215 -0.3401 -1.1766 -1.0361
 3166TIP3   OH2 9503   4.226   3.860   4.630 -0.3529 -0.0588 -0.0105
 3166TIP3    H1 9504   4.217   3.769   4.600 -2.4877  0.2595 -0.5330
 3166TIP3    H2 9505   4.271   3.905   4.559  0.1431 -0.5735 -0.0265
 3167TIP3   OH2 9506   5.734   4.625   0.814  0.0711 -0.4841 -0.1708
 3167TIP3    H1 9507   5.732   4.625   0.718 -1.1261  0.2780 -0.1689
 3167TIP3    H2 9508   5.754   4.715   0.838  0.3742 -0.6710  0.3015
 3168TIP3   OH2 9509   4.487   5.724   3.150 -0.5719  0.8853 -0.3205
 3168TIP3    H1 9510   4.412   5.756   3.101 -0.2098  1.3125 -0.5974
 3168TIP3    H2 9511   4.551   5.699   3.084 -1.0457 -0.9814 -0.1494
 3169TIP3   OH2 9512   3.015   0.635   1.921  0.4974 -0.2555 -0.4501
 3169TIP3    H1 9513   3.043   0.727   1.913  0.6805 -0.3577 -1.0160
 3169TIP3    H2 9514   2.928   0.633   1.881 -2.0101  0.7800  4.2481
 3170TIP3   OH2 9515   2.749   5.332   1.744  0.0238  0.2769  0.3122
 3170TIP3    H1 9516   2.689   5.335   1.671 -0.7200  1.3597  0.9426
 3170TIP3    H2 9517   2.694   5.318   1.821  0.4477  2.0122  0.9913
 3171TIP3   OH2 9518   3.579   2.152   3.013 -0.6222 -0.1042  0.0432
 3171TIP3    H1 9519   3.537   2.111   2.937 -0.4126 -1.5558  0.6659
 3171TIP3    H2 9520   3.507   2.193   3.061 -0.8534  0.2132 -0.5696
 3172TIP3   OH2 9521   3.528   0.152   3.905  0.1262  0.7556  0.1099
 3172TIP3    H1 9522   3.472   0.212   3.955  0.2898  0.5339  0.5697
 3172TIP3    H2 9523   3.547   0.081   3.967  0.1467  0.3600 -0.3454
 3173TIP3   OH2 9524   5.117   5.917   3.609  0.5580  0.6436 -0.5105
 3173TIP3    H1 9525   5.150   5.998   3.569  1.0769 -0.2078 -1.8586
 3173TIP3    H2 9526   5.167   5.847   3.568 -0.0406 -0.3981  0.4727
 3174TIP3   OH2 9527   3.169   5.872   1.212  0.1424 -0.4326  0.0469
 3174TIP3    H1 9528   3.077   5.846   1.204 -0.1942 -0.1331  2.2775
 3174TIP3    H2 9529   3.218   5.791   1.206 -0.2645 -0.6209 -0.9441
 3175TIP3   OH2 9530   2.552   2.405   1.992  0.4292 -0.6950  0.4600
 3175TIP3    H1 9531   2.618   2.337   2.008 -0.9973 -1.9752  1.2676
 3175TIP3    H2 9532   2.599   2.487   2.000  1.6815 -1.5268  2.4315
 3176TIP3   OH2 9533   4.001   2.789   0.347 -0.7609  0.0808 -0.3474
 3176TIP3    H1 9534   4.009   2.727   0.275  0.6023  0.5068 -0.5923
 3176TIP3    H2 9535   3.927   2.756   0.398 -1.5602 -0.3992 -1.7533
 3177TIP3   OH2 9536   0.910   1.770   0.619  0.2666 -0.5851  0.0306
 3177TIP3    H1 9537   0.853   1.708   0.574 -0.2025 -0.3904  0.3471
 3177TIP3    H2 9538   0.970   1.801   0.552 -0.7529  0.0903 -0.5994
 3178TIP3   OH2 9539   4.417   1.372   1.506  0.0370 -0.3425  0.0503
 3178TIP3    H1 9540   4.423   1.362   1.601 -0.5215 -0.3793  0.0878
 3178TIP3    H2 9541   4.333   1.417   1.492  0.8909  1.2096 -0.3211
 3179TIP3   OH2 9542   0.060   3.328   1.782  0.2642 -0.7512  0.1450
 3179TIP3    H1 9543  -0.015   3.303   1.836  0.1911 -1.8569 -0.4344
 3179TIP3    H2 9544   0.117   3.251   1.784  0.9594 -0.2561 -0.1563
 3180TIP3   OH2 9545   0.246   2.430   2.222  0.7072 -0.0848  0.4813
 3180TIP3    H1 9546   0.311   2.394   2.161  3.0794  1.7621  1.7063
 3180TIP3    H2 9547   0.184   2.477   2.165  1.8602  0.1522 -0.6477
 3181TIP3   OH2 9548   3.748   5.204   2.313 -0.0083 -0.1405  0.1579
 3181TIP3    H1 9549   3.755   5.170   2.403  0.6974 -1.8257 -0.4840
 3181TIP3    H2 9550   3.742   5.126   2.259 -1.2218  0.8739 -1.2298
 3182TIP3   OH2 9551   4.526   1.980   0.918 -0.1608  0.6765  0.0388
 3182TIP3    H1 9552   4.445   1.966   0.969 -0.6319 -0.1285 -0.8943
 3182TIP3    H2 9553   4.507   1.943   0.832  1.0642  0.8759 -0.3383
 3183TIP3   OH2 9554   4.086   4.976   4.055 -0.0374  0.1548 -0.3126
 3183TIP3    H1 9555   4.025   5.049   4.070  0.9024  1.2353 -1.4676
 3183TIP3    H2 9556   4.034   4.898   4.068 -1.1028  1.0272  0.9376
 3184TIP3   OH2 9557   0.090   3.004   1.814  0.7338  0.1410  0.3763
 3184TIP3    H1 9558   0.173   2.969   1.780 -0.9189 -1.3777 -2.4333
 3184TIP3    H2 9559   0.042   2.928   1.845 -0.7237  0.6134 -0.6400
 3185TIP3   OH2 9560   1.201   4.013   2.432 -0.0813  0.2450 -0.0832
 3185TIP3    H1 9561   1.162   4.072   2.368  1.1258  1.8555  0.5939
 3185TIP3    H2 9562   1.127   3.969   2.473 -1.1242  2.1309  0.1801
 3186TIP3   OH2 9563   2.666   5.022   2.217 -0.2685  0.2838  0.1643
 3186TIP3    H1 9564   2.636   4.931   2.224  1.1755 -0.1372  1.8472
 3186TIP3    H2 9565   2.586   5.074   2.212 -1.2438 -0.9496  1.8059
 3187TIP3   OH2 9566   3.357   3.915   3.046 -0.1562 -1.0121 -0.2106
 3187TIP3    H1 9567   3.328   3.832   3.084 -1.4264 -0.0704  0.9955
 3187TIP3    H2 9568   3.276   3.963   3.029  0.5883  0.6028  0.5937
 3188TIP3   OH2 9569   2.518   1.852   3.690  0.5284  0.0772  0.0499
 3188TIP3    H1 9570   2.587   1.912   3.658  0.2979  0.6277  0.5677
 3188TIP3    H2 9571   2.446   1.865   3.628  0.8141 -0.3722 -0.3919
 3189TIP3   OH2 9572   3.207   5.455   4.857  0.2978  0.4220  0.7430
 3189TIP3    H1 9573   3.159   5.521   4.907  2.2216  1.4699  1.3276
 3189TIP3    H2 9574   3.264   5.505   4.799  0.8196 -0.7482  0.2091
 3190TIP3   OH2 9575   6.247   5.548   2.248 -0.0792 -0.4358 -0.0238
 3190TIP3    H1 9576   6.163   5.586   2.224 -0.6562 -1.7367 -0.1531
 3190TIP3    H2 9577   6.229   5.500   2.329  0.2321 -1.7172 -0.6856
 3191TIP3   OH2 9578   1.868   4.228   4.978  0.0253 -0.0647  0.1127
 3191TIP3    H1 9579   1.783   4.248   5.018 -0.6128 -1.2009 -0.6099
 3191TIP3    H2 9580   1.854   4.245   4.884  1.3888  2.2239  0.2463
 3192TIP3   OH2 9581   4.681   5.035   2.730  0.1619  0.1297 -0.0772
 3192TIP3    H1 9582   4.721   4.968   2.785  0.9279 -0.2311 -1.0442
 3192TIP3    H2 9583   4.736   5.112   2.742  0.8013 -0.1760 -0.9027
 3193TIP3   OH2 9584   3.747   1.814   4.861 -0.1011 -0.3715  0.1712
 3193TIP3    H1 9585   3.801   1.888   4.888  0.7556  0.3174 -3.0325
 3193TIP3    H2 9586   3.800   1.737   4.881  0.5156  0.0832  0.3143
 3194TIP3   OH2 9587   0.584   4.814   3.590 -0.0546  0.1320 -0.8178
 3194TIP3    H1 9588   0.623   4.733   3.620 -1.1024  0.3198  1.2492
 3194TIP3    H2 9589   0.518   4.787   3.526 -0.2164 -0.6105 -0.3412
 3195TIP3   OH2 9590   2.053   1.297   1.718  0.2579 -0.3105 -0.5676
 3195TIP3    H1 9591   2.016   1.332   1.800  1.0913  1.3418 -0.8472
 3195TIP3    H2 9592   2.135   1.255   1.744 -0.5659 -1.8037 -0.2804
 3196TIP3   OH2 9593   3.789   1.063   2.368 -0.2115 -0.0682  0.2084
 3196TIP3    H1 9594   3.809   1.009   2.291  1.5031  0.0743  0.5069
 3196TIP3    H2 9595   3.808   1.153   2.340  2.5736 -0.1977  1.3523
 3197TIP3   OH2 9596   4.575   2.499   1.055 -0.1650  0.4865 -0.3597
 3197TIP3    H1 9597   4.544   2.497   1.146  2.9442  1.4066  0.8713
 3197TIP3    H2 9598   4.502   2.534   1.005 -2.6219 -1.6513  1.4261
 3198TIP3   OH2 9599   6.358   0.544   4.162  0.0924 -0.1584  0.1356
 3198TIP3    H1 9600   6.317   0.464   4.130  0.5537 -1.2556  2.1384
 3198TIP3    H2 9601   6.292   0.585   4.218  0.0775  0.5593 -0.3877
 3199TIP3   OH2 9602   0.103   1.887   0.461 -0.3235  0.5383  0.5597
 3199TIP3    H1 9603   0.186   1.885   0.509  0.5876  0.7654 -0.9176
 3199TIP3    H2 9604   0.129   1.882   0.369 -2.0087 -0.1131  0.0849
 3200TIP3   OH2 9605   0.822   1.188   4.079 -0.0839  0.0000  0.7916
 3200TIP3    H1 9606   0.793   1.202   4.169 -1.2352 -0.3152  0.4863
 3200TIP3    H2 9607   0.772   1.112   4.049 -0.5479  0.7734 -0.4740
 3201TIP3   OH2 9608   3.947   1.267   1.677  0.2043 -0.3981 -0.2805
 3201TIP3    H1 9609   4.013   1.202   1.652  1.0676  0.3043  0.1122
 3201TIP3    H2 9610   3.930   1.316   1.596 -0.6385 -1.2523 -0.6409
 3202TIP3   OH2 9611   5.128   0.715   1.556 -0.0396 -0.4491  0.0222
 3202TIP3    H1 9612   5.190   0.788   1.555 -2.0063  1.3381 -0.9218
 3202TIP3    H2 9613   5.119   0.692   1.649  0.8221  0.3413  0.3152
 3203TIP3   OH2 9614   4.657   5.461   2.514  0.2436  0.1479 -0.0224
 3203TIP3    H1 9615   4.585   5.523   2.506 -0.1281 -0.3444 -0.5102
 3203TIP3    H2 9616   4.639   5.414   2.595 -0.3721 -0.4605 -0.5030
 3204TIP3   OH2 9617   0.706   4.285   4.045 -0.2124 -0.2822 -0.2663
 3204TIP3    H1 9618   0.644   4.222   4.084 -0.0514 -0.5254 -0.3980
 3204TIP3    H2 9619   0.776   4.291   4.110 -0.1124 -0.4229 -0.3596
 3205TIP3   OH2 9620   0.273   0.584   4.234  0.3465 -0.1926  0.0396
 3205TIP3    H1 9621   0.188   0.619   4.205  0.6466 -0.4565 -1.2292
 3205TIP3    H2 9622   0.258   0.489   4.239  0.9796 -0.4152 -1.7552
 3206TIP3   OH2 9623   3.526   2.743   2.058 -0.1930  0.0218 -0.2337
 3206TIP3    H1 9624   3.606   2.690   2.067  0.7827  1.0149 -2.2300
 3206TIP3    H2 9625   3.464   2.685   2.014  0.0832 -0.1751 -0.3690
 3207TIP3   OH2 9626   0.885   0.962   1.829  0.3005  0.0977  0.2303
 3207TIP3    H1 9627   0.862   0.871   1.848 -1.7010  0.6401  0.6091
 3207TIP3    H2 9628   0.846   1.012   1.900 -0.2412  1.4259 -0.9586
 3208TIP3   OH2 9629   5.141   5.923   2.007 -0.0630 -0.0877 -0.4718
 3208TIP3    H1 9630   5.107   5.985   2.071 -1.5561  0.7167 -1.9703
 3208TIP3    H2 9631   5.097   5.840   2.028  1.3746 -0.5330  1.0631
 3209TIP3   OH2 9632   0.522   1.725   4.201  0.1371  0.1348 -0.0836
 3209TIP3    H1 9633   0.505   1.754   4.112 -1.6950 -1.2472 -0.2358
 3209TIP3    H2 9634   0.524   1.806   4.252  0.5464  0.8879 -1.2424
 3210TIP3   OH2 9635   5.587   2.611   4.304  0.4045 -0.3306 -0.0247
 3210TIP3    H1 9636   5.600   2.614   4.399  0.6040 -1.4021 -0.0117
 3210TIP3    H2 9637   5.492   2.603   4.293  0.4819 -1.6483  0.1383
 3211TIP3   OH2 9638   3.991   0.673   4.585 -0.3559  0.1970  0.4905
 3211TIP3    H1 9639   3.907   0.686   4.541  0.9906  0.9456 -2.0691
 3211TIP3    H2 9640   3.997   0.579   4.599 -2.6116  0.3050  3.0216
 3212TIP3   OH2 9641   3.007   2.332   5.135  0.1158 -0.3084 -0.4632
 3212TIP3    H1 9642   2.929   2.281   5.155  0.1106  0.5542  2.1575
 3212TIP3    H2 9643   3.080   2.278   5.166  0.3162  0.0803 -0.2410
 3213TIP3   OH2 9644   3.165   1.873   3.355 -0.2494 -0.0667  0.1275
 3213TIP3    H1 9645   3.233   1.933   3.325 -0.5821  0.9071  1.2359
 3213TIP3    H2 9646   3.141   1.905   3.442 -1.2590 -1.1270  0.2705
 3214TIP3   OH2 9647   2.813   2.242   4.850 -0.5342 -0.2333  0.1296
 3214TIP3    H1 9648   2.901   2.250   4.886 -0.2703 -0.9743 -0.3165
 3214TIP3    H2 9649   2.771   2.175   4.904 -0.3434 -0.8974 -0.5276
 3215TIP3   OH2 9650   0.166   1.881   4.905  1.1523 -0.3524  0.0474
 3215TIP3    H1 9651   0.185   1.973   4.890 -0.8889  0.1821  0.5260
 3215TIP3    H2 9652   0.224   1.855   4.976 -0.1868  1.3546  1.8460
 3216TIP3   OH2 9653   1.734   5.639   2.971  0.1252  0.0840  0.4617
 3216TIP3    H1 9654   1.722   5.549   2.943  2.4640 -0.1775  0.0449
 3216TIP3    H2 9655   1.820   5.664   2.936  0.0892  2.0648  1.5985
 3217TIP3   OH2 9656   3.380   1.046   3.146 -0.1613 -0.6179 -0.4814
 3217TIP3    H1 9657   3.461   1.048   3.198 -0.9856  1.6929  0.8550
 3217TIP3    H2 9658   3.364   1.137   3.123 -2.9329 -0.8559  0.1845
 3218TIP3   OH2 9659   3.539   2.961   2.259  0.0354 -0.3711 -0.0608
 3218TIP3    H1 9660   3.541   2.883   2.203 -2.6945 -1.8871  1.6807
 3218TIP3    H2 9661   3.608   2.946   2.324 -0.0415 -1.0537 -0.1308
 3219TIP3   OH2 9662   0.596   1.736   3.206  0.7483  0.4896  0.5917
 3219TIP3    H1 9663   0.601   1.654   3.156 -6.1191  1.0628 -2.1483
 3219TIP3    H2 9664   0.561   1.710   3.291 -1.3561  0.3929 -0.2503
 3220TIP3   OH2 9665   1.419   0.198   3.524 -0.5685 -0.2036  0.0897
 3220TIP3    H1 9666   1.347   0.170   3.467 -0.4791  1.3784 -0.8672
 3220TIP3    H2 9667   1.490   0.136   3.505 -0.9306 -0.4034 -0.6586
 3221TIP3   OH2 9668   3.316   4.054   0.016  0.0097  0.5033 -0.1220
 3221TIP3    H1 9669   3.289   4.145   0.025 -0.4211  0.6348 -2.2381
 3221TIP3    H2 9670   3.238   4.004   0.041 -0.0021  0.7266  0.2987
 3222TIP3   OH2 9671   5.584   1.749   3.724 -0.2433 -0.3469 -0.2660
 3222TIP3    H1 9672   5.596   1.840   3.695  1.9320 -0.8342 -1.0353
 3222TIP3    H2 9673   5.672   1.714   3.731 -0.8299 -1.5825  2.9290
 3223TIP3   OH2 9674   3.607   2.625   0.754 -0.5669 -0.0238  0.4814
 3223TIP3    H1 9675   3.664   2.698   0.778  1.2102 -1.5520  1.1586
 3223TIP3    H2 9676   3.637   2.599   0.667 -0.2756 -0.7658  0.7938
 3224TIP3   OH2 9677   2.266   5.625   0.179  0.4507 -0.2327  1.0172
 3224TIP3    H1 9678   2.232   5.714   0.186 -0.6071 -0.6509  1.2899
 3224TIP3    H2 9679   2.209   5.581   0.117  0.0387 -1.1448  2.0022
 3225TIP3   OH2 9680   2.191   1.530   3.762  0.2833  0.0904  0.1008
 3225TIP3    H1 9681   2.286   1.525   3.777  0.3705  1.0719 -0.1006
 3225TIP3    H2 9682   2.167   1.619   3.787 -0.3323  0.3391 -1.3103
 3226TIP3   OH2 9683   1.824   3.964   0.849 -0.5111  0.1209 -0.1753
 3226TIP3    H1 9684   1.811   3.894   0.785  0.4655  2.0774 -2.7254
 3226TIP3    H2 9685   1.917   3.959   0.872 -0.4973  0.4056 -0.1650
 3227TIP3   OH2 9686   6.167   1.476   0.651 -0.2620  0.3840 -0.3712
 3227TIP3    H1 9687   6.149   1.524   0.732 -1.0609  1.0357 -0.9168
 3227TIP3    H2 9688   6.189   1.387   0.680  0.3646  0.8369  0.6004
 3228TIP3   OH2 9689   5.799   3.812   4.628  0.0466  0.2100 -0.3612
 3228TIP3    H1 9690   5.804   3.741   4.564 -1.2203  0.2549 -0.5296
 3228TIP3    H2 9691   5.830   3.772   4.710  1.8109  0.1998 -1.0009
 3229TIP3   OH2 9692   3.244   1.231   0.664 -0.2173 -0.0064  0.1749
 3229TIP3    H1 9693   3.290   1.149   0.643 -1.9979 -0.9866 -0.0881
 3229TIP3    H2 9694   3.256   1.286   0.586  1.1555  0.0905  0.4287
 3230TIP3   OH2 9695   2.659   3.064   3.794 -0.2687 -0.4664 -0.4704
 3230TIP3    H1 9696   2.739   3.109   3.765 -0.2408  0.5431  1.0766
 3230TIP3    H2 9697   2.690   2.979   3.826  0.3586  0.2893  1.0261
 3231TIP3   OH2 9698   0.772   4.068   3.416  0.5812 -1.4035  0.0765
 3231TIP3    H1 9699   0.682   4.093   3.393  0.7251  0.4684  1.3988
 3231TIP3    H2 9700   0.826   4.116   3.354  0.7892  0.6084  1.7084
 3232TIP3   OH2 9701   1.427   5.447   2.134 -0.0008  0.6364 -0.8865
 3232TIP3    H1 9702   1.372   5.453   2.212  0.0311 -0.3302 -0.7823
 3232TIP3    H2 9703   1.373   5.485   2.064 -0.1564  1.2021 -0.4697
 3233TIP3   OH2 9704   6.039   4.695   0.258  0.0417  0.1928  0.9669
 3233TIP3    H1 9705   5.960   4.749   0.263 -0.0034  0.4423 -1.2810
 3233TIP3    H2 9706   6.066   4.700   0.166  1.0778 -2.1731  1.0685
 3234TIP3   OH2 9707   5.764   0.989   1.859  0.2120 -0.8377  0.0685
 3234TIP3    H1 9708   5.778   0.931   1.785 -1.5993 -1.5168  0.2192
 3234TIP3    H2 9709   5.710   0.939   1.920 -0.2969  0.5286  0.7928
 3235TIP3   OH2 9710   1.664   2.670   4.335  0.4523  0.2483 -0.4355
 3235TIP3    H1 9711   1.682   2.752   4.289 -2.0776  0.5088 -1.1145
 3235TIP3    H2 9712   1.592   2.630   4.287 -0.6931 -0.6704  1.8632
 3236TIP3   OH2 9713   0.725   2.116   4.333  0.4408 -0.3709 -0.1805
 3236TIP3    H1 9714   0.779   2.052   4.287 -0.1746 -1.3696  0.4546
 3236TIP3    H2 9715   0.718   2.082   4.422 -0.5202  0.1991 -0.0214
 3237TIP3   OH2 9716   1.665   2.352   4.282  0.1771 -0.2574 -0.0484
 3237TIP3    H1 9717   1.609   2.423   4.313  0.3288 -0.1519 -0.0139
 3237TIP3    H2 9718   1.614   2.308   4.214 -0.2971 -0.7015  0.5809
 3238TIP3   OH2 9719   2.541   4.804   2.504 -0.2097 -0.4587  0.1854
 3238TIP3    H1 9720   2.578   4.832   2.588 -2.3280 -0.3019  1.1447
 3238TIP3    H2 9721   2.527   4.710   2.515 -0.2305 -0.4866 -0.0922
 3239TIP3   OH2 9722   3.433   2.306   4.709  0.5010  0.4455 -0.5449
 3239TIP3    H1 9723   3.349   2.302   4.663  0.1741 -1.4377  0.1509
 3239TIP3    H2 9724   3.484   2.234   4.673  1.9775  1.7177 -1.1576
 3240TIP3   OH2 9725   2.373   1.216   4.074 -0.1266  0.1648  0.2793
 3240TIP3    H1 9726   2.354   1.206   3.980 -1.9750 -0.4262  0.6776
 3240TIP3    H2 9727   2.332   1.140   4.115 -0.1115  0.8784  1.6566
 3241TIP3   OH2 9728   1.034   2.788   2.415 -0.0018  0.7449  0.3016
 3241TIP3    H1 9729   1.089   2.788   2.336  0.1142  0.6547  0.3808
 3241TIP3    H2 9730   0.995   2.701   2.417 -0.9300  1.1267 -0.2853
 3242TIP3   OH2 9731   4.856   5.024   1.881 -0.2812 -0.3496  0.4642
 3242TIP3    H1 9732   4.792   4.996   1.816 -1.5060  0.0954  1.4510
 3242TIP3    H2 9733   4.806   5.073   1.946  1.4258  2.2162 -0.0158
 3243TIP3   OH2 9734   1.852   1.544   4.052 -0.3010  0.5033 -1.1324
 3243TIP3    H1 9735   1.776   1.492   4.077 -1.0446  1.0888 -2.1114
 3243TIP3    H2 9736   1.904   1.485   3.996 -0.0578  0.1248 -0.5129
 3244TIP3   OH2 9737   3.761   2.073   5.189  0.2567 -0.0658  0.4069
 3244TIP3    H1 9738   3.842   2.086   5.138  0.3047  1.0114  0.7283
 3244TIP3    H2 9739   3.700   2.034   5.127  0.7445 -0.0437 -0.1014
 3245TIP3   OH2 9740   4.356   1.383   0.444 -0.5331 -0.5221 -0.2818
 3245TIP3    H1 9741   4.265   1.368   0.416 -0.1637  0.0413 -1.8820
 3245TIP3    H2 9742   4.409   1.338   0.378  0.3802  0.2979 -0.1252
 3246TIP3   OH2 9743   5.646   0.091   3.205  0.4657 -0.5122  0.8499
 3246TIP3    H1 9744   5.550   0.089   3.210  0.5182 -1.1925  1.7295
 3246TIP3    H2 9745   5.666   0.032   3.131  0.0982  2.3803 -1.7541
 3247TIP3   OH2 9746   3.353   3.665   2.573 -0.3692 -0.2932  0.1527
 3247TIP3    H1 9747   3.306   3.622   2.502 -0.9042  0.2625  0.1578
 3247TIP3    H2 9748   3.439   3.683   2.537  0.0007 -1.6831  0.2714
 3248TIP3   OH2 9749   6.082   2.818   2.438 -0.0670 -0.1869 -0.1774
 3248TIP3    H1 9750   6.106   2.886   2.501 -2.9775  2.2378 -1.4225
 3248TIP3    H2 9751   6.026   2.758   2.487  0.3658 -0.2066  0.3006
 3249TIP3   OH2 9752   5.066   4.699   0.940 -0.2273 -0.0050 -1.0947
 3249TIP3    H1 9753   5.113   4.780   0.957 -0.0198  0.2715 -2.8031
 3249TIP3    H2 9754   4.974   4.726   0.932 -0.1663  0.0570 -1.6012
 3250TIP3   OH2 9755   4.013   1.281   1.181 -0.0721  0.0636 -0.4714
 3250TIP3    H1 9756   3.976   1.337   1.250  1.5321  0.1609  0.3460
 3250TIP3    H2 9757   4.092   1.327   1.152 -1.2850  0.5949 -3.2199
 3251TIP3   OH2 9758   2.221   2.898   2.968 -0.3326 -0.1553  0.0314
 3251TIP3    H1 9759   2.232   2.822   2.911  0.3491  0.3723 -0.5625
 3251TIP3    H2 9760   2.304   2.944   2.962 -0.2656 -0.0642  1.4330
 3252TIP3   OH2 9761   3.370   5.507   0.910  0.4163 -0.7786 -0.0730
 3252TIP3    H1 9762   3.363   5.450   0.987  2.3931 -0.4937  0.3756
 3252TIP3    H2 9763   3.374   5.596   0.947  0.3182 -0.5578 -0.5831
 3253TIP3   OH2 9764   1.020   3.745   3.510  0.0051  0.3366 -0.4471
 3253TIP3    H1 9765   0.989   3.763   3.599  1.7937  0.9124  0.1154
 3253TIP3    H2 9766   0.953   3.688   3.472 -1.3112  0.9132  0.9016
 3254TIP3   OH2 9767   3.064   4.079   3.746  0.1739  0.2187 -0.6714
 3254TIP3    H1 9768   3.140   4.107   3.796 -0.4055 -0.7466  0.8443
 3254TIP3    H2 9769   3.076   3.985   3.734 -1.4642 -0.2632  0.9654
 3255TIP3   OH2 9770   3.513   5.819   0.668  0.3724 -0.2231  0.4042
 3255TIP3    H1 9771   3.424   5.853   0.674 -0.6374 -2.7962  1.1725
 3255TIP3    H2 9772   3.550   5.833   0.755  0.5522  0.4000  0.2295
 3256TIP3   OH2 9773   6.323   4.201   4.278  0.4604 -0.2690  0.0800
 3256TIP3    H1 9774   6.337   4.280   4.226 -1.4597  0.5252  0.6826
 3256TIP3    H2 9775   6.248   4.222   4.334 -2.6075 -3.7584 -2.2942
 3257TIP3   OH2 9776   1.666   5.000   0.616  0.3276 -0.0918 -0.4478
 3257TIP3    H1 9777   1.619   4.917   0.612 -1.0512  0.6821 -1.5638
 3257TIP3    H2 9778   1.688   5.011   0.709 -2.5473 -0.1106  0.3382
 3258TIP3   OH2 9779   4.757   1.418   4.024  0.2343 -0.3110  0.3699
 3258TIP3    H1 9780   4.677   1.470   4.017 -1.8924 -3.3306  0.2874
 3258TIP3    H2 9781   4.769   1.381   3.936  0.6992 -1.2253  0.8011
 3259TIP3   OH2 9782   2.551   1.235   4.667 -0.5854 -0.3624  0.2273
 3259TIP3    H1 9783   2.605   1.204   4.740  2.8900  1.2780 -1.4087
 3259TIP3    H2 9784   2.565   1.172   4.597 -2.2885 -0.8350  0.2575
 3260TIP3   OH2 9785   1.164   3.614   4.668  0.4987 -0.6794  0.2881
 3260TIP3    H1 9786   1.110   3.554   4.618 -1.3539 -0.0196  1.4218
 3260TIP3    H2 9787   1.125   3.700   4.653  2.7418  0.2359 -0.8354
 3261TIP3   OH2 9788   4.123   4.283   3.156 -0.0303 -0.4631 -0.0290
 3261TIP3    H1 9789   4.088   4.221   3.220 -1.5109 -0.2300 -0.5676
 3261TIP3    H2 9790   4.054   4.291   3.090  0.0417  1.8151  0.0697
 3262TIP3   OH2 9791   6.044   4.070   2.445 -0.0242 -1.1418  0.0112
 3262TIP3    H1 9792   6.019   4.058   2.537 -1.4200 -1.1967 -0.3673
 3262TIP3    H2 9793   6.001   4.151   2.418  1.5843 -0.3005 -0.2047
 3263TIP3   OH2 9794   2.443   3.780   5.146  0.3122  0.3327 -0.6600
 3263TIP3    H1 9795   2.496   3.809   5.072  0.2302 -1.2044 -1.3606
 3263TIP3    H2 9796   2.502   3.787   5.221  2.5428 -3.6499 -1.7513
 3264TIP3   OH2 9797   4.395   4.520   0.641  0.6174  0.3031 -0.7573
 3264TIP3    H1 9798   4.358   4.436   0.616  0.3239  0.3714 -0.5501
 3264TIP3    H2 9799   4.464   4.499   0.704 -2.2449  0.4110  2.7384
 3265TIP3   OH2 9800   3.764   5.519   0.494 -0.8337  0.1976 -0.4317
 3265TIP3    H1 9801   3.849   5.513   0.537 -1.7782  1.7723  1.8150
 3265TIP3    H2 9802   3.715   5.445   0.529 -0.6550 -0.2928 -1.1853
 3266TIP3   OH2 9803   6.055   3.786   0.660  0.4733  0.2445 -0.7406
 3266TIP3    H1 9804   6.036   3.878   0.641  1.1267  0.8503  1.3420
 3266TIP3    H2 9805   5.991   3.762   0.727  0.3989 -0.8073 -1.1751
 3267TIP3   OH2 9806   2.368   2.056   4.586 -0.0914 -0.0880 -0.2430
 3267TIP3    H1 9807   2.339   2.031   4.499  0.7852  2.3526 -1.3468
 3267TIP3    H2 9808   2.288   2.068   4.637 -0.7614  0.9528 -1.5028
 3268TIP3   OH2 9809   3.984   1.071   0.752 -0.5147  0.4375 -0.2935
 3268TIP3    H1 9810   3.941   1.042   0.672  0.8164  0.9075 -1.2134
 3268TIP3    H2 9811   4.077   1.077   0.729 -0.1596  1.0291  1.1526
 3269TIP3   OH2 9812   2.164   3.150   4.222  0.7220 -0.0049  0.2456
 3269TIP3    H1 9813   2.237   3.102   4.182  0.2482  0.4743 -1.2682
 3269TIP3    H2 9814   2.169   3.237   4.183 -0.5016  0.1152  0.3299
 3270TIP3   OH2 9815   4.984   0.375   2.739 -0.1975 -0.0390  0.1765
 3270TIP3    H1 9816   4.912   0.336   2.787 -0.6414  0.9930  0.3691
 3270TIP3    H2 9817   5.012   0.448   2.793 -0.7818  1.2146 -1.1599
 3271TIP3   OH2 9818   1.667   1.989   2.929 -0.6275 -0.2547 -0.3623
 3271TIP3    H1 9819   1.702   1.900   2.929 -3.1997 -1.3653  0.7314
 3271TIP3    H2 9820   1.676   2.017   2.838 -1.4225 -2.3844 -1.1724
 3272TIP3   OH2 9821   4.426   1.065   4.379  0.6977  0.5985  0.4050
 3272TIP3    H1 9822   4.417   1.156   4.407  1.4619  0.3116  1.6607
 3272TIP3    H2 9823   4.452   1.018   4.458  2.0471 -0.4090 -0.5799
 3273TIP3   OH2 9824   4.694   4.858   4.441  0.3653 -0.1614 -0.2736
 3273TIP3    H1 9825   4.732   4.919   4.504 -0.2201 -1.0716  1.0320
 3273TIP3    H2 9826   4.677   4.910   4.363 -1.7776  1.8196  1.3906
 3274TIP3   OH2 9827   0.025   3.669   3.051 -0.3267 -0.5583  0.5894
 3274TIP3    H1 9828   0.095   3.664   2.985 -0.6339  0.9859  0.0869
 3274TIP3    H2 9829   0.067   3.708   3.127 -0.6372  0.4872  0.2448
 3275TIP3   OH2 9830   0.166   5.169   4.945 -0.0170 -0.4225 -0.5469
 3275TIP3    H1 9831   0.158   5.208   4.858  1.6509  1.4143  0.0738
 3275TIP3    H2 9832   0.237   5.105   4.936  0.9188  0.5535 -0.3169
 3276TIP3   OH2 9833   0.980   5.950   1.003 -0.3400 -0.7330  0.3316
 3276TIP3    H1 9834   0.917   5.900   0.952  0.4839  0.1820 -1.6890
 3276TIP3    H2 9835   1.062   5.901   0.996  0.0445 -0.0367 -0.1862
 3277TIP3   OH2 9836   3.318   1.266   3.470 -0.6132 -0.4342 -0.1108
 3277TIP3    H1 9837   3.307   1.196   3.404  0.1742 -0.2196 -0.4800
 3277TIP3    H2 9838   3.238   1.262   3.522 -1.2465 -0.6374 -1.0610
 3278TIP3   OH2 9839   0.611   0.507   3.478 -0.1184  0.2923  0.3902
 3278TIP3    H1 9840   0.612   0.477   3.569  0.8256 -0.6526  0.0925
 3278TIP3    H2 9841   0.661   0.440   3.430  0.5810  1.4789 -0.5940
 3279TIP3   OH2 9842   0.348   3.431   2.049 -0.1456 -0.2892 -0.0753
 3279TIP3    H1 9843   0.375   3.417   1.959 -2.8283 -1.6593 -0.7450
 3279TIP3    H2 9844   0.382   3.355   2.097 -0.5731 -0.6764 -0.3814
 3280TIP3   OH2 9845   1.346   4.433   1.051 -0.1949  0.0330  0.4744
 3280TIP3    H1 9846   1.276   4.370   1.034  0.9310 -0.8310 -1.3270
 3280TIP3    H2 9847   1.300   4.515   1.070 -1.8348  0.1384 -3.0398
 3281TIP3   OH2 9848   3.546   0.484   0.717  0.7764  0.1054  0.2665
 3281TIP3    H1 9849   3.591   0.424   0.657 -0.2569  1.1212 -1.6413
 3281TIP3    H2 9850   3.615   0.538   0.753  1.3186  0.3626 -1.0948
 3282TIP3   OH2 9851   0.381   1.877   0.583 -0.3218  0.2869  0.4947
 3282TIP3    H1 9852   0.388   1.819   0.659  0.0713  0.0679  0.2915
 3282TIP3    H2 9853   0.420   1.960   0.613 -0.0849  0.1730  0.4999
 3283TIP3   OH2 9854   1.139   5.050   0.043  0.4067  0.2243 -0.1661
 3283TIP3    H1 9855   1.176   4.998   0.114 -0.4145  0.2138  0.2676
 3283TIP3    H2 9856   1.097   5.124   0.088 -0.4790 -0.0067 -0.6087
 3284TIP3   OH2 9857   2.437   4.094   2.026 -0.0885  0.4964  0.2799
 3284TIP3    H1 9858   2.428   4.009   2.070  0.9762 -1.9302 -3.7379
 3284TIP3    H2 9859   2.529   4.097   2.000 -0.3410  2.4876 -0.4987
 3285TIP3   OH2 9860   0.986   0.941   4.296  0.6508 -0.0752 -0.2352
 3285TIP3    H1 9861   0.956   0.865   4.347 -0.1704  0.2585 -0.2145
 3285TIP3    H2 9862   1.077   0.920   4.274  1.2102  0.0231  1.8335
 3286TIP3   OH2 9863   1.761   3.085   3.311 -0.6804  0.0642 -0.2715
 3286TIP3    H1 9864   1.674   3.115   3.337 -0.8303 -0.6409  0.0680
 3286TIP3    H2 9865   1.820   3.156   3.338 -0.7068 -0.9459  2.8451
 3287TIP3   OH2 9866   1.504   4.526   0.850 -0.0518 -0.6167  0.2410
 3287TIP3    H1 9867   1.453   4.530   0.769 -0.4928  0.0328  0.5401
 3287TIP3    H2 9868   1.448   4.479   0.911  0.8138 -2.2847 -0.1862
 3288TIP3   OH2 9869   2.104   3.685   3.256  0.3926  0.8367  0.0130
 3288TIP3    H1 9870   2.156   3.614   3.295 -2.2255 -1.5522 -0.5460
 3288TIP3    H2 9871   2.024   3.687   3.309 -0.9275  1.1864 -1.9161
 3289TIP3   OH2 9872   0.202   0.409   2.444  0.0657  0.3408  0.1769
 3289TIP3    H1 9873   0.235   0.381   2.529  0.0808  0.1323  0.1037
 3289TIP3    H2 9874   0.278   0.447   2.400  0.6363 -1.6228 -0.6319
 3290TIP3   OH2 9875   5.040   4.686   4.799 -0.5487  0.1384 -0.5169
 3290TIP3    H1 9876   4.969   4.750   4.809 -0.3090  0.5429 -1.3298
 3290TIP3    H2 9877   4.998   4.610   4.760 -0.5678  0.3309 -0.8773
 3291TIP3   OH2 9878   0.198   3.020   2.913  0.4189 -0.0933  0.3946
 3291TIP3    H1 9879   0.183   3.068   2.995  0.7533  2.3594 -0.8939
 3291TIP3    H2 9880   0.268   3.068   2.869 -2.5171  1.3879 -3.2619
 3292TIP3   OH2 9881   4.966   4.767   1.883 -0.2801 -0.3765 -0.4631
 3292TIP3    H1 9882   5.060   4.783   1.879 -0.1232 -1.3584 -1.0558
 3292TIP3    H2 9883   4.927   4.854   1.881  0.6353  0.1098  0.9234
 3293TIP3   OH2 9884   0.872   5.623   3.204 -0.1654 -0.1372  0.1880
 3293TIP3    H1 9885   0.913   5.625   3.117 -1.1525 -0.1295 -0.2862
 3293TIP3    H2 9886   0.881   5.532   3.232  0.8583  0.0274  0.4289
 3294TIP3   OH2 9887   0.981   0.591   1.384  0.6332 -0.4050 -0.0800
 3294TIP3    H1 9888   0.957   0.649   1.312  1.1781 -2.2462 -1.8565
 3294TIP3    H2 9889   1.001   0.649   1.457 -0.8741  1.5136 -1.1046
 3295TIP3   OH2 9890   2.000   5.521   0.084 -0.6338  0.1974  0.0532
 3295TIP3    H1 9891   2.027   5.528   0.175  0.4235 -1.3249 -0.1043
 3295TIP3    H2 9892   1.930   5.456   0.085 -0.7274  0.2945 -0.1905
 3296TIP3   OH2 9893   5.427   5.362   1.582  0.6074 -0.1150  0.4017
 3296TIP3    H1 9894   5.417   5.266   1.582  2.2878 -0.3303  1.6570
 3296TIP3    H2 9895   5.520   5.376   1.566  0.1948  1.3776 -0.8726
 3297TIP3   OH2 9896   1.717   2.289   3.216 -0.0826 -0.1848  0.0858
 3297TIP3    H1 9897   1.675   2.204   3.227 -0.7194  0.2381  1.1527
 3297TIP3    H2 9898   1.806   2.277   3.248 -0.5802 -0.1361  1.5883
 3298TIP3   OH2 9899   1.363   1.770   5.051  0.0986  0.4814 -0.0334
 3298TIP3    H1 9900   1.443   1.743   5.004 -0.7841 -1.9131 -0.3063
 3298TIP3    H2 9901   1.297   1.781   4.982 -0.3126  0.4556  0.3552
 3299TIP3   OH2 9902   6.151   3.799   2.057 -0.0170 -0.3701 -0.1392
 3299TIP3    H1 9903   6.134   3.870   1.995  3.7425 -0.4927 -1.5701
 3299TIP3    H2 9904   6.101   3.823   2.135  0.8377  3.7763 -0.6394
 3300TIP3   OH2 9905   4.117   5.785   2.244  0.6005 -0.2669 -0.0502
 3300TIP3    H1 9906   4.060   5.860   2.259  2.2914  0.6893  2.3358
 3300TIP3    H2 9907   4.206   5.819   2.256  1.5350 -2.2509 -0.8230
 3301TIP3   OH2 9908   2.891   5.143   1.442 -0.0314  0.1448  0.3945
 3301TIP3    H1 9909   2.862   5.053   1.430  2.0568 -0.7916  1.7484
 3301TIP3    H2 9910   2.976   5.136   1.485  0.4134  2.7691  0.1603
 3302TIP3   OH2 9911   0.276   2.249   5.061  0.0540  0.4497 -0.4009
 3302TIP3    H1 9912   0.205   2.210   5.111 -0.2968 -0.4764 -1.5764
 3302TIP3    H2 9913   0.338   2.281   5.127 -0.0359 -1.3571  0.6046
 3303TIP3   OH2 9914   5.504   3.995   4.895  0.4563 -0.2096 -0.2793
 3303TIP3    H1 9915   5.594   4.022   4.875  0.4961  0.6955  1.0118
 3303TIP3    H2 9916   5.461   4.075   4.925 -0.8614 -0.5855 -1.0800
 3304TIP3   OH2 9917   3.071   5.370   4.410  0.1031  0.0652  0.7340
 3304TIP3    H1 9918   3.020   5.328   4.341  0.9163  0.4334 -0.1018
 3304TIP3    H2 9919   3.084   5.301   4.475  0.1796 -0.5615  0.0633
 3305TIP3   OH2 9920   4.229   3.911   3.213 -0.3401 -0.2255  0.3686
 3305TIP3    H1 9921   4.313   3.866   3.216  0.1454  0.6095 -0.0975
 3305TIP3    H2 9922   4.204   3.909   3.121 -0.1113  0.7853  0.2744
 3306TIP3   OH2 9923   0.103   2.410   3.036 -0.1180  0.4823 -0.2591
 3306TIP3    H1 9924   0.036   2.475   3.055 -2.0518 -1.1635 -1.1223
 3306TIP3    H2 9925   0.144   2.440   2.955 -1.9465 -0.0312 -1.4226
 3307TIP3   OH2 9926   6.017   4.972   4.782  0.1874  0.3262  0.0772
 3307TIP3    H1 9927   6.045   4.885   4.753 -0.9841 -0.4189  1.0829
 3307TIP3    H2 9928   5.925   4.977   4.757 -0.2398  0.5480  1.5798
 3308TIP3   OH2 9929   0.242   0.761   0.597 -0.2036 -0.2331  0.2796
 3308TIP3    H1 9930   0.164   0.722   0.636  0.2964  1.8780  3.8212
 3308TIP3    H2 9931   0.305   0.689   0.593 -0.7077 -0.8722  2.4364
 3309TIP3   OH2 9932   5.407   3.951   4.344 -0.5465  0.3012 -0.2414
 3309TIP3    H1 9933   5.441   3.940   4.433 -1.1377 -1.1332 -0.1643
 3309TIP3    H2 9934   5.312   3.943   4.354 -0.7920  2.1140 -0.7496
 3310TIP3   OH2 9935   2.725   2.202   0.028  0.3302  0.1165 -0.1216
 3310TIP3    H1 9936   2.744   2.115  -0.007 -1.1406 -0.7021  0.9980
 3310TIP3    H2 9937   2.805   2.227   0.074  1.7133  0.5120 -2.5164
 3311TIP3   OH2 9938   2.866   4.164   1.194  0.1900 -0.1219  0.1006
 3311TIP3    H1 9939   2.938   4.213   1.235  1.0110 -2.2805  1.4253
 3311TIP3    H2 9940   2.790   4.223   1.200  1.5377  1.7385 -0.2345
 3312TIP3   OH2 9941   2.255   2.953   0.228  0.6957 -0.2816 -0.2862
 3312TIP3    H1 9942   2.203   2.923   0.153  0.1776 -0.0498 -0.0247
 3312TIP3    H2 9943   2.198   3.015   0.274  1.1933 -0.0439  0.0245
 3313TIP3   OH2 9944   2.440   0.653   4.259 -0.1564 -0.0918 -0.4080
 3313TIP3    H1 9945   2.423   0.562   4.237 -0.7176 -0.0970  0.0257
 3313TIP3    H2 9946   2.534   0.655   4.279 -0.2252 -0.6712  0.0169
 3314TIP3   OH2 9947   1.811   3.095   2.102  0.2647  0.3360  0.3431
 3314TIP3    H1 9948   1.785   3.142   2.023 -2.1189 -0.2523  0.6762
 3314TIP3    H2 9949   1.759   3.136   2.172  1.4089  0.0555  1.3877
 3315TIP3   OH2 9950   1.196   2.174   1.999  0.2617  0.0723  0.0916
 3315TIP3    H1 9951   1.172   2.181   1.907  0.0959  3.8415  0.2719
 3315TIP3    H2 9952   1.144   2.242   2.042  2.9145  0.8310  2.3763
 3316TIP3   OH2 9953   6.219   1.769   1.925  0.0039  0.2876 -0.3333
 3316TIP3    H1 9954   6.310   1.784   1.950 -0.0126 -0.7771  0.4561
 3316TIP3    H2 9955   6.177   1.736   2.005 -0.3700 -1.9561 -1.3765
 3317TIP3   OH2 9956   0.613   5.889   4.593  0.0459  0.2807 -0.5548
 3317TIP3    H1 9957   0.563   5.917   4.670  0.5602 -2.6150  0.9674
 3317TIP3    H2 9958   0.546   5.879   4.525 -0.8074  0.5239  0.2154
 3318TIP3   OH2 9959   5.832   2.227   0.775  0.3601  0.5531  0.0670
 3318TIP3    H1 9960   5.743   2.252   0.748  0.4795  0.3811 -0.4924
 3318TIP3    H2 9961   5.845   2.140   0.738  1.0516  0.8962 -0.5264
 3319TIP3   OH2 9962   3.821   4.769   3.125 -0.3002  0.0495 -0.1079
 3319TIP3    H1 9963   3.889   4.782   3.058 -0.6110 -1.1740 -0.7042
 3319TIP3    H2 9964   3.865   4.720   3.194 -0.0377  1.1228  0.5053
 3320TIP3   OH2 9965   0.740   0.962   0.239  0.4836 -0.6775  0.7552
 3320TIP3    H1 9966   0.702   0.878   0.265 -0.5242 -0.7076 -0.7086
 3320TIP3    H2 9967   0.834   0.951   0.254  0.4424 -2.2667  0.0910
 3321TIP3   OH2 9968   0.964   2.654   0.999  0.7251 -0.0017  0.3876
 3321TIP3    H1 9969   0.901   2.591   1.036 -1.3289  1.2816 -0.7682
 3321TIP3    H2 9970   1.024   2.600   0.948 -0.8753 -1.0877 -0.4277
 3322TIP3   OH2 9971   4.649   1.857   3.128  0.4570  0.1417  0.7855
 3322TIP3    H1 9972   4.560   1.889   3.140 -0.3294 -1.5197 -0.2626
 3322TIP3    H2 9973   4.697   1.889   3.204 -1.0875  0.8834  1.4801
 3323TIP3   OH2 9974   2.005   4.931   1.518 -0.4228  0.1086  0.1622
 3323TIP3    H1 9975   2.051   4.848   1.532  0.4093  0.4040 -0.7121
 3323TIP3    H2 9976   1.938   4.933   1.586  0.7033 -0.4604  1.3378
 3324TIP3   OH2 9977   2.281   2.655   0.041  0.3078  0.3238 -0.0558
 3324TIP3    H1 9978   2.281   2.623  -0.050 -0.0142  0.1061  0.0198
 3324TIP3    H2 9979   2.352   2.720   0.043 -0.5798  1.3473 -0.8214
 3325TIP3   OH2 9980   5.331   1.245   3.053  0.0647 -0.0058 -0.1697
 3325TIP3    H1 9981   5.282   1.162   3.055  0.1226 -0.0722 -0.9810
 3325TIP3    H2 9982   5.406   1.230   3.110 -1.9863  0.8716  3.0499
 3326TIP3   OH2 9983   3.003   4.646   4.345 -0.2202  0.0540 -0.8797
 3326TIP3    H1 9984   2.960   4.593   4.278  0.8036  1.0237 -2.3551
 3326TIP3    H2 9985   3.090   4.665   4.309 -0.0262  1.4961  0.2578
 3327TIP3   OH2 9986   5.543   5.845   0.311  0.1825  0.4758  0.0503
 3327TIP3    H1 9987   5.500   5.912   0.366  0.9748  0.3748  0.8135
 3327TIP3    H2 9988   5.509   5.861   0.223 -1.3053  0.4957  0.5941
 3328TIP3   OH2 9989   1.020   1.657   4.117 -0.9266  0.2945  0.3609
 3328TIP3    H1 9990   1.006   1.644   4.211  1.1205 -1.1671  0.5109
 3328TIP3    H2 9991   1.107   1.696   4.110 -0.5262 -0.7681 -0.9829
 3329TIP3   OH2 9992   4.462   4.456   1.221 -0.7584 -0.4965  0.2643
 3329TIP3    H1 9993   4.493   4.496   1.303  0.2951  0.9504 -0.7767
 3329TIP3    H2 9994   4.512   4.375   1.213  0.9777  0.5816 -0.1447
 3330TIP3   OH2 9995   3.658   3.232   4.761  0.0157  0.1545 -0.4427
 3330TIP3    H1 9996   3.659   3.151   4.813 -1.9150  0.3137 -0.1070
 3330TIP3    H2 9997   3.624   3.298   4.821 -2.3390  0.3321 -1.8594
 3331TIP3   OH2 9998   5.174   2.402   3.618  0.4302 -0.3337  0.0885
 3331TIP3    H1 9999   5.112   2.442   3.678  2.7871  0.3725  2.2371
 3331TIP3    H210000   5.194   2.317   3.657  1.3714 -0.2312 -0.1412
 3332TIP3   OH210001   5.996   1.991   3.642  0.6470 -0.7758 -0.7833
 3332TIP3    H110002   6.006   2.007   3.736 -0.3204  0.1741 -0.8166
 3332TIP3    H210003   5.909   2.026   3.622  0.9720 -0.7011 -2.0899
 3333TIP3   OH210004   6.353   0.608   2.673  0.3060  0.1580  0.5164
 3333TIP3    H110005   6.330   0.563   2.591  0.3400  0.9576  0.0581
 3333TIP3    H210006   6.276   0.598   2.729 -0.6081  1.5125 -0.4405
 3334TIP3   OH210007   1.633   5.305   3.305 -0.1460 -0.0556 -0.7011
 3334TIP3    H110008   1.721   5.274   3.326 -0.2727 -0.9845 -1.4351
 3334TIP3    H210009   1.618   5.275   3.215 -1.4359 -0.4496 -0.3791
 3335TIP3   OH210010   0.441   1.923   2.576  0.4023 -0.3473 -0.2364
 3335TIP3    H110011   0.443   2.011   2.540 -1.3727  0.5663  1.7246
 3335TIP3    H210012   0.530   1.889   2.561  1.4916  2.2020  0.0034
 3336TIP3   OH210013   5.704   2.155   1.405  0.4362 -0.3250  0.3032
 3336TIP3    H110014   5.649   2.225   1.441 -0.0193 -0.0186 -0.9417
 3336TIP3    H210015   5.672   2.075   1.448 -0.5897 -0.0688  0.0525
 3337TIP3   OH210016   1.875   4.567   1.929 -0.2511 -0.2107  0.1516
 3337TIP3    H110017   1.802   4.623   1.956  0.7345  0.4745  1.5303
 3337TIP3    H210018   1.866   4.488   1.983  0.4009  0.1752  0.8477
 3338TIP3   OH210019   4.801   5.456   1.838 -0.2797  0.0004  0.0793
 3338TIP3    H110020   4.753   5.373   1.842 -2.0687  0.9393 -0.5241
 3338TIP3    H210021   4.759   5.511   1.905 -0.3128  0.9760 -0.7176
 3339TIP3   OH210022   1.423   5.986   4.315  0.7050  0.0475 -0.2079
 3339TIP3    H110023   1.343   5.934   4.329  0.8499  0.1010  0.9066
 3339TIP3    H210024   1.455   5.958   4.229 -1.1509  0.8794 -1.2227
 3340TIP3   OH210025   3.867   4.816   4.116  0.1856  0.8735  0.0325
 3340TIP3    H110026   3.809   4.856   4.051 -0.0833 -0.4889 -0.5899
 3340TIP3    H210027   3.844   4.723   4.115  0.3367  0.7682  1.9185
 3341TIP3   OH210028   2.533   2.329   2.429 -0.5017 -0.2631 -0.3224
 3341TIP3    H110029   2.507   2.421   2.420 -1.2817 -0.5593 -1.2053
 3341TIP3    H210030   2.463   2.280   2.387 -0.9274 -1.3794  1.6018
 3342TIP3   OH210031   1.533   2.068   3.804 -0.0722  0.0967 -0.2286
 3342TIP3    H110032   1.505   1.985   3.841  0.1010  0.2350  0.2218
 3342TIP3    H210033   1.467   2.088   3.737 -0.0288 -0.4713 -0.4491
 3343TIP3   OH210034   4.167   1.746   2.251 -0.7852  0.3598 -0.1052
 3343TIP3    H110035   4.119   1.678   2.298 -1.2076  0.4463 -0.4024
 3343TIP3    H210036   4.244   1.702   2.217 -0.9222  0.0907 -0.0684
 3344TIP3   OH210037  -0.019   0.930   0.555 -0.3097  0.0645 -0.6972
 3344TIP3    H110038   0.076   0.921   0.567 -0.4955 -0.6566  0.4138
 3344TIP3    H210039  -0.030   1.013   0.509  0.7424  1.3835  1.2831
 3345TIP3   OH210040   0.843   1.647   4.348  0.5512 -0.1316  0.4887
 3345TIP3    H110041   0.861   1.586   4.419 -0.6232  0.4038  1.2832
 3345TIP3    H210042   0.790   1.598   4.286 -0.6731  0.1211  1.2839
 3346TIP3   OH210043   2.683   2.815   2.579 -0.2464  0.7277  0.2950
 3346TIP3    H110044   2.728   2.767   2.510 -0.6507 -1.4165  1.4391
 3346TIP3    H210045   2.626   2.877   2.533  0.1420 -0.0373 -1.2582
 3347TIP3   OH210046   6.118   5.245   2.687 -0.4923  0.2964  0.4245
 3347TIP3    H110047   6.041   5.237   2.743  0.2347 -0.0359  1.4022
 3347TIP3    H210048   6.142   5.155   2.666 -0.4953  0.4063 -0.0630
 3348TIP3   OH210049   0.927   4.928   2.802 -0.0120 -0.1895  0.6395
 3348TIP3    H110050   1.018   4.909   2.823  0.6105 -0.8420 -2.2275
 3348TIP3    H210051   0.928   5.018   2.770  0.2893 -1.1292 -2.2721
 3349TIP3   OH210052   2.391   2.663   0.773 -0.0448 -0.2073  0.1949
 3349TIP3    H110053   2.302   2.694   0.756  0.1188  0.8512  1.1199
 3349TIP3    H210054   2.408   2.688   0.864  1.9457  1.5513 -0.5641
 3350TIP3   OH210055   4.044   3.644   2.128  0.1854  0.0040  0.0299
 3350TIP3    H110056   4.121   3.589   2.138 -0.4956 -0.7233  1.6763
 3350TIP3    H210057   4.057   3.715   2.191 -1.4502 -1.3325  1.9886
 3351TIP3   OH210058   3.349   1.217   2.311 -0.8763 -0.5823  0.1874
 3351TIP3    H110059   3.417   1.183   2.370  0.2699  0.3457 -0.5585
 3351TIP3    H210060   3.303   1.139   2.280 -1.1296 -1.1283  1.8425
 3352TIP3   OH210061   5.992   0.422   0.644  0.0587  0.2132  0.1957
 3352TIP3    H110062   5.982   0.420   0.549 -0.5933 -0.5861  0.2726
 3352TIP3    H210063   6.083   0.448   0.658  0.7282 -1.5176 -0.6779
 3353TIP3   OH210064   5.806   0.833   0.059 -0.2293  0.2766 -0.0880
 3353TIP3    H110065   5.893   0.873   0.065 -0.6207  1.2771 -0.8759
 3353TIP3    H210066   5.795   0.787   0.143 -0.7255  3.8286  1.9700
 3354TIP3   OH210067   2.231   2.390   0.468 -0.0644  0.1128 -0.1575
 3354TIP3    H110068   2.211   2.478   0.436 -0.7200  1.0355  2.5120
 3354TIP3    H210069   2.188   2.386   0.554  2.1470 -1.8557  0.9513
 3355TIP3   OH210070   0.288   2.710   3.259  0.5981  0.0312 -0.3741
 3355TIP3    H110071   0.356   2.644   3.271  2.2444  1.7720  0.5662
 3355TIP3    H210072   0.313   2.780   3.319 -1.1041  1.4804 -1.2639
 3356TIP3   OH210073   1.665   5.836   4.320 -0.5170  0.0397  0.0131
 3356TIP3    H110074   1.638   5.758   4.271  0.4023 -0.2983  0.0333
 3356TIP3    H210075   1.582   5.879   4.343 -1.2373 -2.2186  2.1174
 3357TIP3   OH210076   6.133   2.585   0.792  0.1983 -0.0691 -0.2381
 3357TIP3    H110077   6.110   2.632   0.712 -2.2427  0.4248  0.6731
 3357TIP3    H210078   6.210   2.533   0.768 -0.7029 -0.2763 -3.0281
 3358TIP3   OH210079   4.469   3.726   0.166 -0.0248 -0.1440  0.5046
 3358TIP3    H110080   4.373   3.726   0.173 -0.3441  4.0163 -1.0526
 3358TIP3    H210081   4.486   3.694   0.077 -0.1873  1.0500  0.0227
 3359TIP3   OH210082   6.164   5.650   1.344 -0.0125 -0.4695  1.2005
 3359TIP3    H110083   6.078   5.690   1.335  0.5892  0.5839 -0.5628
 3359TIP3    H210084   6.148   5.556   1.336 -0.8852 -0.2199 -0.7868
 3360TIP3   OH210085   3.219   5.943   0.724 -0.2355 -0.2780  0.4554
 3360TIP3    H110086   3.135   5.985   0.741  0.1611  0.9562 -0.5032
 3360TIP3    H210087   3.206   5.894   0.643 -0.2401 -0.7170  0.7172
 3361TIP3   OH210088   2.137   0.870   0.829  0.4267  0.3565 -0.5261
 3361TIP3    H110089   2.115   0.783   0.795 -0.4745  0.6318 -0.6820
 3361TIP3    H210090   2.052   0.909   0.852  1.0097  0.1452  2.2068
 3362TIP3   OH210091   4.323   2.989   3.421  0.0720 -0.2629  0.7946
 3362TIP3    H110092   4.253   2.932   3.389  1.1604 -0.5176 -1.2924
 3362TIP3    H210093   4.380   2.932   3.472  0.6426 -0.8619 -0.4865
 3363TIP3   OH210094   4.763   0.592   1.273 -0.0096  0.1097  0.1708
 3363TIP3    H110095   4.680   0.618   1.234 -0.3095 -0.3006  0.5232
 3363TIP3    H210096   4.828   0.648   1.231 -0.4075  0.1340 -0.4239
 3364TIP3   OH210097   5.215   0.844   2.458  0.2877 -0.3037 -0.6938
 3364TIP3    H110098   5.173   0.760   2.474  0.8941 -0.4986 -0.1081
 3364TIP3    H210099   5.169   0.905   2.515  0.3484 -0.3811 -0.5634
 3365TIP3   OH210100   2.887   5.742   4.809 -0.7420 -0.1852 -0.6452
 3365TIP3    H110101   2.811   5.693   4.840 -0.7590 -1.5279 -2.6314
 3365TIP3    H210102   2.907   5.705   4.723  1.3060  1.0907 -0.8073
 3366TIP3   OH210103   1.330   4.921   0.532  0.6271 -0.2027  0.3626
 3366TIP3    H110104   1.339   5.000   0.585 -0.0997  0.4377 -0.4443
 3366TIP3    H210105   1.397   4.862   0.565  2.0493  1.2235  0.1241
 3367TIP3   OH210106   2.171   5.468   3.082 -0.5945  0.1620 -0.3695
 3367TIP3    H110107   2.191   5.536   3.147 -1.2320  0.1149 -0.1122
 3367TIP3    H210108   2.193   5.507   2.998 -0.8160  0.6402 -0.2108
 3368TIP3   OH210109   5.008   3.078   1.946 -0.2382  0.6333  0.2536
 3368TIP3    H110110   5.087   3.110   1.989  0.4260  1.5969 -1.6043
 3368TIP3    H210111   5.024   3.090   1.853 -1.3793 -1.9091 -0.3790
 3369TIP3   OH210112   3.443   5.806   3.812  0.8158  0.3633  0.1854
 3369TIP3    H110113   3.431   5.887   3.861  0.4642 -0.2359  1.0969
 3369TIP3    H210114   3.360   5.759   3.822  1.0461 -0.1517 -0.2677
 3370TIP3   OH210115   4.000   2.948   4.685 -0.3947  0.1045  0.2161
 3370TIP3    H110116   3.992   2.867   4.635 -1.2293 -0.8217  1.7674
 3370TIP3    H210117   4.039   2.921   4.768 -0.5400  1.3124  0.6958
 3371TIP3   OH210118   0.357   3.614   0.085  0.1215  0.0421  0.0148
 3371TIP3    H110119   0.271   3.598   0.124 -0.9024  0.8180 -1.8237
 3371TIP3    H210120   0.409   3.650   0.157 -1.3167  0.2740  0.9813
 3372TIP3   OH210121   1.571   1.585   0.547 -0.1453  0.3020  0.4711
 3372TIP3    H110122   1.631   1.519   0.512 -0.0205 -0.3988  1.9086
 3372TIP3    H210123   1.626   1.662   0.561 -0.1096  0.4517 -0.4089
 3373TIP3   OH210124   4.080   1.443   2.036  0.1032  0.3101 -0.1183
 3373TIP3    H110125   4.009   1.462   1.974  0.2716 -1.9597 -1.1065
 3373TIP3    H210126   4.041   1.457   2.122 -1.6307 -0.9612 -0.6336
 3374TIP3   OH210127   4.959   5.607   2.340  0.5615 -0.0064 -0.5279
 3374TIP3    H110128   5.051   5.632   2.346  0.1047  1.4831  2.0382
 3374TIP3    H210129   4.955   5.521   2.382  0.8084 -0.1576 -0.8120
 3375TIP3   OH210130   4.324   4.173   1.610  0.1023  0.1559 -0.1489
 3375TIP3    H110131   4.232   4.195   1.598  0.3144  0.5364 -1.2241
 3375TIP3    H210132   4.362   4.251   1.650  0.0206  0.1438 -0.0496
 3376TIP3   OH210133   6.232   0.212   1.853  0.0380 -0.0918 -0.2586
 3376TIP3    H110134   6.307   0.253   1.809 -1.0708  0.0209 -2.1890
 3376TIP3    H210135   6.195   0.154   1.786 -0.8483 -1.1259  1.0816
 3377TIP3   OH210136   1.753   5.401   0.106 -0.0226 -0.2774  0.7845
 3377TIP3    H110137   1.720   5.332   0.163 -1.4707 -0.3870 -0.1191
 3377TIP3    H210138   1.728   5.373   0.018  0.6778  0.6889  0.2576
 3378TIP3   OH210139   2.416   3.259   0.383 -0.1396  0.0162  0.0210
 3378TIP3    H110140   2.497   3.308   0.369 -1.0148  2.0503  1.5918
 3378TIP3    H210141   2.369   3.265   0.300 -0.8093  3.1086  0.5155
 3379TIP3   OH210142   0.572   2.692   4.919  0.0167 -0.4686 -0.2203
 3379TIP3    H110143   0.489   2.645   4.932 -0.6475  0.5876 -0.5292
 3379TIP3    H210144   0.621   2.636   4.858 -0.9554 -0.5509 -0.9605
 3380TIP3   OH210145   4.110   2.016   2.307  0.3863  0.0948  0.2140
 3380TIP3    H110146   4.036   2.066   2.272  0.1327 -0.4961 -0.1092
 3380TIP3    H210147   4.098   1.928   2.271  1.5638  0.1349 -0.3176
 3381TIP3   OH210148   3.511   4.549   1.069 -0.4656  0.3814 -0.6192
 3381TIP3    H110149   3.571   4.556   0.995 -1.1307 -1.4450 -1.4124
 3381TIP3    H210150   3.435   4.601   1.043  0.1672  1.4892 -0.2666
 3382TIP3   OH210151   1.162   1.316   4.587 -0.2994 -0.1176  0.7551
 3382TIP3    H110152   1.247   1.359   4.584  0.1043 -0.8683  1.3306
 3382TIP3    H210153   1.181   1.223   4.597 -1.1676 -0.4485 -0.4178
 3383TIP3   OH210154   2.998   0.474   4.131 -0.2765 -0.3347  0.3213
 3383TIP3    H110155   2.993   0.531   4.055 -0.2042 -1.3092 -0.4357
 3383TIP3    H210156   3.023   0.389   4.095  0.7600 -0.5766  1.5519
 3384TIP3   OH210157   1.651   1.726   4.858 -0.0969  0.2002  0.9384
 3384TIP3    H110158   1.601   1.700   4.780  3.0902 -1.1573 -0.8563
 3384TIP3    H210159   1.669   1.819   4.845 -1.4160  0.5130  1.2223
 3385TIP3   OH210160   1.216   0.653   4.301  0.3303 -0.2043 -0.3050
 3385TIP3    H110161   1.237   0.699   4.382 -1.3242  4.1641 -2.1059
 3385TIP3    H210162   1.152   0.587   4.328 -0.5169  1.3937  1.9315
 3386TIP3   OH210163   5.578   0.013   5.122 -0.0174 -0.0502 -0.0656
 3386TIP3    H110164   5.517   0.074   5.081  0.7780  1.5198  0.9851
 3386TIP3    H210165   5.648   0.001   5.057 -0.7947 -0.9026 -0.7818
 3387TIP3   OH210166   4.891   1.545   4.234 -0.2556 -0.1311  0.5326
 3387TIP3    H110167   4.896   1.488   4.157 -0.0500  0.3832  0.1640
 3387TIP3    H210168   4.807   1.522   4.274 -0.6912  0.0886 -0.2379
 3388TIP3   OH210169   0.444   2.349   2.017  0.0914 -0.1898 -0.1726
 3388TIP3    H110170   0.409   2.326   1.931 -1.5274  1.1330  0.0740
 3388TIP3    H210171   0.500   2.425   2.001  1.3616 -1.1184 -0.2910
 3389TIP3   OH210172   3.031   5.964   4.116 -0.3302  0.1566 -0.0950
 3389TIP3    H110173   3.113   5.960   4.166 -1.6832 -0.5968  2.1789
 3389TIP3    H210174   3.003   5.873   4.108 -1.4634  0.4862  0.0578
 3390TIP3   OH210175   5.033  -0.009   3.844 -0.2124 -0.0323 -0.1672
 3390TIP3    H110176   5.003   0.056   3.780 -0.2986  0.8530  0.7485
 3390TIP3    H210177   5.106   0.034   3.889  0.7030 -1.1406 -0.5285
 3391TIP3   OH210178   2.011   2.767   4.916  0.2144  0.4210  0.0538
 3391TIP3    H110179   2.054   2.733   4.838 -0.3566  0.6869 -0.3889
 3391TIP3    H210180   1.932   2.714   4.925 -0.1572  0.9396 -0.0553
 3392TIP3   OH210181   1.855   1.177   1.588  0.1817 -0.2637  0.2098
 3392TIP3    H110182   1.932   1.228   1.611 -0.6526 -0.0819  2.8662
 3392TIP3    H210183   1.794   1.190   1.660 -1.8286 -1.4892 -1.1445
 3393TIP3   OH210184   3.740   1.030   5.125  0.1893  0.0792  0.1338
 3393TIP3    H110185   3.757   1.095   5.194 -0.4103  0.3887 -0.0093
 3393TIP3    H210186   3.726   0.948   5.173 -0.1445  0.2763  0.3788
 3394TIP3   OH210187   1.685   2.262   1.030 -0.3424 -0.1430  0.0910
 3394TIP3    H110188   1.691   2.279   1.124 -0.5636  0.2024  0.0460
 3394TIP3    H210189   1.751   2.319   0.991  0.2902 -0.8646  0.0976
 3395TIP3   OH210190   5.254   5.741   3.329  0.1599 -0.2937  0.5148
 3395TIP3    H110191   5.239   5.691   3.249 -0.1712  0.2201  0.2532
 3395TIP3    H210192   5.316   5.688   3.379  1.2373 -0.1034 -0.5708
 3396TIP3   OH210193   5.338   3.046   4.531 -0.4312 -0.3055 -0.6568
 3396TIP3    H110194   5.421   3.012   4.498  0.1216 -1.5469  1.7568
 3396TIP3    H210195   5.272   2.987   4.494  0.0617 -1.0750 -0.3433
 3397TIP3   OH210196   3.574   3.969   1.653 -0.4289 -0.1472  0.1318
 3397TIP3    H110197   3.658   4.009   1.630  0.0099  0.5177  2.6098
 3397TIP3    H210198   3.514   4.043   1.664 -1.5364 -0.6391 -2.0977
 3398TIP3   OH210199   1.786   1.919   2.133  0.1488  0.0359  0.2901
 3398TIP3    H110200   1.860   1.864   2.107 -0.3083 -0.2609 -0.4258
 3398TIP3    H210201   1.798   1.933   2.227  1.7461  0.9789 -0.0193
 3399TIP3   OH210202   0.614   1.185   2.732  0.3881  0.2927  0.1105
 3399TIP3    H110203   0.592   1.275   2.758 -0.7168 -0.3595  1.5467
 3399TIP3    H210204   0.684   1.160   2.792 -0.0761 -0.1725  0.4690
 3400TIP3   OH210205   2.539   3.054   0.214 -0.4450 -0.3456 -0.1896
 3400TIP3    H110206   2.569   3.004   0.290  1.2016  0.5233 -0.2076
 3400TIP3    H210207   2.450   3.079   0.236 -0.2556 -0.7292  1.1530
 3401TIP3   OH210208   0.196   3.319   0.469 -0.2588  0.2751  0.1645
 3401TIP3    H110209   0.275   3.326   0.523 -1.1324 -0.1943  1.5682
 3401TIP3    H210210   0.159   3.408   0.470 -0.8064  0.0585  1.2412
 3402TIP3   OH210211   4.093   5.691   4.029 -0.1145 -0.2529 -0.2599
 3402TIP3    H110212   4.098   5.599   4.005  0.1323 -1.0943  2.6544
 3402TIP3    H210213   3.999   5.708   4.038 -0.1568 -0.2221 -0.7283
 3403TIP3   OH210214   1.206   5.803   1.098 -0.4134  0.2646  0.1449
 3403TIP3    H110215   1.278   5.756   1.140  0.4870  0.8739 -0.6915
 3403TIP3    H210216   1.203   5.888   1.144 -0.4931  0.3063  0.0633
 3404TIP3   OH210217   4.275   1.146   3.709  0.4471 -0.1628  0.6969
 3404TIP3    H110218   4.200   1.090   3.730 -0.3123  0.8528  0.7637
 3404TIP3    H210219   4.348   1.105   3.755 -0.2657 -0.5997  1.4888
 3405TIP3   OH210220   4.569   3.356   3.711 -0.4873 -0.8186 -0.2612
 3405TIP3    H110221   4.507   3.346   3.639 -0.6973 -0.0349 -0.1956
 3405TIP3    H210222   4.544   3.438   3.753 -0.1875 -1.1262  0.5346
 3406TIP3   OH210223   5.280   1.866   0.376  0.4828 -0.0873  0.5147
 3406TIP3    H110224   5.189   1.890   0.387  0.5237 -0.5567  2.0651
 3406TIP3    H210225   5.328   1.923   0.435  1.3924  1.1609 -1.3214
 3407TIP3   OH210226   5.215   5.094   5.023  0.0544 -0.0231  0.0909
 3407TIP3    H110227   5.218   5.189   5.022 -2.2052  0.1848  2.6603
 3407TIP3    H210228   5.249   5.068   4.937  1.6179  3.0134 -0.3151
 3408TIP3   OH210229   4.575   3.356   0.264 -0.3439  0.0815  0.2466
 3408TIP3    H110230   4.636   3.429   0.269 -0.1152 -0.1132  0.3636
 3408TIP3    H210231   4.490   3.393   0.288 -0.5044  0.6174 -1.0557
 3409TIP3   OH210232   4.961   3.214   3.774 -0.0912 -0.5222  0.5543
 3409TIP3    H110233   4.924   3.302   3.771 -0.1276 -0.4869  1.5544
 3409TIP3    H210234   4.920   3.174   3.851  0.9878 -0.9302  0.9316
 3410TIP3   OH210235   0.492   5.778   1.986  0.0355  1.0743  0.0666
 3410TIP3    H110236   0.504   5.848   1.921 -0.0964 -0.2682 -1.4689
 3410TIP3    H210237   0.577   5.774   2.032 -0.0399  2.3814  0.3674
 3411TIP3   OH210238   1.919   1.049   0.914  0.4513  0.4509  0.3897
 3411TIP3    H110239   1.842   1.004   0.879  0.8402  0.5049 -0.5812
 3411TIP3    H210240   1.884   1.110   0.979 -0.5800  1.8394 -1.3511
 3412TIP3   OH210241   2.797   5.139   1.982  0.1528  0.0703 -0.2460
 3412TIP3    H110242   2.817   5.210   2.043  0.4863 -0.5871  0.4248
 3412TIP3    H210243   2.759   5.071   2.037  0.7762 -0.6608 -0.7148
 3413TIP3   OH210244   0.184   4.229   3.207  0.3484  0.4574  0.0914
 3413TIP3    H110245   0.105   4.283   3.209 -0.7358 -1.0701  0.1914
 3413TIP3    H210246   0.174   4.176   3.128  0.4041 -0.9654  1.0050
 3414TIP3   OH210247   4.173   1.373   4.713 -0.1803 -0.5143  0.2487
 3414TIP3    H110248   4.195   1.401   4.625 -0.3497 -0.9701  0.0578
 3414TIP3    H210249   4.243   1.408   4.768 -1.1384  1.5269  0.2537
 3415TIP3   OH210250   5.937   4.370   0.706 -0.0320  0.8308  0.0713
 3415TIP3    H110251   5.893   4.361   0.791  0.3039  0.4234  0.2072
 3415TIP3    H210252   5.875   4.330   0.644  0.7151 -1.0450  0.4506
 3416TIP3   OH210253   4.546   3.077   1.042 -0.5389 -0.0163  0.2592
 3416TIP3    H110254   4.570   3.163   1.076  0.8557 -0.2047 -0.1512
 3416TIP3    H210255   4.622   3.051   0.989 -1.4852 -0.9229 -0.7042
 3417TIP3   OH210256   1.125   5.637   3.327  0.0888 -0.8055 -0.1436
 3417TIP3    H110257   1.111   5.729   3.351 -1.4393 -0.9955 -0.2012
 3417TIP3    H210258   1.093   5.631   3.237  2.3555 -0.9142 -1.0138
 3418TIP3   OH210259   0.210   1.287   4.962 -0.7278 -0.1365 -0.3649
 3418TIP3    H110260   0.279   1.316   4.902 -0.2063 -1.9755 -0.6991
 3418TIP3    H210261   0.242   1.311   5.049  1.6371 -3.1775 -0.2415
 3419TIP3   OH210262   0.631   1.219   2.157  0.0572 -0.1996 -0.8854
 3419TIP3    H110263   0.676   1.178   2.083 -1.6807 -0.3739 -1.9018
 3419TIP3    H210264   0.557   1.162   2.174 -0.5264  0.7544 -0.1241
 3420TIP3   OH210265   2.453   2.636   2.394  0.3504 -0.2152  0.2207
 3420TIP3    H110266   2.388   2.614   2.327  1.6005 -0.5191 -0.9297
 3420TIP3    H210267   2.410   2.703   2.447 -0.1557  1.1917 -1.8210
 3421TIP3   OH210268   6.189   5.167   4.808  0.6006  0.4306  0.0991
 3421TIP3    H110269   6.135   5.095   4.776  0.9471  0.0308  0.4038
 3421TIP3    H210270   6.127   5.229   4.846  0.2961  0.3103 -0.1977
 3422TIP3   OH210271   1.051   5.491   2.150  0.2135  0.1080 -0.0510
 3422TIP3    H110272   1.106   5.493   2.072  1.5895 -0.5565  0.8594
 3422TIP3    H210273   1.107   5.454   2.219 -0.6403  1.5155  1.4911
 3423TIP3   OH210274   6.273   5.373   0.888  0.0260  0.3715 -0.5747
 3423TIP3    H110275   6.197   5.320   0.911 -1.1060  1.4548 -1.6262
 3423TIP3    H210276   6.348   5.316   0.903 -0.9572 -0.6132  0.8422
 3424TIP3   OH210277   2.009   5.303   2.588  0.2410 -0.3913 -0.1849
 3424TIP3    H110278   1.949   5.373   2.561  0.8211  0.6975  1.2397
 3424TIP3    H210279   2.018   5.314   2.682  0.9487 -1.9423 -0.0367
 3425TIP3   OH210280   4.757   1.892   3.608  0.2265  0.3463  0.0908
 3425TIP3    H110281   4.739   1.917   3.518 -0.3959 -1.6565 -0.3901
 3425TIP3    H210282   4.852   1.878   3.611  0.3063  0.8310 -0.1262
 3426TIP3   OH210283   2.015   4.383   3.614 -0.7600  0.0243 -0.0351
 3426TIP3    H110284   1.932   4.385   3.566 -0.3226 -1.6282 -0.9283
 3426TIP3    H210285   2.071   4.324   3.563  0.8900  0.8997  0.6849
 3427TIP3   OH210286   5.244   3.665   1.366 -0.2858 -0.0860  0.5983
 3427TIP3    H110287   5.316   3.603   1.364 -0.1772  0.0603  0.0131
 3427TIP3    H210288   5.281   3.747   1.335 -1.2386 -0.5786 -2.0340
 3428TIP3   OH210289   5.883   1.913   3.962 -0.3812  0.7375  0.4931
 3428TIP3    H110290   5.803   1.862   3.973  0.1840 -0.9392 -2.2639
 3428TIP3    H210291   5.946   1.871   4.022 -0.7985  0.2621  0.6054
 3429TIP3   OH210292   1.438   5.568   0.538  0.2273  0.6476  0.0451
 3429TIP3    H110293   1.442   5.626   0.462 -0.5889  0.8069  0.1201
 3429TIP3    H210294   1.530   5.557   0.564  0.7668 -1.3238 -2.3760
 3430TIP3   OH210295   1.864   3.699   1.111  0.1481 -0.2255 -0.0778
 3430TIP3    H110296   1.933   3.705   1.046 -1.3203  0.2529 -1.6493
 3430TIP3    H210297   1.862   3.785   1.153  0.3474 -0.1726 -0.1797
 3431TIP3   OH210298   5.269   2.776   1.765  0.1542 -0.2863  0.1517
 3431TIP3    H110299   5.255   2.839   1.835 -3.0178  0.1212 -0.7340
 3431TIP3    H210300   5.340   2.814   1.713  0.4561  0.9387  1.3929
 3432TIP3   OH210301   2.071   5.214   0.301  0.6089 -0.1515  0.2035
 3432TIP3    H110302   2.000   5.168   0.346  1.0326  0.2170  1.2655
 3432TIP3    H210303   2.050   5.307   0.312  1.1551 -0.0447  0.3506
 3433TIP3   OH210304   0.494   2.122   0.574 -0.1676  0.0144  0.0672
 3433TIP3    H110305   0.574   2.133   0.523  0.1498  1.9373  0.8949
 3433TIP3    H210306   0.425   2.161   0.518 -0.0985  0.5907  0.3752
 3434TIP3   OH210307   2.852   5.167   0.693 -0.3485  0.3802  0.3100
 3434TIP3    H110308   2.891   5.250   0.667 -0.3156  0.6015  1.0566
 3434TIP3    H210309   2.783   5.152   0.628  0.4220  0.3956 -0.5223
 3435TIP3   OH210310   0.917   3.875   1.024  0.8539  0.1975 -0.1276
 3435TIP3    H110311   0.966   3.884   1.106  2.1966  1.1415 -0.9825
 3435TIP3    H210312   0.975   3.826   0.967 -0.2533 -0.8405 -0.4042
 3436TIP3   OH210313   6.210   5.947   1.524  0.1815 -0.3209 -0.1028
 3436TIP3    H110314   6.278   6.003   1.560 -0.4123  0.8910 -0.8085
 3436TIP3    H210315   6.223   5.862   1.567  1.2343  0.2896  0.8196
 3437TIP3   OH210316   5.750   0.802   2.772 -0.5286 -0.5880  0.0454
 3437TIP3    H110317   5.809   0.830   2.702  0.6697 -0.3407  1.1061
 3437TIP3    H210318   5.781   0.850   2.850 -2.5867  0.1030  0.5058
 3438TIP3   OH210319   5.405   2.027   0.007  0.2204  0.1317  0.0449
 3438TIP3    H110320   5.377   2.077   0.084 -2.1635  1.9705 -1.8627
 3438TIP3    H210321   5.348   1.950   0.007 -1.6820  1.4701 -1.2357
 3439TIP3   OH210322   3.412   1.939   0.555  0.2492  0.1467 -0.1848
 3439TIP3    H110323   3.355   2.007   0.520  0.2329  0.0137 -0.4131
 3439TIP3    H210324   3.379   1.925   0.644  1.5308  1.8880  0.6177
 3440TIP3   OH210325   1.043   2.822   1.922  0.1184 -0.3836 -0.1281
 3440TIP3    H110326   1.003   2.767   1.855  1.5635 -0.1998 -1.1896
 3440TIP3    H210327   1.052   2.908   1.881  2.1776 -0.5804 -0.2400
 3441TIP3   OH210328   4.433   3.922   1.601 -0.2832 -0.7977  0.0106
 3441TIP3    H110329   4.501   3.909   1.666 -0.1798 -0.1419  0.0373
 3441TIP3    H210330   4.392   4.005   1.625 -0.7335 -0.9220 -0.3196
 3442TIP3   OH210331   1.653   3.157   2.316 -0.0654 -0.1351 -0.8901
 3442TIP3    H110332   1.704   3.126   2.391  0.0654 -0.2696 -1.0314
 3442TIP3    H210333   1.627   3.246   2.339 -0.9728 -0.5623 -0.2186
 3443TIP3   OH210334   4.682   4.382   4.082  0.4375  0.4258  0.3629
 3443TIP3    H110335   4.599   4.393   4.037 -1.0962  0.1140  2.9223
 3443TIP3    H210336   4.724   4.468   4.076  0.1653  0.4586 -1.3490
 3444TIP3   OH210337   4.512   0.189   0.108 -0.0472 -0.2474 -0.3306
 3444TIP3    H110338   4.511   0.257   0.175 -0.5502 -0.9660  0.4194
 3444TIP3    H210339   4.526   0.236   0.026  0.1187  0.6993  0.2212
 3445TIP3   OH210340   0.447   3.909   1.512 -0.2069 -0.4767 -0.6497
 3445TIP3    H110341   0.470   4.002   1.508  1.4717 -0.8391 -0.1263
 3445TIP3    H210342   0.438   3.883   1.420 -0.2330  0.1003 -0.8133
 3446TIP3   OH210343   2.507   3.901   0.769  0.0681 -0.2593 -0.0572
 3446TIP3    H110344   2.598   3.882   0.744  0.4533  0.6639  0.5964
 3446TIP3    H210345   2.513   3.932   0.859 -0.8067  0.5756 -0.2752
 3447TIP3   OH210346   3.899   2.672   1.696  0.8043 -0.1089 -0.1919
 3447TIP3    H110347   3.937   2.647   1.612 -2.0349  0.5260 -1.8023
 3447TIP3    H210348   3.923   2.764   1.707 -1.1957  0.6888 -1.8646
 3448TIP3   OH210349   4.575   2.538   2.136  0.6218 -0.2980 -0.4466
 3448TIP3    H110350   4.555   2.466   2.076 -0.0585 -0.9647  0.5366
 3448TIP3    H210351   4.623   2.496   2.207 -1.1639 -0.1406  0.9419
 3449TIP3   OH210352   2.769   4.031   2.624 -0.5238 -0.1406  0.1751
 3449TIP3    H110353   2.685   4.057   2.663 -1.0147 -1.9901  0.4811
 3449TIP3    H210354   2.758   3.937   2.606  0.8933 -0.0550 -1.3406
 3450TIP3   OH210355   6.232   4.094   3.682  0.6259  0.2476  0.1672
 3450TIP3    H110356   6.146   4.135   3.678 -0.1468 -1.2762  0.3673
 3450TIP3    H210357   6.214   4.003   3.707  2.2495 -0.2399 -0.3164
 3451TIP3   OH210358   4.252   0.476   1.498  0.2610 -0.1073 -0.0843
 3451TIP3    H110359   4.191   0.526   1.552 -0.1953  0.1123 -0.7898
 3451TIP3    H210360   4.323   0.452   1.558 -0.8047 -0.9143  0.9028
 3452TIP3   OH210361   2.419   4.030   4.530 -0.0867  0.0054 -0.1397
 3452TIP3    H110362   2.419   3.939   4.559  0.0756 -0.5675 -1.8223
 3452TIP3    H210363   2.438   4.080   4.610 -3.3862 -1.1300  1.5517
 3453TIP3   OH210364   4.419   5.328   1.290  0.3030  0.6416 -0.7065
 3453TIP3    H110365   4.424   5.233   1.289 -1.0826  0.5282  0.3573
 3453TIP3    H210366   4.426   5.352   1.382  0.6604  1.5825 -0.9635
 3454TIP3   OH210367   2.951   5.623   4.557  0.2826  0.7129 -0.1751
 3454TIP3    H110368   2.973   5.537   4.521  0.4339  0.5728  0.2471
 3454TIP3    H210369   3.025   5.679   4.533  0.8987  0.3560  0.8439
 3455TIP3   OH210370   0.703   5.501   0.842  0.0913  0.4167 -0.2227
 3455TIP3    H110371   0.656   5.548   0.910 -1.0382 -0.9940  0.0209
 3455TIP3    H210372   0.648   5.510   0.764  0.7590  0.9735 -0.6442
 3456TIP3   OH210373   1.177   4.158   2.951  0.4339 -0.3429 -0.5310
 3456TIP3    H110374   1.187   4.126   3.041  0.1593 -0.8556 -0.6757
 3456TIP3    H210375   1.122   4.236   2.960  0.7203 -0.1720 -0.2177
 3457TIP3   OH210376   4.669   3.992   0.107  0.5677  0.6414 -0.2631
 3457TIP3    H110377   4.610   3.919   0.087  1.9859 -1.3403  2.2053
 3457TIP3    H210378   4.754   3.964   0.074  1.0415  1.3872  0.3026
 3458TIP3   OH210379   2.815   5.543   2.520  0.4153  0.1438 -0.2995
 3458TIP3    H110380   2.845   5.454   2.540  1.1545  0.1344 -1.3807
 3458TIP3    H210381   2.744   5.531   2.458 -0.1646  0.2782  0.3264
 3459TIP3   OH210382   1.897   4.877   1.821 -0.4277  0.8328  0.4677
 3459TIP3    H110383   1.814   4.838   1.792 -0.4780  1.2666  0.0015
 3459TIP3    H210384   1.957   4.803   1.830  0.1396  0.7822 -2.5706
 3460TIP3   OH210385   0.600   3.703   3.638  0.2123  0.2727 -0.4199
 3460TIP3    H110386   0.517   3.675   3.599 -0.4533 -0.4332  1.3686
 3460TIP3    H210387   0.650   3.622   3.650  0.5698  0.5193 -0.2274
 3461TIP3   OH210388   2.149   3.741   1.969 -0.0525  0.0242 -0.2751
 3461TIP3    H110389   2.191   3.729   1.883  0.3432  0.2963 -0.1270
 3461TIP3    H210390   2.057   3.756   1.949  0.2557  1.3975 -0.7479
 3462TIP3   OH210391   1.801   3.497   0.898 -0.0252 -0.2252 -0.5067
 3462TIP3    H110392   1.724   3.529   0.945 -0.0770  0.2286 -0.8912
 3462TIP3    H210393   1.876   3.531   0.948 -0.0477 -1.6231  0.5267
 3463TIP3   OH210394   5.626   4.810   2.538  0.8445  0.1837 -0.5583
 3463TIP3    H110395   5.591   4.793   2.626  2.2778  0.6514  0.1264
 3463TIP3    H210396   5.558   4.862   2.495  0.3530  0.4148  0.4613
 3464TIP3   OH210397   6.255   1.886   3.359  0.2867  0.1943 -0.2619
 3464TIP3    H110398   6.192   1.819   3.331 -0.0712  1.2220 -2.0702
 3464TIP3    H210399   6.203   1.966   3.364  0.8598  0.4986  1.1899
 3465TIP3   OH210400   5.675   0.345   0.501  0.1144  0.0506  0.3180
 3465TIP3    H110401   5.758   0.312   0.467 -0.4739 -2.9130  1.4748
 3465TIP3    H210402   5.692   0.436   0.522  3.0604 -0.4493  0.4734
 3466TIP3   OH210403   0.720   0.123   4.946  0.1115 -0.6233 -0.2018
 3466TIP3    H110404   0.638   0.079   4.970 -0.2366  0.7563  1.2674
 3466TIP3    H210405   0.787   0.074   4.993  0.0218 -1.0355 -0.4869
 3467TIP3   OH210406   3.848   1.563   4.913 -0.0932 -0.3165  0.4617
 3467TIP3    H110407   3.846   1.481   4.962 -0.8556 -1.0807 -0.8033
 3467TIP3    H210408   3.873   1.538   4.824  0.9447  0.9986  0.3471
 3468TIP3   OH210409   5.680   1.406   1.294  0.3549  0.0940 -0.8622
 3468TIP3    H110410   5.769   1.434   1.274  0.1581  0.8293 -0.7161
 3468TIP3    H210411   5.692   1.323   1.340  1.1697  1.8174  2.2847
 3469TIP3   OH210412   5.627   4.776   0.155  0.7998  0.7448 -0.1484
 3469TIP3    H110413   5.694   4.822   0.205 -0.1298 -1.4258  3.4027
 3469TIP3    H210414   5.677   4.716   0.099  1.8907  0.4186  1.1240
 3470TIP3   OH210415   2.664   3.877   4.234 -0.1230 -0.0438 -0.5232
 3470TIP3    H110416   2.604   3.905   4.165 -0.0677 -1.3707 -1.1566
 3470TIP3    H210417   2.615   3.892   4.315  0.0931  2.2153 -0.7634
 3471TIP3   OH210418   1.625   5.515   2.711  0.0976  0.0478 -0.0935
 3471TIP3    H110419   1.573   5.436   2.725  0.1236 -0.1361 -1.0183
 3471TIP3    H210420   1.710   5.494   2.750 -0.2857  0.0912  0.7878
 3472TIP3   OH210421   0.847   4.090   4.717 -0.4420 -0.3233 -0.8527
 3472TIP3    H110422   0.894   4.173   4.728  1.6150 -1.3600 -1.3396
 3472TIP3    H210423   0.785   4.088   4.790 -0.3552  1.5130 -0.6938
 3473TIP3   OH210424   5.575   3.102   1.625 -0.1666  0.2008  0.1236
 3473TIP3    H110425   5.489   3.108   1.667  0.5495  1.4519  1.5015
 3473TIP3    H210426   5.579   3.178   1.567 -1.0918 -1.4377 -2.2370
 3474TIP3   OH210427   3.462   1.577   0.321  0.3818  0.3774 -0.3320
 3474TIP3    H110428   3.527   1.636   0.361  1.1213  1.4014 -2.8333
 3474TIP3    H210429   3.452   1.610   0.232 -2.0296 -1.0813 -0.6759
 3475TIP3   OH210430   2.134   2.001   5.152 -0.1370 -0.2279 -0.3604
 3475TIP3    H110431   2.174   2.068   5.208 -0.8892  0.6825 -0.8684
 3475TIP3    H210432   2.081   2.051   5.090 -1.3295 -1.3245 -0.2801
 3476TIP3   OH210433   5.256   1.000   4.335  0.3306 -0.0592 -0.3681
 3476TIP3    H110434   5.232   0.912   4.304 -2.1002  0.4222 -0.0496
 3476TIP3    H210435   5.304   0.984   4.416 -0.8075 -1.1069  0.1335
 3477TIP3   OH210436   3.533   5.326   3.013  0.5870  0.5638  0.0045
 3477TIP3    H110437   3.447   5.352   3.048  0.1925 -2.8558  2.0393
 3477TIP3    H210438   3.593   5.393   3.047 -0.7832  1.0094  1.7387
 3478TIP3   OH210439   5.167   2.184   4.562 -0.0050 -0.1747  0.6460
 3478TIP3    H110440   5.244   2.231   4.596 -0.4871  0.6060  0.6816
 3478TIP3    H210441   5.095   2.213   4.617 -0.0676 -2.2227  1.7350
 3479TIP3   OH210442   5.890   3.169   2.477  1.0721 -0.0528  0.2443
 3479TIP3    H110443   5.950   3.134   2.543 -0.4845 -2.2132  0.6444
 3479TIP3    H210444   5.940   3.166   2.395  1.3153 -2.7273  0.3922
 3480TIP3   OH210445   1.318   0.987   1.426 -0.2139 -0.3530  0.0191
 3480TIP3    H110446   1.338   1.043   1.501  1.4213 -0.7196 -0.0925
 3480TIP3    H210447   1.235   1.020   1.392 -0.0357  1.0257  0.8514
 3481TIP3   OH210448   1.151   2.229   1.071  0.0037  0.6489 -0.0038
 3481TIP3    H110449   1.161   2.301   1.008  0.8502  0.1200 -0.4929
 3481TIP3    H210450   1.219   2.166   1.047 -1.1070 -0.6103  0.0316
 3482TIP3   OH210451   0.046   3.170   2.053 -0.1795  0.1490  0.2078
 3482TIP3    H110452  -0.027   3.184   1.993 -0.7116 -0.7328  0.6443
 3482TIP3    H210453   0.108   3.115   2.003  0.4828  1.3739 -0.3748
 3483TIP3   OH210454   6.287   2.451   4.827  0.2735  0.3135 -0.1785
 3483TIP3    H110455   6.338   2.412   4.897 -0.9388 -2.2171 -0.5865
 3483TIP3    H210456   6.334   2.428   4.747 -0.6404 -0.6367 -0.4519
 3484TIP3   OH210457   1.084   2.715   2.786 -0.3334 -0.2177  0.4883
 3484TIP3    H110458   1.028   2.688   2.859 -1.0167  1.0991  0.4863
 3484TIP3    H210459   1.065   2.652   2.717  1.7940 -2.7237  2.0139
 3485TIP3   OH210460   1.263   3.217   2.049  0.1804  0.0308  0.3200
 3485TIP3    H110461   1.194   3.232   1.984 -0.3765 -0.1863  0.8530
 3485TIP3    H210462   1.332   3.172   2.000 -0.8527 -1.4959  0.1715
 3486TIP3   OH210463   5.664   2.471   1.311  0.6236  0.2085  0.2766
 3486TIP3    H110464   5.605   2.427   1.250  0.2433 -1.0076  1.4734
 3486TIP3    H210465   5.664   2.562   1.283 -0.8214 -0.0130 -0.5437
 3487TIP3   OH210466   0.806   4.730   3.050  0.6069  0.2638  0.5480
 3487TIP3    H110467   0.734   4.688   3.097  0.5790  0.5131  0.7327
 3487TIP3    H210468   0.797   4.699   2.960  0.4993 -0.0073  0.6521
 3488TIP3   OH210469   3.333   0.807   2.144  0.6184  0.5800  0.1307
 3488TIP3    H110470   3.377   0.877   2.096  1.1657 -1.4879 -2.6537
 3488TIP3    H210471   3.245   0.804   2.106  1.0326 -1.0480 -0.7798
 3489TIP3   OH210472   0.013   1.738   2.256 -0.0364 -0.4598 -0.4449
 3489TIP3    H110473   0.106   1.739   2.280  0.2410 -0.3735 -1.4438
 3489TIP3    H210474  -0.016   1.828   2.270 -0.3121 -0.7610  1.0613
 3490TIP3   OH210475   0.561   1.567   2.536  0.1472 -0.3065 -0.0747
 3490TIP3    H110476   0.592   1.611   2.457  0.7525 -0.6471 -0.0334
 3490TIP3    H210477   0.492   1.508   2.506  0.8841 -0.9801 -0.4610
 3491TIP3   OH210478   3.807   3.107   1.946 -0.3152  0.1287 -0.1035
 3491TIP3    H110479   3.891   3.062   1.931  0.2976  1.5093 -1.0373
 3491TIP3    H210480   3.799   3.112   2.041 -0.3577 -1.8293  0.0356
 3492TIP3   OH210481   0.731   2.281   1.406 -0.1830  1.0365  0.0283
 3492TIP3    H110482   0.709   2.188   1.403 -1.6729  1.3934 -1.5788
 3492TIP3    H210483   0.659   2.324   1.360  0.2917  3.0309  1.0609
 3493TIP3   OH210484   1.020   0.507   0.776  0.3970 -0.3981 -0.0569
 3493TIP3    H110485   1.025   0.489   0.682  1.5330 -1.0115  0.1059
 3493TIP3    H210486   1.080   0.444   0.816 -0.0506 -0.1245  1.0835
 3494TIP3   OH210487   2.538   2.685   1.441  0.3815  0.4889 -0.0869
 3494TIP3    H110488   2.556   2.601   1.484 -0.3543  1.1409  1.5583
 3494TIP3    H210489   2.616   2.738   1.457 -0.2915  1.0797  1.3868
 3495TIP3   OH210490   4.201   3.870   1.178  0.2261 -0.3963 -0.1798
 3495TIP3    H110491   4.220   3.962   1.162 -3.2785  0.8854  1.9283
 3495TIP3    H210492   4.260   3.845   1.249  1.0107  0.2925 -0.5799
 3496TIP3   OH210493   6.046   2.929   5.163  0.2062 -0.2113  0.2546
 3496TIP3    H110494   5.975   2.957   5.106  0.8323  1.3735  0.2219
 3496TIP3    H210495   6.071   2.843   5.130  0.0046  0.3170 -1.3439
 3497TIP3   OH210496   0.803   3.501   3.679 -0.6361 -0.1080 -0.1744
 3497TIP3    H110497   0.894   3.485   3.706 -0.8151 -0.4224  0.2629
 3497TIP3    H210498   0.808   3.516   3.585 -0.1013  0.1027 -0.1165
 3498TIP3   OH210499   0.833   2.762   0.735 -0.1050 -0.2476  0.1836
 3498TIP3    H110500   0.818   2.801   0.821  0.1258  1.4848 -0.5335
 3498TIP3    H210501   0.907   2.703   0.748 -1.1395 -1.3074  1.5240
 3499TIP3   OH210502   1.759   3.581   3.616  1.1046  1.0824 -0.3183
 3499TIP3    H110503   1.803   3.520   3.557 -0.2769 -1.3087  0.9444
 3499TIP3    H210504   1.667   3.576   3.591  0.4131 -0.2654  2.1175
 3500TIP3   OH210505   5.020   5.690   1.815 -0.6105 -0.5413 -0.3167
 3500TIP3    H110506   4.987   5.604   1.787  0.2970 -1.1713  0.4762
 3500TIP3    H210507   4.994   5.695   1.908 -1.1732  0.3083 -0.5121
 3501TIP3   OH210508   4.206   1.701   4.116  0.3753  0.0113 -0.3650
 3501TIP3    H110509   4.227   1.686   4.023  1.2474  0.2110 -0.2123
 3501TIP3    H210510   4.285   1.742   4.151 -0.4870  1.2986  0.1274
 3502TIP3   OH210511   3.101   0.987   0.338 -0.4339 -0.3991  0.1311
 3502TIP3    H110512   3.173   0.925   0.338 -0.4253 -0.4331 -1.1177
 3502TIP3    H210513   3.120   1.045   0.263 -0.7752  0.6982  0.8665
 3503TIP3   OH210514   2.974   0.320   0.748  0.1486  0.6002  0.2517
 3503TIP3    H110515   2.923   0.243   0.772  0.2938  0.6717  0.8183
 3503TIP3    H210516   3.013   0.349   0.831  2.2023 -0.2442 -0.3553
 3504TIP3   OH210517   5.519   3.724   4.820  0.1942 -0.2361 -0.3921
 3504TIP3    H110518   5.477   3.806   4.844  0.5352 -0.3441  0.5856
 3504TIP3    H210519   5.606   3.728   4.858  0.5313 -0.6868 -1.0810
 3505TIP3   OH210520   3.050   1.491   2.854 -0.0347  0.3029 -0.2950
 3505TIP3    H110521   3.090   1.446   2.780  1.2082  0.8535  0.0063
 3505TIP3    H210522   3.085   1.446   2.931  0.5056  1.1803 -0.0091
 3506TIP3   OH210523   3.030   5.894   5.034  0.3587 -0.4086  0.1636
 3506TIP3    H110524   2.957   5.851   5.079  0.3677 -0.1039  0.4809
 3506TIP3    H210525   3.001   5.902   4.943 -0.8313  1.4157  0.6416
 3507TIP3   OH210526   5.393   5.070   4.345 -0.2787 -0.5160  0.4105
 3507TIP3    H110527   5.398   5.027   4.259  2.2830  1.9349 -0.8194
 3507TIP3    H210528   5.359   5.157   4.326  1.3925  0.4635  1.6712
 3508TIP3   OH210529   0.838   3.836   4.455  0.0017  0.1306  0.1799
 3508TIP3    H110530   0.845   3.913   4.397 -1.2632 -0.2608 -0.5284
 3508TIP3    H210531   0.909   3.848   4.519  1.2680  0.7346 -1.2576
 3509TIP3   OH210532   2.279   0.663   4.787  0.7772 -0.3656  0.1397
 3509TIP3    H110533   2.307   0.728   4.851  1.3912  0.1383 -0.6150
 3509TIP3    H210534   2.215   0.609   4.833  0.4565  0.6081  0.8626
 3510TIP3   OH210535   2.239   4.293   2.733 -0.2055 -0.8698 -0.4038
 3510TIP3    H110536   2.183   4.341   2.672  0.8907  1.2189  0.1526
 3510TIP3    H210537   2.188   4.289   2.814 -0.8410 -1.8906 -0.8277
 3511TIP3   OH210538   0.686   5.421   2.828 -0.2046  0.2454 -0.0780
 3511TIP3    H110539   0.601   5.445   2.864 -0.5950 -0.7805 -0.2916
 3511TIP3    H210540   0.693   5.473   2.747 -0.9688 -0.2353 -0.4618
 3512TIP3   OH210541   2.064   2.869   0.042  0.0070 -0.5161 -0.0995
 3512TIP3    H110542   1.976   2.866   0.004  0.3169  1.2948 -1.0581
 3512TIP3    H210543   2.123   2.866  -0.034  0.7328 -0.1666  0.4403
 3513TIP3   OH210544   1.052   4.844   0.572  0.2415 -0.0235 -0.9032
 3513TIP3    H110545   1.008   4.896   0.505  0.0166  2.4382  1.0428
 3513TIP3    H210546   1.146   4.858   0.555  0.2085 -0.2227 -1.2737
 3514TIP3   OH210547   0.022   4.524   3.611  0.3327  0.2966  0.3214
 3514TIP3    H110548  -0.017   4.553   3.529  0.8245  1.4627  0.4659
 3514TIP3    H210549   0.027   4.604   3.664 -0.2579 -0.4884  1.6071
 3515TIP3   OH210550   1.098   0.453   1.842 -0.4219 -0.0943 -0.5324
 3515TIP3    H110551   1.065   0.382   1.897  0.5692 -1.0631 -1.1604
 3515TIP3    H210552   1.117   0.524   1.904  1.5035 -1.4600  0.5481
 3516TIP3   OH210553   3.186   4.655   3.575 -0.6947  0.0893  0.1761
 3516TIP3    H110554   3.205   4.612   3.491 -1.1733 -1.5050  0.8356
 3516TIP3    H210555   3.130   4.729   3.551  1.0992  1.1105 -1.1247
 3517TIP3   OH210556   3.756   3.727   2.158 -0.1313 -0.8289  0.0146
 3517TIP3    H110557   3.687   3.713   2.222 -0.2081 -0.5506 -0.0031
 3517TIP3    H210558   3.832   3.753   2.210 -0.3846  0.0731 -0.0513
 3518TIP3   OH210559   1.863   2.866   2.296 -0.6963 -0.4340  0.2896
 3518TIP3    H110560   1.817   2.946   2.270 -0.1838 -0.4217 -0.5949
 3518TIP3    H210561   1.810   2.830   2.367 -1.1091  0.5173  0.4777
 3519TIP3   OH210562   0.823   4.643   1.603  0.1710  0.5054  0.1233
 3519TIP3    H110563   0.860   4.683   1.681 -1.7060 -0.0399  1.3527
 3519TIP3    H210564   0.734   4.677   1.598  0.6730  1.7009 -2.6734
 3520TIP3   OH210565   2.419   3.656   1.626  0.5421 -0.7582 -0.2859
 3520TIP3    H110566   2.345   3.634   1.684 -0.2704 -0.2387 -1.0942
 3520TIP3    H210567   2.434   3.749   1.643  1.1863 -0.9195  0.0525
 3521TIP3   OH210568   0.720   1.082   4.828 -0.0052  0.2984  0.4013
 3521TIP3    H110569   0.685   1.112   4.744  0.1987  2.6626  1.1024
 3521TIP3    H210570   0.814   1.099   4.822 -0.0287  0.7650  1.2119
 3522TIP3   OH210571   4.019   5.879   1.261  0.2796  0.3937  0.1509
 3522TIP3    H110572   3.982   5.800   1.221 -1.0031  0.4937  1.0800
 3522TIP3    H210573   4.100   5.849   1.303  0.0255 -0.3493  0.1333
 3523TIP3   OH210574   5.112   0.103   0.826 -0.0741  0.2297  0.1642
 3523TIP3    H110575   5.040   0.137   0.774 -1.2704 -0.6558  1.1984
 3523TIP3    H210576   5.161   0.181   0.853 -0.7320  0.8474 -0.4031
 3524TIP3   OH210577   1.244   5.487   1.576 -0.2820  0.0532 -0.0231
 3524TIP3    H110578   1.260   5.413   1.518 -0.4517  1.0423 -1.3933
 3524TIP3    H210579   1.309   5.553   1.548  0.6383  0.0354  1.9157
 3525TIP3   OH210580   3.794   5.520   2.290 -0.3198 -0.3650  0.5047
 3525TIP3    H110581   3.791   5.441   2.237  2.1125 -0.5247  0.5019
 3525TIP3    H210582   3.875   5.512   2.341 -0.7786  1.4406  1.6143
 3526TIP3   OH210583   4.751   5.153   1.511  0.0966 -0.4552 -0.3217
 3526TIP3    H110584   4.791   5.220   1.456  2.5071 -2.7908 -1.6332
 3526TIP3    H210585   4.733   5.198   1.594  1.0995  1.9287 -1.3022
 3527TIP3   OH210586   2.398   3.909   3.420  0.0354  0.3574 -0.9744
 3527TIP3    H110587   2.490   3.882   3.418  0.9855  3.1754 -0.4586
 3527TIP3    H210588   2.383   3.934   3.511 -0.7826  1.2117 -1.3257
 3528TIP3   OH210589   1.973   5.492   2.217 -0.4367 -0.6403  0.4654
 3528TIP3    H110590   1.881   5.513   2.198 -0.1933  1.0743  0.9733
 3528TIP3    H210591   2.021   5.523   2.140 -0.3311 -2.4181 -0.2345
 3529TIP3   OH210592   2.204   3.569   3.697 -0.2318 -0.2461 -0.0049
 3529TIP3    H110593   2.200   3.548   3.603 -0.2553  0.1072 -0.0849
 3529TIP3    H210594   2.160   3.654   3.704 -0.6140 -0.4749  0.3909
 3530TIP3   OH210595   2.693   1.609   2.158 -0.0178  0.0591 -0.8570
 3530TIP3    H110596   2.653   1.571   2.237 -1.5046 -2.1016 -2.5181
 3530TIP3    H210597   2.643   1.689   2.142 -1.0950 -0.5543 -0.6926
 3531TIP3   OH210598   1.548   2.659   1.171 -0.4958  0.0410 -0.6080
 3531TIP3    H110599   1.514   2.736   1.217 -0.0219  0.3400 -0.7569
 3531TIP3    H210600   1.509   2.585   1.218 -0.8230  0.3655 -0.3583
 3532TIP3   OH210601   1.556   3.507   3.034 -0.2243  0.3175 -0.7987
 3532TIP3    H110602   1.484   3.483   2.976 -1.8906 -2.3686  2.0841
 3532TIP3    H210603   1.514   3.527   3.117  2.2492 -0.0115  0.6238
 3533TIP3   OH210604   3.917   1.106   0.477  0.1170  0.2354 -0.3948
 3533TIP3    H110605   3.952   1.165   0.410 -1.1036  0.1306 -1.1372
 3533TIP3    H210606   3.846   1.060   0.434 -0.0721 -0.5292  0.7036
 3534TIP3   OH210607   1.250   4.256   2.688 -0.0938 -0.1963 -0.4838
 3534TIP3    H110608   1.267   4.348   2.707  0.4559 -0.2115 -0.8772
 3534TIP3    H210609   1.228   4.218   2.773 -1.6666  0.5673 -0.5174
 3535TIP3   OH210610   0.996   1.617   2.546  0.0369 -0.0857  0.0673
 3535TIP3    H110611   1.091   1.623   2.533  0.4660 -0.7783  2.4733
 3535TIP3    H210612   0.981   1.527   2.572 -1.1776  0.2060  0.4389
 3536TIP3   OH210613   1.260   5.976   0.034 -0.1278 -0.4859 -0.2125
 3536TIP3    H110614   1.319   5.902   0.024  0.0948 -0.2929 -0.3488
 3536TIP3    H210615   1.191   5.961  -0.031 -0.2820 -0.7588  0.0097
 3537TIP3   OH210616   2.335   2.202   0.840 -0.3321 -0.2446  0.1363
 3537TIP3    H110617   2.262   2.143   0.858 -0.7253 -0.0458 -0.7391
 3537TIP3    H210618   2.407   2.144   0.814 -0.2946 -0.4177  0.6218
 3538TIP3   OH210619   3.781   4.083   0.238  0.2984  0.2104 -0.5385
 3538TIP3    H110620   3.842   4.016   0.267  0.6747  0.4170 -0.8423
 3538TIP3    H210621   3.716   4.089   0.309 -0.3355 -1.1951 -0.9655
 3539TIP3   OH210622   2.894   4.678   4.970  0.3846  0.1225  0.0256
 3539TIP3    H110623   2.839   4.675   4.892  1.1096  0.4096 -0.5152
 3539TIP3    H210624   2.834   4.697   5.041 -0.3106 -0.2721 -0.4447
 3540TIP3   OH210625   3.837   0.127   2.174  0.6683  0.2479 -0.2521
 3540TIP3    H110626   3.803   0.041   2.197  0.5268  0.7514  1.5163
 3540TIP3    H210627   3.762   0.172   2.134 -1.0015  1.3498  3.6213
 3541TIP3   OH210628   4.737   4.189   2.403 -0.3385  0.3830  0.0612
 3541TIP3    H110629   4.652   4.145   2.416 -0.8527  1.3210 -0.0592
 3541TIP3    H210630   4.728   4.232   2.318 -0.3781  1.8973  0.8054
 3542TIP3   OH210631   0.930   3.448   1.208  0.0379  0.1273  0.3609
 3542TIP3    H110632   0.920   3.432   1.114  0.0665 -1.4545  0.5952
 3542TIP3    H210633   1.019   3.420   1.228  0.1192  0.7030  0.8229
 3543TIP3   OH210634   2.558   3.082   4.839  0.7429 -0.4203  0.3258
 3543TIP3    H110635   2.625   3.016   4.821  0.6794 -0.0552 -1.4534
 3543TIP3    H210636   2.584   3.158   4.788 -1.5970 -0.6567 -1.3985
 3544TIP3   OH210637   3.348   0.277   4.894  0.0128 -0.1398  0.0457
 3544TIP3    H110638   3.398   0.283   4.812  1.0206  2.7009  0.7479
 3544TIP3    H210639   3.258   0.266   4.866  0.4213  0.0357 -1.4376
 3545TIP3   OH210640   5.912   2.551   2.043  0.0408 -0.1828 -1.0338
 3545TIP3    H110641   6.004   2.533   2.024  0.5561 -1.2061  1.9080
 3545TIP3    H210642   5.912   2.640   2.080  0.1109 -0.7175  0.2995
 3546TIP3   OH210643   0.386   0.503   1.448 -0.4631 -0.5354 -0.4551
 3546TIP3    H110644   0.378   0.552   1.367  0.3241 -1.3130 -1.0228
 3546TIP3    H210645   0.341   0.557   1.513  1.0678  1.3277 -0.8653
 3547TIP3   OH210646   2.198   0.534   2.840  0.0909  0.5763  0.3750
 3547TIP3    H110647   2.182   0.466   2.906  0.5260  0.5534  0.4613
 3547TIP3    H210648   2.148   0.610   2.871  0.2198  0.5367  0.6908
 3548TIP3   OH210649   5.846   1.132   5.190 -0.4849  0.0785  0.3581
 3548TIP3    H110650   5.844   1.226   5.174 -2.4002 -0.2544 -2.0900
 3548TIP3    H210651   5.932   1.103   5.159  0.4074  1.0607  1.8169
 3549TIP3   OH210652   2.596   1.978   4.699  0.6398 -0.8229  0.4720
 3549TIP3    H110653   2.650   1.925   4.639  0.0340 -1.8622  0.8074
 3549TIP3    H210654   2.515   1.993   4.650  0.4471 -1.0091  0.7344
 3550TIP3   OH210655   5.645   3.512   1.072 -0.0930 -0.2661  0.1252
 3550TIP3    H110656   5.645   3.421   1.103  1.5807 -0.0293  0.9006
 3550TIP3    H210657   5.573   3.515   1.009 -1.6606 -1.5477  1.7528
 3551TIP3   OH210658   5.312   1.441   4.253 -0.6362  0.3168 -0.4459
 3551TIP3    H110659   5.257   1.517   4.231  0.3035  0.6468 -1.8011
 3551TIP3    H210660   5.250   1.368   4.258 -1.4631  1.0303  0.1633
 3552TIP3   OH210661   2.315   5.470   1.761 -0.4818  0.3480  0.0811
 3552TIP3    H110662   2.405   5.497   1.744 -0.9387  1.6648 -0.3673
 3552TIP3    H210663   2.262   5.526   1.706 -1.6113 -0.1533  0.6177
 3553TIP3   OH210664   4.070   5.957   0.059 -0.2836  0.5504 -0.0554
 3553TIP3    H110665   4.004   5.965   0.129  0.5914  1.4362  0.6871
 3553TIP3    H210666   4.093   5.864   0.061 -0.5175  0.4928  0.6098
 3554TIP3   OH210667   1.027   0.862   4.991  0.6864  0.0901 -0.0589
 3554TIP3    H110668   1.082   0.831   5.063 -0.4144  1.0363  1.2342
 3554TIP3    H210669   0.942   0.821   5.006  0.6354 -0.2753 -1.2555
 3555TIP3   OH210670   2.945   1.978   4.933 -0.4758 -0.3969  0.3371
 3555TIP3    H110671   2.984   1.909   4.880 -1.4629 -2.5941  2.2956
 3555TIP3    H210672   2.856   1.948   4.949 -2.0042  2.8313 -1.1829
 3556TIP3   OH210673   5.858   1.678   3.660 -0.3541  0.3634  0.2836
 3556TIP3    H110674   5.886   1.619   3.590 -0.2181  0.3227  0.3719
 3556TIP3    H210675   5.933   1.682   3.719  0.3167  1.9639 -0.5968
 3557TIP3   OH210676   1.268   3.359   4.739  0.1773 -0.7075  0.6643
 3557TIP3    H110677   1.228   3.422   4.680  1.3775 -1.6368 -1.2329
 3557TIP3    H210678   1.332   3.410   4.789 -1.9159  0.4027  2.4156
 3558TIP3   OH210679   5.259   0.036   4.759  0.0929 -0.3564 -0.0346
 3558TIP3    H110680   5.314   0.047   4.837 -0.2851  1.1990  0.0561
 3558TIP3    H210681   5.192   0.105   4.767 -0.5921 -0.8448 -1.2078
 3559TIP3   OH210682   3.690   5.784   3.167 -0.5810 -0.2377 -0.4046
 3559TIP3    H110683   3.686   5.700   3.121  2.4454 -0.1800 -0.9878
 3559TIP3    H210684   3.700   5.849   3.097 -0.9896  0.4078  0.1279
 3560TIP3   OH210685   6.059   2.781   4.123 -0.4462  0.3863 -1.0396
 3560TIP3    H110686   5.994   2.711   4.118 -0.4400  0.1002  1.3039
 3560TIP3    H210687   6.135   2.746   4.076 -1.4692  0.1223 -2.5468
 3561TIP3   OH210688   2.217   0.633   3.130  0.3063  0.0426  0.0946
 3561TIP3    H110689   2.147   0.575   3.160  2.1927 -3.7079 -1.9820
 3561TIP3    H210690   2.174   0.695   3.072 -1.6415 -0.1485  1.2423
 3562TIP3   OH210691   3.576   3.244   4.219  0.6151 -0.9257 -0.2594
 3562TIP3    H110692   3.483   3.223   4.215  0.4336 -0.3231  0.5909
 3562TIP3    H210693   3.598   3.239   4.312  0.6748  2.0067 -0.0142
 3563TIP3   OH210694   2.309   5.317   4.984  0.1173 -0.1868 -0.0231
 3563TIP3    H110695   2.261   5.234   4.985  0.0989 -0.2250 -1.4806
 3563TIP3    H210696   2.392   5.296   4.942  0.3128  0.4343  0.0426
 3564TIP3   OH210697   5.121   5.259   4.711 -0.7725 -0.0698  0.7886
 3564TIP3    H110698   5.156   5.341   4.676 -0.4113 -0.4152  0.3270
 3564TIP3    H210699   5.027   5.275   4.717 -0.6559  0.5264  1.1125
 3565TIP3   OH210700   3.902   4.978   3.486 -0.7157 -0.0149  0.2339
 3565TIP3    H110701   3.829   4.984   3.425 -0.3829  1.1413 -0.0800
 3565TIP3    H210702   3.980   4.980   3.431 -0.4317 -0.7431  0.5950
 3566TIP3   OH210703   4.924   4.489   4.629  0.1941 -0.1000 -0.5499
 3566TIP3    H110704   4.839   4.515   4.594  0.7016  2.1859 -0.2575
 3566TIP3    H210705   4.972   4.455   4.554 -0.8276 -1.0816 -0.7832
 3567TIP3   OH210706   2.375   4.159   1.704 -0.1286 -0.2520  0.6600
 3567TIP3    H110707   2.380   4.064   1.705 -1.5030 -0.3845 -0.6811
 3567TIP3    H210708   2.405   4.184   1.616  0.0873  0.5518  0.9475
 3568TIP3   OH210709   1.893   1.273   0.548 -0.0291 -0.2470 -0.2648
 3568TIP3    H110710   1.828   1.281   0.617 -1.1529 -0.6713 -1.2300
 3568TIP3    H210711   1.970   1.235   0.590 -1.0973 -1.6236  0.5160
 3569TIP3   OH210712   3.677   1.067   1.807 -0.6960 -0.2952 -0.1854
 3569TIP3    H110713   3.741   1.005   1.773 -1.4560 -1.6753  0.8177
 3569TIP3    H210714   3.625   1.092   1.730 -1.0085 -1.6795 -0.4472
 3570TIP3   OH210715   1.928   3.053   4.951  0.2803 -0.1697 -0.0140
 3570TIP3    H110716   1.948   2.960   4.939  0.5412  0.0433 -1.2933
 3570TIP3    H210717   1.911   3.061   5.045  0.3858 -1.4821  0.1397
 3571TIP3   OH210718   5.069   1.029   4.071 -0.2570  0.1949  0.0939
 3571TIP3    H110719   5.032   1.113   4.097 -0.8332 -0.5658  1.8698
 3571TIP3    H210720   5.135   1.010   4.137 -0.7185 -1.1232  0.2118
 3572TIP3   OH210721   1.941   5.514   1.149 -0.0252 -0.5294 -0.7483
 3572TIP3    H110722   1.980   5.527   1.235 -0.6107  1.3316 -0.7109
 3572TIP3    H210723   1.882   5.588   1.138  0.5399 -0.3258 -3.0322
 3573TIP3   OH210724   5.190   1.537   2.740  0.8286  0.2695 -0.3057
 3573TIP3    H110725   5.121   1.527   2.806 -1.2282  0.3064 -2.3338
 3573TIP3    H210726   5.250   1.464   2.756 -0.6232 -0.8081  0.4507
 3574TIP3   OH210727   0.195   4.428   4.771 -0.2252  0.1878  0.0876
 3574TIP3    H110728   0.124   4.479   4.810 -0.0598  0.9073 -0.5470
 3574TIP3    H210729   0.262   4.427   4.839  0.1561  1.6414 -0.2397
 3575TIP3   OH210730   3.212   2.903   0.100 -0.0370  0.5015 -0.1211
 3575TIP3    H110731   3.181   2.861   0.180  0.1956 -0.3027 -0.4386
 3575TIP3    H210732   3.253   2.832   0.051  1.3535  1.3174 -0.1868
 3576TIP3   OH210733   2.840   5.375   3.032 -0.1626  1.0782  1.1257
 3576TIP3    H110734   2.890   5.312   3.084 -0.7753  1.1209  1.7836
 3576TIP3    H210735   2.899   5.399   2.960 -0.2681 -0.9778  0.2754
 3577TIP3   OH210736   1.233   3.219   2.545 -0.3581 -0.1624 -0.4644
 3577TIP3    H110737   1.272   3.138   2.511  0.0754 -0.5129  0.8232
 3577TIP3    H210738   1.173   3.189   2.613 -0.3053  0.5917 -0.0824
 3578TIP3   OH210739   5.735   2.033   3.550  0.2486 -0.6210 -0.6822
 3578TIP3    H110740   5.645   2.065   3.557  0.4691 -0.0987 -0.1845
 3578TIP3    H210741   5.738   1.991   3.464 -0.1633  0.3245 -1.1768
 3579TIP3   OH210742   4.487   2.786   2.216 -0.0347  0.6883  0.4083
 3579TIP3    H110743   4.511   2.714   2.158  1.3395  1.8658 -0.5664
 3579TIP3    H210744   4.552   2.854   2.199 -0.9424  1.9651  1.6954
 3580TIP3   OH210745   5.667   4.251   2.482 -0.8793  0.0850  0.7078
 3580TIP3    H110746   5.659   4.156   2.472 -0.0272 -0.4745  4.0108
 3580TIP3    H210747   5.748   4.273   2.437 -1.4235 -0.5972 -0.6648
 3581TIP3   OH210748   2.621   0.752   2.424 -0.3612 -0.7915  0.3253
 3581TIP3    H110749   2.647   0.815   2.357 -0.0944 -0.6523  0.5566
 3581TIP3    H210750   2.526   0.751   2.422 -0.3567 -1.6290 -0.8500
 3582TIP3   OH210751   2.769   4.415   2.551 -0.2942 -0.3561 -0.1950
 3582TIP3    H110752   2.833   4.486   2.563  0.2199 -1.2160  3.6148
 3582TIP3    H210753   2.685   4.456   2.573 -0.3376 -0.3985 -0.2821
 3583TIP3   OH210754   5.928   5.362   3.844  0.5895 -0.3233 -0.6986
 3583TIP3    H110755   5.925   5.381   3.938  0.7522 -0.5455 -0.6492
 3583TIP3    H210756   5.985   5.286   3.836  0.4383 -0.4124 -0.9601
 3584TIP3   OH210757   3.024   1.103   2.916  0.2845 -0.6312  0.1084
 3584TIP3    H110758   3.013   1.008   2.927  2.6780 -0.9169  0.6311
 3584TIP3    H210759   3.052   1.114   2.825  0.1059 -0.4337  0.0761
 3585TIP3   OH210760   0.025   3.689   3.950  0.4110  0.8427 -0.7625
 3585TIP3    H110761   0.038   3.657   3.861  0.2904 -2.5533  0.2688
 3585TIP3    H210762   0.111   3.679   3.992  0.2455  1.4752 -0.2620
 3586TIP3   OH210763   0.717   3.315   0.617  0.3940  0.1019  0.5769
 3586TIP3    H110764   0.692   3.303   0.526 -1.1911  0.0665  0.9829
 3586TIP3    H210765   0.787   3.380   0.615  0.6420 -0.1805 -0.6762
 3587TIP3   OH210766   2.845   3.560   2.261 -0.3536  0.3315  0.2881
 3587TIP3    H110767   2.908   3.504   2.217 -0.6955  0.3169 -0.1906
 3587TIP3    H210768   2.898   3.619   2.315  0.1311  0.9763 -0.8538
 3588TIP3   OH210769   4.591   2.223   2.489  0.3215 -0.3794  0.2739
 3588TIP3    H110770   4.564   2.297   2.543  2.0371 -0.0373  0.7392
 3588TIP3    H210771   4.511   2.194   2.445 -0.2950  2.2579 -0.5538
 3589TIP3   OH210772   0.397   0.459   4.728 -0.1125  0.4782  0.9967
 3589TIP3    H110773   0.447   0.454   4.809  0.1234  1.4643  0.9197
 3589TIP3    H210774   0.314   0.501   4.753 -0.3393  0.1231  0.8595
 3590TIP3   OH210775   2.122   2.388   0.729  0.5007 -0.0026 -0.2031
 3590TIP3    H110776   2.063   2.345   0.791  1.3846  0.8861  1.3285
 3590TIP3    H210777   2.209   2.374   0.767  0.9152  1.9605 -0.3666
 3591TIP3   OH210778   5.096   5.749   3.837 -0.0746  0.2747 -0.1730
 3591TIP3    H110779   5.086   5.835   3.795  0.9034  0.2679 -0.4438
 3591TIP3    H210780   5.060   5.687   3.774  0.6985  0.3390 -0.6952
 3592TIP3   OH210781   2.231   4.328   3.236 -0.4711  0.1027  0.7602
 3592TIP3    H110782   2.214   4.392   3.167  1.2236  1.4108  1.4667
 3592TIP3    H210783   2.317   4.292   3.215  0.0082  0.4128  2.0861
 3593TIP3   OH210784   1.135   1.438   3.252 -0.3900 -0.4500 -0.0045
 3593TIP3    H110785   1.051   1.462   3.291  0.3045 -0.6715  1.7219
 3593TIP3    H210786   1.168   1.520   3.215 -1.5863 -0.4739 -1.1770
 3594TIP3   OH210787   1.112   2.928   0.072  0.2148  0.1267 -0.1354
 3594TIP3    H110788   1.025   2.920   0.034  0.7992 -0.6357 -1.3719
 3594TIP3    H210789   1.169   2.950  -0.003  0.9630  1.4999  0.7820
 3595TIP3   OH210790   5.602   3.620   3.237  0.0179 -0.1831  0.1963
 3595TIP3    H110791   5.626   3.686   3.172  0.4700 -0.9830 -0.4707
 3595TIP3    H210792   5.518   3.586   3.207  0.3948 -0.8020 -0.1786
 3596TIP3   OH210793   3.401   3.501   1.137  0.7449  0.0258  0.0434
 3596TIP3    H110794   3.344   3.550   1.078  0.0456 -0.3505  0.3925
 3596TIP3    H210795   3.408   3.414   1.097  0.3423 -0.2025  0.4621
 3597TIP3   OH210796   4.905   4.870   0.588 -0.0029  1.0418 -0.4772
 3597TIP3    H110797   4.836   4.880   0.523  0.8272  2.7489 -1.1569
 3597TIP3    H210798   4.859   4.864   0.671 -1.1024 -1.4201 -1.1717
 3598TIP3   OH210799   4.273   5.155   4.967  0.0502 -0.0460 -0.1214
 3598TIP3    H110800   4.294   5.240   4.929 -0.0121  0.1939  0.3702
 3598TIP3    H210801   4.347   5.100   4.945 -1.6370 -1.1131 -4.1038
 3599TIP3   OH210802   3.525   1.888   2.465 -0.0551 -0.3605  0.3146
 3599TIP3    H110803   3.612   1.852   2.448  1.7796  2.7818  2.1796
 3599TIP3    H210804   3.511   1.952   2.396 -0.7672 -0.6546  0.1836
 3600TIP3   OH210805   0.573   0.017   1.316 -0.4716 -0.4476  0.6490
 3600TIP3    H110806   0.645   0.074   1.289 -1.0572  0.0885  0.1714
 3600TIP3    H210807   0.615  -0.055   1.363  0.2850  0.3897  1.2765
 3601TIP3   OH210808   1.879   2.441   3.462  0.3244 -0.2088 -0.5545
 3601TIP3    H110809   1.952   2.503   3.460  2.1159 -2.2285 -1.9785
 3601TIP3    H210810   1.917   2.358   3.433 -2.6090 -1.3016 -1.6634
 3602TIP3   OH210811   2.101   0.294   0.633  0.2358  0.4191  0.7066
 3602TIP3    H110812   2.127   0.253   0.715 -2.0278 -1.2042  0.7116
 3602TIP3    H210813   2.006   0.303   0.640  0.2501  2.5454 -0.7655
 3603TIP3   OH210814   3.184   4.759   0.531  0.3750  0.3016  0.0762
 3603TIP3    H110815   3.225   4.797   0.609  1.3418 -0.7945  0.1214
 3603TIP3    H210816   3.102   4.722   0.563  0.7337 -0.0833  0.5698
 3604TIP3   OH210817   5.954   0.187   4.962 -0.1450 -0.5584  0.6947
 3604TIP3    H110818   5.912   0.263   4.922  1.4750  0.1638  0.3086
 3604TIP3    H210819   5.897   0.114   4.939 -1.3960  0.4318  0.5337
 3605TIP3   OH210820   1.687   3.909   3.174 -0.4896 -0.3114  0.0474
 3605TIP3    H110821   1.666   3.881   3.263 -1.2209 -0.0390 -0.0349
 3605TIP3    H210822   1.606   3.898   3.125 -0.9835  2.3452  0.1042
 3606TIP3   OH210823   3.390   1.841   2.203  0.1626 -0.5022 -0.3043
 3606TIP3    H110824   3.453   1.826   2.132 -0.9694 -2.1604 -1.0227
 3606TIP3    H210825   3.377   1.936   2.203  0.0906 -0.4559 -2.4454
 3607TIP3   OH210826   2.241   4.463   3.465 -0.4487 -0.2354 -0.1537
 3607TIP3    H110827   2.277   4.387   3.512 -0.6576  0.3491  0.9864
 3607TIP3    H210828   2.227   4.431   3.376  1.1038 -1.0280 -0.1515
 3608TIP3   OH210829   0.852   4.054   2.009 -0.6363  0.3876 -0.2717
 3608TIP3    H110830   0.807   4.107   2.075  1.1186  2.0448 -0.3340
 3608TIP3    H210831   0.801   4.068   1.928 -1.6386 -0.0838  0.2551
 3609TIP3   OH210832   5.943   3.914   3.749 -0.5553  0.5357 -0.0519
 3609TIP3    H110833   6.013   3.858   3.715 -0.4186  0.0936  0.9187
 3609TIP3    H210834   5.942   3.896   3.843 -1.6687  0.8844  0.0118
 3610TIP3   OH210835   0.253   4.114   0.812 -0.3854  0.1066  0.1704
 3610TIP3    H110836   0.240   4.139   0.720 -0.8147  0.1134  0.2320
 3610TIP3    H210837   0.207   4.182   0.861 -1.6068 -0.8189  0.3423
 3611TIP3   OH210838   0.225   5.126   3.888 -0.0651  0.1457  0.0687
 3611TIP3    H110839   0.283   5.108   3.814  0.2990 -0.0884  0.4073
 3611TIP3    H210840   0.276   5.101   3.965 -0.5329  0.1518  0.3838
 3612TIP3   OH210841   6.140   0.914   3.248  0.1613 -0.0654  0.4303
 3612TIP3    H110842   6.199   0.983   3.279  2.0903 -0.6798 -1.6293
 3612TIP3    H210843   6.155   0.841   3.309 -1.4278  1.0279  2.2391
 3613TIP3   OH210844   4.457   3.719   1.995 -0.4601  0.1733 -0.5708
 3613TIP3    H110845   4.527   3.672   1.949  0.2190  0.3588  0.2687
 3613TIP3    H210846   4.442   3.667   2.074 -1.2594  0.1517 -0.7309
 3614TIP3   OH210847   3.048   2.398   3.074 -0.0969 -0.2192 -0.1571
 3614TIP3    H110848   3.052   2.352   3.158  1.5290 -0.8936 -0.5621
 3614TIP3    H210849   3.000   2.478   3.093 -1.5850 -1.3089  0.9315
 3615TIP3   OH210850   1.007   5.250   3.951 -0.1924 -0.3194 -0.5213
 3615TIP3    H110851   1.077   5.302   3.910  0.3904 -1.1468 -0.5866
 3615TIP3    H210852   0.943   5.315   3.980  0.0668  0.3817 -1.4620
 3616TIP3   OH210853   3.271   3.673   3.153  0.0624  0.3514  0.2620
 3616TIP3    H110854   3.184   3.688   3.116 -0.3238 -1.1676  0.4820
 3616TIP3    H210855   3.258   3.677   3.248 -0.4520 -2.7265  0.4485
 3617TIP3   OH210856   0.313   3.967   2.623  0.1884 -0.1036  0.2450
 3617TIP3    H110857   0.333   4.040   2.681 -0.1451  0.0546  0.1604
 3617TIP3    H210858   0.308   4.006   2.536 -0.2148 -0.1866  0.2288
 3618TIP3   OH210859   6.251   0.174   3.571  0.2123 -0.1585  0.7618
 3618TIP3    H110860   6.321   0.110   3.554  0.8118  0.8894 -1.0668
 3618TIP3    H210861   6.250   0.229   3.492 -3.3295 -0.6974  0.2622
 3619TIP3   OH210862   3.523   2.494   2.777 -0.0796  0.1873  0.1205
 3619TIP3    H110863   3.565   2.484   2.863  0.3388 -1.0152 -0.1988
 3619TIP3    H210864   3.590   2.466   2.714 -0.6967  0.1429 -0.5257
 3620TIP3   OH210865   0.279   4.388   0.445  0.0452  0.3419 -0.1899
 3620TIP3    H110866   0.210   4.331   0.481  0.0894  0.1637 -0.3875
 3620TIP3    H210867   0.255   4.476   0.474 -1.2016  0.5278 -1.6464
 3621TIP3   OH210868   6.302   1.222   3.081  0.4671  0.2952  0.3817
 3621TIP3    H110869   6.393   1.234   3.108  1.2154 -0.7647 -1.5304
 3621TIP3    H210870   6.300   1.250   2.990 -0.2079 -3.1456 -0.7919
 3622TIP3   OH210871   4.279   2.276   2.664 -0.2120  0.1197  0.0398
 3622TIP3    H110872   4.280   2.345   2.598  0.2374 -0.0356 -0.1225
 3622TIP3    H210873   4.273   2.322   2.748  2.5473  0.5321  0.1101
 3623TIP3   OH210874   0.545   1.589   5.029 -0.3237 -0.0451  0.2349
 3623TIP3    H110875   0.495   1.663   4.995 -0.4511  0.1202  0.7687
 3623TIP3    H210876   0.520   1.584   5.122 -3.1232 -2.9897 -0.4822
 3624TIP3   OH210877   1.807   0.336   1.239  0.3327  0.3075  0.7686
 3624TIP3    H110878   1.713   0.340   1.224  0.3590  0.7416  0.7165
 3624TIP3    H210879   1.817   0.291   1.323  0.0570  0.8031  1.0672
 3625TIP3   OH210880   2.757   5.065   3.691 -0.0098  0.0886  0.4255
 3625TIP3    H110881   2.798   5.078   3.776  0.0483  0.1764  0.3844
 3625TIP3    H210882   2.829   5.044   3.632  0.0092  0.5044  0.2986
 3626TIP3   OH210883   4.917   4.059   4.516 -0.3370  0.0424  0.1618
 3626TIP3    H110884   4.892   4.110   4.593 -0.3654  0.1153  0.1050
 3626TIP3    H210885   4.842   4.002   4.499 -0.4526  0.2385  0.0094
 3627TIP3   OH210886   3.359   3.470   1.437  0.2446 -0.1819 -0.4654
 3627TIP3    H110887   3.437   3.462   1.493  0.8719  0.8602 -1.1585
 3627TIP3    H210888   3.393   3.466   1.348 -0.5875 -0.4172 -0.7792
 3628TIP3   OH210889   4.723   1.266   1.127  0.4322 -0.7119 -0.3536
 3628TIP3    H110890   4.749   1.341   1.181 -0.2834  0.2084 -1.2355
 3628TIP3    H210891   4.704   1.197   1.190  0.2997  0.1180  0.5459
 3629TIP3   OH210892   1.486   5.872   4.064  0.5021 -0.2129 -0.3747
 3629TIP3    H110893   1.429   5.846   3.992 -1.1112 -0.7755  1.0480
 3629TIP3    H210894   1.539   5.795   4.083 -0.7059 -0.8775  0.4986
 3630TIP3   OH210895   2.105   2.672   4.631  0.0641  0.3229  0.3139
 3630TIP3    H110896   2.170   2.625   4.579  0.3621  0.3016  0.6981
 3630TIP3    H210897   2.021   2.635   4.605  0.0735  1.2153 -1.1204
 3631TIP3   OH210898   1.470   1.881   2.185 -0.7269  0.2529 -0.1696
 3631TIP3    H110899   1.501   1.849   2.100  1.2368  0.5280  0.3905
 3631TIP3    H210900   1.547   1.921   2.225 -1.7450  0.6233  1.5199
 3632TIP3   OH210901   2.085   3.267   1.289 -0.4650  0.0892  0.2925
 3632TIP3    H110902   2.030   3.207   1.341  0.0167  1.1552  2.1485
 3632TIP3    H210903   2.034   3.348   1.284 -0.1818  0.2352 -0.2509
 3633TIP3   OH210904   4.918   5.887   2.854 -0.4167 -0.5170  0.0981
 3633TIP3    H110905   4.997   5.915   2.899  0.5305 -1.0883 -1.1324
 3633TIP3    H210906   4.860   5.963   2.858 -0.0334 -0.2604  1.4684
 3634TIP3   OH210907   5.592   0.093   3.476  0.4238  0.2732 -0.7626
 3634TIP3    H110908   5.615   0.034   3.405 -1.7010 -1.1418 -0.3909
 3634TIP3    H210909   5.511   0.136   3.447 -0.0515  0.2571  0.4368
 3635TIP3   OH210910   2.994   2.167   2.576  0.2117 -0.0319  0.2579
 3635TIP3    H110911   2.903   2.172   2.549 -0.4401 -2.3582  1.7320
 3635TIP3    H210912   3.038   2.123   2.504  0.5281  2.2080 -1.0227
 3636TIP3   OH210913   6.008   3.731   5.052 -0.3602 -0.1880 -0.2776
 3636TIP3    H110914   6.061   3.652   5.043  0.4638  0.0954  1.4945
 3636TIP3    H210915   6.070   3.798   5.081 -1.4795  0.4386  0.7849
 3637TIP3   OH210916   4.346   3.018   4.781  0.1866  0.1906  0.0477
 3637TIP3    H110917   4.302   3.006   4.697  0.3676  0.4830 -0.0910
 3637TIP3    H210918   4.290   2.972   4.844 -0.5165  0.8678 -0.0665
 3638TIP3   OH210919   2.955   1.376   3.433 -0.2203 -0.2867  0.1805
 3638TIP3    H110920   3.010   1.320   3.487  1.1304  0.3294 -0.4998
 3638TIP3    H210921   3.014   1.445   3.401 -0.9346 -0.6339 -2.0920
 3639TIP3   OH210922   4.123   3.393   2.389 -0.6240 -0.0374  0.8940
 3639TIP3    H110923   4.132   3.320   2.450 -0.5943 -1.6633 -0.9559
 3639TIP3    H210924   4.105   3.351   2.304 -0.0691  2.0886 -0.3391
 3640TIP3   OH210925   6.060   5.102   3.845 -0.2552 -0.8005  0.6950
 3640TIP3    H110926   6.055   5.013   3.811 -0.5483  0.3808 -2.7204
 3640TIP3    H210927   6.153   5.124   3.841 -0.2967 -0.6362  0.6275
 3641TIP3   OH210928   4.510   2.536   1.318  0.2910  0.0876 -0.4855
 3641TIP3    H110929   4.515   2.508   1.410 -3.5501 -0.4950 -0.2848
 3641TIP3    H210930   4.476   2.625   1.322 -0.1872 -0.0439 -1.3168
 3642TIP3   OH210931   4.980   1.253   3.450  0.3687 -0.3943 -0.2941
 3642TIP3    H110932   5.023   1.334   3.476  1.5653 -1.1825  0.2888
 3642TIP3    H210933   5.045   1.185   3.466 -1.2224 -1.7144  1.0177
 3643TIP3   OH210934   5.970   5.606   3.680 -0.1746 -0.2648  0.2389
 3643TIP3    H110935   5.983   5.516   3.710 -1.5667 -0.6278 -0.1590
 3643TIP3    H210936   5.898   5.639   3.734  0.2448  0.5669  0.2937
 3644TIP3   OH210937   1.913   4.075   0.588 -0.2045 -0.2220  0.0405
 3644TIP3    H110938   1.945   3.985   0.591  0.8453  0.1295 -0.1641
 3644TIP3    H210939   1.949   4.116   0.666 -0.5712  0.0505  0.0657
 3645TIP3   OH210940   4.865   2.461   0.715 -0.2094  0.1822  0.3932
 3645TIP3    H110941   4.914   2.521   0.659 -1.7211  3.7128  2.4916
 3645TIP3    H210942   4.783   2.447   0.669  0.6347 -1.4651 -0.7005
 3646TIP3   OH210943   2.534   4.692   4.351 -0.2878  0.2486  0.3378
 3646TIP3    H110944   2.440   4.711   4.346 -0.4790 -0.8650 -1.1404
 3646TIP3    H210945   2.568   4.719   4.266  0.1447 -2.0928 -0.2927
 3647TIP3   OH210946   2.815   4.877   1.412 -0.1270  0.7322 -0.2754
 3647TIP3    H110947   2.767   4.801   1.378  1.1847  0.7593 -2.3539
 3647TIP3    H210948   2.790   4.881   1.504  1.4576 -3.6415  0.5968
 3648TIP3   OH210949   2.714   2.207   3.537 -0.0662 -0.1576  0.3143
 3648TIP3    H110950   2.765   2.136   3.498 -0.7339 -0.9269  0.8169
 3648TIP3    H210951   2.664   2.243   3.464 -2.0804 -2.2391  0.5594
 3649TIP3   OH210952   0.459   0.751   3.521  0.2919 -0.2510 -0.0196
 3649TIP3    H110953   0.478   0.807   3.446  0.8382 -0.5418 -0.1027
 3649TIP3    H210954   0.520   0.678   3.512 -0.4703 -0.9044  0.0393
 3650TIP3   OH210955   3.277   0.286   5.162  0.1247  0.5049  0.3115
 3650TIP3    H110956   3.250   0.304   5.072  1.9935  1.0296 -0.1815
 3650TIP3    H210957   3.272   0.371   5.206  1.0199  0.6311  0.1847
 3651TIP3   OH210958   0.973   4.201   2.633 -0.6337  0.3538  0.2266
 3651TIP3    H110959   1.039   4.250   2.682  1.0125 -0.7001 -0.8344
 3651TIP3    H210960   1.023   4.151   2.568 -2.1578 -2.8064  1.2789
 3652TIP3   OH210961   0.347   3.298   4.176  0.2237  0.1724  0.1312
 3652TIP3    H110962   0.396   3.332   4.251 -1.3219 -0.6046  1.5512
 3652TIP3    H210963   0.338   3.204   4.194 -2.1149  0.3574  0.1486
 3653TIP3   OH210964   3.370   4.202   2.898  0.2731 -0.1538 -0.3256
 3653TIP3    H110965   3.290   4.160   2.931  1.1852 -0.7686  1.2063
 3653TIP3    H210966   3.385   4.161   2.813  0.0530 -1.5058  0.2654
 3654TIP3   OH210967   5.459   3.524   1.447  0.7882  0.8555 -0.2332
 3654TIP3    H110968   5.409   3.551   1.524 -0.5057 -0.1690 -0.6637
 3654TIP3    H210969   5.538   3.484   1.482  1.1794  2.1799  0.4792
 3655TIP3   OH210970   5.402   0.730   0.984 -0.4181  0.0019 -0.6225
 3655TIP3    H110971   5.356   0.773   1.057  0.1352  0.0310 -0.2898
 3655TIP3    H210972   5.387   0.789   0.909 -2.1200 -0.6861 -0.8898
 3656TIP3   OH210973   0.305   3.975   3.917 -0.2051  0.2972  0.1927
 3656TIP3    H110974   0.394   3.967   3.885 -0.7682  0.9129 -1.6490
 3656TIP3    H210975   0.307   3.936   4.004  1.2287 -2.3547 -0.9230
 3657TIP3   OH210976   3.628   2.421   4.971  0.0739 -0.1305 -0.1125
 3657TIP3    H110977   3.542   2.394   4.938  0.3288  1.2108 -1.9973
 3657TIP3    H210978   3.613   2.438   5.064 -1.9637  1.0109 -0.5889
 3658TIP3   OH210979   5.616   4.449   3.108  0.1865  0.4848 -0.0649
 3658TIP3    H110980   5.549   4.389   3.141  2.0133 -1.2736  0.6408
 3658TIP3    H210981   5.599   4.531   3.155 -0.7526 -0.2632  0.9797
 3659TIP3   OH210982   5.929   0.380   2.872  0.0561 -0.0704 -0.0776
 3659TIP3    H110983   5.875   0.446   2.829  0.3520  0.1875 -0.0614
 3659TIP3    H210984   5.923   0.303   2.815  0.6193  0.3377 -0.7088
 3660TIP3   OH210985   0.437   3.735   0.523 -0.0524 -0.2227 -0.2400
 3660TIP3    H110986   0.473   3.676   0.457 -0.2710 -0.7292  0.0888
 3660TIP3    H210987   0.512   3.759   0.577 -0.2195 -1.4786  0.5987
 3661TIP3   OH210988   0.518   3.805   3.317  0.4233  0.1585 -0.0478
 3661TIP3    H110989   0.515   3.758   3.234  0.9790 -1.9986  1.0896
 3661TIP3    H210990   0.609   3.832   3.326  0.7320 -1.0487  0.5926
 3662TIP3   OH210991   3.813   3.568   3.696 -0.1223  0.2335  0.2868
 3662TIP3    H110992   3.729   3.526   3.714  0.1782 -0.3689  0.3224
 3662TIP3    H210993   3.877   3.498   3.707  0.2452  0.2806 -1.2966
 3663TIP3   OH210994   4.115   4.310   3.805  0.2891  0.1038 -0.0390
 3663TIP3    H110995   4.045   4.272   3.858 -0.1436  0.5065 -0.3120
 3663TIP3    H210996   4.072   4.337   3.724  0.9696 -0.6671 -0.6849
 3664TIP3   OH210997   0.350   1.048   4.980 -0.5540  0.0797 -0.0352
 3664TIP3    H110998   0.280   1.114   4.980 -0.5391  0.1059 -0.8360
 3664TIP3    H210999   0.415   1.083   5.040 -0.8532  0.4699  0.0664
 3665TIP3   OH211000   4.835   2.803   1.167 -0.1250  0.3324 -0.0959
 3665TIP3    H111001   4.755   2.802   1.220  0.3512  1.7074  0.7213
 3665TIP3    H211002   4.905   2.820   1.231  0.7776 -0.4639 -0.8482
 3666TIP3   OH211003   0.232   2.771   2.761 -0.0694 -0.0628  0.4430
 3666TIP3    H111004   0.143   2.785   2.795 -0.3982 -0.1910 -0.3414
 3666TIP3    H211005   0.244   2.840   2.696  0.0405 -0.6282 -0.1412
 3667TIP3   OH211006   2.333   5.283   3.263 -0.1564  0.2440 -0.2595
 3667TIP3    H111007   2.302   5.365   3.222  1.7905  1.0736 -0.1970
 3667TIP3    H211008   2.375   5.311   3.344 -0.7808 -1.0146  0.5245
 3668TIP3   OH211009   0.903   0.808   0.797 -0.0267  0.4656  0.4623
 3668TIP3    H111010   0.809   0.821   0.808 -0.1209  0.2161  0.0059
 3668TIP3    H211011   0.915   0.714   0.810  0.0540  0.3862 -0.1559
 3669TIP3   OH211012   2.868   1.611   1.136 -0.4444  0.4742 -0.0044
 3669TIP3    H111013   2.957   1.612   1.173 -0.3750  0.8560 -0.1802
 3669TIP3    H211014   2.811   1.623   1.211 -0.3951 -0.6295  0.2322
 3670TIP3   OH211015   6.127   0.747   3.973  0.0830  0.3395 -0.1966
 3670TIP3    H111016   6.137   0.768   4.066 -0.8889 -0.6973  0.1738
 3670TIP3    H211017   6.107   0.653   3.972  0.2242  0.3048 -1.4665
 3671TIP3   OH211018   5.896   1.823   1.291 -0.0814 -0.3493  0.3371
 3671TIP3    H111019   5.945   1.897   1.329  1.5392 -0.6360 -1.1173
 3671TIP3    H211020   5.822   1.812   1.351  0.1530  1.8185  1.1467
 3672TIP3   OH211021   3.544   4.238   4.071  0.5075 -0.0874  0.2185
 3672TIP3    H111022   3.506   4.321   4.099  1.7682  0.5990 -0.0268
 3672TIP3    H211023   3.513   4.174   4.135 -1.3696  0.3424 -0.2155
 3673TIP3   OH211024   1.460   4.724   1.816  0.2977  0.0125  0.3529
 3673TIP3    H111025   1.503   4.806   1.841  0.9930 -0.2637  0.0730
 3673TIP3    H211026   1.425   4.689   1.899  0.8911  0.0803  0.6357
 3674TIP3   OH211027   3.311   1.374   0.246  0.1715 -0.1059 -0.3652
 3674TIP3    H111028   3.338   1.352   0.157 -0.1970  0.4898 -0.6278
 3674TIP3    H211029   3.378   1.434   0.278  1.4278 -1.8839  0.5180
 3675TIP3   OH211030   3.468   1.958   3.327 -0.2478 -0.2488 -0.4833
 3675TIP3    H111031   3.474   2.032   3.387 -0.7739 -0.6951  0.1236
 3675TIP3    H211032   3.536   1.898   3.355 -0.3888 -0.3862 -0.4338
 3676TIP3   OH211033   5.254   4.026   3.995 -0.4730  0.5603 -0.0310
 3676TIP3    H111034   5.161   4.000   3.996 -0.4522  0.2947 -2.0036
 3676TIP3    H211035   5.298   3.957   3.946  0.5998  1.2343 -0.0513
 3677TIP3   OH211036   5.340   1.531   1.604 -0.3601  0.4279  0.0382
 3677TIP3    H111037   5.353   1.624   1.621 -1.1712  0.3252  1.3308
 3677TIP3    H211038   5.297   1.528   1.519 -1.7640  1.3524  0.6704
 3678TIP3   OH211039   2.936   3.191   1.137 -0.2070  0.0896  0.0232
 3678TIP3    H111040   3.023   3.198   1.177 -0.9040  0.1514  1.5797
 3678TIP3    H211041   2.920   3.277   1.098 -0.0015  0.4161  0.6529
 3679TIP3   OH211042   2.911   4.870   2.804  0.3500 -0.0853  0.4561
 3679TIP3    H111043   2.932   4.963   2.806 -1.3146  0.3544 -0.5046
 3679TIP3    H211044   2.947   4.835   2.886  0.5590  1.4931  1.0646
 3680TIP3   OH211045   6.217   5.088   0.272 -0.1690 -0.2757 -0.2410
 3680TIP3    H111046   6.157   5.072   0.344  0.2524 -0.4374  0.0805
 3680TIP3    H211047   6.276   5.012   0.272  0.0197 -0.1344 -0.5639
 3681TIP3   OH211048   4.817   1.615   3.109 -0.9314 -0.4510 -0.2849
 3681TIP3    H111049   4.774   1.693   3.075  0.0232 -0.9638 -2.9102
 3681TIP3    H211050   4.747   1.549   3.112 -1.2649 -0.1008 -0.2067
 3682TIP3   OH211051   0.532   1.508   4.433 -0.1504  0.2884  0.3382
 3682TIP3    H111052   0.466   1.441   4.412  1.2953 -1.0192 -0.2016
 3682TIP3    H211053   0.557   1.545   4.348  1.3545 -0.7772  0.2731
 3683TIP3   OH211054   1.470   2.651   3.393 -0.1366  0.1228  0.2784
 3683TIP3    H111055   1.561   2.670   3.372 -0.0083 -1.2481 -0.4890
 3683TIP3    H211056   1.468   2.556   3.408 -1.2178  0.3021  1.4479
 3684TIP3   OH211057   0.758   4.581   0.417  0.3447 -0.5849  0.1798
 3684TIP3    H111058   0.837   4.562   0.467  2.4949  0.0005 -2.7061
 3684TIP3    H211059   0.712   4.647   0.468  1.2279 -1.5375  2.3529
 3685TIP3   OH211060   4.737   3.540   0.134  0.4007 -0.0215  0.0676
 3685TIP3    H111061   4.803   3.497   0.080 -0.9863  1.5134 -3.1262
 3685TIP3    H211062   4.672   3.571   0.071 -1.5800  1.5975  2.7310
 3686TIP3   OH211063   6.201   0.260   0.832 -0.1913  0.4323 -0.0116
 3686TIP3    H111064   6.213   0.199   0.759 -0.1780  1.7329 -1.1385
 3686TIP3    H211065   6.106   0.268   0.841 -0.2686 -1.7078  1.8802
 3687TIP3   OH211066   3.232   5.821   3.523 -0.4548 -0.1653 -0.2319
 3687TIP3    H111067   3.201   5.788   3.608 -0.1043  0.5878  0.1947
 3687TIP3    H211068   3.214   5.915   3.525  1.1159  0.1649 -0.2892
 3688TIP3   OH211069   0.142   4.798   0.998  0.2733 -0.7078  0.0976
 3688TIP3    H111070   0.196   4.721   0.979 -0.2571 -0.8639 -0.8311
 3688TIP3    H211071   0.188   4.842   1.070  1.6657 -0.7990 -0.7036
 3689TIP3   OH211072   4.967   0.605   5.080 -0.0156  0.7160  0.0678
 3689TIP3    H111073   4.899   0.550   5.119 -0.1388  0.2209 -0.8154
 3689TIP3    H211074   5.048   0.576   5.122 -0.0271 -0.4050 -0.6314
 3690TIP3   OH211075   0.421   0.769   4.774 -0.0923  0.8384  0.3094
 3690TIP3    H111076   0.377   0.779   4.859 -1.6641  0.0990 -0.3737
 3690TIP3    H211077   0.422   0.674   4.758  0.9758  0.9032 -0.1260
 3691TIP3   OH211078   5.977   5.224   4.594 -0.5996  0.2444  0.3287
 3691TIP3    H111079   5.909   5.161   4.615 -1.5014  1.5289  1.4329
 3691TIP3    H211080   5.955   5.302   4.645  1.4907  0.8420  0.4154
 3692TIP3   OH211081   2.932   1.098   4.579  0.8491 -0.0501  0.0489
 3692TIP3    H111082   2.922   1.157   4.504 -0.2419  0.8520  0.8646
 3692TIP3    H211083   2.931   1.010   4.541 -2.4322  0.2178 -0.8460
 3693TIP3   OH211084   3.648   0.415   1.791 -0.0851  0.1997  0.6762
 3693TIP3    H111085   3.589   0.420   1.715 -0.7406 -0.2119  1.1492
 3693TIP3    H211086   3.716   0.354   1.763 -0.8118 -0.6560  0.7269
 3694TIP3   OH211087   4.520   0.091   0.621  0.5743 -0.6986  0.8065
 3694TIP3    H111088   4.503   0.185   0.607 -2.8538 -1.3499 -0.4168
 3694TIP3    H211089   4.544   0.058   0.535 -1.6187 -1.4309  0.3982
 3695TIP3   OH211090   6.149   5.568   0.715 -0.1896 -0.3119 -0.6617
 3695TIP3    H111091   6.222   5.622   0.686 -1.0587  0.2641 -1.8624
 3695TIP3    H211092   6.185   5.480   0.723  1.0405  0.2564  0.4758
 3696TIP3   OH211093   0.751   2.894   1.291 -0.6099 -0.6652 -0.3362
 3696TIP3    H111094   0.705   2.811   1.285 -2.6732 -0.0493  3.7065
 3696TIP3    H211095   0.683   2.960   1.280  0.5162  0.4580 -0.8182
 3697TIP3   OH211096   6.068   4.531   4.878  0.2138 -0.0341 -0.4836
 3697TIP3    H111097   6.097   4.616   4.845  0.0047  0.1222 -0.2662
 3697TIP3    H211098   6.118   4.467   4.827  1.4544  0.2348  0.3567
 3698TIP3   OH211099   4.982   3.081   0.227 -0.1043 -0.0409  0.1511
 3698TIP3    H111100   5.041   3.104   0.155 -0.4125  1.5659  0.3761
 3698TIP3    H211101   5.014   2.996   0.257 -0.2888 -1.0165 -2.1852
 3699TIP3   OH211102   0.320   2.726   1.469 -0.2417  0.5554  0.2016
 3699TIP3    H111103   0.333   2.794   1.403  0.5411 -0.8421 -1.1622
 3699TIP3    H211104   0.406   2.686   1.479 -0.9223 -1.0124  0.0727
 3700TIP3   OH211105   0.911   4.415   1.774  0.1129  0.0770  0.0880
 3700TIP3    H111106   0.962   4.353   1.722  0.0186 -0.9121  1.1541
 3700TIP3    H211107   0.895   4.489   1.714  0.3801 -0.8332 -1.1391
 3701TIP3   OH211108   2.205   3.767   2.232 -0.3922  0.1540 -0.2432
 3701TIP3    H111109   2.179   3.857   2.253 -1.2811 -0.0264 -0.5461
 3701TIP3    H211110   2.200   3.763   2.137 -0.3219 -0.2172 -0.2310
 3702TIP3   OH211111   2.454   3.861   2.169  0.1440 -0.3425 -0.1488
 3702TIP3    H111112   2.397   3.825   2.237  1.0951  0.6559  1.2577
 3702TIP3    H211113   2.498   3.785   2.131 -1.2326 -1.0152 -0.4449
 3703TIP3   OH211114   3.706   3.947   2.698 -0.0422 -0.1579 -0.4524
 3703TIP3    H111115   3.706   3.981   2.609 -2.0150 -0.2609 -0.5353
 3703TIP3    H211116   3.724   3.854   2.688 -0.9906 -0.3071 -0.8186
 3704TIP3   OH211117   1.200   1.739   4.856  0.1828  0.2504  0.1558
 3704TIP3    H111118   1.166   1.784   4.779  1.4624  1.8788  0.4678
 3704TIP3    H211119   1.153   1.656   4.859  0.0440  0.1655 -2.3260
 3705TIP3   OH211120   0.080   3.664   2.093  0.4302  0.3745  0.1120
 3705TIP3    H111121  -0.006   3.683   2.055  1.6021  0.1097 -2.9393
 3705TIP3    H211122   0.103   3.745   2.140 -1.6398  0.2391  1.5305
 3706TIP3   OH211123   4.212   2.530   0.406 -0.4353 -0.3498 -0.0581
 3706TIP3    H111124   4.169   2.616   0.416 -0.2356 -0.2644  0.0736
 3706TIP3    H211125   4.231   2.503   0.496 -0.3864 -0.4747 -0.1070
 3707TIP3   OH211126   5.530   2.340   5.040  0.0396 -0.8445 -0.3701
 3707TIP3    H111127   5.446   2.295   5.031 -0.2167 -0.2835 -0.8605
 3707TIP3    H211128   5.587   2.277   5.084 -1.0425 -0.7180  1.2627
 3708TIP3   OH211129   0.817   0.542   0.521  0.0350 -0.0178  0.2355
 3708TIP3    H111130   0.751   0.534   0.591  0.4674 -1.0495  0.5474
 3708TIP3    H211131   0.894   0.496   0.556  0.6708  0.5325 -0.4253
 3709TIP3   OH211132   0.897   1.984   0.058 -0.4548 -0.0865 -0.2127
 3709TIP3    H111133   0.854   2.010  -0.023 -0.3607 -1.3110 -0.6799
 3709TIP3    H211134   0.935   1.898   0.039 -0.8050 -0.6042  1.2519
 3710TIP3   OH211135   3.261   2.675   2.242  0.1349  0.5763 -0.3404
 3710TIP3    H111136   3.231   2.692   2.153 -1.8881  0.2337  0.2213
 3710TIP3    H211137   3.245   2.756   2.289 -0.5533  0.1988  0.1087
 3711TIP3   OH211138   3.984   3.177   3.764  0.3635 -0.0818 -0.1536
 3711TIP3    H111139   3.977   3.204   3.673  2.7631  0.2428 -0.3055
 3711TIP3    H211140   3.906   3.123   3.780 -0.3431  0.2625 -2.2281
 3712TIP3   OH211141   4.413   1.886   4.130 -0.4180 -0.1674 -0.5725
 3712TIP3    H111142   4.408   1.957   4.066  1.0973  0.4777 -0.0345
 3712TIP3    H211143   4.493   1.839   4.106 -0.1446 -0.2642  0.4733
 3713TIP3   OH211144   0.916   0.706   4.471  0.3888  0.1623  0.2379
 3713TIP3    H111145   0.834   0.751   4.450  1.2972  1.4980 -0.5419
 3713TIP3    H211146   0.926   0.718   4.566 -0.0434  0.4583  0.2498
 3714TIP3   OH211147   1.054   3.237   1.875  0.4223  0.4824  0.2276
 3714TIP3    H111148   1.035   3.311   1.817  1.2409  1.7968  1.5631
 3714TIP3    H211149   1.060   3.162   1.817 -0.7042  1.4070 -1.1536
 3715TIP3   OH211150   5.869   1.959   4.688 -0.0086 -0.1601 -0.0577
 3715TIP3    H111151   5.956   1.983   4.721  1.1701 -2.5382 -1.1803
 3715TIP3    H211152   5.821   1.931   4.766  0.7145 -0.1530  0.4045
 3716TIP3   OH211153   5.658   1.325   3.853 -0.0035  0.4166  0.1901
 3716TIP3    H111154   5.739   1.315   3.904 -0.1547  1.2882  0.6258
 3716TIP3    H211155   5.622   1.409   3.882 -1.2277 -0.0949  0.2117
 3717TIP3   OH211156   2.677   2.820   0.814 -0.2593  0.4281 -0.3063
 3717TIP3    H111157   2.631   2.764   0.752  2.0055 -2.3025  0.2930
 3717TIP3    H211158   2.635   2.802   0.899 -0.1930  0.4116 -0.2767
 3718TIP3   OH211159   4.361   0.271   1.099  0.2064 -0.4109  0.3044
 3718TIP3    H111160   4.429   0.206   1.119  1.2528 -0.1250 -2.0439
 3718TIP3    H211161   4.391   0.351   1.142 -0.0695 -0.9496  1.5427
 3719TIP3   OH211162   5.410   3.603   5.147  0.1387 -0.1025  0.7124
 3719TIP3    H111163   5.347   3.615   5.218  0.9736  0.6128  1.3472
 3719TIP3    H211164   5.478   3.547   5.184 -0.4920 -1.5388 -0.2198
 3720TIP3   OH211165   2.524  -0.024   1.412  0.4159  0.4254  0.1581
 3720TIP3    H111166   2.454   0.001   1.351  0.8983 -0.3754 -0.7584
 3720TIP3    H211167   2.596   0.036   1.391  1.0447 -0.6833 -1.0070
 3721TIP3   OH211168   5.230   3.345   5.100 -0.1378  0.2321  0.0145
 3721TIP3    H111169   5.239   3.303   5.185 -1.5551 -0.5769 -0.1994
 3721TIP3    H211170   5.320   3.360   5.071  0.4783 -2.5575  0.1814
 3722TIP3   OH211171   1.314   2.514   4.969 -0.1486  0.6481  0.0371
 3722TIP3    H111172   1.391   2.504   5.025  0.5065  1.2585 -0.7226
 3722TIP3    H211173   1.240   2.489   5.025  0.5004  1.0173  1.0928
 3723TIP3   OH211174   5.500   2.332   3.235  0.1613 -0.5480 -0.4470
 3723TIP3    H111175   5.522   2.374   3.152  0.2835  0.7886  0.2274
 3723TIP3    H211176   5.567   2.364   3.296  0.4379 -1.9861  0.0472
 3724TIP3   OH211177   3.818   0.019   4.834  0.1292 -0.1991 -0.6403
 3724TIP3    H111178   3.811   0.099   4.885  1.9761  0.6632 -1.6622
 3724TIP3    H211179   3.744  -0.034   4.863  1.6983 -0.3309  3.8245
 3725TIP3   OH211180   6.158   0.706   0.576  0.4872  0.1478 -0.9058
 3725TIP3    H111181   6.207   0.787   0.561  1.9846 -1.0757 -3.1260
 3725TIP3    H211182   6.085   0.711   0.515  0.2533  0.0843 -0.6305
 3726TIP3   OH211183   1.631   0.195   2.701 -0.0370  0.2824 -0.2130
 3726TIP3    H111184   1.565   0.134   2.671 -1.2428  0.5241  1.7929
 3726TIP3    H211185   1.691   0.142   2.754 -1.4310  0.8349  2.0513
 3727TIP3   OH211186   5.618   2.637   0.945  0.3726 -0.4994 -0.0633
 3727TIP3    H111187   5.574   2.721   0.955  2.8306  0.9093 -0.4374
 3727TIP3    H211188   5.559   2.574   0.987 -0.8699  1.5998  1.5206
 3728TIP3   OH211189   3.126   3.302   0.588 -0.5028  0.0455 -0.2328
 3728TIP3    H111190   3.077   3.268   0.513  1.5727  2.5524 -2.9920
 3728TIP3    H211191   3.176   3.227   0.620  0.0868 -0.7691 -2.7753
 3729TIP3   OH211192   3.425   3.153   0.073  0.4101  0.3757 -0.2803
 3729TIP3    H111193   3.428   3.136  -0.021 -0.5230  0.6230 -0.3655
 3729TIP3    H211194   3.420   3.066   0.113 -0.7198  0.3136 -0.5370
 3730TIP3   OH211195   4.605   3.253   1.317  0.2927 -0.6636  0.0518
 3730TIP3    H111196   4.602   3.278   1.225 -0.6198 -0.8124  0.0336
 3730TIP3    H211197   4.643   3.329   1.361  0.5043 -0.4972 -0.4071
 3731TIP3   OH211198   3.032   5.444   2.837 -0.1865 -0.0620  0.0829
 3731TIP3    H111199   3.120   5.481   2.847 -1.1465  2.4486 -0.1068
 3731TIP3    H211200   3.031   5.408   2.749  0.8876 -0.9160  0.3943
 3732TIP3   OH211201   1.374   0.427   3.256  0.0874  0.0872 -0.2954
 3732TIP3    H111202   1.440   0.362   3.232  0.5250  0.3893  0.0752
 3732TIP3    H211203   1.412   0.474   3.330  0.0747  1.2310 -0.9913
 3733TIP3   OH211204   0.649   4.059   4.912 -0.4758 -0.6466 -0.9032
 3733TIP3    H111205   0.585   4.045   4.981 -1.6049  1.5150 -1.4047
 3733TIP3    H211206   0.596   4.083   4.835  0.8856  0.7190 -1.4677
 3734TIP3   OH211207   2.887   5.940   4.338 -0.6272  0.8474 -0.0324
 3734TIP3    H111208   2.936   5.968   4.261 -0.7030  0.3439 -0.2705
 3734TIP3    H211209   2.834   5.866   4.307 -0.3025  0.3334  0.6087
 3735TIP3   OH211210   3.462   3.689   0.622 -0.2767  0.5615 -0.2792
 3735TIP3    H111211   3.384   3.717   0.574 -1.0095  0.2857  0.7033
 3735TIP3    H211212   3.451   3.728   0.709  0.4080  0.0666  0.0349
 3736TIP3   OH211213   0.279   4.126   3.481 -0.2667  0.1769  0.0624
 3736TIP3    H111214   0.197   4.099   3.441 -0.4855  2.7282 -1.4314
 3736TIP3    H211215   0.321   4.180   3.415  2.3969 -0.5909  0.9933
 3737TIP3   OH211216   2.404   1.371   4.883  0.6434  0.5222 -0.2511
 3737TIP3    H111217   2.468   1.325   4.937  0.0739 -0.9382 -0.7626
 3737TIP3    H211218   2.419   1.338   4.794 -1.0557 -0.1712 -0.3153
 3738TIP3   OH211219   0.654   2.571   0.998 -0.1492 -0.2332  0.5660
 3738TIP3    H111220   0.699   2.488   0.984  1.0114  0.6573 -1.3306
 3738TIP3    H211221   0.608   2.588   0.916 -0.0024  1.2006  0.7457
 3739TIP3   OH211222   0.471   5.872   4.350 -0.4412  0.2979 -0.3286
 3739TIP3    H111223   0.560   5.889   4.319 -0.0220  0.4144  0.8894
 3739TIP3    H211224   0.415   5.892   4.275  0.7013 -2.2208 -2.0125
 3740TIP3   OH211225   2.186   0.458   4.073 -0.6568 -0.1257  0.4121
 3740TIP3    H111226   2.182   0.422   3.985 -0.4603 -1.8176  1.0557
 3740TIP3    H211227   2.256   0.408   4.116 -1.2049  0.1915  1.7269
 3741TIP3   OH211228   2.096   5.813   1.410 -0.1283 -0.2429  0.0746
 3741TIP3    H111229   2.077   5.889   1.466 -1.0760  0.8675 -1.6652
 3741TIP3    H211230   2.028   5.749   1.433  0.9312 -0.8147  1.8596
 3742TIP3   OH211231   5.093   0.614   2.527 -0.1181 -0.2040  0.2353
 3742TIP3    H111232   5.032   0.647   2.462 -1.1946  0.1698  1.4020
 3742TIP3    H211233   5.038   0.582   2.599  1.0369  0.6014  1.5406
 3743TIP3   OH211234   1.890   5.168   3.179 -0.4501  0.1109 -0.3057
 3743TIP3    H111235   1.820   5.105   3.191 -0.7701  0.4533 -0.3755
 3743TIP3    H211236   1.963   5.117   3.143 -0.8444 -0.1310 -0.7555
 3744TIP3   OH211237   4.190   2.750   3.326  0.3734  0.3395  0.8158
 3744TIP3    H111238   4.098   2.742   3.352  0.0137  1.5163  0.0112
 3744TIP3    H211239   4.219   2.660   3.313 -0.4923 -0.0773  1.6510
 3745TIP3   OH211240   2.359   0.893   4.065  0.0154 -0.0959 -0.1584
 3745TIP3    H111241   2.398   0.852   4.142  0.1407  1.3414  0.5882
 3745TIP3    H211242   2.271   0.856   4.059 -0.2701  0.3330  1.1397
 3746TIP3   OH211243   4.525   2.302   3.475 -1.0667 -0.3112 -0.4024
 3746TIP3    H111244   4.505   2.386   3.516 -0.4059 -0.0425 -0.6226
 3746TIP3    H211245   4.522   2.319   3.381  1.7270  0.1582 -0.4890
 3747TIP3   OH211246   0.638   4.296   1.971 -0.5892  0.3202  0.2783
 3747TIP3    H111247   0.569   4.250   1.924  0.8950 -2.9266  0.9440
 3747TIP3    H211248   0.712   4.298   1.909  0.6313 -1.9253  1.5313
 3748TIP3   OH211249   0.308   0.369   2.682  0.2643 -0.7508  0.2465
 3748TIP3    H111250   0.370   0.441   2.688  0.3213 -0.6119 -1.4309
 3748TIP3    H211251   0.258   0.373   2.763  0.8710  0.6198  0.5779
 3749TIP3   OH211252   1.685   1.198   0.685 -0.2741 -0.5423  0.1920
 3749TIP3    H111253   1.661   1.137   0.615  1.4726 -2.2678  1.0403
 3749TIP3    H211254   1.683   1.146   0.765 -1.5086  1.2259  1.3871
 3750TIP3   OH211255   5.210   1.107   1.147 -0.3627 -0.2855  0.4655
 3750TIP3    H111256   5.266   1.181   1.126 -0.8225 -0.4637 -1.6871
 3750TIP3    H211257   5.125   1.145   1.167 -0.3914 -0.1913  0.1640
 3751TIP3   OH211258   1.983   5.608   4.313  0.1063  0.8276 -0.1057
 3751TIP3    H111259   1.908   5.585   4.368  0.3893 -0.1588 -0.1188
 3751TIP3    H211260   1.945   5.653   4.238 -0.4936  0.1420 -0.2156
 3752TIP3   OH211261   3.012   3.774   4.372  0.2269 -0.3143  0.5011
 3752TIP3    H111262   3.035   3.706   4.435 -0.0586 -1.8208 -0.9560
 3752TIP3    H211263   2.962   3.729   4.304 -0.6576  1.5030 -0.1318
 3753TIP3   OH211264   0.541   3.733   1.681  0.1686 -0.3150  0.0912
 3753TIP3    H111265   0.501   3.785   1.611  1.6951  0.4359 -0.2783
 3753TIP3    H211266   0.545   3.793   1.755  2.4738  0.3763 -0.5090
 3754TIP3   OH211267   4.979   2.687   4.288  0.0372  0.6496 -0.3473
 3754TIP3    H111268   4.955   2.717   4.375  1.5121  1.0183 -0.0293
 3754TIP3    H211269   5.033   2.609   4.303  0.5633  0.8955 -0.8903
 3755TIP3   OH211270   4.293   0.970   5.204 -0.0000 -0.3229  0.9849
 3755TIP3    H111271   4.284   1.060   5.173  0.2335 -0.3943  0.7077
 3755TIP3    H211272   4.379   0.942   5.172 -0.3058 -0.8266  0.5904
 3756TIP3   OH211273   0.941   2.098   5.163 -0.2177  0.3416 -0.0184
 3756TIP3    H111274   0.883   2.110   5.238 -0.6992 -1.0167 -0.1464
 3756TIP3    H211275   0.887   2.120   5.087 -0.1287  0.4538 -0.0493
 3757TIP3   OH211276   0.318   4.773   1.992  0.1202  0.0133  0.2780
 3757TIP3    H111277   0.258   4.815   1.931 -0.1204 -0.6051  0.0799
 3757TIP3    H211278   0.405   4.795   1.958  0.0074  0.7151  0.4345
 3758TIP3   OH211279   0.906   4.550   3.696 -0.2126  0.0592  0.1610
 3758TIP3    H111280   0.863   4.467   3.675 -0.8823  0.6230 -0.7712
 3758TIP3    H211281   0.977   4.556   3.632  1.4932 -0.9976  1.8579
 3759TIP3   OH211282   6.090   4.527   2.458 -0.3005  0.0856 -0.3449
 3759TIP3    H111283   6.079   4.468   2.532 -1.4693 -1.4148 -1.6266
 3759TIP3    H211284   6.142   4.599   2.492 -0.7031 -0.5964  1.8844
 3760TIP3   OH211285   4.226   0.449   0.385  0.6939  0.1189 -0.1014
 3760TIP3    H111286   4.287   0.395   0.335 -0.1893  0.0441 -1.1457
 3760TIP3    H211287   4.212   0.526   0.330 -1.8100 -0.8606 -0.9616
 3761TIP3   OH211288   0.576   4.525   2.138 -0.3556  0.0625  0.4119
 3761TIP3    H111289   0.480   4.528   2.141 -0.4261 -1.7876  0.9526
 3761TIP3    H211290   0.596   4.465   2.066  0.3407 -0.8273  1.3056
 3762TIP3   OH211291   1.628   4.405   1.793  0.4054 -0.5244 -0.2816
 3762TIP3    H111292   1.579   4.438   1.868  1.1610  1.3048 -0.5208
 3762TIP3    H211293   1.564   4.353   1.743 -0.5170 -0.4673  0.8111
 3763TIP3   OH211294   3.758   5.499   1.740  0.3608  0.3131 -0.1435
 3763TIP3    H111295   3.685   5.528   1.685  0.7157  0.3178 -0.6109
 3763TIP3    H211296   3.780   5.576   1.793 -1.2007 -0.2017  1.3801
 3764TIP3   OH211297   5.283   5.685   0.143 -0.4343  0.0733 -0.3617
 3764TIP3    H111298   5.200   5.638   0.146 -0.2941 -0.1550  0.0498
 3764TIP3    H211299   5.320   5.673   0.231  0.4553 -0.5882 -0.8118
 3765TIP3   OH211300   0.738   3.577   0.209 -0.3752 -0.0355 -0.4818
 3765TIP3    H111301   0.721   3.483   0.196 -0.8637 -0.1990  1.0705
 3765TIP3    H211302   0.782   3.605   0.129  0.0734 -1.6657 -0.8404
 3766TIP3   OH211303   3.421   2.817   3.789 -0.0285  0.1950  0.0371
 3766TIP3    H111304   3.354   2.817   3.721 -1.0174  0.1461  0.9957
 3766TIP3    H211305   3.411   2.901   3.833 -2.3161 -1.4030  2.8845
 3767TIP3   OH211306   4.560   2.096   2.133 -0.5445 -0.4699  0.3159
 3767TIP3    H111307   4.466   2.100   2.119 -0.6240 -0.2560  0.8598
 3767TIP3    H211308   4.582   2.004   2.125 -0.7465 -0.4796 -0.1426
 3768TIP3   OH211309   0.392   1.051   4.708  0.3000  0.0526  0.6037
 3768TIP3    H111310   0.408   0.957   4.720 -0.2426 -0.2775 -0.9856
 3768TIP3    H211311   0.366   1.082   4.795 -0.7701 -1.5319  0.8953
 3769TIP3   OH211312   5.502   2.641   4.986  0.5374 -0.4618  0.0923
 3769TIP3    H111313   5.538   2.722   4.950  2.4574 -0.6784  1.3935
 3769TIP3    H211314   5.529   2.573   4.925 -1.2204 -0.1797 -1.0942
 3770TIP3   OH211315   1.624   1.366   3.392  0.1845  0.7724  0.1563
 3770TIP3    H111316   1.576   1.344   3.472 -0.9025  3.0307  0.2043
 3770TIP3    H211317   1.559   1.358   3.322  0.9664 -0.5650 -0.4631
 3771TIP3   OH211318   5.466   0.815   3.427 -0.3714  0.0317 -0.0675
 3771TIP3    H111319   5.417   0.733   3.432  1.8253 -1.3392  0.5289
 3771TIP3    H211320   5.468   0.847   3.517  0.6856 -0.5074  0.1214
 3772TIP3   OH211321   2.652   0.498   1.220  0.0589  0.3473  0.6210
 3772TIP3    H111322   2.682   0.417   1.262  0.5528  0.2657  0.1236
 3772TIP3    H211323   2.726   0.559   1.229  0.8424 -0.1942 -1.5402
 3773TIP3   OH211324   0.970   4.338   3.235  1.0690  0.5383 -0.2485
 3773TIP3    H111325   0.896   4.291   3.196  1.1999 -0.3931  0.6081
 3773TIP3    H211326   1.030   4.270   3.263  0.3881  1.0616  2.7976
 3774TIP3   OH211327   0.697   4.109   1.769  0.4475  0.0438 -0.2109
 3774TIP3    H111328   0.738   4.038   1.719 -1.0698 -0.7137 -0.4294
 3774TIP3    H211329   0.620   4.132   1.719 -0.6046 -0.0853  1.2888
 3775TIP3   OH211330   4.197   2.872   1.555  0.1685  0.2828  0.5401
 3775TIP3    H111331   4.201   2.938   1.486 -0.3916 -0.2992 -0.0585
 3775TIP3    H211332   4.170   2.791   1.510 -2.5840  0.4144  1.7983
 3776TIP3   OH211333   2.210   5.007   4.466 -0.4874  0.0388  0.2818
 3776TIP3    H111334   2.247   4.969   4.386  1.0778 -1.2728  1.5664
 3776TIP3    H211335   2.202   4.933   4.526 -2.5254  0.8333  1.0732
 3777TIP3   OH211336   3.493   5.890   1.319  0.0994 -0.1090 -0.4973
 3777TIP3    H111337   3.560   5.945   1.277  2.4819 -1.8261  0.7689
 3777TIP3    H211338   3.508   5.803   1.283 -0.0186 -0.9574  1.3711
 3778TIP3   OH211339   1.448  -0.017   4.151 -0.0943 -0.3348  0.4849
 3778TIP3    H111340   1.387   0.019   4.216  0.1588  0.6042  0.2063
 3778TIP3    H211341   1.499   0.058   4.122  1.4931 -1.1640  1.0130
 3779TIP3   OH211342   2.536   5.760   3.819 -0.0219  0.4572 -0.4764
 3779TIP3    H111343   2.525   5.714   3.735  1.0808  0.0797 -0.4318
 3779TIP3    H211344   2.448   5.788   3.843 -0.6743 -1.2519 -0.7326
 3780TIP3   OH211345   4.811   1.208   5.048 -0.1139 -0.4942 -0.4874
 3780TIP3    H111346   4.751   1.280   5.071  0.6486 -0.4163  1.4641
 3780TIP3    H211347   4.771   1.168   4.971 -2.6722 -0.3868  0.6674
 3781TIP3   OH211348   0.789   5.545   3.699 -0.4096 -0.3206  0.1740
 3781TIP3    H111349   0.814   5.538   3.791  0.4509  1.0090  0.0775
 3781TIP3    H211350   0.871   5.533   3.651 -0.5731  0.4695 -0.3312
 3782TIP3   OH211351   2.612   1.067   3.630  0.1392  0.1348 -0.0559
 3782TIP3    H111352   2.641   1.102   3.715  0.0181  0.5688 -0.1914
 3782TIP3    H211353   2.689   1.075   3.573 -0.4670  2.1341 -0.6741
 3783TIP3   OH211354   1.920   3.481   1.280  0.7363  0.9568  0.4510
 3783TIP3    H111355   1.899   3.569   1.249 -0.4317  1.0065  1.3308
 3783TIP3    H211356   1.840   3.450   1.323  1.3329 -0.2875  0.7218
 3784TIP3   OH211357   0.369   5.139   2.680 -0.1454 -0.1868  0.1575
 3784TIP3    H111358   0.349   5.090   2.600 -2.1275 -4.0983  2.6871
 3784TIP3    H211359   0.459   5.115   2.701  0.3210  0.7128 -0.7201
 3785TIP3   OH211360   3.365   5.479   3.521  1.2654  0.8063  0.5079
 3785TIP3    H111361   3.400   5.427   3.593  2.5836  1.7499  0.5852
 3785TIP3    H211362   3.424   5.555   3.515 -1.2280  2.9497  1.1754
 3786TIP3   OH211363   4.220   3.837   4.286 -0.4836  0.2793  0.3728
 3786TIP3    H111364   4.182   3.749   4.290 -0.9734  0.5021  0.8001
 3786TIP3    H211365   4.174   3.880   4.215 -2.2811  1.0958  1.9352
 3787TIP3   OH211366   4.218   5.500   1.247  0.3237 -0.4165 -0.3545
 3787TIP3    H111367   4.251   5.585   1.275  0.6526 -0.1981 -1.3340
 3787TIP3    H211368   4.292   5.440   1.258  0.0447 -0.6126  0.4811
 3788TIP3   OH211369   1.104   5.943   2.064  0.5210 -0.1890  0.1666
 3788TIP3    H111370   1.028   5.891   2.041  0.0887 -0.0781  1.2836
 3788TIP3    H211371   1.139   5.901   2.143  0.7613  0.6151  0.4985
 3789TIP3   OH211372   5.304   1.595   0.921  0.2636  0.2046 -0.2434
 3789TIP3    H111373   5.285   1.518   0.867  1.3407  0.4434 -0.9866
 3789TIP3    H211374   5.392   1.579   0.955  0.0394  0.5886  0.5465
 3790TIP3   OH211375   4.095   1.872   2.031  0.1909  0.4218 -0.6089
 3790TIP3    H111376   4.125   1.813   2.100 -0.8509 -0.3821 -0.8157
 3790TIP3    H211377   4.007   1.899   2.059  0.1522  0.8736 -1.1493
 3791TIP3   OH211378   1.154   0.742   0.385 -0.0716  0.5960 -0.3575
 3791TIP3    H111379   1.139   0.649   0.399 -1.2832  0.8466  0.1544
 3791TIP3    H211380   1.225   0.746   0.322 -0.2094 -0.6784 -0.6116
 3792TIP3   OH211381   0.728   5.236   3.490 -0.1138 -0.7867  0.2364
 3792TIP3    H111382   0.793   5.265   3.426  0.3351 -1.8487  0.1872
 3792TIP3    H211383   0.654   5.207   3.437  0.2267 -1.5899  0.1705
 3793TIP3   OH211384   5.892   4.187   5.073 -0.2471 -0.5095  0.1328
 3793TIP3    H111385   5.810   4.227   5.100  0.2427 -0.3901  1.5415
 3793TIP3    H211386   5.907   4.219   4.984 -1.1824  0.3053  0.2555
 3794TIP3   OH211387   2.762   2.215   1.679 -0.4085  0.1190  0.1231
 3794TIP3    H111388   2.677   2.171   1.674 -1.8268  2.7026 -0.5618
 3794TIP3    H211389   2.797   2.209   1.590 -1.0401  1.0876 -0.2111
 3795TIP3   OH211390   4.456   5.453   1.971  0.4680  0.1148 -0.2933
 3795TIP3    H111391   4.542   5.449   2.013  0.3891  1.6254  0.0526
 3795TIP3    H211392   4.448   5.543   1.940 -1.6194  0.4809  1.0880
 3796TIP3   OH211393   0.187   0.502   3.138  0.0080 -0.0794  0.6125
 3796TIP3    H111394   0.124   0.573   3.145 -0.2829 -0.3586  0.8566
 3796TIP3    H211395   0.206   0.479   3.229 -2.0690 -2.2198  0.5966
 3797TIP3   OH211396   5.010   5.378   2.464 -0.1671  1.0905  0.8664
 3797TIP3    H111397   5.064   5.365   2.542 -0.5644 -0.2231  0.9370
 3797TIP3    H211398   5.015   5.295   2.417 -0.3031  1.7199 -0.2877
 3798TIP3   OH211399   4.944   3.704   3.949  0.9431  0.4622  0.0455
 3798TIP3    H111400   4.907   3.667   4.029  1.6826 -0.4496 -0.0318
 3798TIP3    H211401   4.995   3.634   3.910 -0.0952  0.6005 -1.7019
 3799TIP3   OH211402   2.430   2.205   0.077 -0.2212  0.2371 -0.0243
 3799TIP3    H111403   2.520   2.238   0.088 -0.2370  0.7356 -1.2282
 3799TIP3    H211404   2.375   2.282   0.090 -0.4453  0.0448  0.1631
 3800TIP3   OH211405   1.236   1.821   2.310  0.1620 -0.1443 -0.6414
 3800TIP3    H111406   1.321   1.846   2.274  0.5012 -0.4760 -0.0852
 3800TIP3    H211407   1.212   1.741   2.263  0.2188 -0.1292 -0.6959
 3801TIP3   OH211408   2.960   0.266   2.192 -0.0599  0.5290 -0.3303
 3801TIP3    H111409   2.897   0.325   2.233 -0.3795  0.8676 -1.2796
 3801TIP3    H211410   3.037   0.321   2.176 -0.0814  0.4974 -0.5408
 3802TIP3   OH211411   3.386   5.087   3.228 -0.6487  0.1989 -0.1516
 3802TIP3    H111412   3.389   5.020   3.159 -1.1708  1.0435 -1.0099
 3802TIP3    H211413   3.400   5.038   3.309 -1.8019 -1.0746 -0.6793
 3803TIP3   OH211414   0.776   2.238   2.070 -0.2783  0.3826 -0.1192
 3803TIP3    H111415   0.738   2.319   2.105  2.3957  1.9878 -0.6049
 3803TIP3    H211416   0.730   2.225   1.987 -1.7984  0.5005  0.6681
 3804TIP3   OH211417   3.388   3.360   0.415  0.0066 -0.0048  1.1730
 3804TIP3    H111418   3.303   3.376   0.456 -0.8405 -2.2787  0.5042
 3804TIP3    H211419   3.417   3.277   0.453  1.2622  0.0387  0.3628
 3805TIP3   OH211420   6.266   1.634   0.211 -0.4997  0.2657  0.1894
 3805TIP3    H111421   6.261   1.729   0.224 -1.1939  0.2578  0.0178
 3805TIP3    H211422   6.184   1.611   0.167  0.3974 -0.1611 -1.3656
 3806TIP3   OH211423   0.566   1.072   4.229  0.0091 -0.1439 -0.0104
 3806TIP3    H111424   0.481   1.048   4.193  0.1075 -0.9540  0.2664
 3806TIP3    H211425   0.629   1.015   4.184  0.2002 -0.7417  0.9781
 3807TIP3   OH211426   1.802   2.823   0.865  0.3316  0.3837  0.6905
 3807TIP3    H111427   1.737   2.885   0.898 -1.3145  0.0586 -1.7746
 3807TIP3    H211428   1.884   2.873   0.866 -0.6013  2.0026  0.5348
 3808TIP3   OH211429   2.595   0.988   0.777  0.1185  0.1261 -0.3578
 3808TIP3    H111430   2.658   1.054   0.808 -0.3346 -0.8110  2.9434
 3808TIP3    H211431   2.638   0.946   0.702  1.3462  2.6107 -1.1628
 3809TIP3   OH211432   5.727   5.823   3.187 -0.4754  0.1891 -0.0531
 3809TIP3    H111433   5.667   5.882   3.233  0.3009  0.4854  0.6046
 3809TIP3    H211434   5.778   5.881   3.131  0.1246  0.1050  0.4092
 3810TIP3   OH211435   2.766   1.128   4.825  0.0834 -0.0362  0.5327
 3810TIP3    H111436   2.810   1.115   4.740 -1.5402  1.3562 -0.5774
 3810TIP3    H211437   2.822   1.190   4.871 -0.3145  1.1992 -0.5898
 3811TIP3   OH211438   5.995   2.449   3.817 -0.1946  0.2314  0.0131
 3811TIP3    H111439   5.943   2.470   3.740  1.4404  0.5767 -1.0525
 3811TIP3    H211440   6.004   2.354   3.816  0.4081  0.2864 -0.6496
 3812TIP3   OH211441   6.158   4.862   1.195  0.2685 -0.2805  0.5015
 3812TIP3    H111442   6.190   4.781   1.235 -1.0213  0.3300  2.9273
 3812TIP3    H211443   6.215   4.930   1.231 -0.5881  0.2243  0.9166
 3813TIP3   OH211444   0.820   3.230   4.478 -0.0781 -0.7035 -1.0979
 3813TIP3    H111445   0.770   3.239   4.559 -0.1342 -1.2115 -1.0704
 3813TIP3    H211446   0.873   3.151   4.492 -0.2596 -0.9244 -1.6443
 3814TIP3   OH211447   0.950   4.273   1.454 -0.4281 -0.6425 -0.0124
 3814TIP3    H111448   0.938   4.360   1.415 -2.0153 -0.7335  0.2201
 3814TIP3    H211449   0.868   4.227   1.435  0.2487 -1.9688  0.1907
 3815TIP3   OH211450   0.089   5.790   1.021  0.5755 -0.3436  0.5516
 3815TIP3    H111451   0.102   5.841   0.941  0.2532 -0.0260  0.6966
 3815TIP3    H211452  -0.001   5.759   1.015  0.5485 -0.3144  0.7940
 3816TIP3   OH211453   3.720   5.450   2.609 -0.3685  0.4257  0.0110
 3816TIP3    H111454   3.811   5.462   2.637  0.6316  2.0424 -3.4196
 3816TIP3    H211455   3.713   5.356   2.590  0.9438  0.4478 -0.6674
 3817TIP3   OH211456   5.749   5.925   2.723 -0.0287  0.2402 -0.0912
 3817TIP3    H111457   5.757   5.830   2.724  0.2249  0.2471 -0.9638
 3817TIP3    H211458   5.655   5.941   2.719 -0.2847  0.0840  2.9456
 3818TIP3   OH211459   0.894   1.337   0.538  0.9267 -0.2627 -0.3284
 3818TIP3    H111460   0.833   1.349   0.465  0.0694  1.2596  0.5885
 3818TIP3    H211461   0.959   1.275   0.505 -1.5119 -2.5949 -1.0654
 3819TIP3   OH211462   0.537   3.399   1.832  0.3735 -0.0630  0.4570
 3819TIP3    H111463   0.480   3.398   1.755  0.5771 -0.4670  0.3117
 3819TIP3    H211464   0.608   3.338   1.811 -0.3359 -1.3275  1.5410
 3820TIP3   OH211465   1.070   0.675   1.633  0.2235 -0.2087  0.1540
 3820TIP3    H111466   1.020   0.699   1.711  1.7036  0.8099  0.8400
 3820TIP3    H211467   1.094   0.583   1.648  0.4149 -0.0504  0.8515
 3821TIP3   OH211468   2.307   1.359   0.564  0.4998 -0.2517  0.7886
 3821TIP3    H111469   2.302   1.342   0.658  1.2856 -0.2782  0.8278
 3821TIP3    H211470   2.292   1.274   0.523 -0.6738 -0.0984  0.8584
 3822TIP3   OH211471   3.278   3.871   4.416  0.0727  0.5405 -0.1476
 3822TIP3    H111472   3.268   3.921   4.498 -0.2170  0.0792  0.1067
 3822TIP3    H211473   3.189   3.839   4.397  0.3871 -0.5698  0.1466
 3823TIP3   OH211474   5.578   4.938   1.417 -0.1215  0.3979 -0.5613
 3823TIP3    H111475   5.549   4.909   1.331 -0.9371  1.6865 -0.7399
 3823TIP3    H211476   5.669   4.964   1.404  0.6689 -2.0398 -0.3760
 3824TIP3   OH211477   4.357   4.036   4.456  0.7631  0.3448 -0.3504
 3824TIP3    H111478   4.308   4.107   4.415  1.2323 -0.5311 -2.6196
 3824TIP3    H211479   4.342   3.961   4.398  1.4459 -1.0248  1.1759
 3825TIP3   OH211480   0.080   3.568   0.467 -0.0662  0.7175  0.0742
 3825TIP3    H111481  -0.015   3.571   0.480 -0.1596 -2.3656  0.9210
 3825TIP3    H211482   0.116   3.614   0.543 -0.8705  0.6826  0.4893
 3826TIP3   OH211483   5.937   3.246   5.041 -0.1861 -0.1718  0.4719
 3826TIP3    H111484   6.032   3.251   5.035 -0.2263 -0.1385 -0.3482
 3826TIP3    H211485   5.913   3.174   4.982 -0.7798  0.9923 -0.7721
 3827TIP3   OH211486   2.579   4.627   1.614 -0.0858  0.3027 -0.5706
 3827TIP3    H111487   2.561   4.655   1.703 -1.3485  1.0777 -1.0397
 3827TIP3    H211488   2.512   4.671   1.561  1.5627  1.0928 -2.1019
 3828TIP3   OH211489   5.750   2.349   2.150  0.3712  0.2722 -0.0544
 3828TIP3    H111490   5.787   2.262   2.167  0.7460  0.5876  0.7587
 3828TIP3    H211491   5.817   2.394   2.098 -0.7139 -0.6413 -2.3887
 3829TIP3   OH211492   4.665   5.690   2.932  0.0147 -0.1661 -0.0134
 3829TIP3    H111493   4.717   5.622   2.890  0.3964 -0.4170  0.8306
 3829TIP3    H211494   4.649   5.754   2.863  2.2773  0.3908 -0.1061
 3830TIP3   OH211495   5.645   1.874   2.530  0.2407 -0.4828 -0.2962
 3830TIP3    H111496   5.592   1.923   2.591 -1.4873 -0.9059 -1.3837
 3830TIP3    H211497   5.614   1.901   2.443  0.6452 -1.9584 -0.9440
 3831TIP3   OH211498   1.146   3.517   4.023  0.0496 -0.0930 -0.6720
 3831TIP3    H111499   1.226   3.465   4.025 -1.1039 -1.9401 -0.7964
 3831TIP3    H211500   1.171   3.601   4.063  1.8097 -0.9312  0.0806
 3832TIP3   OH211501   4.111   1.078   2.220 -0.5748  0.3386  0.5343
 3832TIP3    H111502   4.049   1.042   2.157 -1.2048 -1.2228  1.9631
 3832TIP3    H211503   4.192   1.030   2.206  0.3071  2.1434 -1.1002
 3833TIP3   OH211504   4.910   5.173   0.006 -0.1862  0.0153 -0.1583
 3833TIP3    H111505   4.922   5.080  -0.010  0.1575 -0.2237  1.3460
 3833TIP3    H211506   4.841   5.178   0.072  1.1534  0.6656  1.2929
 3834TIP3   OH211507   6.014   5.114   2.193 -0.0548  0.6128  0.2058
 3834TIP3    H111508   6.085   5.091   2.253 -1.1442 -0.0458  1.2912
 3834TIP3    H211509   5.992   5.031   2.150 -0.1668  0.8148 -0.1235
 3835TIP3   OH211510   0.372   1.181   2.588  0.1846 -0.3517  0.2190
 3835TIP3    H111511   0.457   1.145   2.564  1.0938  1.3095  0.7103
 3835TIP3    H211512   0.361   1.158   2.681 -1.1930 -2.8313 -0.4712
 3836TIP3   OH211513   3.702   4.977   4.684 -0.5275 -0.4381 -0.2598
 3836TIP3    H111514   3.678   5.039   4.615 -0.3465 -0.0183  0.0543
 3836TIP3    H211515   3.780   5.014   4.724  1.4343 -2.3637 -2.0387
 3837TIP3   OH211516   3.958   3.210   4.553  0.2182 -0.0375 -0.2910
 3837TIP3    H111517   3.939   3.127   4.597  4.3649 -0.7641  0.4655
 3837TIP3    H211518   3.964   3.274   4.624  0.2163  0.2485 -0.5459
 3838TIP3   OH211519   4.693   6.026   4.956  0.1978  0.3849  0.2857
 3838TIP3    H111520   4.680   5.981   5.039  0.4965 -1.0557 -0.4175
 3838TIP3    H211521   4.697   5.956   4.891  1.1070  1.4002 -0.7986
 3839TIP3   OH211522   1.521   5.736   3.529 -0.4611  0.4981  0.1345
 3839TIP3    H111523   1.510   5.782   3.446  0.6393  2.2349  0.8739
 3839TIP3    H211524   1.509   5.644   3.508 -0.8414  0.9443 -1.8094
 3840TIP3   OH211525   2.065   0.589   0.726 -0.1852 -0.3711  0.3114
 3840TIP3    H111526   2.097   0.499   0.727 -1.9404 -1.0469  0.0119
 3840TIP3    H211527   1.970   0.580   0.732 -0.4391  1.4469 -0.3975
 3841TIP3   OH211528   0.793   5.738   3.441 -0.0668  0.0555 -0.1057
 3841TIP3    H111529   0.811   5.666   3.502 -2.0341 -1.3342 -1.0340
 3841TIP3    H211530   0.835   5.711   3.359  0.0594  0.4755 -0.1803
 3842TIP3   OH211531   3.597   3.876   5.185  0.2693 -0.9617  0.2992
 3842TIP3    H111532   3.510   3.884   5.146 -0.6288 -2.3554  1.8792
 3842TIP3    H211533   3.649   3.830   5.119  0.2265  0.9444 -1.1561
 3843TIP3   OH211534   0.899   5.006   1.418 -0.3814 -0.4473 -0.1101
 3843TIP3    H111535   0.837   5.032   1.487 -1.5490  1.8371 -1.8414
 3843TIP3    H211536   0.974   5.065   1.429 -0.3411 -0.4311 -0.4391
 3844TIP3   OH211537   1.394   2.784   4.235  0.5222  0.1658 -0.3693
 3844TIP3    H111538   1.383   2.850   4.166  1.9531  0.3287 -0.4581
 3844TIP3    H211539   1.408   2.702   4.188 -0.9883 -0.1895 -0.2567
 3845TIP3   OH211540   2.130   5.842   1.123  0.3658 -0.1819 -0.2426
 3845TIP3    H111541   2.212   5.795   1.108 -0.1792 -1.6946  1.2854
 3845TIP3    H211542   2.129   5.860   1.217 -1.2902 -0.6376 -0.1495
 3846TIP3   OH211543   4.369   0.496   1.247 -0.0201  0.1434  0.2590
 3846TIP3    H111544   4.293   0.520   1.193 -0.3054 -1.5743 -0.1564
 3846TIP3    H211545   4.332   0.480   1.334 -0.6804 -3.2834 -0.5166
 3847TIP3   OH211546   1.394   0.908   3.586  0.7543 -0.4739  0.0416
 3847TIP3    H111547   1.445   0.856   3.649  0.6498 -1.8575 -0.9749
 3847TIP3    H211548   1.308   0.918   3.628  0.0396 -3.0604 -0.6411
 3848TIP3   OH211549   1.814   0.155   3.895 -0.5384 -0.4313  0.0017
 3848TIP3    H111550   1.857   0.089   3.841  0.3144 -0.5122  0.7627
 3848TIP3    H211551   1.825   0.123   3.985 -1.5317 -0.0646  0.2646
 3849TIP3   OH211552   1.198   2.604   3.224  0.4277 -0.5033  0.0849
 3849TIP3    H111553   1.281   2.557   3.213 -0.5228 -2.0429 -0.8984
 3849TIP3    H211554   1.131   2.536   3.216 -0.9168  0.4936  2.0813
 3850TIP3   OH211555   3.353   1.733   1.031 -0.2233 -0.9466 -0.4508
 3850TIP3    H111556   3.278   1.745   1.089  0.5160 -0.6351  0.4603
 3850TIP3    H211557   3.382   1.644   1.047 -0.9117 -1.3666 -1.4443
 3851TIP3   OH211558   1.028   4.037   1.653 -0.6393 -0.3408  1.3046
 3851TIP3    H111559   0.976   3.962   1.625 -0.5198 -0.3814  1.1876
 3851TIP3    H211560   0.987   4.112   1.610 -1.2994 -0.2174  2.1246
 3852TIP3   OH211561  -0.012   0.259   4.849  0.4189  0.3443 -0.0467
 3852TIP3    H111562   0.007   0.336   4.903  0.1773  0.4643 -0.1313
 3852TIP3    H211563   0.030   0.276   4.765  0.0906  0.5311 -0.1751
 3853TIP3   OH211564   3.352   3.648   4.951 -0.2525 -0.1794 -0.0768
 3853TIP3    H111565   3.375   3.730   4.996  0.0584 -0.7788  0.8895
 3853TIP3    H211566   3.260   3.659   4.927  0.0405  0.8392 -0.8367
 3854TIP3   OH211567   2.013   3.190   1.580 -0.0569 -0.0164  0.1361
 3854TIP3    H111568   1.924   3.157   1.566 -0.9590  2.1015  0.3589
 3854TIP3    H211569   2.069   3.112   1.580 -1.8768 -1.3840 -0.2488
 3855TIP3   OH211570   3.644   1.067   3.646 -0.5107 -0.0239  0.3652
 3855TIP3    H111571   3.717   1.124   3.670 -1.3694  0.7588  1.2528
 3855TIP3    H211572   3.642   1.000   3.714 -0.3969 -0.2470  0.1466
 3856TIP3   OH211573   6.213   2.956   0.633  0.2043 -0.3067 -0.6110
 3856TIP3    H111574   6.177   2.869   0.618 -0.6690  0.0721 -0.8164
 3856TIP3    H211575   6.188   3.006   0.555 -3.6229  1.4792  1.4469
 3857TIP3   OH211576   2.545   5.107   2.540  0.3788  0.2126 -0.1808
 3857TIP3    H111577   2.507   5.174   2.484 -0.1028 -0.1583 -0.3040
 3857TIP3    H211578   2.548   5.029   2.486  1.6168  0.3082 -0.2705
 3858TIP3   OH211579   2.027   2.310   2.054 -0.0481  0.1447 -0.0027
 3858TIP3    H111580   2.067   2.268   2.130 -0.5745 -2.2762 -0.9677
 3858TIP3    H211581   1.939   2.274   2.050  0.3365 -0.7178 -2.3872
 3859TIP3   OH211582   3.996   0.706   0.931  0.0338  0.5399  0.0756
 3859TIP3    H111583   3.963   0.794   0.952 -1.1534 -0.0586  0.8308
 3859TIP3    H211584   4.019   0.710   0.839  1.9871  2.2402  0.5495
 3860TIP3   OH211585   0.621   3.062   0.700  0.2645  0.3174  0.5105
 3860TIP3    H111586   0.545   3.028   0.654  0.6965  0.1746 -0.1209
 3860TIP3    H211587   0.632   3.151   0.665  0.3949  0.3334  0.5906
 3861TIP3   OH211588   1.763   3.439   4.735  0.1327 -0.0197 -0.0304
 3861TIP3    H111589   1.837   3.377   4.730 -0.4819 -0.6971 -3.1608
 3861TIP3    H211590   1.803   3.520   4.765  1.7731 -0.8830  0.2870
 3862TIP3   OH211591   5.619   3.488   1.684 -0.0456 -0.1403 -0.6831
 3862TIP3    H111592   5.565   3.517   1.757 -0.2388  0.4923 -1.0798
 3862TIP3    H211593   5.656   3.568   1.647 -0.2190 -0.4270 -1.4960
 3863TIP3   OH211594   3.610   5.315   1.860 -0.4947  0.0640  0.0060
 3863TIP3    H111595   3.674   5.379   1.831 -0.9600  0.5581  0.0637
 3863TIP3    H211596   3.538   5.367   1.895 -0.2166 -0.4833  1.5089
 3864TIP3   OH211597   4.650   0.391   3.896  0.1514 -0.3237 -0.3068
 3864TIP3    H111598   4.626   0.407   3.987  1.2204  0.8564 -0.2131
 3864TIP3    H211599   4.665   0.296   3.892 -1.2830 -0.6018  0.3843
 3865TIP3   OH211600   2.294   1.333   0.187 -0.4094 -0.4981  0.6290
 3865TIP3    H111601   2.230   1.310   0.119 -0.9576 -0.3078  1.0729
 3865TIP3    H211602   2.274   1.424   0.209 -0.0930 -0.4932  0.8983
 3866TIP3   OH211603   4.105   3.342   1.607  0.2813  0.2636 -0.4495
 3866TIP3    H111604   4.182   3.346   1.549  0.8929  1.5575  0.4085
 3866TIP3    H211605   4.122   3.266   1.664  0.0155 -0.5788 -1.4540
 3867TIP3   OH211606   5.699   0.847   1.591 -0.5507 -0.0744  0.5089
 3867TIP3    H111607   5.618   0.804   1.564  0.6515 -1.2641 -1.4535
 3867TIP3    H211608   5.765   0.778   1.588  0.5736  0.8652  2.0593
 3868TIP3   OH211609   0.830   3.272   5.022  0.3478 -0.1587 -0.5404
 3868TIP3    H111610   0.916   3.296   4.988  1.2632  0.3328  1.9261
 3868TIP3    H211611   0.835   3.177   5.033 -0.0907 -0.3806 -1.9707
 3869TIP3   OH211612   5.317   2.606   0.961 -0.5728  0.0123 -0.6372
 3869TIP3    H111613   5.303   2.641   1.049 -1.7665  0.2007 -0.8924
 3869TIP3    H211614   5.230   2.600   0.923 -0.2088 -1.4767 -1.2915
 3870TIP3   OH211615   0.130   1.464   4.423 -0.2297 -0.6243  0.4373
 3870TIP3    H111616   0.155   1.373   4.437 -0.1616 -0.3683  2.1983
 3870TIP3    H211617   0.034   1.464   4.429 -0.3136 -0.7395 -0.7103
 3871TIP3   OH211618   6.211   5.529   4.242 -0.1721 -0.3168  0.0469
 3871TIP3    H111619   6.225   5.492   4.155 -0.1975  1.8852 -0.9719
 3871TIP3    H211620   6.124   5.498   4.268  0.6757 -2.6739  0.2381
 3872TIP3   OH211621   5.060   2.621   2.474 -0.0359  0.2398 -0.1818
 3872TIP3    H111622   5.136   2.599   2.528 -0.2150  1.4171  0.5847
 3872TIP3    H211623   4.998   2.662   2.534  0.3713  3.0094 -1.4661
 3873TIP3   OH211624   5.873   0.332   3.135  0.4869  0.4062 -0.2821
 3873TIP3    H111625   5.896   0.381   3.056 -0.8557  0.7519 -0.4888
 3873TIP3    H211626   5.783   0.303   3.119 -1.0645  3.1802  2.3525
 3874TIP3   OH211627   1.300   4.809   0.893  0.2165  0.1609 -0.8538
 3874TIP3    H111628   1.283   4.775   0.981 -0.3583 -0.3263 -1.1436
 3874TIP3    H211629   1.229   4.774   0.840 -0.8022  2.3639 -1.0529
 3875TIP3   OH211630   3.758   4.358   1.440  0.0109 -0.0033  0.7751
 3875TIP3    H111631   3.773   4.339   1.347 -0.1589 -2.7823  1.2250
 3875TIP3    H211632   3.685   4.420   1.440 -0.7304 -0.8041 -0.9520
 3876TIP3   OH211633   0.293   1.547   2.726  0.2106 -0.0576 -0.2932
 3876TIP3    H111634   0.307   1.637   2.754  0.0761 -0.4650  1.1859
 3876TIP3    H211635   0.241   1.554   2.646  0.4498  1.1709 -0.3588
 3877TIP3   OH211636   4.547   5.070   3.686  0.0334 -0.0412 -0.8284
 3877TIP3    H111637   4.618   5.122   3.722  0.2572 -0.1267 -1.1404
 3877TIP3    H211638   4.468   5.119   3.707  0.1131 -0.3299  0.2068
 3878TIP3   OH211639   2.158   0.139   1.920 -0.2831 -0.2834 -0.5801
 3878TIP3    H111640   2.159   0.109   2.011  0.7695 -2.2939 -1.1777
 3878TIP3    H211641   2.208   0.220   1.920  0.3193 -0.6404  0.5484
 3879TIP3   OH211642   4.912   4.374   1.787  0.0563  0.1026  0.0580
 3879TIP3    H111643   4.877   4.408   1.869  0.0737  0.5876 -0.1334
 3879TIP3    H211644   4.901   4.446   1.725  1.5802  0.3395  0.0369
 3880TIP3   OH211645   6.248   0.956   3.512  1.0105  0.2338  0.4700
 3880TIP3    H111646   6.164   0.911   3.520  1.6196 -0.7803  1.4036
 3880TIP3    H211647   6.245   1.025   3.578 -0.1195  1.9856 -1.2844
 3881TIP3   OH211648   2.367   0.411   4.685 -0.7477  0.2325 -0.3506
 3881TIP3    H111649   2.436   0.418   4.620 -0.2825 -1.2257 -0.0466
 3881TIP3    H211650   2.362   0.498   4.725  3.5326 -0.4745  2.2606
 3882TIP3   OH211651   3.154   3.730   2.286 -0.2565  0.2950 -0.1961
 3882TIP3    H111652   3.150   3.741   2.191  0.0677  2.2579 -0.0281
 3882TIP3    H211653   3.189   3.642   2.299  1.6398  0.7249 -1.9199
 3883TIP3   OH211654   3.412   1.407   1.489 -0.3597 -0.0195 -0.5033
 3883TIP3    H111655   3.455   1.475   1.437  1.1065 -0.0110  0.6453
 3883TIP3    H211656   3.333   1.449   1.524 -1.7379 -0.2204 -3.1504
 3884TIP3   OH211657   4.453   1.146   0.225 -0.0215 -0.7719 -0.4747
 3884TIP3    H111658   4.392   1.131   0.152 -1.0619  0.6731  0.0601
 3884TIP3    H211659   4.497   1.228   0.203 -1.5575  0.5966  1.2590
 3885TIP3   OH211660   4.230   5.866   4.801 -0.3219 -0.1778 -0.0257
 3885TIP3    H111661   4.203   5.843   4.712 -0.9752  0.4044  0.0120
 3885TIP3    H211662   4.158   5.919   4.835  0.3488  0.4077  0.5182
 3886TIP3   OH211663   4.283   0.410   3.786 -0.5317 -0.2459 -0.2315
 3886TIP3    H111664   4.282   0.494   3.833 -2.5840 -0.6109  0.4634
 3886TIP3    H211665   4.285   0.435   3.693  0.0291  0.5456 -0.0160
 3887TIP3   OH211666   4.095   5.439   5.005 -0.0868  0.1881  0.2337
 3887TIP3    H111667   4.181   5.422   4.967  0.8682  2.3786  1.1989
 3887TIP3    H211668   4.096   5.395   5.089  0.3396  0.6587  0.4829
 3888TIP3   OH211669   1.536   1.041   1.151  0.1473 -0.8566  0.3573
 3888TIP3    H111670   1.616   1.048   1.203  1.1191 -1.4458 -0.9785
 3888TIP3    H211671   1.522   0.947   1.142 -0.4409 -0.7551  0.2141
 3889TIP3   OH211672   0.580   1.340   3.376 -0.0471 -0.3132 -0.1256
 3889TIP3    H111673   0.548   1.289   3.450 -1.9963 -1.5175 -1.7140
 3889TIP3    H211674   0.567   1.431   3.403 -1.5814 -0.7348  0.7032
 3890TIP3   OH211675   3.358   1.469   1.118 -0.3663  0.0816  0.5733
 3890TIP3    H111676   3.402   1.502   1.196 -0.6864  1.0550  0.3459
 3890TIP3    H211677   3.425   1.414   1.075  0.0266  0.0783  1.1779
 3891TIP3   OH211678   1.276   4.889   4.849 -0.3830  0.4459  0.0769
 3891TIP3    H111679   1.336   4.959   4.824  0.8215 -0.6656 -0.3151
 3891TIP3    H211680   1.327   4.809   4.836 -1.0809 -0.4233  2.2267
 3892TIP3   OH211681   0.133   2.702   0.982 -0.7575 -0.4781  0.2376
 3892TIP3    H111682   0.065   2.764   0.955  1.1713  2.0684  0.8705
 3892TIP3    H211683   0.151   2.724   1.073  1.2593 -0.6798 -0.0658
 3893TIP3   OH211684   3.981   4.014   2.849  0.1040  0.4699 -0.1621
 3893TIP3    H111685   3.951   4.083   2.908  0.0231  0.1279  0.2023
 3893TIP3    H211686   4.070   3.994   2.879  0.0542  0.2791 -0.1346
 3894TIP3   OH211687   3.304   0.751   2.526  0.2105 -0.1738 -0.2401
 3894TIP3    H111688   3.217   0.760   2.487 -0.2460  2.6714  1.2032
 3894TIP3    H211689   3.364   0.776   2.456 -0.3456  0.8847 -0.3673
 3895TIP3   OH211690   1.053   4.167   2.239  0.0596 -0.7059 -0.4761
 3895TIP3    H111691   1.083   4.257   2.241 -0.4557 -0.5156 -1.0817
 3895TIP3    H211692   0.963   4.172   2.209  0.2852 -1.4797 -1.3498
 3896TIP3   OH211693   4.583   4.248   2.780 -0.2646  0.0583  0.8664
 3896TIP3    H111694   4.499   4.213   2.807  0.6377 -0.9131  2.6243
 3896TIP3    H211695   4.587   4.335   2.819 -0.0862 -0.2675  1.5893
 3897TIP3   OH211696   0.766   5.793   2.083  0.3401  0.0708  0.1770
 3897TIP3    H111697   0.787   5.729   2.152 -0.9900  0.6806  1.1831
 3897TIP3    H211698   0.823   5.768   2.010  0.8672 -1.3956  1.0355
 3898TIP3   OH211699   3.070   4.860   2.149 -0.4586 -0.0877  0.4636
 3898TIP3    H111700   3.053   4.777   2.103 -0.6384 -1.0569  2.1964
 3898TIP3    H211701   3.075   4.925   2.079 -0.2572 -1.5593 -0.9657
 3899TIP3   OH211702   5.206   5.178   0.923  0.3060  0.2452 -0.1829
 3899TIP3    H111703   5.219   5.174   1.018 -0.7859 -1.4571 -0.0398
 3899TIP3    H211704   5.155   5.099   0.903  0.7596  0.4129 -2.2380
 3900TIP3   OH211705   3.692   1.992   3.977 -0.0177  0.2054  0.5482
 3900TIP3    H111706   3.634   1.999   4.052 -1.2204 -0.0540 -0.3236
 3900TIP3    H211707   3.653   2.050   3.911  0.2234 -0.6081 -0.3390
 3901TIP3   OH211708   6.305   1.948   1.712 -0.2729 -0.1525 -0.6049
 3901TIP3    H111709   6.239   2.013   1.735 -0.5082 -0.3742 -0.6612
 3901TIP3    H211710   6.275   1.867   1.753  1.1703  0.2560  1.4654
 3902TIP3   OH211711   3.895   0.699   5.014  0.3313 -0.1721 -0.3401
 3902TIP3    H111712   3.832   0.701   5.086 -0.2565  0.4132 -0.8625
 3902TIP3    H211713   3.969   0.752   5.046 -0.0525  0.3317 -0.2726
 3903TIP3   OH211714   3.658   4.133   5.010 -0.4336  0.7387  0.1387
 3903TIP3    H111715   3.597   4.067   5.044 -0.8937  0.9209 -0.3093
 3903TIP3    H211716   3.628   4.216   5.048 -0.1992  0.7701  0.2577
 3904TIP3   OH211717   5.303   3.179   2.683  0.2949  0.0762  0.0354
 3904TIP3    H111718   5.291   3.084   2.672  0.7174 -0.0959  1.0293
 3904TIP3    H211719   5.343   3.189   2.769  2.0865  1.0362 -0.8587
 3905TIP3   OH211720   1.381   1.241   4.235 -0.4398  0.0382 -0.2007
 3905TIP3    H111721   1.417   1.327   4.216 -1.7810  0.6683  0.0059
 3905TIP3    H211722   1.293   1.243   4.198 -0.4065 -1.3354 -0.4068
 3906TIP3   OH211723   6.268   2.323   4.200 -0.3104 -0.1904  0.3103
 3906TIP3    H111724   6.248   2.335   4.107 -0.6888 -0.2695  0.3798
 3906TIP3    H211725   6.330   2.393   4.220 -1.0018  0.4633  0.2370
 3907TIP3   OH211726   1.488   0.064   0.964 -0.1442  0.3651 -0.3637
 3907TIP3    H111727   1.485   0.043   1.057 -0.1045 -0.6063 -0.5692
 3907TIP3    H211728   1.397   0.081   0.940 -0.1524  0.6287 -0.1545
 3908TIP3   OH211729   1.944   5.576   5.006  0.2444  0.6830  0.5165
 3908TIP3    H111730   2.010   5.539   4.947  0.5472  0.7686  0.8043
 3908TIP3    H211731   1.906   5.649   4.957 -0.4555 -0.0705 -0.1178
 3909TIP3   OH211732   2.457   0.859   3.817 -0.0177 -0.0863 -0.1058
 3909TIP3    H111733   2.537   0.812   3.842 -0.9433 -0.8786  1.6121
 3909TIP3    H211734   2.410   0.871   3.900 -2.3703 -0.9844 -1.2056
 3910TIP3   OH211735   1.431   1.307   0.526 -0.0587 -1.1725  0.3743
 3910TIP3    H111736   1.522   1.311   0.556  0.4179 -0.3836 -1.1072
 3910TIP3    H211737   1.389   1.381   0.569  0.1651 -1.1137  0.4979
 3911TIP3   OH211738   6.223   2.157   2.028  0.0974 -0.2882 -0.1332
 3911TIP3    H111739   6.237   2.137   1.935  0.0898 -0.8187 -0.0242
 3911TIP3    H211740   6.130   2.179   2.033 -0.1122 -1.1304 -0.1101
 3912TIP3   OH211741   1.126   0.519   3.166 -0.2679 -0.2133  0.7162
 3912TIP3    H111742   1.221   0.507   3.167 -0.4777 -2.2197  0.4337
 3912TIP3    H211743   1.102   0.527   3.258  0.1829  0.5621  0.7773
 3913TIP3   OH211744   4.521   2.522   0.354  0.3209  0.2558 -0.4686
 3913TIP3    H111745   4.539   2.514   0.260 -0.1574 -1.7324 -0.4396
 3913TIP3    H211746   4.425   2.521   0.359  0.3502 -0.0246  0.0622
 3914TIP3   OH211747   1.190   3.391   0.063 -0.4725  0.4281 -0.4523
 3914TIP3    H111748   1.267   3.436   0.026 -0.1969 -0.1724 -0.6291
 3914TIP3    H211749   1.188   3.418   0.154 -1.3762  2.2361 -0.9593
 3915TIP3   OH211750   5.358   5.466   0.300  0.1245 -0.1040  0.2684
 3915TIP3    H111751   5.395   5.402   0.239  0.2707  0.3360 -0.1087
 3915TIP3    H211752   5.316   5.413   0.368  2.1543 -0.6586  1.1873
 3916TIP3   OH211753   2.764   5.413   4.853 -0.1180 -0.0122  0.3457
 3916TIP3    H111754   2.688   5.356   4.843  1.6126 -2.4276  0.1213
 3916TIP3    H211755   2.781   5.445   4.764  0.6370 -1.5974 -0.1128
 3917TIP3   OH211756   1.320   1.312   1.852 -0.0356 -0.3565  0.0860
 3917TIP3    H111757   1.239   1.363   1.861  0.7634  0.5121  4.0234
 3917TIP3    H211758   1.372   1.362   1.789 -1.5001  0.5242 -0.4966
 3918TIP3   OH211759   3.729   3.546   0.841  0.0529 -0.2846  0.2442
 3918TIP3    H111760   3.699   3.536   0.751 -0.2943  0.0865  0.3149
 3918TIP3    H211761   3.797   3.479   0.851 -0.3646 -0.7681 -0.0868
 3919TIP3   OH211762   6.042   5.914   4.131  0.3499 -0.2029  0.0132
 3919TIP3    H111763   6.008   5.989   4.179 -0.0353 -1.1291  1.2325
 3919TIP3    H211764   5.974   5.847   4.140  0.6136 -0.6528 -1.1978
 3920TIP3   OH211765   0.715   0.687   0.293 -0.4215 -0.1019  0.0075
 3920TIP3    H111766   0.768   0.676   0.372  0.6021 -0.1164 -0.6515
 3920TIP3    H211767   0.633   0.643   0.312  0.0349 -0.6151  0.8425
 3921TIP3   OH211768   2.156   1.781   3.842 -0.5186  0.2106  0.3099
 3921TIP3    H111769   2.113   1.830   3.911  0.0976 -1.0887  1.6799
 3921TIP3    H211770   2.209   1.846   3.795 -0.1027  0.9512  1.7544
 3922TIP3   OH211771   1.794   0.422   3.822  0.4229  0.3845  0.2160
 3922TIP3    H111772   1.715   0.399   3.774  0.6443  1.3764 -0.6677
 3922TIP3    H211773   1.824   0.339   3.860 -0.9957 -0.0108  0.5271
 3923TIP3   OH211774   2.364   1.153   0.857 -0.7741  0.4037 -0.4949
 3923TIP3    H111775   2.363   1.119   0.947 -0.2936  1.3838 -0.1126
 3923TIP3    H211776   2.424   1.094   0.810 -0.0748  0.6165  0.1228
 3924TIP3   OH211777   1.567   0.229   3.157 -0.0434  0.1762  0.2362
 3924TIP3    H111778   1.579   0.161   3.091 -0.6127  0.5281 -0.2364
 3924TIP3    H211779   1.656   0.254   3.182  0.1808  0.0787 -0.4465
 3925TIP3   OH211780   3.742   1.441   0.178 -0.3262 -0.3485 -0.2129
 3925TIP3    H111781   3.695   1.425   0.095  1.2311 -1.2410 -0.9629
 3925TIP3    H211782   3.772   1.531   0.172 -1.5985  0.1226  0.1251
 3926TIP3   OH211783   0.284   3.958   1.930 -0.3910  0.0080 -0.2268
 3926TIP3    H111784   0.189   3.966   1.930 -0.3406  1.6264  1.8210
 3926TIP3    H211785   0.315   4.040   1.893  0.1974  0.1065  0.4593
 3927TIP3   OH211786   1.445   3.897   2.518 -0.1768 -0.2857  0.0118
 3927TIP3    H111787   1.467   3.937   2.602  0.3917  2.3369 -1.2989
 3927TIP3    H211788   1.364   3.941   2.490 -0.5409 -1.3482 -0.6962
 3928TIP3   OH211789   3.672   1.007   3.190 -0.2038 -0.3056  0.0337
 3928TIP3    H111790   3.756   0.994   3.146 -0.5614  0.1173 -0.7866
 3928TIP3    H211791   3.684   1.086   3.243  0.6808 -1.5896  1.8549
 3929TIP3   OH211792   4.281   2.461   3.317 -0.4241  0.3065  0.5523
 3929TIP3    H111793   4.216   2.459   3.387 -1.7796  1.0582 -0.6229
 3929TIP3    H211794   4.258   2.386   3.262 -0.2048  0.4850  0.2144
 3930TIP3   OH211795   1.252   0.899   4.795 -0.5074 -0.4576  0.2037
 3930TIP3    H111796   1.305   0.964   4.842 -1.7015 -0.3853  1.4802
 3930TIP3    H211797   1.174   0.887   4.849 -1.9823 -0.3248 -1.7878
 3931TIP3   OH211798   2.590   3.256   2.471 -0.0036  0.1248 -0.2094
 3931TIP3    H111799   2.606   3.312   2.547  2.0785 -0.0768 -0.4548
 3931TIP3    H211800   2.591   3.316   2.396  1.1137 -0.0703 -0.3638
 3932TIP3   OH211801   5.401   4.317   3.785  0.2622 -0.3905  0.0005
 3932TIP3    H111802   5.389   4.412   3.781  1.1851 -0.2912 -0.9280
 3932TIP3    H211803   5.314   4.282   3.801 -0.1636  0.5917 -0.1038
 3933TIP3   OH211804   3.438   2.683   4.237 -0.2932  0.5699  0.1893
 3933TIP3    H111805   3.434   2.778   4.248 -0.4439  0.6739 -0.6485
 3933TIP3    H211806   3.488   2.670   4.156 -0.6344 -0.0494  0.0691
 3934TIP3   OH211807   0.916   5.065   0.489  0.4543 -0.0443 -0.3245
 3934TIP3    H111808   0.892   5.145   0.442 -1.1733 -0.7708 -0.7999
 3934TIP3    H211809   0.862   5.066   0.568  0.7166 -0.4716 -0.1336
 3935TIP3   OH211810   1.644   5.553   4.745  0.4877  0.4797 -0.1393
 3935TIP3    H111811   1.549   5.545   4.734  0.8126 -3.6160 -1.7416
 3935TIP3    H211812   1.655   5.580   4.836 -2.2759 -1.2089  0.8171
 3936TIP3   OH211813   4.900   2.737   2.936  0.0014  0.0156 -0.0671
 3936TIP3    H111814   4.885   2.819   2.889  2.2197  1.3988  1.4150
 3936TIP3    H211815   4.901   2.762   3.029 -1.6020 -2.1480  0.6316
 3937TIP3   OH211816   4.367   2.579   3.787 -0.1279  0.1429  0.8036
 3937TIP3    H111817   4.345   2.487   3.772 -1.8947  0.5770  0.4850
 3937TIP3    H211818   4.324   2.601   3.869 -0.2385  0.8338  0.5733
 3938TIP3   OH211819   0.551   4.173   4.441 -0.6545 -0.4477  0.2734
 3938TIP3    H111820   0.567   4.106   4.507 -3.0611 -0.9997  0.4156
 3938TIP3    H211821   0.491   4.235   4.484 -0.5445  0.3614 -0.6955
 3939TIP3   OH211822   1.542   1.653   3.068  0.3922  0.2000  0.5239
 3939TIP3    H111823   1.575   1.708   3.139  0.2745  0.6594  0.2320
 3939TIP3    H211824   1.620   1.629   3.018  0.4849 -0.2031  0.8671
 3940TIP3   OH211825   5.858   5.954   3.626 -0.1397 -0.2057  0.4190
 3940TIP3    H111826   5.951   5.942   3.646  0.1335 -0.1285 -0.7461
 3940TIP3    H211827   5.815   5.953   3.712  1.1345  1.7100  1.1470
 3941TIP3   OH211828   4.953   1.522   2.876  0.1364  0.1163 -0.0482
 3941TIP3    H111829   4.939   1.575   2.797  0.2466  1.3126  0.7074
 3941TIP3    H211830   4.913   1.573   2.946  2.3571  0.4112  1.1026
 3942TIP3   OH211831   4.889   5.174   2.142  0.3940 -0.1895  0.1234
 3942TIP3    H111832   4.856   5.088   2.168  1.5370 -0.7516 -0.2439
 3942TIP3    H211833   4.964   5.189   2.199 -0.1327  0.8387  0.5757
 3943TIP3   OH211834   4.901   4.786   4.258  0.2426  0.3660 -0.4278
 3943TIP3    H111835   4.992   4.764   4.278 -0.6990 -2.4138  1.3465
 3943TIP3    H211836   4.871   4.836   4.334 -0.5957 -1.7169  0.6893
 3944TIP3   OH211837   4.399   5.952   0.134  0.0683 -0.1821 -0.1972
 3944TIP3    H111838   4.344   5.887   0.178  0.3472 -0.8138 -0.7692
 3944TIP3    H211839   4.347   5.981   0.059  0.3874 -0.5526 -0.5624
 3945TIP3   OH211840   4.184   0.259   1.770 -0.2943 -0.0696 -0.3988
 3945TIP3    H111841   4.200   0.190   1.835 -0.6816  0.3176  0.1118
 3945TIP3    H211842   4.115   0.313   1.808  1.7809  2.1601  0.3996
 3946TIP3   OH211843   0.510   2.806   3.835  0.6969 -0.0698  0.3178
 3946TIP3    H111844   0.475   2.887   3.870  1.2635  0.0064  0.7161
 3946TIP3    H211845   0.604   2.809   3.855  0.8373 -0.5223 -0.2369
 3947TIP3   OH211846   4.315   5.217   0.132  0.6100  0.0383  0.1589
 3947TIP3    H111847   4.329   5.306   0.098 -1.9478 -0.2899 -2.0092
 3947TIP3    H211848   4.273   5.230   0.217  0.4979  0.8982 -0.0213
 3948TIP3   OH211849   3.415   0.636   0.465 -0.1504 -0.1817  0.3894
 3948TIP3    H111850   3.425   0.588   0.547 -0.2979 -0.1299  0.4374
 3948TIP3    H211851   3.501   0.629   0.423  0.1467  0.4066  0.8802
 3949TIP3   OH211852   3.972   0.482   2.513  0.0505  0.3405 -0.3913
 3949TIP3    H111853   3.947   0.421   2.443 -1.8847  2.1594 -1.4033
 3949TIP3    H211854   4.066   0.468   2.525  0.0311 -1.4462 -1.9359
 3950TIP3   OH211855   6.330   2.329   5.062 -0.4402 -0.2936 -0.5660
 3950TIP3    H111856   6.326   2.376   5.146  1.8264  1.4142 -1.3134
 3950TIP3    H211857   6.314   2.238   5.085  1.2714 -0.0612  1.9370
 3951TIP3   OH211858   0.310   2.208   1.539  0.8002  0.1643 -0.5109
 3951TIP3    H111859   0.217   2.182   1.546  1.1952 -1.3581 -0.4565
 3951TIP3    H211860   0.320   2.236   1.448  0.4055 -0.1808 -0.6672
 3952TIP3   OH211861   2.991   3.747   3.089  0.1307  0.3273 -0.0555
 3952TIP3    H111862   2.935   3.820   3.063  2.9685  3.1650  1.1930
 3952TIP3    H211863   3.026   3.772   3.174  0.9793 -2.7452  0.6260
 3953TIP3   OH211864   1.490   0.397   1.555  0.0547  0.1239  0.2129
 3953TIP3    H111865   1.563   0.347   1.593 -1.5408 -0.6913  2.4062
 3953TIP3    H211866   1.529   0.443   1.481  3.1523  0.8564  2.1105
 3954TIP3   OH211867   4.200   3.172   1.791 -0.8795  0.6444  0.5132
 3954TIP3    H111868   4.215   3.154   1.884 -0.7454 -1.8521  0.0772
 3954TIP3    H211869   4.288   3.177   1.753 -0.9446  0.3740  0.3218
 3955TIP3   OH211870   2.560   5.857   3.189  0.5683 -0.1512 -0.3339
 3955TIP3    H111871   2.576   5.834   3.281  1.2760  2.5965  0.3446
 3955TIP3    H211872   2.647   5.856   3.149  0.4809  0.2462 -0.5410
 3956TIP3   OH211873   2.827   5.106   4.646  0.4637  0.2469 -0.6877
 3956TIP3    H111874   2.897   5.134   4.706 -0.0785 -0.9010  0.5284
 3956TIP3    H211875   2.841   5.013   4.634 -1.9450 -0.4638  1.1773
 3957TIP3   OH211876   4.444   4.642   0.394 -0.3124  0.6112 -0.6295
 3957TIP3    H111877   4.406   4.617   0.478 -1.5747  1.6951 -0.8440
 3957TIP3    H211878   4.537   4.622   0.403 -0.4713  0.4239  0.9141
 3958TIP3   OH211879   6.182   3.780   4.101  0.3178 -0.0750  0.2542
 3958TIP3    H111880   6.253   3.762   4.040 -0.0714 -0.7094 -0.0189
 3958TIP3    H211881   6.145   3.863   4.071  1.3833  0.6396  0.8257
 3959TIP3   OH211882   1.620   2.638   0.474  0.3708 -0.1564 -0.2832
 3959TIP3    H111883   1.685   2.610   0.539  0.2688  1.1250  0.4066
 3959TIP3    H211884   1.552   2.680   0.525  0.0016  0.3547 -1.1815
 3960TIP3   OH211885   1.161   2.013   1.491 -0.2494 -0.2650  0.1097
 3960TIP3    H111886   1.150   1.929   1.446 -0.2165  0.5484 -1.4897
 3960TIP3    H211887   1.095   2.011   1.560 -0.6802 -1.3475 -0.2984
 3961TIP3   OH211888   3.950   1.238   4.106 -0.3458 -0.0201  0.2330
 3961TIP3    H111889   4.002   1.182   4.049  0.5421  1.7876 -0.8384
 3961TIP3    H211890   3.895   1.178   4.156  1.3547 -1.8858 -0.0240
 3962TIP3   OH211891   5.346   2.593   1.234 -0.2363 -0.6044 -0.4034
 3962TIP3    H111892   5.300   2.586   1.317  3.5371  1.8477  2.1950
 3962TIP3    H211893   5.365   2.502   1.209  0.1628 -1.4224  2.5078
 3963TIP3   OH211894   5.924   0.539   2.211 -0.4886 -0.0519 -0.0936
 3963TIP3    H111895   5.946   0.451   2.182 -1.2732 -0.7490  1.2823
 3963TIP3    H211896   5.835   0.553   2.179 -0.1752  0.4594 -0.7535
 3964TIP3   OH211897   5.667   3.541   2.043 -0.5223 -0.3916  0.3795
 3964TIP3    H111898   5.736   3.593   2.002 -0.4548 -0.4781  0.3819
 3964TIP3    H211899   5.708   3.505   2.121 -0.6897 -0.1239  0.5919
 3965TIP3   OH211900   0.631   4.209   3.782  0.3786 -0.5445 -0.3644
 3965TIP3    H111901   0.537   4.221   3.765  0.3866 -0.8343 -0.6208
 3965TIP3    H211902   0.643   4.242   3.871  0.6097  2.4452 -1.3737
 3966TIP3   OH211903   1.178   0.961   2.036 -1.0707  0.0893  0.1653
 3966TIP3    H111904   1.126   0.926   2.108 -0.6478  0.3442  0.6016
 3966TIP3    H211905   1.158   1.055   2.036  1.6148  0.7898  2.2962
 3967TIP3   OH211906   0.379   4.747   3.128  0.0014 -0.8913  0.2494
 3967TIP3    H111907   0.450   4.766   3.066  1.2692 -0.2309  1.8195
 3967TIP3    H211908   0.340   4.667   3.095  0.6691 -0.6041 -1.3574
 3968TIP3   OH211909   3.119   4.302   0.675 -0.2189  0.2523  0.0565
 3968TIP3    H111910   3.181   4.229   0.683  0.5245  0.9473  0.7787
 3968TIP3    H211911   3.120   4.344   0.760 -1.0384  0.8086 -0.1977
 3969TIP3   OH211912   3.750   3.468   3.422  0.3114 -0.2156 -0.1248
 3969TIP3    H111913   3.769   3.510   3.506 -1.1110 -1.5374  0.9201
 3969TIP3    H211914   3.784   3.529   3.356 -0.8043  2.1064  1.3155
 3970TIP3   OH211915   0.576   1.085   4.512  0.4296 -0.1732  0.1650
 3970TIP3    H111916   0.501   1.087   4.572  0.8533 -0.0338  0.6960
 3970TIP3    H211917   0.538   1.101   4.426 -0.2897 -1.1153  0.2870
 3971TIP3   OH211918   2.719   2.188   2.532  0.1231 -0.8210 -0.3531
 3971TIP3    H111919   2.697   2.150   2.616 -0.0435  1.9504  0.9647
 3971TIP3    H211920   2.640   2.233   2.504  1.1959  1.3185 -0.1698
 3972TIP3   OH211921   4.318   3.480   3.321  0.3583  0.1166  0.2986
 3972TIP3    H111922   4.366   3.512   3.245 -0.3309  0.4293 -0.0154
 3972TIP3    H211923   4.314   3.385   3.308  0.6380  0.1187  0.1813
 3973TIP3   OH211924   4.309   1.752   3.836  0.5496 -0.4724  0.6780
 3973TIP3    H111925   4.363   1.728   3.761  1.0763  1.4812  0.3754
 3973TIP3    H211926   4.266   1.833   3.810 -0.1066 -0.3345  2.0896
 3974TIP3   OH211927   5.353   5.882   1.254 -0.3530 -0.6688  0.0894
 3974TIP3    H111928   5.291   5.876   1.326 -0.4317  1.5937  0.2892
 3974TIP3    H211929   5.320   5.954   1.200  1.6740  0.1438 -0.1666
 3975TIP3   OH211930   3.559   0.697   3.347 -0.1106 -0.0006  0.5110
 3975TIP3    H111931   3.557   0.605   3.374  1.3277 -0.3566 -0.4493
 3975TIP3    H211932   3.603   0.743   3.419  1.6760 -0.5636 -0.1678
 3976TIP3   OH211933   0.300   3.602   4.334 -0.0559  0.2177  0.2652
 3976TIP3    H111934   0.308   3.558   4.249  1.1363 -0.3789  0.6654
 3976TIP3    H211935   0.374   3.570   4.385  0.2476  1.8933  0.9519
 3977TIP3   OH211936   3.295   3.808   4.684  0.8478 -0.6846 -0.1339
 3977TIP3    H111937   3.273   3.738   4.623 -0.3415  0.0853 -0.6260
 3977TIP3    H211938   3.391   3.813   4.682  1.0420 -2.8686  0.6083
 3978TIP3   OH211939   1.293   2.835   3.885  0.5331 -0.0796 -0.3034
 3978TIP3    H111940   1.325   2.923   3.906  1.3873 -0.3451 -0.4598
 3978TIP3    H211941   1.301   2.828   3.790  0.1956 -0.2303 -0.3250
 3979TIP3   OH211942   5.559   4.277   0.980  0.0948  0.0976 -0.2121
 3979TIP3    H111943   5.556   4.314   0.891  0.1773  2.1077  0.5573
 3979TIP3    H211944   5.651   4.258   0.995  0.0514 -0.4597 -0.6259
 3980TIP3   OH211945   3.884   1.547   0.938 -0.4436 -0.2217 -0.0030
 3980TIP3    H111946   3.975   1.576   0.932  0.0113 -1.3623  0.7889
 3980TIP3    H211947   3.890   1.452   0.928 -1.8078 -0.1398 -2.1265
 3981TIP3   OH211948   1.682   4.723   1.001 -0.2953 -0.0904  0.4252
 3981TIP3    H111949   1.765   4.676   0.998  0.0206  0.4935 -0.1798
 3981TIP3    H211950   1.618   4.660   0.969  0.2022  0.0359 -0.8897
 3982TIP3   OH211951   1.783   1.978   3.828 -0.4400  0.2126  1.4697
 3982TIP3    H111952   1.701   2.027   3.821 -0.0956  0.7543  1.1714
 3982TIP3    H211953   1.815   1.997   3.916 -1.1500 -0.8394  1.9792
 3983TIP3   OH211954   2.395   0.912   2.170  0.3792  0.1205 -0.0907
 3983TIP3    H111955   2.402   0.976   2.099  0.0245  0.6289  0.3289
 3983TIP3    H211956   2.485   0.883   2.183  0.2124 -1.6415 -2.2317
 3984TIP3   OH211957   4.307   2.676   2.969  0.1115  0.1062  0.4458
 3984TIP3    H111958   4.240   2.700   3.032  0.0574  2.3429 -0.3635
 3984TIP3    H211959   4.311   2.580   2.973  0.1590  0.1397  3.8154
 3985TIP3   OH211960   0.435   5.746   3.775 -0.0550  0.0521  0.4443
 3985TIP3    H111961   0.518   5.776   3.739 -0.3272  0.1893 -0.0927
 3985TIP3    H211962   0.413   5.808   3.844  0.5760 -0.3264  0.9938
 3986TIP3   OH211963   3.093   3.431   1.791 -0.0523  0.8491 -0.5815
 3986TIP3    H111964   3.136   3.358   1.746  1.9887  0.4290  1.8234
 3986TIP3    H211965   3.043   3.475   1.723  0.6864 -1.2878 -2.6490
 3987TIP3   OH211966   5.979   3.965   2.205 -0.3669 -0.1517  0.0202
 3987TIP3    H111967   5.916   4.030   2.173 -0.4114 -0.6277 -0.8921
 3987TIP3    H211968   6.021   4.007   2.280 -0.0350  1.1312 -0.8606
 3988TIP3   OH211969   1.760   1.503   0.798  0.5046  0.1671  0.4972
 3988TIP3    H111970   1.787   1.519   0.889 -1.9069  2.5709  0.9109
 3988TIP3    H211971   1.676   1.459   0.806  0.8689 -0.7658 -0.6279
 3989TIP3   OH211972   5.953   0.357   4.563  0.5138 -0.0340 -0.7272
 3989TIP3    H111973   5.969   0.451   4.563  2.0902 -0.2589  0.2759
 3989TIP3    H211974   5.920   0.338   4.651 -0.6341 -0.3165 -1.1996
 3990TIP3   OH211975   1.112   1.344   2.136 -0.6157 -0.8541  0.0432
 3990TIP3    H111976   1.043   1.306   2.191  1.2509 -2.5938  1.2882
 3990TIP3    H211977   1.193   1.328   2.184  0.6431  2.0234 -0.8746
 3991TIP3   OH211978   0.523   3.929   3.774 -0.0233 -0.3125  0.3663
 3991TIP3    H111979   0.593   3.994   3.786  0.8204 -1.1359 -0.0162
 3991TIP3    H211980   0.562   3.861   3.721 -1.9863  0.5863 -2.4626
 3992TIP3   OH211981   0.075   1.360   4.021  0.5035  0.0788  0.0645
 3992TIP3    H111982   0.086   1.380   3.928  2.6468 -0.6078  0.1178
 3992TIP3    H211983   0.072   1.446   4.063 -0.8743  0.4029 -0.6550
 3993TIP3   OH211984   1.109   2.361   3.782  0.0942 -0.2044 -0.1421
 3993TIP3    H111985   1.185   2.409   3.751 -0.7819  0.0386 -2.0992
 3993TIP3    H211986   1.078   2.313   3.704  0.2979 -3.1436  1.4299
 3994TIP3   OH211987   0.604   2.789   2.219 -0.2577 -0.1136  0.1352
 3994TIP3    H111988   0.528   2.772   2.275  0.6008 -2.0290  0.7953
 3994TIP3    H211989   0.664   2.839   2.274  0.0089 -0.8056  0.4844
 3995TIP3   OH211990   4.589   3.074   3.784 -0.3417 -0.4983 -0.2430
 3995TIP3    H111991   4.512   3.078   3.840 -1.1258 -2.7608 -1.0632
 3995TIP3    H211992   4.583   3.154   3.730 -2.2514 -0.7418 -0.4581
 3996TIP3   OH211993   4.125   3.583   0.374 -0.0060  0.5882 -0.6147
 3996TIP3    H111994   4.049   3.526   0.373  1.2467 -1.1975 -2.6172
 3996TIP3    H211995   4.129   3.617   0.463 -1.8224 -1.0752  0.1598
 3997TIP3   OH211996   5.988   2.703   1.785  0.2494  0.0777  0.3062
 3997TIP3    H111997   6.046   2.774   1.809  0.0661  0.7877 -1.2305
 3997TIP3    H211998   5.904   2.746   1.768 -0.5176 -0.8211  1.6527
 3998TIP3   OH211999   3.602   1.813   3.012  0.2546 -0.5114 -0.6139
 3998TIP3    H112000   3.619   1.828   3.105  0.9790 -1.6519 -0.5357
 3998TIP3    H212001   3.611   1.899   2.971  0.0682 -0.0247  0.3505
 3999TIP3   OH212002   5.570   2.818   3.509 -0.7468 -0.2420 -0.3677
 3999TIP3    H112003   5.535   2.734   3.538 -0.8543 -0.2036 -0.3827
 3999TIP3    H212004   5.603   2.859   3.589 -0.9888 -0.1612 -0.3078
 4000TIP3   OH212005   2.344   2.899   1.268 -0.0924 -0.4633  0.1481
 4000TIP3    H112006   2.273   2.836   1.282  0.4654 -0.9006  1.1122
 4000TIP3    H212007   2.403   2.885   1.342  0.4048  0.7088 -0.0041
 4001TIP3   OH212008   5.920   2.534   4.990 -0.7081 -0.6366  0.2453
 4001TIP3    H112009   5.948   2.556   5.079  1.5724  0.6679 -0.7184
 4001TIP3    H212010   5.986   2.472   4.959 -0.2104  0.6113 -1.2611
 4002TIP3   OH212011   0.729   1.954   2.508  0.1261 -0.0657 -0.3568
 4002TIP3    H112012   0.777   1.893   2.563 -0.2339 -0.6110 -0.6358
 4002TIP3    H212013   0.786   2.031   2.502 -0.9140  1.1369  2.9135
 4003TIP3   OH212014   4.029   5.394  -0.006 -0.2653  0.1115  0.2239
 4003TIP3    H112015   3.934   5.383  -0.004 -0.5218  1.1666 -2.1706
 4003TIP3    H212016   4.061   5.344   0.069 -2.7581  0.4583  1.6154
 4004TIP3   OH212017   5.798   1.097   4.113 -0.6094  0.4818  0.2172
 4004TIP3    H112018   5.832   1.075   4.200  2.3654  0.4324 -0.8497
 4004TIP3    H212019   5.843   1.179   4.091 -1.4493  0.5747 -1.2170
 4005TIP3   OH212020   1.687   2.685   2.448 -0.3680  0.4637  0.2420
 4005TIP3    H112021   1.688   2.615   2.513  1.5456  1.3327  1.2295
 4005TIP3    H212022   1.667   2.764   2.497 -0.9636  0.8553 -0.5986
 4006TIP3   OH212023   3.690   3.753   3.862  0.0654  0.0204 -0.4243
 4006TIP3    H112024   3.695   3.822   3.797  1.9732  1.6691  1.3208
 4006TIP3    H212025   3.723   3.675   3.817  1.0002  1.0243 -1.5632
 4007TIP3   OH212026   4.421   2.032   3.536  0.1896  0.8882  0.0864
 4007TIP3    H112027   4.479   2.037   3.612  1.4284  0.6814 -0.7973
 4007TIP3    H212028   4.465   2.086   3.470  0.2414 -0.5788 -1.1303
 4008TIP3   OH212029   3.757   4.971   0.729 -0.0757 -0.2729 -0.0862
 4008TIP3    H112030   3.680   5.009   0.687 -0.4075 -2.0162 -1.1292
 4008TIP3    H212031   3.732   4.963   0.822 -0.0245  1.8526  0.1693
 4009TIP3   OH212032   0.901   5.724   4.126 -0.4586 -0.0503  0.7407
 4009TIP3    H112033   0.984   5.767   4.107  0.9058 -3.0698 -0.8387
 4009TIP3    H212034   0.841   5.795   4.147  2.2334  2.3351  0.9253
 4010TIP3   OH212035   5.943   2.481   3.177 -0.1363  0.2271 -0.1726
 4010TIP3    H112036   5.989   2.447   3.253  0.9875  0.8771 -0.5392
 4010TIP3    H212037   5.963   2.575   3.177  0.5451  0.1132 -1.6983
 4011TIP3   OH212038   1.518   0.657   4.649 -0.1317 -0.0131 -0.0983
 4011TIP3    H112039   1.445   0.706   4.610 -1.0791  0.9361  2.6088
 4011TIP3    H212040   1.587   0.661   4.584 -2.4513 -0.9688 -2.8076
 4012TIP3   OH212041   1.049   2.577   0.028  0.3186  0.2214  0.5377
 4012TIP3    H112042   1.005   2.647   0.076  0.3858  0.3685  0.3858
 4012TIP3    H212043   0.990   2.556  -0.045 -0.3542 -0.8377  1.3681
 4013TIP3   OH212044   0.342   0.321   1.878 -0.1405 -0.2978  0.4728
 4013TIP3    H112045   0.369   0.304   1.787 -2.0525  0.8160 -0.3496
 4013TIP3    H212046   0.260   0.273   1.888  0.4998 -1.1495  1.9420
 4014TIP3   OH212047   0.583   6.004   3.463 -0.4117  0.3207 -0.3519
 4014TIP3    H112048   0.555   5.925   3.510  0.4280  0.1881 -0.0449
 4014TIP3    H212049   0.526   6.008   3.387 -0.5606 -0.5116 -0.2978
 4015TIP3   OH212050   0.764   0.320   3.360 -0.0939 -0.2330 -0.2788
 4015TIP3    H112051   0.803   0.319   3.273  0.3787 -1.8995 -0.0813
 4015TIP3    H212052   0.813   0.253   3.409 -1.7048 -0.7942  0.6474
 4016TIP3   OH212053   0.957   2.132   2.529  0.2089  0.8967  0.7061
 4016TIP3    H112054   1.015   2.092   2.593  0.6259  0.0240 -0.1854
 4016TIP3    H212055   1.000   2.117   2.445 -1.9438 -1.0423 -0.1680
 4017TIP3   OH212056   1.541   5.276   2.385 -0.2503  0.2508  0.1205
 4017TIP3    H112057   1.548   5.353   2.441  1.1754 -0.3270  0.7525
 4017TIP3    H212058   1.495   5.308   2.307  1.0514  1.9566  0.0032
 4018TIP3   OH212059   2.256   2.274   4.860 -0.1516  0.0144  0.0160
 4018TIP3    H112060   2.238   2.307   4.772  0.4942 -0.1752 -0.1936
 4018TIP3    H212061   2.321   2.205   4.847  1.6485  1.4547  0.8217
 4019TIP3   OH212062   5.254   4.504   0.738  0.3245 -0.5522 -0.1039
 4019TIP3    H112063   5.340   4.464   0.755  1.7092  2.1910 -0.0064
 4019TIP3    H212064   5.257   4.588   0.784 -1.9186  0.2067 -1.1686
 4020TIP3   OH212065   1.030   2.596   0.425  0.2365 -0.5297 -0.2443
 4020TIP3    H112066   0.943   2.636   0.418  0.2383 -0.5760 -0.5769
 4020TIP3    H212067   1.080   2.638   0.355  0.4898 -0.4788 -0.0294
 4021TIP3   OH212068   4.448   5.660   2.711  0.5176 -0.0944  0.2421
 4021TIP3    H112069   4.397   5.646   2.631 -2.0524 -0.3731  1.8005
 4021TIP3    H212070   4.516   5.722   2.686  0.2713 -0.7384 -2.3138
 4022TIP3   OH212071   5.979   1.095   4.700 -0.0897 -0.0186  0.6108
 4022TIP3    H112072   6.036   1.148   4.756 -0.9779 -1.5332  3.0685
 4022TIP3    H212073   5.895   1.092   4.745 -1.9311  1.2975 -2.4265
 4023TIP3   OH212074   6.265   1.344   2.154  0.0576  0.3722 -0.2327
 4023TIP3    H112075   6.212   1.269   2.182  0.6945  0.6487  1.8222
 4023TIP3    H212076   6.205   1.419   2.162  0.0312  0.3574 -0.2914
 4024TIP3   OH212077   3.277   5.902   1.522  0.0384 -0.2942 -0.7091
 4024TIP3    H112078   3.230   5.985   1.510  1.2740  0.4819 -0.2586
 4024TIP3    H212079   3.329   5.893   1.442  1.2807  0.2961 -0.0007
 4025TIP3   OH212080   2.995   5.938   2.998  0.8066 -0.3680 -0.3545
 4025TIP3    H112081   2.996   5.856   2.948  1.9209 -1.5845  1.5559
 4025TIP3    H212082   3.080   5.979   2.980 -0.1408  0.9819 -2.1336
 4026TIP3   OH212083   1.281   0.979   4.305  0.0799 -0.1612  1.1392
 4026TIP3    H112084   1.354   0.954   4.248 -1.1233 -1.6737  0.1603
 4026TIP3    H212085   1.278   1.075   4.300  0.3595 -0.2166 -0.9572
 4027TIP3   OH212086   5.708   3.354   1.357 -0.1052  0.2960 -0.3897
 4027TIP3    H112087   5.743   3.266   1.347 -0.3770  0.2966 -1.3652
 4027TIP3    H212088   5.737   3.381   1.445 -0.0059 -0.7436 -0.0889
 4028TIP3   OH212089   2.721   4.598   2.030  0.7795 -0.2154  0.2214
 4028TIP3    H112090   2.662   4.636   2.096  0.7447 -2.3922  1.5410
 4028TIP3    H212091   2.715   4.657   1.955 -1.1855  0.9406  1.2226
 4029TIP3   OH212092   0.040   5.314   4.719 -0.0333  0.3648 -0.3202
 4029TIP3    H112093   0.037   5.311   4.624  0.7112  0.5606 -0.3514
 4029TIP3    H212094  -0.035   5.261   4.747 -0.9569  1.2613 -1.0149
 4030TIP3   OH212095   5.562   1.855   2.836 -0.1411 -0.1884  0.1128
 4030TIP3    H112096   5.622   1.800   2.785 -0.3270 -1.0630  0.8108
 4030TIP3    H212097   5.537   1.800   2.910  0.0886  1.0381  1.1329
 4031TIP3   OH212098   1.879   1.782   0.611 -0.0241  0.8612  0.5752
 4031TIP3    H112099   1.961   1.823   0.585  0.8834 -0.0278  1.8539
 4031TIP3    H212100   1.871   1.706   0.554 -0.8143  1.8164 -0.6271
 4032TIP3   OH212101   5.734   3.489   3.801  0.0244 -0.1191  0.5897
 4032TIP3    H112102   5.766   3.399   3.800 -1.8050 -0.8473  2.0456
 4032TIP3    H212103   5.776   3.528   3.878  1.1604  0.4598 -0.2865
 4033TIP3   OH212104   5.388   3.861   0.053  0.3395  0.1750  0.6650
 4033TIP3    H112105   5.406   3.821  -0.032  0.4208  2.2339 -0.3633
 4033TIP3    H212106   5.401   3.955   0.039 -1.0774  0.7452  2.5751
 4034TIP3   OH212107   5.825   1.393   0.414  0.2862  0.1173 -0.2101
 4034TIP3    H112108   5.917   1.417   0.409  0.5557 -0.8342  0.0179
 4034TIP3    H212109   5.797   1.387   0.323  0.7173 -0.5743 -0.3012
 4035TIP3   OH212110   1.553   1.041   1.662  0.0972 -0.6625  0.3780
 4035TIP3    H112111   1.519   1.101   1.595 -3.7478 -1.6016  1.2676
 4035TIP3    H212112   1.599   1.098   1.724 -0.4152  0.8883 -0.5927
 4036TIP3   OH212113   1.162   1.197   2.448  0.0132 -0.5110  0.2009
 4036TIP3    H112114   1.195   1.128   2.390 -2.1124 -0.6667 -0.9246
 4036TIP3    H212115   1.238   1.224   2.499  1.2434 -2.6489 -0.3655
 4037TIP3   OH212116   0.988   5.603   1.621 -0.2685  0.4524  0.0569
 4037TIP3    H112117   1.076   5.566   1.614  0.0226  1.3328 -1.1006
 4037TIP3    H212118   0.968   5.636   1.534 -0.9193  2.1247  0.7950
 4038TIP3   OH212119   3.730   4.330   0.874  0.3466 -0.0145 -0.0585
 4038TIP3    H112120   3.710   4.237   0.881 -0.3211  0.0504 -1.0225
 4038TIP3    H212121   3.767   4.341   0.787 -0.2144  0.7416 -0.2144
 4039TIP3   OH212122   1.822   0.384   4.833 -0.0256 -0.1922 -0.5205
 4039TIP3    H112123   1.907   0.355   4.866 -0.5614 -0.7926  0.4156
 4039TIP3    H212124   1.776   0.302   4.813 -0.5816  0.1004 -0.4568
 4040TIP3   OH212125   0.226   2.785   2.132  0.5274  0.1246 -0.5566
 4040TIP3    H112126   0.281   2.783   2.210 -1.5132 -2.0462  0.9346
 4040TIP3    H212127   0.148   2.834   2.158 -0.1090 -0.4712 -1.2773
 4041TIP3   OH212128   4.312   1.144   3.414 -1.0347 -0.6283 -0.2588
 4041TIP3    H112129   4.330   1.057   3.378 -0.1933 -0.1968 -0.9086
 4041TIP3    H212130   4.295   1.128   3.507  0.6550 -1.3408 -0.0206
 4042TIP3   OH212131   1.506   0.825   2.430 -0.2864 -0.3358  0.4635
 4042TIP3    H112132   1.422   0.853   2.466 -0.2738  0.1943  0.0949
 4042TIP3    H212133   1.515   0.875   2.348 -0.1055 -1.1706 -0.0353
 4043TIP3   OH212134   4.306   0.437   0.862 -0.0096  0.2626 -0.0389
 4043TIP3    H112135   4.211   0.445   0.858 -0.0603 -0.5097 -0.6680
 4043TIP3    H212136   4.323   0.373   0.930 -0.0914 -1.5366 -1.6186
 4044TIP3   OH212137   3.488   4.408   0.616  0.0790  0.3764 -0.2543
 4044TIP3    H112138   3.575   4.413   0.575  0.6786 -0.8260  0.7727
 4044TIP3    H212139   3.438   4.349   0.561  0.7870 -1.0009  0.5250
 4045TIP3   OH212140   5.195   3.239   0.760  0.0789 -0.2141 -0.2494
 4045TIP3    H112141   5.170   3.213   0.849  0.3129 -1.1541 -0.4453
 4045TIP3    H212142   5.157   3.172   0.704 -0.8323  0.8567 -0.9622
 4046TIP3   OH212143   0.350   5.503   2.583 -0.6619 -0.0103 -0.4106
 4046TIP3    H112144   0.338   5.479   2.675  1.0227  0.9445  0.0940
 4046TIP3    H212145   0.414   5.441   2.550  0.4907  1.0768 -0.2766
 4047TIP3   OH212146   2.060   3.777   0.110  0.0200 -0.6713 -0.3395
 4047TIP3    H112147   2.009   3.737   0.180 -0.8206 -0.4294 -0.7974
 4047TIP3    H212148   2.133   3.819   0.155 -0.0011 -1.2860  0.3001
 4048TIP3   OH212149   2.595   2.527   4.319  0.0088 -0.2795  0.4203
 4048TIP3    H112150   2.549   2.475   4.384  0.3250  0.7749  1.5134
 4048TIP3    H212151   2.552   2.613   4.323  1.2351  0.3369  0.5415
 4049TIP3   OH212152   2.462   3.104   3.374 -0.0065  0.5457  0.5741
 4049TIP3    H112153   2.476   3.034   3.310 -2.4052 -1.6484  2.2289
 4049TIP3    H212154   2.505   3.072   3.454  0.9564  2.1588  0.7476
 4050TIP3   OH212155   3.837   3.212   4.112  0.0931  0.0765 -0.1233
 4050TIP3    H112156   3.752   3.196   4.153  0.6845 -1.8933  0.4871
 4050TIP3    H212157   3.897   3.154   4.160  1.0883 -1.3395 -2.8549
 4051TIP3   OH212158   1.365   2.647   2.821 -0.4911  0.3284  0.7754
 4051TIP3    H112159   1.337   2.564   2.861  0.8483 -0.4647  0.1450
 4051TIP3    H212160   1.283   2.691   2.797 -1.2638 -1.9048 -1.0825
 4052TIP3   OH212161   0.056   1.765   2.680  0.4455 -0.0692 -0.4329
 4052TIP3    H112162   0.034   1.694   2.620 -3.8748  1.6028 -1.2198
 4052TIP3    H212163   0.083   1.837   2.623 -0.9044  0.6552 -0.1940
 4053TIP3   OH212164   3.963   1.007   2.582  0.5660 -0.2800  0.1967
 4053TIP3    H112165   3.964   0.912   2.591 -0.6913 -0.6767 -2.7400
 4053TIP3    H212166   3.903   1.024   2.509  0.7340  2.7862  0.6312
 4054TIP3   OH212167   1.429   1.404   4.593  0.0872 -0.2159  1.0005
 4054TIP3    H112168   1.422   1.493   4.627 -1.3730 -0.3068  0.9923
 4054TIP3    H212169   1.507   1.406   4.538 -1.4880  1.9168 -1.4070
 4055TIP3   OH212170   4.031   0.137   2.806 -0.0212 -0.3141  0.5425
 4055TIP3    H112171   3.975   0.211   2.786 -1.1669 -1.6883 -1.8053
 4055TIP3    H212172   4.007   0.112   2.895 -1.2726  0.7345  0.5305
 4056TIP3   OH212173   5.989   3.544   4.670 -0.1718  0.5571  0.0851
 4056TIP3    H112174   6.019   3.465   4.626  1.2285  0.3219  1.4032
 4056TIP3    H212175   5.927   3.513   4.736  1.0868  0.4276  1.2387
 4057TIP3   OH212176   3.968   1.683   4.284  0.4597  0.7060  0.0367
 4057TIP3    H112177   4.056   1.701   4.251  0.0355  2.7193 -0.0750
 4057TIP3    H212178   3.966   1.723   4.370 -0.3694  0.7171  0.0179
 4058TIP3   OH212179   5.568   5.056   3.674 -0.0061 -0.0531 -0.3550
 4058TIP3    H112180   5.633   5.122   3.698 -0.2714  0.6251 -1.4481
 4058TIP3    H212181   5.617   4.990   3.624  0.4421 -1.2006  1.4806
 4059TIP3   OH212182   0.291   3.058   1.191 -0.4095  0.2296 -0.0739
 4059TIP3    H112183   0.378   3.093   1.174 -0.7007  1.3611  0.6654
 4059TIP3    H212184   0.236   3.097   1.122 -0.4269 -0.0885 -0.2417
 4060TIP3   OH212185   1.398   1.393   2.498  0.0117  0.2809  0.3265
 4060TIP3    H112186   1.476   1.353   2.536  0.1243 -0.4748 -0.6602
 4060TIP3    H212187   1.397   1.363   2.408 -0.3311  1.9093 -0.2513
 4061TIP3   OH212188   3.801   0.336   2.695  0.2353 -0.5580  0.5248
 4061TIP3    H112189   3.864   0.399   2.659  1.2656 -2.1103 -0.5629
 4061TIP3    H212190   3.729   0.335   2.632 -0.1706  0.1191  0.9741
 4062TIP3   OH212191   1.178   5.742   2.226 -0.3433  0.0071 -0.0587
 4062TIP3    H112192   1.118   5.683   2.180 -1.1369  1.2167 -0.6290
 4062TIP3    H212193   1.173   5.715   2.317 -0.5594 -0.9115 -0.3321
 4063TIP3   OH212194   1.953   4.577   3.324  0.7393 -0.3180 -0.3546
 4063TIP3    H112195   1.922   4.488   3.337  1.0347 -0.3196  0.3794
 4063TIP3    H212196   2.020   4.569   3.256 -0.4481 -0.3899 -1.5575
 4064TIP3   OH212197   5.128   1.107   5.075 -0.0344  0.1618 -0.3739
 4064TIP3    H112198   5.171   1.135   5.156  0.3232 -1.3133 -0.0364
 4064TIP3    H212199   5.105   1.189   5.031  0.0543  0.9852  1.0592
 4065TIP3   OH212200   3.503   2.647   2.397  0.4578 -0.1066  0.9297
 4065TIP3    H112201   3.574   2.589   2.368 -0.8789 -1.7648  0.8161
 4065TIP3    H212202   3.447   2.657   2.320  0.1705  0.5664  1.2220
 4066TIP3   OH212203   4.901   5.559   4.156 -0.4648  1.1329 -0.1302
 4066TIP3    H112204   4.969   5.620   4.126  0.6735 -0.1718 -0.3399
 4066TIP3    H212205   4.848   5.543   4.078  0.2501  0.5975 -0.5267
 4067TIP3   OH212206   4.112   0.576   1.138 -0.1935 -0.2885 -0.3473
 4067TIP3    H112207   4.037   0.519   1.154 -0.8012  0.4067 -0.6645
 4067TIP3    H212208   4.083   0.635   1.069  0.4089  0.4430  0.0142
 4068TIP3   OH212209   0.480   0.327   3.097 -0.2968  0.7026 -0.1080
 4068TIP3    H112210   0.432   0.406   3.122 -0.8204  0.6784 -1.0263
 4068TIP3    H212211   0.425   0.255   3.129 -0.2512  0.6914 -0.0539
 4069TIP3   OH212212   1.086   0.933   3.630 -0.0699 -0.4046 -0.1489
 4069TIP3    H112213   1.077   0.969   3.541 -0.1724  0.4696  0.2112
 4069TIP3    H212214   1.046   0.998   3.687  0.1118 -0.9021  0.5612
 4070TIP3   OH212215   6.176   2.225   4.454  0.1427  0.1580 -0.1603
 4070TIP3    H112216   6.095   2.274   4.465 -1.1614 -2.0679  0.9216
 4070TIP3    H212217   6.209   2.251   4.368 -1.5105  1.4001 -0.4584
 4071TIP3   OH212218   6.203   3.168   0.863 -0.3118 -0.0133  0.0989
 4071TIP3    H112219   6.129   3.140   0.810  0.2652 -1.7431  0.1472
 4071TIP3    H212220   6.254   3.225   0.806 -0.3090 -0.9126 -0.8191
 4072TIP3   OH212221   2.871   4.516   4.141  0.4670  0.0539  0.2808
 4072TIP3    H112222   2.803   4.502   4.075  0.0768  0.4035  0.6087
 4072TIP3    H212223   2.951   4.482   4.100  0.3954  1.0500 -0.7105
 4073TIP3   OH212224   2.555   0.522   3.502 -0.1610  0.0511  0.5745
 4073TIP3    H112225   2.581   0.445   3.552  0.0192  0.0573  0.4924
 4073TIP3    H212226   2.583   0.597   3.555  1.1527  0.0586 -0.0985
 4074TIP3   OH212227   1.712   2.314   1.297 -0.0413  0.1490  0.2004
 4074TIP3    H112228   1.670   2.235   1.332  1.3528 -1.2881 -1.2135
 4074TIP3    H212229   1.778   2.336   1.363 -1.4966  1.1986  1.4083
 4075TIP3   OH212230   5.272   3.400   0.552 -0.3643 -0.7420 -0.6151
 4075TIP3    H112231   5.216   3.356   0.616  1.4705 -0.6817  1.1357
 4075TIP3    H212232   5.342   3.337   0.535 -0.0190 -0.1548 -1.3958
 4076TIP3   OH212233   6.271   5.921   0.406 -0.2020 -0.1904 -0.0383
 4076TIP3    H112234   6.304   6.010   0.393 -0.7557  0.1066  0.5058
 4076TIP3    H212235   6.269   5.910   0.501  0.2004 -0.9152 -0.1132
 4077TIP3   OH212236   2.581   3.037   4.403  0.1412  0.3390 -0.1476
 4077TIP3    H112237   2.513   3.102   4.422  0.6785  1.0473 -0.6064
 4077TIP3    H212238   2.606   3.003   4.489 -0.4998  0.3633  0.0569
 4078TIP3   OH212239   1.751   5.087   3.965  0.7242  0.8486  0.3853
 4078TIP3    H112240   1.700   5.160   3.928  1.1919  1.4307  0.8642
 4078TIP3    H212241   1.837   5.126   3.985  0.8338  0.2765  1.0561
 4079TIP3   OH212242   5.909   3.433   2.486  0.2024 -0.3678 -0.3582
 4079TIP3    H112243   6.003   3.423   2.502  0.7885 -1.0708 -3.5308
 4079TIP3    H212244   5.872   3.347   2.501 -0.0187 -0.0213  1.1802
 4080TIP3   OH212245   0.741   1.953   1.598  0.0977  0.5193  0.1654
 4080TIP3    H112246   0.739   1.961   1.502 -0.4674  0.8532  0.2000
 4080TIP3    H212247   0.701   1.867   1.615 -0.1358  0.6174  0.1169
 4081TIP3   OH212248   2.187   3.751   0.459  0.2470  0.3681 -0.1683
 4081TIP3    H112249   2.119   3.783   0.519  1.0677  1.0994  0.3898
 4081TIP3    H212250   2.159   3.663   0.436  0.6172 -0.4772  2.3907
 4082TIP3   OH212251   4.154   1.226   1.498 -0.2682 -0.2600 -0.3233
 4082TIP3    H112252   4.174   1.133   1.513 -0.3999 -0.0303  1.4201
 4082TIP3    H212253   4.230   1.259   1.449 -0.2226 -1.2726 -0.9739
 4083TIP3   OH212254   1.140   4.658   2.484  0.2030 -0.1573 -0.3159
 4083TIP3    H112255   1.174   4.724   2.543 -1.7378 -0.6669  1.4970
 4083TIP3    H212256   1.182   4.677   2.400  1.1991  2.1169  0.6153
 4084TIP3   OH212257   2.390   3.293   1.727 -0.2772 -0.0823 -0.7996
 4084TIP3    H112258   2.349   3.354   1.665 -1.5731 -1.8213 -1.7471
 4084TIP3    H212259   2.454   3.245   1.675 -0.5120 -0.7267 -0.5080
 4085TIP3   OH212260   2.501   2.231   3.364  0.1749 -0.2057  0.1363
 4085TIP3    H112261   2.503   2.278   3.280 -2.0224  2.8272  1.5916
 4085TIP3    H212262   2.452   2.151   3.346 -0.5669  0.5559 -1.4273
 4086TIP3   OH212263   1.090   3.281   3.500 -0.4441 -0.9278 -0.1314
 4086TIP3    H112264   1.021   3.274   3.566 -0.9325 -1.6117 -0.7020
 4086TIP3    H212265   1.044   3.291   3.417  0.1747  0.6664 -0.3111
 4087TIP3   OH212266   2.893   1.901   4.146  0.0799  0.1839 -0.0846
 4087TIP3    H112267   2.980   1.892   4.106 -0.9836 -4.1543 -1.9983
 4087TIP3    H212268   2.834   1.914   4.072 -1.3105 -1.4291  0.6869
 4088TIP3   OH212269   1.330   5.810   3.846  0.3100 -0.6244  0.2019
 4088TIP3    H112270   1.237   5.785   3.850 -0.2963  1.5207  1.1263
 4088TIP3    H212271   1.346   5.827   3.754  0.0252 -1.7723 -0.0750
 4089TIP3   OH212272   3.441   4.088   2.631  0.0567 -0.0452  0.3301
 4089TIP3    H112273   3.522   4.040   2.613  0.0585  0.2962 -0.6410
 4089TIP3    H212274   3.372   4.035   2.590 -0.1917 -0.2437  0.9979
 4090TIP3   OH212275   3.202   5.267   1.326 -0.4509  0.6195  0.3191
 4090TIP3    H112276   3.190   5.277   1.420 -0.7381 -1.4396  0.5381
 4090TIP3    H212277   3.116   5.241   1.293 -0.2309  0.8262 -0.4556
 4091TIP3   OH212278   1.667   1.055   3.779  0.2182  0.3576 -0.7094
 4091TIP3    H112279   1.583   1.011   3.792  1.4840 -2.1053 -0.0730
 4091TIP3    H212280   1.687   1.041   3.686  0.2820  0.2225 -0.6760
 4092TIP3   OH212281   4.608   2.501   4.438  0.2871 -0.3476  0.4825
 4092TIP3    H112282   4.691   2.455   4.455 -0.2817 -0.8469  2.0904
 4092TIP3    H212283   4.546   2.431   4.419 -0.1854 -0.1127  1.1451
 4093TIP3   OH212284   4.762   3.772   3.002  0.1807 -0.3577  0.5125
 4093TIP3    H112285   4.740   3.822   2.924  0.2946 -0.5742  0.3427
 4093TIP3    H212286   4.783   3.684   2.970 -1.1651 -0.8477  0.9282
 4094TIP3   OH212287   1.292   3.480   2.901  0.1534 -0.0253  0.4145
 4094TIP3    H112288   1.215   3.536   2.895  0.7841  0.8492  0.2367
 4094TIP3    H212289   1.259   3.391   2.890 -0.4570  0.4997 -2.8061
 4095TIP3   OH212290   1.033   1.033   0.885  0.1321 -0.3510  0.1788
 4095TIP3    H112291   0.964   1.076   0.937  0.7932  0.1053  0.6956
 4095TIP3    H212292   0.995   0.949   0.861 -0.8762  0.1751 -0.1486
 4096TIP3   OH212293   2.074   1.305  -0.014  0.0409  0.3401 -0.0064
 4096TIP3    H112294   1.985   1.340  -0.019 -0.2025 -0.2872 -0.0939
 4096TIP3    H212295   2.071   1.240   0.056  0.3596  0.0993 -0.2129
 4097TIP3   OH212296   0.468   0.788   4.254  0.2892 -0.1031 -0.3335
 4097TIP3    H112297   0.404   0.717   4.263 -0.6359  0.4685 -2.0684
 4097TIP3    H212298   0.477   0.801   4.160  3.1302 -0.2653 -0.1475
 4098TIP3   OH212299   0.016   0.012   0.945 -0.0189  0.6811  0.2582
 4098TIP3    H112300   0.029   0.021   1.039 -0.6920 -1.4542  0.6078
 4098TIP3    H212301   0.084   0.067   0.906  1.1457  0.5432  2.0036
 4099TIP3   OH212302   4.700   2.723   0.476 -0.0805 -0.0270  0.5965
 4099TIP3    H112303   4.648   2.647   0.450  0.8868 -0.4849 -0.0623
 4099TIP3    H212304   4.701   2.779   0.399 -0.3581  0.4176  0.9120
 4100TIP3   OH212305   0.796   2.314   2.636 -0.0635 -0.0719  0.2991
 4100TIP3    H112306   0.850   2.244   2.598  0.3365 -0.2363  1.1560
 4100TIP3    H212307   0.742   2.270   2.701 -2.6437 -0.2675 -1.7893
 4101TIP3   OH212308   0.901   3.166   3.763 -0.1926  1.1160  0.0916
 4101TIP3    H112309   0.829   3.183   3.824  0.0128  1.5408  0.2242
 4101TIP3    H212310   0.973   3.136   3.818 -0.0233  1.4494  0.0575
 4102TIP3   OH212311   2.566   5.504   0.816  0.3133 -0.1219  0.3737
 4102TIP3    H112312   2.511   5.486   0.892 -0.9515 -1.0304 -0.7041
 4102TIP3    H212313   2.645   5.544   0.852 -1.5965  2.5943  1.9061
 4103TIP3   OH212314   0.246   4.011   5.156  0.1973 -0.4043 -0.4354
 4103TIP3    H112315   0.220   4.087   5.103 -1.9288 -0.8819 -0.2020
 4103TIP3    H212316   0.337   3.995   5.133  0.3915  1.5784 -1.2638
 4104TIP3   OH212317   5.201   0.905   3.756  0.7302 -0.3603  0.4023
 4104TIP3    H112318   5.226   0.832   3.699 -0.8079 -1.4555  1.0649
 4104TIP3    H212319   5.109   0.888   3.777  0.7843  0.9536  1.8129
 4105TIP3   OH212320   4.498   2.782   1.840  0.0011 -0.3400 -0.1965
 4105TIP3    H112321   4.569   2.807   1.900 -1.5916  0.9878  1.2420
 4105TIP3    H212322   4.509   2.840   1.765  0.7445 -0.5343 -0.2517
 4106TIP3   OH212323   2.666   2.277   0.799 -0.0640 -0.1819  0.0431
 4106TIP3    H112324   2.615   2.309   0.725 -1.1555  0.3860  1.0050
 4106TIP3    H212325   2.631   2.190   0.816 -0.0300 -0.1868  0.0865
 4107TIP3   OH212326   4.272   0.062   1.984  0.0689 -0.0900 -0.0613
 4107TIP3    H112327   4.217  -0.005   2.025 -3.6201 -0.1189 -4.2202
 4107TIP3    H212328   4.345   0.013   1.945  0.2752 -0.8680  1.2553
 4108TIP3   OH212329   4.636   2.745   0.803 -0.4655 -0.2472 -0.2248
 4108TIP3    H112330   4.707   2.713   0.859 -0.4577 -0.6407 -0.4538
 4108TIP3    H212331   4.648   2.699   0.720  0.4973  1.5572 -1.1281
 4109TIP3   OH212332   0.631   0.322   0.303  0.5264  0.4049 -0.1062
 4109TIP3    H112333   0.641   0.290   0.393  1.9781  0.4969 -0.2190
 4109TIP3    H212334   0.584   0.405   0.312  1.6479  0.9821  0.6891
 4110TIP3   OH212335   3.050   4.218   4.624 -0.8471 -0.3175  0.6546
 4110TIP3    H112336   3.139   4.207   4.658 -0.7138 -0.0652  0.3951
 4110TIP3    H212337   3.048   4.162   4.546 -1.6132 -2.0744  1.8544
 4111TIP3   OH212338   1.840   1.826   0.999  0.2182 -0.0544 -0.1476
 4111TIP3    H112339   1.889   1.904   0.972 -0.0248  0.5673  1.1347
 4111TIP3    H212340   1.772   1.859   1.057 -0.2001 -1.1800  0.0322
 4112TIP3   OH212341   4.916   4.150   2.590  0.4938  0.3287  0.2292
 4112TIP3    H112342   4.858   4.165   2.515  0.4302  1.7717  0.5218
 4112TIP3    H212343   4.979   4.223   2.586 -0.0894  1.0049  2.0894
 4113TIP3   OH212344   4.954   5.346   3.085  0.0614  0.0932  0.1150
 4113TIP3    H112345   4.927   5.255   3.076  0.3166 -0.1587  1.5764
 4113TIP3    H212346   4.974   5.375   2.996  2.3457 -2.0155 -0.1482
 4114TIP3   OH212347   4.708   1.652   5.021  0.0158 -0.2747 -0.0695
 4114TIP3    H112348   4.647   1.714   5.061  0.4671  0.8663 -1.0891
 4114TIP3    H212349   4.795   1.683   5.046  0.3688  0.9673 -2.4648
 4115TIP3   OH212350   2.059   5.830   3.084  0.0917 -0.1028  0.1502
 4115TIP3    H112351   2.139   5.872   3.115  0.0183 -0.7969  1.3225
 4115TIP3    H212352   2.005   5.819   3.162 -1.1622  0.3346 -0.6171
 4116TIP3   OH212353   2.496   2.268   4.472  0.3346  0.4185 -0.1489
 4116TIP3    H112354   2.454   2.194   4.515  0.5803  1.1730  1.4700
 4116TIP3    H212355   2.585   2.238   4.455  0.1544  0.0126 -0.3853
 4117TIP3   OH212356   2.596   5.697   2.354 -0.5309  0.5322  0.1176
 4117TIP3    H112357   2.597   5.658   2.267  1.6731  0.9318 -0.1067
 4117TIP3    H212358   2.667   5.761   2.353 -1.9783  2.2917  1.4822
 4118TIP3   OH212359   1.504   0.953   2.924  0.0661  0.1923  0.2486
 4118TIP3    H112360   1.504   1.004   3.005  2.4490 -1.5106  1.4289
 4118TIP3    H212361   1.418   0.911   2.923  0.3607 -0.5915  2.4937
 4119TIP3   OH212362   5.352   2.105   2.227 -0.1632  0.2086 -0.2145
 4119TIP3    H112363   5.258   2.091   2.234 -0.3624  0.5514 -1.8519
 4119TIP3    H212364   5.360   2.196   2.198  0.5993 -0.2702 -1.5797
 4120TIP3   OH212365   2.865   3.249   2.750 -0.0910 -0.2623 -0.1717
 4120TIP3    H112366   2.832   3.305   2.821  1.7422 -0.2654  0.7294
 4120TIP3    H212367   2.797   3.181   2.741 -0.8001  0.2623  0.9482
 4121TIP3   OH212368   1.869   3.770   4.091 -0.2202  0.0410 -0.5949
 4121TIP3    H112369   1.883   3.861   4.062  0.0493 -0.0429 -0.7348
 4121TIP3    H212370   1.812   3.733   4.024 -2.1561  0.7203  0.5795
 4122TIP3   OH212371   5.576   5.870   2.293  0.1176  1.2098 -0.0831
 4122TIP3    H112372   5.535   5.845   2.210  0.5249 -0.7553  0.2421
 4122TIP3    H212373   5.508   5.858   2.358  0.5373  0.0689  0.1776
 4123TIP3   OH212374   2.345   2.191   2.284  0.4583  0.4335  0.7248
 4123TIP3    H112375   2.251   2.182   2.301  0.7070  0.6618  2.3774
 4123TIP3    H212376   2.351   2.200   2.189 -1.2980  1.6639  0.6753
 4124TIP3   OH212377   4.127   4.813   4.889 -0.3839 -0.5523 -0.2301
 4124TIP3    H112378   4.115   4.773   4.975 -1.5088  1.8247  0.8218
 4124TIP3    H212379   4.113   4.741   4.827 -2.0978 -1.8369  1.5139
 4125TIP3   OH212380   0.548   3.829   4.393  0.2148 -0.0148  0.2859
 4125TIP3    H112381   0.493   3.799   4.465 -0.7402  1.0628  0.0344
 4125TIP3    H212382   0.633   3.846   4.433  0.2513 -1.2327  0.7765
 4126TIP3   OH212383   3.821   0.360   2.319 -0.0739  0.3062 -0.4201
 4126TIP3    H112384   3.737   0.333   2.355  0.2966 -0.3613 -0.0438
 4126TIP3    H212385   3.855   0.281   2.277  1.6044 -0.2358  1.7825
 4127TIP3   OH212386   1.486   1.751   0.035  0.0931  0.1139  0.6007
 4127TIP3    H112387   1.411   1.733  -0.022  0.5560 -0.3772  0.1332
 4127TIP3    H212388   1.461   1.714   0.120  0.2993 -1.1617  0.1261
 4128TIP3   OH212389   3.394   5.313   1.113 -0.4734 -0.1956  0.1173
 4128TIP3    H112390   3.485   5.318   1.140 -0.7319  0.5580  0.8942
 4128TIP3    H212391   3.348   5.275   1.187 -0.6761 -1.3993 -0.5994
 4129TIP3   OH212392   4.135   3.164   2.505 -0.1020  0.1758 -0.2241
 4129TIP3    H112393   4.050   3.144   2.544 -0.9226  1.9669 -0.9914
 4129TIP3    H212394   4.139   3.112   2.425 -1.0468  1.0484 -0.8484
 4130TIP3   OH212395   5.039   5.117   2.621  0.0732  0.3344  0.2454
 4130TIP3    H112396   4.971   5.064   2.578 -0.2132 -0.4097  1.5354
 4130TIP3    H212397   5.121   5.082   2.589 -0.1006  1.6626 -1.8324
 4131TIP3   OH212398   1.307   4.095   3.895 -0.2522  0.3027 -0.1717
 4131TIP3    H112399   1.256   4.084   3.814  0.2063  0.8184 -0.5291
 4131TIP3    H212400   1.310   4.006   3.933  1.1326 -0.3415 -1.6851
 4132TIP3   OH212401   3.596   5.846   0.010  0.1400 -0.2931 -0.2326
 4132TIP3    H112402   3.668   5.786  -0.013  1.1031  1.0524 -0.8659
 4132TIP3    H212403   3.638   5.932   0.016 -1.2894  0.3962  0.2082
 4133TIP3   OH212404   2.818   3.495   1.191 -0.3614  0.4993  0.0818
 4133TIP3    H112405   2.734   3.465   1.225  0.5901  0.7884  2.9547
 4133TIP3    H212406   2.797   3.538   1.108 -2.8436 -0.5084  0.1174
 4134TIP3   OH212407   1.797   5.133   2.733  0.0640  0.0857 -0.1163
 4134TIP3    H112408   1.803   5.101   2.644 -0.0900  1.1821 -0.5419
 4134TIP3    H212409   1.880   5.108   2.774  0.1970 -0.2816 -0.6173
 4135TIP3   OH212410   2.643   3.759   3.389 -0.0968 -0.2727 -0.1703
 4135TIP3    H112411   2.597   3.701   3.327 -0.2174  0.1267 -0.4564
 4135TIP3    H212412   2.671   3.701   3.460 -0.2500 -0.6766 -0.4391
 4136TIP3   OH212413   5.569   5.314   4.194  0.1449  0.8044  0.2889
 4136TIP3    H112414   5.482   5.327   4.233  0.3767  1.8110  0.5022
 4136TIP3    H212415   5.552   5.259   4.117 -0.9455  2.3046 -0.6065
 4137TIP3   OH212416   4.793   5.121   3.829 -0.1822  0.0315 -0.7442
 4137TIP3    H112417   4.882   5.086   3.821 -0.1273 -0.5399  1.7472
 4137TIP3    H212418   4.784   5.181   3.754  1.1443 -2.2393 -2.8511
 4138TIP3   OH212419   0.090   2.844   4.386 -0.1649  0.3763 -0.3265
 4138TIP3    H112420   0.132   2.842   4.300 -1.1125 -1.3961 -0.8020
 4138TIP3    H212421   0.143   2.784   4.440  0.6068  1.7082  0.4589
 4139TIP3   OH212422   0.141   2.964   5.031 -0.3620 -0.1178 -0.3247
 4139TIP3    H112423   0.228   2.924   5.035 -0.1529  0.0084 -2.2751
 4139TIP3    H212424   0.121   2.989   5.121  0.5197 -2.4313  0.5773
 4140TIP3   OH212425   5.613   0.004   2.135 -0.0586  0.3270 -0.0558
 4140TIP3    H112426   5.650   0.092   2.131  0.8016  0.0495  1.2923
 4140TIP3    H212427   5.619  -0.021   2.228  0.6976 -1.5527 -0.5597
 4141TIP3   OH212428   3.940   1.525   2.282  0.0225  0.4218  0.3767
 4141TIP3    H112429   4.004   1.476   2.335  1.2305  0.6092 -0.8597
 4141TIP3    H212430   3.875   1.459   2.257 -0.1618  0.1747  1.4417
 4142TIP3   OH212431   0.620   2.757   3.437  0.4391  0.2186  0.0174
 4142TIP3    H112432   0.534   2.788   3.465  1.3193  2.2837  0.6296
 4142TIP3    H212433   0.603   2.672   3.396 -1.7973  0.3126  0.6235
 4143TIP3   OH212434   2.253   3.369   0.581  0.1538 -0.4520  0.0075
 4143TIP3    H112435   2.181   3.405   0.529  0.5839 -2.2125 -1.9428
 4143TIP3    H212436   2.302   3.314   0.519  2.5679 -0.1551  1.5278
 4144TIP3   OH212437   5.411   5.066   0.593  0.0318 -0.3245 -0.1566
 4144TIP3    H112438   5.477   5.028   0.534  0.5347  2.1590 -1.3381
 4144TIP3    H212439   5.328   5.037   0.557  0.3920 -1.5980 -0.0283
 4145TIP3   OH212440   0.271   2.975   2.561  1.0070  0.1031 -0.3528
 4145TIP3    H112441   0.242   3.051   2.510 -2.2948  0.5675  1.9178
 4145TIP3    H212442   0.319   3.012   2.635 -1.1828  0.1574  1.1213
 4146TIP3   OH212443   1.899   4.605   3.014  0.0676 -0.0535  0.4248
 4146TIP3    H112444   1.818   4.555   3.023 -0.5027  0.8952  0.6216
 4146TIP3    H212445   1.877   4.693   3.044  0.9002  0.4806 -0.4884
 4147TIP3   OH212446   2.717   2.395   4.630  1.0336 -0.1373 -0.6357
 4147TIP3    H112447   2.738   2.352   4.713 -1.4098 -2.0978 -0.9180
 4147TIP3    H212448   2.622   2.403   4.630  1.1218  1.7753 -2.3519
 4148TIP3   OH212449   1.224   1.806   0.436 -0.2357 -0.2808  0.1060
 4148TIP3    H112450   1.252   1.755   0.512  0.9377  0.3800  0.1484
 4148TIP3    H212451   1.196   1.742   0.372 -1.0810 -0.8619  1.0181
 4149TIP3   OH212452   3.685   2.823   3.697 -0.4104 -0.2535  0.4420
 4149TIP3    H112453   3.679   2.902   3.644 -1.5289 -0.0998  0.7627
 4149TIP3    H212454   3.594   2.801   3.718 -0.1224 -1.5684  0.4474
 4150TIP3   OH212455   6.230   4.807   0.937  0.3907  0.0564  0.1385
 4150TIP3    H112456   6.205   4.817   1.029  0.6479 -0.4937  0.2726
 4150TIP3    H212457   6.324   4.824   0.935  0.5771 -0.9396  0.1507
 4151TIP3   OH212458   6.246   4.070   3.140  0.8319 -0.4225  0.3474
 4151TIP3    H112459   6.197   4.003   3.094 -0.5875 -0.4126  1.7589
 4151TIP3    H212460   6.223   4.152   3.097  0.9501 -0.6058 -0.0681
 4152TIP3   OH212461   2.724   2.647   5.169  0.7033  0.2148  0.2153
 4152TIP3    H112462   2.739   2.673   5.078 -2.0550 -1.5248 -0.8517
 4152TIP3    H212463   2.666   2.714   5.204  1.7205  0.8536  0.7510
 4153TIP3   OH212464   5.342   4.800   3.597 -0.3039  0.4227  0.0687
 4153TIP3    H112465   5.372   4.729   3.654  0.9320 -0.6726 -1.8520
 4153TIP3    H212466   5.355   4.879   3.650  2.4731 -0.3647  0.7571
 4154TIP3   OH212467   5.835   5.567   1.563 -0.2995 -0.5413 -0.2706
 4154TIP3    H112468   5.914   5.514   1.557 -0.1818 -0.4460  0.3392
 4154TIP3    H212469   5.785   5.546   1.484 -0.1559 -1.3915 -0.1416
 4155TIP3   OH212470   5.818   0.217   3.825 -0.9030  0.1294  0.0790
 4155TIP3    H112471   5.877   0.217   3.749 -0.7075  1.2005  0.2173
 4155TIP3    H212472   5.863   0.163   3.890 -0.1733  0.7298  0.0926
 4156TIP3   OH212473   5.028   3.639   1.828 -0.1152 -0.4120  0.5536
 4156TIP3    H112474   5.017   3.579   1.901 -2.8051  1.4830  1.8668
 4156TIP3    H212475   4.945   3.635   1.780 -0.8235  2.8345  1.2646
 4157TIP3   OH212476   2.920   4.275   2.026  0.2757 -0.3068  0.3900
 4157TIP3    H112477   2.866   4.196   2.032 -1.6546  0.7789 -1.4968
 4157TIP3    H212478   2.977   4.259   1.950 -0.6616  0.3829 -0.4795
 4158TIP3   OH212479   2.299   2.329   1.890  0.2365  0.0612  0.7688
 4158TIP3    H112480   2.392   2.343   1.907  0.2217  3.8184 -1.2850
 4158TIP3    H212481   2.255   2.366   1.967  0.3655 -1.0025  1.3772
 4159TIP3   OH212482   2.728   2.870   3.059 -0.2891  0.2618 -0.3584
 4159TIP3    H112483   2.751   2.857   2.967 -2.0597 -0.0152 -0.7906
 4159TIP3    H212484   2.765   2.956   3.080 -2.3153  1.7025 -2.2153
 4160TIP3   OH212485   5.603   3.994   1.591  1.1234 -0.1509  0.1508
 4160TIP3    H112486   5.563   3.985   1.505  1.4600 -0.4219  0.0175
 4160TIP3    H212487   5.647   4.079   1.589 -1.8371  1.5666  1.3123
 4161TIP3   OH212488   0.907   1.710   1.145 -0.5648  0.0025  0.1471
 4161TIP3    H112489   0.944   1.798   1.156  1.1778 -0.5040 -1.2208
 4161TIP3    H212490   0.978   1.658   1.109 -1.9077 -1.6999 -0.1944
 4162TIP3   OH212491   1.722   5.829   0.628 -0.5633 -0.0290  0.1568
 4162TIP3    H112492   1.686   5.910   0.591 -1.6181 -0.2373  0.7031
 4162TIP3    H212493   1.656   5.800   0.691 -0.9830 -2.2124 -1.2122
 4163TIP3   OH212494   5.734   4.990   3.964  0.0861 -0.0155 -0.2045
 4163TIP3    H112495   5.758   4.902   3.995 -1.2529  0.0538  1.1474
 4163TIP3    H212496   5.799   5.010   3.897  0.2636 -2.1605 -0.7622
 4164TIP3   OH212497   4.655   3.916   1.751 -0.1593  0.3179  0.2296
 4164TIP3    H112498   4.729   3.883   1.802  0.3010  2.0017  0.7386
 4164TIP3    H212499   4.662   4.011   1.759 -1.2965  0.5629 -1.2818
 4165TIP3   OH212500   0.133   5.878   1.760  0.0780 -0.0552  0.1275
 4165TIP3    H112501   0.153   5.790   1.790  0.6745  0.6134  1.8184
 4165TIP3    H212502   0.043   5.894   1.788 -0.1923 -0.2789 -0.5926
 4166TIP3   OH212503   0.262   3.931   4.617  0.1699 -0.1766 -0.3023
 4166TIP3    H112504   0.249   3.898   4.706 -1.8750  2.1801  0.3789
 4166TIP3    H212505   0.207   3.876   4.563  0.5257 -0.9012  0.0640
 4167TIP3   OH212506   3.029   0.887   3.982 -0.1355 -0.0563 -0.1665
 4167TIP3    H112507   3.020   0.976   3.947  1.5722 -0.3707 -1.5845
 4167TIP3    H212508   3.093   0.896   4.053 -0.0117 -0.1342 -0.2674
 4168TIP3   OH212509   0.771   1.234   0.328  0.5459  0.7544  0.0341
 4168TIP3    H112510   0.691   1.285   0.333 -0.0859 -0.3292  1.8099
 4168TIP3    H212511   0.744   1.150   0.289  1.0781  0.8242 -0.5101
 4169TIP3   OH212512   0.048   1.248   0.991  0.0130  0.0896 -0.2903
 4169TIP3    H112513   0.137   1.220   0.972 -0.8046 -0.6946 -3.5868
 4169TIP3    H212514   0.058   1.335   1.030  2.2250 -0.8521  1.4873
 4170TIP3   OH212515   4.679   0.982   0.220 -0.3364  0.0258 -0.3453
 4170TIP3    H112516   4.617   1.052   0.240  1.1207  0.9882  1.0790
 4170TIP3    H212517   4.670   0.919   0.291  0.6648  0.4573  0.1944
 4171TIP3   OH212518   1.190   6.020   2.612  0.6419  0.2631 -0.1356
 4171TIP3    H112519   1.227   5.976   2.536  0.3769  1.1657 -0.8075
 4171TIP3    H212520   1.179   5.951   2.677  1.8785 -0.3304 -0.5339
 4172TIP3   OH212521   3.760   4.159   4.196  0.1272  0.1086  0.0994
 4172TIP3    H112522   3.710   4.185   4.273  0.1311 -0.1195  0.1787
 4172TIP3    H212523   3.712   4.197   4.122  0.1513  0.3684  0.2184
 4173TIP3   OH212524   0.241   3.888   3.641 -0.5022 -0.0669  0.1255
 4173TIP3    H112525   0.232   3.900   3.736 -1.2705 -1.5553  0.2659
 4173TIP3    H212526   0.249   3.977   3.607  0.9717  0.4569  1.6820
 4174TIP3   OH212527   0.686   2.633   1.522 -0.3110 -0.5183  0.4401
 4174TIP3    H112528   0.643   2.611   1.605 -1.1721  1.0705  0.4718
 4174TIP3    H212529   0.679   2.554   1.469 -3.2955 -0.4204  0.4932
 4175TIP3   OH212530   5.286   3.712   0.272  0.2603 -0.0818 -0.2552
 4175TIP3    H112531   5.317   3.771   0.203 -1.0060 -1.2465 -1.8833
 4175TIP3    H212532   5.214   3.759   0.313  0.9054  0.5404  0.2119
 4176TIP3   OH212533   4.829   2.386   4.550  0.3949  0.1473  0.5428
 4176TIP3    H112534   4.786   2.347   4.625 -3.3677 -0.6970 -1.7948
 4176TIP3    H212535   4.875   2.462   4.585  0.1804 -1.1126  3.8509
 4177TIP3   OH212536   1.529   3.875   3.407  0.0664  0.5408 -0.5509
 4177TIP3    H112537   1.459   3.849   3.346  1.2005 -0.9390 -1.2959
 4177TIP3    H212538   1.494   3.953   3.451 -2.1586 -0.2936 -0.6792
 4178TIP3   OH212539   4.919   5.682   3.084  0.3870  0.2622  0.7631
 4178TIP3    H112540   5.006   5.650   3.059  0.0432 -1.5162  1.6689
 4178TIP3    H212541   4.883   5.721   3.005  1.3445 -0.5113 -0.0725
 4179TIP3   OH212542   3.961   4.581   2.148 -0.7553 -0.2244  0.1179
 4179TIP3    H112543   3.885   4.619   2.105 -1.6835  1.6347  3.0723
 4179TIP3    H212544   3.949   4.486   2.140 -1.5023  0.0186 -2.4217
 4180TIP3   OH212545   4.727   4.639   4.100 -0.8232  0.5743  0.1880
 4180TIP3    H112546   4.766   4.666   4.183  0.1020 -0.0020 -0.0461
 4180TIP3    H212547   4.703   4.721   4.056  2.0164  1.1042 -0.5538
 4181TIP3   OH212548   1.627   4.267   1.415  0.5378 -0.0828  0.4241
 4181TIP3    H112549   1.538   4.231   1.417  0.6989 -0.9295 -2.4071
 4181TIP3    H212550   1.617   4.353   1.374  1.1297 -0.9808 -1.7731
 4182TIP3   OH212551   5.355   2.104   1.275 -0.3573 -0.4807  0.0566
 4182TIP3    H112552   5.341   2.140   1.363 -2.3592 -0.2002 -0.3269
 4182TIP3    H212553   5.292   2.150   1.220  0.3369 -1.1956 -1.3904
 4183TIP3   OH212554   2.332   2.202   3.740 -0.7090  0.2382 -0.3990
 4183TIP3    H112555   2.329   2.173   3.831  0.2874 -0.7474 -0.6532
 4183TIP3    H212556   2.240   2.216   3.716 -0.9399  1.2935  0.9757
 4184TIP3   OH212557   0.599   4.544   3.989 -0.2040 -0.3384  0.0351
 4184TIP3    H112558   0.535   4.546   3.917 -0.3737 -0.8248  0.1663
 4184TIP3    H212559   0.623   4.452   3.996 -2.6609 -0.9095  2.7608
 4185TIP3   OH212560   5.691   3.974   3.587 -0.2587 -0.1091  0.7914
 4185TIP3    H112561   5.689   3.920   3.507 -2.5809  0.9546  0.0459
 4185TIP3    H212562   5.718   3.913   3.656  0.2716 -1.4526 -0.5354
 4186TIP3   OH212563   0.047   0.093   2.610 -0.1922 -0.4365 -0.0652
 4186TIP3    H112564   0.075   0.179   2.580  1.7246 -1.1497 -0.4842
 4186TIP3    H212565   0.022   0.106   2.702  1.1814  0.3706  0.2267
 4187TIP3   OH212566   0.813   4.019   2.787  0.2739  0.8227 -0.1946
 4187TIP3    H112567   0.870   4.065   2.727  1.1827  0.7490  0.5880
 4187TIP3    H212568   0.751   4.086   2.818  0.8810  1.2647  0.0848
 4188TIP3   OH212569   1.996   1.279   2.252  0.3005  0.6223  0.1560
 4188TIP3    H112570   2.035   1.292   2.339  0.2124 -0.4217  0.3590
 4188TIP3    H212571   1.996   1.184   2.239 -1.2732  0.6408 -0.2500
 4189TIP3   OH212572   3.770   2.752   5.027  0.0402 -0.1849  0.0547
 4189TIP3    H112573   3.817   2.720   5.104 -1.7167 -0.1900  1.1833
 4189TIP3    H212574   3.685   2.709   5.032 -1.1170  1.9296 -0.3645
 4190TIP3   OH212575   1.053   4.637   4.838 -0.1999  0.0043 -0.2169
 4190TIP3    H112576   1.101   4.564   4.877  0.7110  0.1207 -1.0599
 4190TIP3    H212577   1.111   4.669   4.769 -1.5382  0.1381 -1.3056
 4191TIP3   OH212578   3.419   4.776   0.707  0.3711  0.4486  0.7075
 4191TIP3    H112579   3.383   4.690   0.728 -0.2298  0.8519  1.3674
 4191TIP3    H212580   3.479   4.760   0.634  1.1208 -0.7070  1.5546
 4192TIP3   OH212581   1.900   0.335   4.258  0.4216  0.0676  0.4226
 4192TIP3    H112582   1.967   0.358   4.323 -0.2529  1.8303  0.5451
 4192TIP3    H212583   1.869   0.248   4.286  0.2944  0.6903  2.3627
 4193TIP3   OH212584   0.216   1.224   4.593 -0.3695  0.4480 -0.3281
 4193TIP3    H112585   0.156   1.153   4.569 -1.4485  1.3775 -0.4442
 4193TIP3    H212586   0.300   1.180   4.609 -0.5652 -0.6496 -2.1139
 4194TIP3   OH212587   6.083   4.833   3.727  0.2856  0.3102  0.0235
 4194TIP3    H112588   6.044   4.779   3.796 -2.9129 -0.1218 -1.9136
 4194TIP3    H212589   6.141   4.773   3.679 -0.8579 -0.6064 -0.2508
 4195TIP3   OH212590   1.163   5.895   4.095 -0.1429 -0.4401  0.6531
 4195TIP3    H112591   1.176   5.931   4.007  4.5808 -1.6551  0.6047
 4195TIP3    H212592   1.131   5.968   4.147  0.6733  1.3875 -1.2768
 4196TIP3   OH212593   1.488   5.191   2.052  0.4137  0.4177  0.0698
 4196TIP3    H112594   1.425   5.155   2.115  1.0337 -1.1914 -0.1837
 4196TIP3    H212595   1.493   5.284   2.074 -0.8657  0.2758  1.1063
 4197TIP3   OH212596   4.284   4.315   2.652  0.1053  0.2324  0.2333
 4197TIP3    H112597   4.286   4.241   2.713 -0.1925  0.5227  0.6006
 4197TIP3    H212598   4.304   4.277   2.567 -0.4989 -0.3442  0.3475
 4198TIP3   OH212599   6.193   5.765   0.913 -0.4812 -0.9106 -0.5799
 4198TIP3    H112600   6.142   5.786   0.992 -0.5736 -0.8186 -0.6653
 4198TIP3    H212601   6.162   5.678   0.888  2.7115 -3.1183  2.1335
 4199TIP3   OH212602   1.839   0.402   3.438  0.2491  0.5146  0.6535
 4199TIP3    H112603   1.874   0.326   3.392  2.3016  1.5587  0.3713
 4199TIP3    H212604   1.762   0.369   3.484 -1.0644 -0.9457 -2.2913
 4200TIP3   OH212605   5.634   1.708   2.118  0.3499 -0.4405  0.0119
 4200TIP3    H112606   5.675   1.700   2.205 -1.1409 -0.6699  0.7240
 4200TIP3    H212607   5.542   1.724   2.136  0.0972  0.0442 -1.5507
 4201TIP3   OH212608   0.153   1.754   4.462  0.5400 -0.1872  0.1307
 4201TIP3    H112609   0.152   1.660   4.446  2.0085 -0.1273 -0.3948
 4201TIP3    H212610   0.222   1.767   4.527  0.5194  0.5608  0.0112
 4202TIP3   OH212611   2.961   5.180   3.380 -0.0805  0.2761  0.4219
 4202TIP3    H112612   2.953   5.091   3.414 -1.1429 -0.8034 -2.4217
 4202TIP3    H212613   3.053   5.203   3.395  0.1604 -1.1802  1.3820
 4203TIP3   OH212614   0.126   0.127   1.984 -0.0039 -0.3785 -0.1190
 4203TIP3    H112615   0.118   0.064   2.056 -0.9922 -0.0734  0.0614
 4203TIP3    H212616   0.037   0.134   1.949  0.4404 -0.3910 -1.2644
 4204TIP3   OH212617   4.304   3.348   1.130 -0.2447  0.3370  0.0145
 4204TIP3    H112618   4.305   3.404   1.207  3.8223  2.7211 -1.4283
 4204TIP3    H212619   4.262   3.401   1.063 -1.3430 -0.6369 -0.0938
 4205TIP3   OH212620   3.642   3.957   3.689 -0.2390  0.2242 -0.6513
 4205TIP3    H112621   3.576   4.014   3.728 -0.9268 -0.9362 -0.0751
 4205TIP3    H212622   3.620   3.956   3.596 -1.7848 -1.0852 -0.2940
 4206TIP3   OH212623   5.192   0.256   1.966  0.3165  0.3039 -0.3154
 4206TIP3    H112624   5.176   0.348   1.986  1.1711  1.3565 -3.7676
 4206TIP3    H212625   5.133   0.237   1.893  1.0272 -1.5111 -0.4704
 4207TIP3   OH212626   1.113   0.905   2.292 -0.5827 -0.1944  0.1863
 4207TIP3    H112627   1.116   0.818   2.333  0.1737  0.7778  2.2956
 4207TIP3    H212628   1.024   0.936   2.309 -0.4237  0.0074  0.6440
 4208TIP3   OH212629   4.112   0.767   0.616  0.0058 -1.1449 -0.8153
 4208TIP3    H112630   4.135   0.829   0.547  0.1598 -1.3135 -0.9126
 4208TIP3    H212631   4.194   0.727   0.642 -0.0080 -0.8687 -0.3275
 4209TIP3   OH212632   5.028   2.385   2.768  0.1766 -0.4264  0.1511
 4209TIP3    H112633   5.043   2.469   2.725  0.0958 -1.0170 -1.0619
 4209TIP3    H212634   4.951   2.349   2.725  0.1932 -1.1161  0.6805
 4210TIP3   OH212635   1.036   0.802   1.144 -0.3537 -0.2965  0.3349
 4210TIP3    H112636   1.085   0.748   1.083 -1.3452 -1.0738  0.1965
 4210TIP3    H212637   1.096   0.872   1.169  0.9853 -1.4886  0.5582
 4211TIP3   OH212638   1.848   0.220   3.071 -0.2727 -0.6072  0.0623
 4211TIP3    H112639   1.856   0.164   2.995 -1.1306  0.8993 -1.1905
 4211TIP3    H212640   1.822   0.305   3.036  1.1917  0.6694  1.8458
 4212TIP3   OH212641   1.386   0.303   4.104  0.3717  0.0445 -0.0855
 4212TIP3    H112642   1.425   0.377   4.151  0.6173  0.2302 -0.5701
 4212TIP3    H212643   1.306   0.338   4.067 -0.9819 -0.6783  1.9909
 4213TIP3   OH212644   2.668   5.568   0.030  0.2037 -0.2930  0.4068
 4213TIP3    H112645   2.725   5.582  -0.046  2.6300 -1.1390  1.9821
 4213TIP3    H212646   2.691   5.639   0.090  1.1695 -1.8563  1.9391
 4214TIP3   OH212647   1.358   3.300   3.538 -0.4677  0.1703  0.2950
 4214TIP3    H112648   1.387   3.263   3.455 -1.1844 -2.0764  0.9746
 4214TIP3    H212649   1.264   3.282   3.541 -0.2329 -1.0488  2.1584
 4215TIP3   OH212650   1.526   0.120   3.861 -0.2412 -0.2008 -0.0253
 4215TIP3    H112651   1.618   0.144   3.870 -0.4570  1.5057 -1.6323
 4215TIP3    H212652   1.478   0.193   3.900 -0.9012  0.9197 -2.6818
 4216TIP3   OH212653   3.371   4.564   0.038 -0.4364  0.2592 -0.0346
 4216TIP3    H112654   3.333   4.602   0.117  2.1254  0.5942  1.1408
 4216TIP3    H212655   3.415   4.638  -0.006  0.5836 -0.4387 -0.2294
 4217TIP3   OH212656   2.527   1.876   2.943 -0.2188 -0.3536  0.1636
 4217TIP3    H112657   2.578   1.901   3.020  0.8944  2.2122 -1.2840
 4217TIP3    H212658   2.437   1.902   2.964  0.6285  4.1712 -0.6820
 4218TIP3   OH212659   4.881   4.390   0.624 -0.1673  0.4821  0.1725
 4218TIP3    H112660   4.849   4.316   0.572  0.5435  1.4375 -1.7607
 4218TIP3    H212661   4.821   4.462   0.604 -0.7121  0.5286  1.8345
 4219TIP3   OH212662   1.298   0.788   3.228  0.2792 -0.7218 -0.1691
 4219TIP3    H112663   1.313   0.878   3.257  1.1884 -1.3443  1.4155
 4219TIP3    H212664   1.239   0.751   3.294 -0.4717 -1.1754 -1.0665
 4220TIP3   OH212665   3.374   0.905   4.767 -0.3499 -0.1220 -0.9881
 4220TIP3    H112666   3.442   0.862   4.715 -0.2752 -0.4101 -0.6533
 4220TIP3    H212667   3.422   0.960   4.828 -0.4220 -0.2104 -0.8522
 4221TIP3   OH212668   6.206   0.781   1.471  0.0495  0.0563 -0.1266
 4221TIP3    H112669   6.137   0.808   1.410  0.8739 -0.3921 -1.3119
 4221TIP3    H212670   6.160   0.760   1.552 -1.1234  0.4110 -0.6781
 4222TIP3   OH212671   2.924   4.045   4.418 -0.4352 -0.5795 -0.6882
 4222TIP3    H112672   2.946   3.952   4.412  3.2388  0.1685 -1.4509
 4222TIP3    H212673   2.930   4.076   4.328 -2.0491  0.3753 -0.5000
 4223TIP3   OH212674   5.176   5.083   1.917  0.1793 -0.1599  0.5707
 4223TIP3    H112675   5.082   5.079   1.935 -0.0979  1.2686 -0.3980
 4223TIP3    H212676   5.210   5.146   1.980  0.2212  0.4172 -0.0174
 4224TIP3   OH212677   2.296   3.316   0.134  0.1118  0.1434 -0.2840
 4224TIP3    H112678   2.291   3.297   0.041  0.3671  0.1826 -0.3079
 4224TIP3    H212679   2.207   3.340   0.159 -0.3750 -1.6768 -0.1086
 4225TIP3   OH212680   4.792   3.474   4.157 -0.1017  0.0798 -0.2812
 4225TIP3    H112681   4.700   3.449   4.152 -0.5286  1.4326  0.2084
 4225TIP3    H212682   4.816   3.458   4.249  0.0904 -0.0794 -0.3591
 4226TIP3   OH212683   1.270   2.187   3.916  0.0531 -0.2863 -0.3398
 4226TIP3    H112684   1.254   2.188   3.822  0.3182 -1.3270 -0.4164
 4226TIP3    H212685   1.206   2.123   3.950  1.3401 -1.4998 -0.1108
 4227TIP3   OH212686   5.880   1.884   2.690 -0.3179 -0.7034  0.2050
 4227TIP3    H112687   5.864   1.821   2.759 -1.5583  0.2861  0.8482
 4227TIP3    H212688   5.809   1.871   2.628 -1.4478  1.0042  1.0707
 4228TIP3   OH212689   0.586   3.396   4.321  0.2304  0.3212 -0.3403
 4228TIP3    H112690   0.636   3.317   4.345  0.1244  0.8102  1.6052
 4228TIP3    H212691   0.644   3.469   4.343  0.2276  0.8498 -1.8984
 4229TIP3   OH212692   6.215   0.797   1.740  0.0952  0.2813  0.4738
 4229TIP3    H112693   6.249   0.878   1.703 -0.7729  0.3070 -0.3200
 4229TIP3    H212694   6.133   0.822   1.782 -0.6196 -0.3026 -0.5180
 4230TIP3   OH212695   0.276   4.360   4.238  0.1854 -0.3257 -0.3351
 4230TIP3    H112696   0.227   4.332   4.315 -0.4696 -1.4401 -1.1372
 4230TIP3    H212697   0.244   4.304   4.167  1.3325  0.1465 -1.2572
 4231TIP3   OH212698   5.688   1.934   4.485  0.6172 -0.2315 -0.0803
 4231TIP3    H112699   5.686   2.029   4.473  0.8296 -0.2826 -0.5508
 4231TIP3    H212700   5.756   1.919   4.551  0.4864 -0.0456  0.0954
 4232TIP3   OH212701   0.364   2.517   4.923 -0.0941  0.6567  0.0200
 4232TIP3    H112702   0.295   2.579   4.901 -1.6418 -0.0930  2.3876
 4232TIP3    H212703   0.319   2.433   4.931  1.4444 -0.2324 -0.2100
 4233TIP3   OH212704   0.693   5.577   1.105  0.2038 -0.4517  0.6901
 4233TIP3    H112705   0.642   5.519   1.162  1.4021  0.4545  2.8065
 4233TIP3    H212706   0.638   5.655   1.095  0.3163 -0.2746  1.3554
 4234TIP3   OH212707   3.523   1.323   3.660 -0.1204 -0.0718 -0.6878
 4234TIP3    H112708   3.577   1.244   3.653 -0.7943 -0.6560  0.4104
 4234TIP3    H212709   3.443   1.301   3.612 -0.9826 -0.7039  0.9420
 4235TIP3   OH212710   1.618   5.298   3.806  0.1776  0.4029  0.2395
 4235TIP3    H112711   1.559   5.232   3.770  1.0611 -0.8128  0.9513
 4235TIP3    H212712   1.627   5.363   3.737 -1.6021  0.3840 -0.0636
 4236TIP3   OH212713   5.491   2.360   2.303  0.2634 -0.4543  0.1798
 4236TIP3    H112714   5.487   2.455   2.313  1.7279 -0.3712  0.2184
 4236TIP3    H212715   5.563   2.345   2.241 -0.1294 -1.5281 -0.0471
 4237TIP3   OH212716   3.835   5.635   3.632  0.0801  0.4553  0.0645
 4237TIP3    H112717   3.853   5.722   3.595  0.2022  0.0729 -0.7878
 4237TIP3    H212718   3.788   5.589   3.563  1.1355 -0.5964  0.0240
 4238TIP3   OH212719   1.087   5.906   3.353  0.4652 -0.1738 -0.4140
 4238TIP3    H112720   1.030   5.910   3.276 -0.3898 -0.0803  0.2175
 4238TIP3    H212721   1.151   5.976   3.339  0.9535 -0.8041 -1.5214
 4239TIP3   OH212722   0.533   1.422   0.010 -0.0822  0.3026 -0.1100
 4239TIP3    H112723   0.608   1.451   0.062 -0.4396  0.5107  0.2991
 4239TIP3    H212724   0.497   1.347   0.059  0.6883 -0.6988 -1.0308
 4240TIP3   OH212725   2.331   2.326   4.250 -0.4383 -0.2099 -0.1157
 4240TIP3    H112726   2.406   2.328   4.310  0.7190  3.4458 -1.3961
 4240TIP3    H212727   2.255   2.318   4.307  0.7552 -0.6011  1.5118
 4241TIP3   OH212728   4.105   3.984   4.981  0.3241  0.2517  0.0390
 4241TIP3    H112729   4.132   3.901   4.942  1.4110  1.3918 -1.8591
 4241TIP3    H212730   4.034   3.962   5.040  0.8764 -2.0630 -0.0689
 4242TIP3   OH212731   5.418   5.099   1.574  0.4692 -0.4883  0.0956
 4242TIP3    H112732   5.476   5.051   1.514  0.0332 -0.2975 -0.4882
 4242TIP3    H212733   5.351   5.035   1.598  1.0342 -0.7796  0.9561
 4243TIP3   OH212734   4.232   4.130   1.143  0.1975  0.1328  0.0321
 4243TIP3    H112735   4.148   4.156   1.179 -0.9891 -2.1776 -0.8949
 4243TIP3    H212736   4.244   4.188   1.067 -0.1866  0.9298  0.5622
 4244TIP3   OH212737   2.724   0.253   3.580  0.0678 -0.5001 -0.0241
 4244TIP3    H112738   2.716   0.233   3.674  1.3291 -0.7172  0.0525
 4244TIP3    H212739   2.735   0.168   3.538  3.6065 -0.2227  0.1049
 4245TIP3   OH212740   6.251   5.853   2.233  0.8154  0.5210  0.4476
 4245TIP3    H112741   6.172   5.799   2.226  0.2006  1.2829  1.2874
 4245TIP3    H212742   6.235   5.927   2.175  0.0434  1.6731  2.0613
 4246TIP3   OH212743   1.079   5.251   5.060  0.0450 -0.1058  0.2446
 4246TIP3    H112744   1.066   5.161   5.031  1.2788  0.3533 -1.9489
 4246TIP3    H212745   0.995   5.277   5.098 -0.5583 -1.9186  0.2206
 4247TIP3   OH212746   4.825   3.679   1.629  0.5628 -0.6860 -0.6688
 4247TIP3    H112747   4.835   3.768   1.596  1.6117 -0.0695  1.1549
 4247TIP3    H212748   4.890   3.628   1.580  1.6435  0.0756 -0.0760
 4248TIP3   OH212749   1.357   3.861   3.187  0.1322  0.4413 -0.1231
 4248TIP3    H112750   1.398   3.834   3.105  1.1733 -1.3297  0.8933
 4248TIP3    H212751   1.280   3.804   3.194  0.4113  0.1248  0.4177
 4249TIP3   OH212752   1.697   4.115   1.648  0.2663  0.1930 -0.4299
 4249TIP3    H112753   1.720   4.179   1.715  0.5464  0.1051 -0.4428
 4249TIP3    H212754   1.665   4.167   1.574  2.3218  0.4460 -1.1961
 4250TIP3   OH212755   2.768   5.655   0.928 -0.5170  0.1594 -0.0871
 4250TIP3    H112756   2.854   5.633   0.892 -1.2844  1.2798 -2.8039
 4250TIP3    H212757   2.750   5.742   0.894 -2.1834  0.5212  1.5767
 4251TIP3   OH212758   5.098   4.251   0.764 -0.5846  0.3696 -0.7712
 4251TIP3    H112759   5.129   4.341   0.775  0.7483  0.2423 -2.9064
 4251TIP3    H212760   5.038   4.256   0.690  0.0461 -0.5703 -1.3675
 4252TIP3   OH212761   3.437   0.073   5.105  0.3641  0.2235  0.4915
 4252TIP3    H112762   3.410   0.034   5.022 -1.3842  1.2067  0.5379
 4252TIP3    H212763   3.393   0.158   5.106  1.9040  1.0584  1.5752
 4253TIP3   OH212764   3.749   0.355   1.348  0.4434  0.2284  0.0139
 4253TIP3    H112765   3.837   0.360   1.387  0.7174 -0.4104 -0.5053
 4253TIP3    H212766   3.709   0.279   1.390  0.3858  0.1175 -0.2396
 4254TIP3   OH212767   1.829   2.891   0.494 -0.7488 -0.2402  0.0427
 4254TIP3    H112768   1.877   2.822   0.448  1.0972  1.5952 -0.9362
 4254TIP3    H212769   1.848   2.877   0.586 -1.3281 -1.6796 -0.0342
 4255TIP3   OH212770   4.663   5.159   4.693 -0.2988 -0.2483  0.5379
 4255TIP3    H112771   4.571   5.143   4.671 -0.1412 -1.6562  0.7775
 4255TIP3    H212772   4.668   5.140   4.786  0.6436 -2.4272  0.1120
 4256TIP3   OH212773   0.252   3.565   2.406 -0.4791 -0.3136  0.0494
 4256TIP3    H112774   0.304   3.602   2.335 -0.6686 -0.3678 -0.1173
 4256TIP3    H212775   0.180   3.520   2.363 -0.0497 -1.2048  0.2329
 4257TIP3   OH212776   3.386   1.712   3.586 -0.1701 -0.1113  0.7086
 4257TIP3    H112777   3.401   1.646   3.518 -0.7726 -2.5965  2.8432
 4257TIP3    H212778   3.473   1.733   3.620 -0.0895 -1.1076  1.1404
 4258TIP3   OH212779   1.566   0.471   2.649  0.5674 -0.1970 -0.3974
 4258TIP3    H112780   1.477   0.474   2.613  0.5932  0.4135 -0.4161
 4258TIP3    H212781   1.585   0.378   2.658 -0.6490 -0.3251  1.0503
 4259TIP3   OH212782   0.026   2.584   2.053 -0.3002  0.0430 -0.0238
 4259TIP3    H112783   0.099   2.635   2.089 -0.2290  1.1718 -1.6630
 4259TIP3    H212784  -0.052   2.619   2.098 -0.1154  0.7256 -0.2235
 4260TIP3   OH212785   5.787   3.395   3.288 -0.6070 -0.0389 -0.1764
 4260TIP3    H112786   5.874   3.435   3.285 -1.4838  1.9888 -0.6965
 4260TIP3    H212787   5.727   3.466   3.262 -2.3682 -1.5177 -0.3925
 4261TIP3   OH212788   2.769   0.869   4.109  0.5109 -0.0889 -0.1348
 4261TIP3    H112789   2.723   0.807   4.052 -0.2231 -1.3358  1.7396
 4261TIP3    H212790   2.859   0.870   4.075  0.7671 -2.8233  0.2259
 4262TIP3   OH212791   0.363   1.004   3.928 -0.4175 -0.2531  0.9717
 4262TIP3    H112792   0.434   0.941   3.923 -0.7285 -0.6294  1.2636
 4262TIP3    H212793   0.297   0.972   3.867  0.0139  0.5668  0.0312
 4263TIP3   OH212794   4.315   2.306   3.801 -0.6170  0.1951  0.1893
 4263TIP3    H112795   4.229   2.330   3.769 -0.7242 -0.2336  0.1447
 4263TIP3    H212796   4.304   2.216   3.835 -0.2648  0.2516  0.4638
 4264TIP3   OH212797   1.021   3.189   0.144 -0.7031  0.1473  0.5610
 4264TIP3    H112798   1.069   3.110   0.168 -1.8135 -1.1507 -1.2286
 4264TIP3    H212799   1.087   3.247   0.107 -0.2882 -1.1921 -0.9124
 4265TIP3   OH212800   3.946   3.527   2.555 -0.1097 -0.2409 -0.1864
 4265TIP3    H112801   4.004   3.493   2.487  0.7336 -1.8851  1.2669
 4265TIP3    H212802   4.005   3.568   2.618 -0.7992  0.5405 -0.0345
 4266TIP3   OH212803   2.380   1.141   2.334  0.5606 -0.3070  0.1652
 4266TIP3    H112804   2.367   1.072   2.269 -1.4230 -0.4353  0.6436
 4266TIP3    H212805   2.400   1.093   2.415  0.6976 -0.2558  0.1612
 4267TIP3   OH212806   0.105   5.549   1.723 -0.2758 -0.1765  0.1732
 4267TIP3    H112807   0.141   5.569   1.809  1.3460 -2.2941  0.0407
 4267TIP3    H212808   0.061   5.465   1.734 -1.1205  0.1056 -0.8221
 4268TIP3   OH212809   2.428   3.602   3.875 -0.0052  0.1968 -0.1154
 4268TIP3    H112810   2.432   3.510   3.848 -1.5900 -0.0175  0.2872
 4268TIP3    H212811   2.351   3.637   3.831 -0.4465  0.8560  1.1213
 4269TIP3   OH212812   4.508   1.684   1.594  0.6506  0.4208 -0.5331
 4269TIP3    H112813   4.430   1.638   1.565  0.3804  1.6873 -1.8978
 4269TIP3    H212814   4.579   1.620   1.584 -0.3421 -1.2155  2.0582
 4270TIP3   OH212815   0.913   0.492   4.278 -0.3428  0.4525 -0.0853
 4270TIP3    H112816   0.824   0.465   4.301  0.2085 -0.3792  1.2049
 4270TIP3    H212817   0.938   0.553   4.348  0.4159 -0.0046  0.0433
 4271TIP3   OH212818   4.956   3.391   5.071 -0.1669 -0.3543  0.1336
 4271TIP3    H112819   5.047   3.419   5.078 -0.3448 -0.0168  1.5188
 4271TIP3    H212820   4.960   3.301   5.039  0.7604 -0.8271  1.4772
 4272TIP3   OH212821   4.002   4.058   4.210 -0.2430  0.3868  0.2496
 4272TIP3    H112822   4.060   4.057   4.134  0.5786 -0.5781  0.8639
 4272TIP3    H212823   3.926   4.109   4.181  1.4326  2.8573 -0.1820
 4273TIP3   OH212824   4.585   1.408   5.096 -0.5899 -0.6279 -0.0843
 4273TIP3    H112825   4.581   1.415   5.192 -1.4555 -1.7198 -0.0347
 4273TIP3    H212826   4.642   1.481   5.070 -1.2351  0.3608  1.1671
 4274TIP3   OH212827   5.893   2.161   3.883  0.6030  0.3044 -0.0250
 4274TIP3    H112828   5.801   2.188   3.874  0.8603  2.4441  2.4199
 4274TIP3    H212829   5.888   2.069   3.907 -0.9424  0.4099  0.1917
 4275TIP3   OH212830   0.792   0.919   4.093  0.3730 -0.1195  0.1739
 4275TIP3    H112831   0.848   0.876   4.158  0.8429  0.6602  0.2862
 4275TIP3    H212832   0.830   0.894   4.009 -0.4980 -1.4978  0.1563
 4276TIP3   OH212833   2.794   0.900   1.571 -0.5485 -0.5942 -0.5370
 4276TIP3    H112834   2.705   0.885   1.604 -1.3814 -0.6217 -2.6423
 4276TIP3    H212835   2.782   0.925   1.479  1.5581  0.6858 -0.5350
 4277TIP3   OH212836   5.822   3.090   2.074  0.1226 -0.0240  0.2292
 4277TIP3    H112837   5.830   3.126   1.985  1.0841 -0.4909  0.1155
 4277TIP3    H212838   5.890   3.134   2.124 -0.3151  0.1221  0.7063
 4278TIP3   OH212839   2.430   2.212   5.096 -0.5776 -0.3669  0.3339
 4278TIP3    H112840   2.343   2.232   5.060  0.0329  0.7678 -0.5560
 4278TIP3    H212841   2.457   2.133   5.049 -0.5560  0.0588 -0.3762
 4279TIP3   OH212842   6.083   3.048   4.006  0.7418 -0.3625 -0.3164
 4279TIP3    H112843   6.091   2.980   3.939  1.5496 -1.5204  0.9003
 4279TIP3    H212844   6.108   3.004   4.087  1.8970  1.5451  0.4194
 4280TIP3   OH212845   5.397   3.995   3.680 -0.1230  0.2091  0.0721
 4280TIP3    H112846   5.439   3.938   3.744  0.1930  1.4575  1.0202
 4280TIP3    H212847   5.313   3.955   3.662  0.8111 -1.5285 -0.6921
 4281TIP3   OH212848   4.163   2.559   0.677 -0.3219  0.0879  0.3779
 4281TIP3    H112849   4.102   2.545   0.750  1.0292  1.4734  1.8631
 4281TIP3    H212850   4.175   2.654   0.675  1.5027 -0.1215 -0.0913
 4282TIP3   OH212851   5.733   2.663   0.117  0.9323 -0.7882 -0.1955
 4282TIP3    H112852   5.758   2.586   0.065  1.8367 -1.4533  1.1470
 4282TIP3    H212853   5.678   2.715   0.059  1.2169 -1.9074 -1.5158
 4283TIP3   OH212854   4.363   5.359   0.977  0.3487 -0.2190  0.1061
 4283TIP3    H112855   4.276   5.325   0.999  0.1901  0.8731  1.3034
 4283TIP3    H212856   4.349   5.452   0.961  1.1013 -0.2808 -1.0331
 4284TIP3   OH212857   4.904   1.729   3.928  0.3282  0.6370  0.1532
 4284TIP3    H112858   4.849   1.701   3.855 -1.5110 -0.4837  1.8957
 4284TIP3    H212859   4.948   1.649   3.957  0.9764  1.0565  0.3450
 4285TIP3   OH212860   4.957   2.817   1.974 -0.3201 -0.0960 -0.3822
 4285TIP3    H112861   4.989   2.787   2.059  0.4644  0.9618 -0.2727
 4285TIP3    H212862   4.974   2.911   1.974 -2.5460  0.3619 -0.7592
 4286TIP3   OH212863   5.484   4.106   4.144 -0.0311 -0.3897 -0.7974
 4286TIP3    H112864   5.426   4.063   4.082 -1.2567  0.5824 -0.3887
 4286TIP3    H212865   5.455   4.074   4.230 -2.2728  2.4763 -0.2997
 4287TIP3   OH212866   1.843   5.975   1.356 -0.3857 -0.4421  0.0433
 4287TIP3    H112867   1.797   6.019   1.284  0.2441 -0.4247 -0.3533
 4287TIP3    H212868   1.874   5.893   1.318  0.9662  0.0951 -0.0402
 4288TIP3   OH212869   5.771   0.831   4.632  0.4704 -0.1202  0.4649
 4288TIP3    H112870   5.763   0.889   4.707 -3.0498 -1.3511  1.2074
 4288TIP3    H212871   5.749   0.885   4.557 -0.7153  0.0261  0.9057
 4289TIP3   OH212872   0.568   1.782   2.295 -0.2329  0.2964  0.6345
 4289TIP3    H112873   0.642   1.723   2.278  0.8577  1.5135  1.0312
 4289TIP3    H212874   0.606   1.856   2.342 -1.5434  1.3956  0.0360
 4290TIP3   OH212875   6.210   0.763   4.271  0.0801 -0.0669  0.3404
 4290TIP3    H112876   6.118   0.746   4.291  0.3114 -0.9135  0.7199
 4290TIP3    H212877   6.245   0.801   4.352 -0.0166  0.5880  0.0781
 4291TIP3   OH212878   0.242   5.945   4.904 -0.4419 -0.2833 -0.3159
 4291TIP3    H112879   0.270   6.035   4.886  0.5558 -0.8678 -1.8452
 4291TIP3    H212880   0.235   5.942   5.000  2.1224  0.7082  0.0069
 4292TIP3   OH212881   4.871   4.634   3.299 -0.3260  0.5760  0.2364
 4292TIP3    H112882   4.831   4.704   3.350  0.0663  1.5378 -0.7271
 4292TIP3    H212883   4.894   4.675   3.215 -0.2745 -0.7577 -0.4386
 4293TIP3   OH212884   2.825   2.922   5.053  0.0631 -0.1205 -0.1159
 4293TIP3    H112885   2.891   2.899   5.119 -0.8082 -0.2519  0.7365
 4293TIP3    H212886   2.741   2.910   5.098 -0.5633 -0.3657 -1.3028
 4294TIP3   OH212887   4.660   3.262   2.203  0.4505  1.0354  0.3319
 4294TIP3    H112888   4.616   3.294   2.281 -1.4024  0.3788 -0.3828
 4294TIP3    H212889   4.751   3.248   2.230 -0.4209 -0.5017  2.7957
 4295TIP3   OH212890   0.275   0.686   0.909  0.3009 -0.0557 -0.1973
 4295TIP3    H112891   0.359   0.692   0.953  0.9376 -0.8881 -1.2474
 4295TIP3    H212892   0.285   0.613   0.848 -0.0060  1.9746 -2.8385
 4296TIP3   OH212893   2.838   2.799   1.440 -0.0687  0.4206  0.4004
 4296TIP3    H112894   2.900   2.727   1.431 -2.3238 -1.5682 -0.3230
 4296TIP3    H212895   2.867   2.864   1.376  0.6916 -0.8859 -0.6382
 4297TIP3   OH212896   2.451   1.473   1.660 -0.0637  0.1180  0.8744
 4297TIP3    H112897   2.406   1.396   1.695  0.8584 -0.4908  0.7353
 4297TIP3    H212898   2.386   1.544   1.668 -1.8570 -1.1409 -1.2693
 4298TIP3   OH212899   3.310   0.607   3.979  0.3381 -0.1258 -1.2966
 4298TIP3    H112900   3.384   0.666   3.974  0.0001  0.3316 -0.9999
 4298TIP3    H212901   3.246   0.644   3.918 -1.1871  1.7308  1.2441
 4299TIP3   OH212902   3.153   0.751   4.655  0.2045  0.0827 -0.7592
 4299TIP3    H112903   3.113   0.739   4.741 -1.2495  1.7948 -1.1463
 4299TIP3    H212904   3.226   0.811   4.670  0.6184 -0.4669 -0.5599
 4300TIP3   OH212905   5.787   2.707   3.810  0.0487  0.1481  0.4397
 4300TIP3    H112906   5.748   2.795   3.812  0.0237  0.1350  0.5361
 4300TIP3    H212907   5.721   2.653   3.767  0.6348  0.4532 -0.8993
 4301TIP3   OH212908   0.320   0.990   1.289 -0.4709  0.6173 -0.2805
 4301TIP3    H112909   0.235   0.975   1.328 -0.5533  0.2039 -0.6087
 4301TIP3    H212910   0.302   1.003   1.196 -0.1388  0.0334 -0.4377
 4302TIP3   OH212911   1.889   0.163   1.029  0.0204  0.4927  0.2892
 4302TIP3    H112912   1.827   0.092   1.044  0.7850 -0.0140  1.1476
 4302TIP3    H212913   1.889   0.212   1.111  3.0181 -1.3250  1.5120
 4303TIP3   OH212914   3.308   4.519   3.380  0.1786 -0.4049 -0.4343
 4303TIP3    H112915   3.356   4.450   3.427 -0.2281 -0.8377 -0.6405
 4303TIP3    H212916   3.310   4.491   3.289  1.1994  0.5697 -0.7303
 4304TIP3   OH212917   1.062   3.942   5.008 -0.2373  0.6307  0.8263
 4304TIP3    H112918   1.136   3.938   4.948 -0.1314  0.0261  0.9895
 4304TIP3    H212919   1.099   3.972   5.091  0.0072 -0.6130  1.1769
 4305TIP3   OH212920   3.656   1.693   0.840 -0.1834 -0.0382 -0.6206
 4305TIP3    H112921   3.728   1.642   0.877 -1.0113 -0.7168  0.0964
 4305TIP3    H212922   3.586   1.629   0.827  0.3098 -0.0731 -4.2452
 4306TIP3   OH212923   2.362   5.657   4.997  0.0175 -0.3969  0.0605
 4306TIP3    H112924   2.306   5.730   4.968  0.4273 -0.0997  0.0110
 4306TIP3    H212925   2.423   5.644   4.925  0.3992 -0.3213  0.3696
 4307TIP3   OH212926   1.541   2.038   3.188 -0.6677  0.0173  0.2651
 4307TIP3    H112927   1.558   2.058   3.096 -1.8316 -0.6811 -0.1131
 4307TIP3    H212928   1.590   1.958   3.205 -0.6857 -0.0113  0.1787
 4308TIP3   OH212929   2.183   0.117   1.607  0.8051  0.2393  0.0086
 4308TIP3    H112930   2.233   0.159   1.537  0.1338 -0.4707 -0.9206
 4308TIP3    H212931   2.246   0.059   1.650  1.1148  0.3729 -0.2574
 4309TIP3   OH212932   2.049   3.180   3.079  0.3437 -0.4602 -0.1531
 4309TIP3    H112933   2.116   3.111   3.072 -0.5562 -1.4754  0.8096
 4309TIP3    H212934   2.068   3.239   3.006  1.9853 -0.9770 -0.1910
 4310TIP3   OH212935   4.719   1.689   1.096 -0.5022 -0.3165  0.2378
 4310TIP3    H112936   4.655   1.759   1.106 -0.5231 -0.2694 -0.1949
 4310TIP3    H212937   4.682   1.633   1.028 -0.4950 -0.7602  0.5963
 4311TIP3   OH212938   1.515   1.319   0.194  0.7070 -0.0862 -0.1723
 4311TIP3    H112939   1.574   1.339   0.267  1.0894  2.5918 -1.0928
 4311TIP3    H212940   1.546   1.235   0.161  2.1201 -0.1579  1.1991
 4312TIP3   OH212941   1.410   5.503   0.177 -0.4360  0.2206 -0.2862
 4312TIP3    H112942   1.417   5.414   0.211 -0.3162  0.0973 -0.6370
 4312TIP3    H212943   1.321   5.509   0.141 -1.1417  0.8439  1.4442
 4313TIP3   OH212944   5.118   1.444   3.668 -0.1904  0.1407  0.0274
 4313TIP3    H112945   5.168   1.363   3.670  1.6507  1.2047 -0.6186
 4313TIP3    H212946   5.159   1.496   3.599 -1.4920  1.5237  0.2414
 4314TIP3   OH212947   4.790   3.933   0.488 -0.1979  0.0534  0.1736
 4314TIP3    H112948   4.746   3.874   0.427 -1.0777  1.8076 -0.9666
 4314TIP3    H212949   4.882   3.933   0.459  0.2655 -2.1630  1.3955
 4315TIP3   OH212950   1.920   2.715   4.193  0.4496  0.6529  0.0788
 4315TIP3    H112951   1.855   2.748   4.131 -0.1607  0.1393  0.4178
 4315TIP3    H212952   1.957   2.793   4.233 -1.0479  0.9771  0.9505
 4316TIP3   OH212953   4.039   1.310   2.871 -0.1401 -0.3596 -0.7406
 4316TIP3    H112954   4.108   1.280   2.812  0.2921  1.5363 -1.2577
 4316TIP3    H212955   3.974   1.350   2.814  0.6186  2.1723  0.0211
 4317TIP3   OH212956   4.689   4.854   0.428 -0.2209 -0.5614 -0.0411
 4317TIP3    H112957   4.601   4.852   0.390 -0.4976 -0.8814  0.6074
 4317TIP3    H212958   4.725   4.939   0.401 -0.6754 -0.4915 -0.4281
 4318TIP3   OH212959   4.400   0.216   2.184 -0.1843  0.5088 -0.1012
 4318TIP3    H112960   4.353   0.166   2.117  0.5926  0.6511 -0.7761
 4318TIP3    H212961   4.395   0.162   2.263  1.0097 -0.8815 -0.9191
 4319TIP3   OH212962   0.664   3.444   3.093 -0.5127  0.4128  0.3823
 4319TIP3    H112963   0.749   3.467   3.131 -0.1004 -2.0146  1.0822
 4319TIP3    H212964   0.616   3.527   3.090  2.4010  2.2591 -1.6178
 4320TIP3   OH212965   4.473   0.689   1.561  0.6746 -0.7370  0.4974
 4320TIP3    H112966   4.413   0.740   1.506 -0.1719 -1.9464  0.2591
 4320TIP3    H212967   4.448   0.711   1.651  1.8229  0.9676  0.4456
 4321TIP3   OH212968   4.617   5.035   4.250  0.1276 -0.1358  0.2101
 4321TIP3    H112969   4.523   5.043   4.234  0.5007 -0.3575 -2.4816
 4321TIP3    H212970   4.656   5.108   4.202  1.3932 -0.5960  0.4971
 4322TIP3   OH212971   2.711   5.423   4.208  0.2338  0.5460 -0.0364
 4322TIP3    H112972   2.748   5.389   4.290  1.9803 -0.1657 -1.0672
 4322TIP3    H212973   2.702   5.517   4.224  2.2253  0.7181  0.4307
 4323TIP3   OH212974   0.639   1.716   2.781  0.5546 -0.2689  0.1034
 4323TIP3    H112975   0.710   1.752   2.727  0.3684 -0.4767 -0.2893
 4323TIP3    H212976   0.610   1.639   2.732 -0.2982  0.1191 -0.0086
 4324TIP3   OH212977   2.207   0.487   0.337 -0.6214 -0.3845 -0.1112
 4324TIP3    H112978   2.267   0.479   0.411  0.6070 -0.3940 -1.0639
 4324TIP3    H212979   2.254   0.447   0.264 -1.3796  0.4905 -1.1166
 4325TIP3   OH212980   3.862   0.224   0.320 -0.4611  0.3937 -0.3305
 4325TIP3    H112981   3.947   0.254   0.289  0.3683 -2.9274 -1.7905
 4325TIP3    H212982   3.803   0.238   0.246 -1.1123  2.1240  0.4643
 4326TIP3   OH212983   3.053   2.300   1.146 -0.4414 -0.1507  0.4975
 4326TIP3    H112984   3.040   2.303   1.051 -1.2933  0.2167  0.6122
 4326TIP3    H212985   3.019   2.214   1.172 -1.0334  0.0962  0.5691
 4327TIP3   OH212986   3.582   4.862   0.963 -0.2030 -0.0062 -0.6550
 4327TIP3    H112987   3.505   4.863   0.906 -1.2435  0.6759  0.7026
 4327TIP3    H212988   3.628   4.781   0.940 -1.6143 -0.6934 -1.1453
 4328TIP3   OH212989   1.555   0.763   1.658 -0.3631 -0.2969 -0.1610
 4328TIP3    H112990   1.481   0.731   1.607 -1.9005  2.3722  0.2265
 4328TIP3    H212991   1.550   0.858   1.652  1.2726  0.0555  2.3206
 4329TIP3   OH212992   3.995   2.295   0.015 -0.7657 -0.0790  0.3528
 4329TIP3    H112993   3.978   2.327   0.104  0.2167  1.1926  0.1212
 4329TIP3    H212994   4.081   2.253   0.021  0.0587  1.4378 -0.2904
 4330TIP3   OH212995   2.240   0.499   3.390 -0.1158  0.1519  0.2072
 4330TIP3    H112996   2.163   0.532   3.437 -0.7358 -2.6154  1.3708
 4330TIP3    H212997   2.221   0.407   3.375  2.6581 -0.4627 -0.1505
 4331TIP3   OH212998   3.737   3.269   3.171  0.7217  0.0334  0.0334
 4331TIP3    H112999   3.666   3.240   3.113  0.5010 -0.2135  0.4182
 4331TIP3    H213000   3.713   3.358   3.195  0.9323  0.2196 -0.4335
 4332TIP3   OH213001   3.955   2.636   4.841  0.4239 -0.0280  0.1826
 4332TIP3    H113002   3.866   2.651   4.873  0.8463 -2.3440  2.7731
 4332TIP3    H213003   3.944   2.622   4.747 -1.5739  2.0851  0.0033
 4333TIP3   OH213004   5.689   3.131   4.517 -0.0152 -0.1463 -0.1967
 4333TIP3    H113005   5.775   3.087   4.518  0.0792  0.0108 -0.9311
 4333TIP3    H213006   5.710   3.224   4.513 -0.2196 -0.1185 -0.6527
 4334TIP3   OH213007   0.880   2.410   4.333 -0.3676  0.5383  0.0611
 4334TIP3    H113008   0.911   2.499   4.345 -0.0127  0.6704 -1.6090
 4334TIP3    H213009   0.959   2.356   4.333 -0.6004  0.1581  1.3674
 4335TIP3   OH213010   4.174   1.397   3.589  0.0709 -0.2032  0.6281
 4335TIP3    H113011   4.220   1.348   3.657 -0.3515 -0.6163  0.6174
 4335TIP3    H213012   4.220   1.374   3.508  0.1113 -0.2896  0.6751
 4336TIP3   OH213013   2.018   5.852   2.106  0.4701 -0.0907  0.1340
 4336TIP3    H113014   2.015   5.817   2.195 -1.9055  0.1532  0.2154
 4336TIP3    H213015   2.023   5.775   2.050  0.0720 -0.3381  0.4356
 4337TIP3   OH213016   2.823   3.551   0.730  0.4685 -0.0035  0.5599
 4337TIP3    H113017   2.843   3.462   0.760  1.6137 -0.6468 -1.8627
 4337TIP3    H213018   2.801   3.599   0.810 -1.0005 -2.6346  1.8536
 4338TIP3   OH213019   3.222   3.255   4.080 -0.2850  0.1647  0.0143
 4338TIP3    H113020   3.239   3.345   4.106  0.4592  0.2591 -0.7716
 4338TIP3    H213021   3.261   3.202   4.150  0.9804  0.4234 -0.4819
 4339TIP3   OH213022   1.079   2.509   5.127  0.8669  0.1971  0.1180
 4339TIP3    H113023   0.990   2.498   5.094  0.3562  1.5183  0.9858
 4339TIP3    H213024   1.084   2.447   5.201  0.8801 -0.3059 -0.2975
 4340TIP3   OH213025   0.677   5.915   1.114  0.0611 -0.6055 -0.2201
 4340TIP3    H113026   0.603   5.912   1.054 -0.8890  0.5648  0.8394
 4340TIP3    H213027   0.690   6.009   1.131  0.7722 -0.8777  0.8321
 4341TIP3   OH213028   5.882   1.465   1.717  0.0703  0.3231 -0.0164
 4341TIP3    H113029   5.889   1.559   1.697 -0.9430  1.0643  2.6473
 4341TIP3    H213030   5.852   1.462   1.808 -1.2556 -2.5930 -0.4269
 4342TIP3   OH213031   3.726   5.625   4.346 -0.2394 -0.1873  0.3412
 4342TIP3    H113032   3.776   5.665   4.417  0.8711 -1.3909  0.2905
 4342TIP3    H213033   3.637   5.655   4.359  0.1527  0.4926  1.5984
 4343TIP3   OH213034   0.948   0.083   3.842  0.7458 -0.2406  1.4521
 4343TIP3    H113035   1.039   0.108   3.831  1.0721 -1.2379  1.8053
 4343TIP3    H213036   0.929   0.025   3.769 -0.3054  1.7107  0.0588
 4344TIP3   OH213037   4.164   4.622   4.472  0.4307  0.1438 -0.2376
 4344TIP3    H113038   4.207   4.612   4.557 -0.5931 -0.6961  0.2099
 4344TIP3    H213039   4.178   4.539   4.427 -0.0721  0.1309 -0.3839
 4345TIP3   OH213040   3.480   5.450   2.776  0.0180  0.1080 -0.3410
 4345TIP3    H113041   3.559   5.462   2.723  1.1163  0.6491  1.3468
 4345TIP3    H213042   3.510   5.406   2.855 -1.3747  0.2858  0.3227
 4346TIP3   OH213043   4.743   1.359   2.165  0.5833  0.0450  0.4962
 4346TIP3    H113044   4.704   1.421   2.227  1.4604 -1.0684  2.2448
 4346TIP3    H213045   4.758   1.411   2.086 -1.8670  1.1897  0.6575
 4347TIP3   OH213046   0.531   5.345   2.450  0.3771 -0.0981  0.3406
 4347TIP3    H113047   0.611   5.301   2.420  0.9669  0.7185  0.6524
 4347TIP3    H213048   0.460   5.302   2.403  1.0632 -0.4091 -0.4272
 4348TIP3   OH213049   5.237   5.406   5.042 -0.5916  0.0650 -0.4397
 4348TIP3    H113050   5.185   5.437   5.117  1.7075  0.0315  1.2850
 4348TIP3    H213051   5.263   5.486   4.996 -0.1609  0.2560  0.1233
 4349TIP3   OH213052   3.407   0.094   3.377 -0.3191 -0.2929  0.0881
 4349TIP3    H113053   3.407   0.074   3.471  0.4322  0.2744  0.2162
 4349TIP3    H213054   3.495   0.071   3.348 -0.1239  0.7936 -0.2057
 4350TIP3   OH213055   3.266   2.521   0.243 -0.5218 -0.1230 -0.4578
 4350TIP3    H113056   3.215   2.483   0.314  0.2594  0.2862  0.3312
 4350TIP3    H213057   3.201   2.564   0.188 -0.9403  1.6372  1.3074
 4351TIP3   OH213058   2.258   2.732   1.506 -0.1798 -0.7860  0.0109
 4351TIP3    H113059   2.249   2.706   1.598 -0.3102  2.6684  1.1567
 4351TIP3    H213060   2.344   2.698   1.480 -0.1498 -1.8584  1.4103
 4352TIP3   OH213061   5.587   3.752   4.244  0.0108 -0.4023  0.1487
 4352TIP3    H113062   5.516   3.811   4.272  1.4873  1.9038 -0.7388
 4352TIP3    H213063   5.603   3.698   4.321 -0.8290  0.9455  1.3430
 4353TIP3   OH213064   5.891   0.924   2.157 -0.5315 -0.0069  0.1482
 4353TIP3    H113065   5.877   0.940   2.251 -0.9989  4.3945 -0.4606
 4353TIP3    H213066   5.803   0.913   2.122 -0.5346  0.4574 -0.0036
 4354TIP3   OH213067   5.992   2.055   4.299  0.3149 -0.2756  0.3073
 4354TIP3    H113068   6.003   1.979   4.242  0.0630  0.6339 -0.9853
 4354TIP3    H213069   6.057   2.042   4.369  0.0800 -1.7981  0.2639
 4355TIP3   OH213070   0.145   4.394   4.493  0.6100  0.4933 -0.3959
 4355TIP3    H113071   0.087   4.468   4.478  1.5583  1.3665  0.1461
 4355TIP3    H213072   0.157   4.391   4.587  1.3721  0.2597 -0.4940
 4356TIP3   OH213073   4.335   0.449   2.060 -0.3205 -0.8257 -0.0202
 4356TIP3    H113074   4.260   0.472   2.115  1.0480  1.1076  1.1676
 4356TIP3    H213075   4.376   0.376   2.106  0.0155 -0.1324  0.8216
 4357TIP3   OH213076   4.314   3.750   1.436 -0.3011  0.5413 -0.8020
 4357TIP3    H113077   4.373   3.810   1.482  0.0011  0.8953 -1.6324
 4357TIP3    H213078   4.271   3.701   1.506  0.1795  1.0333 -0.1440
 4358TIP3   OH213079   0.799   4.668   4.895 -0.1639 -0.5696  0.2981
 4358TIP3    H113080   0.884   4.654   4.854  0.0858 -1.6838  1.1498
 4358TIP3    H213081   0.789   4.595   4.955 -2.4336 -1.3713 -0.9208
 4359TIP3   OH213082   5.181   2.302   3.963 -0.0410 -0.2243 -0.6076
 4359TIP3    H113083   5.198   2.265   4.050  0.7967 -1.4051 -1.2483
 4359TIP3    H213084   5.220   2.239   3.902 -0.4513  0.6777 -1.8367
 4360TIP3   OH213085   2.499   1.888   4.364  0.4280  0.2820 -0.0944
 4360TIP3    H113086   2.412   1.867   4.330 -0.0651  1.4992  0.3280
 4360TIP3    H213087   2.543   1.804   4.373 -0.5465 -0.3169 -0.7543
 4361TIP3   OH213088   2.329   1.745   2.280  0.0916 -0.1446  0.0160
 4361TIP3    H113089   2.354   1.809   2.347 -0.5230  1.7121 -1.4550
 4361TIP3    H213090   2.245   1.711   2.310  0.5034 -0.4233  0.8958
 4362TIP3   OH213091   5.224   1.726   3.174 -0.5503 -0.8524 -0.2117
 4362TIP3    H113092   5.237   1.795   3.109 -0.4595  1.0023  1.6416
 4362TIP3    H213093   5.202   1.648   3.123 -2.9609  1.0435 -2.3585
 4363TIP3   OH213094   5.731   4.415   4.313  0.6382  0.0160 -0.1980
 4363TIP3    H113095   5.695   4.344   4.366  1.2574 -0.0809  0.1016
 4363TIP3    H213096   5.826   4.409   4.326  0.7338  0.5541 -0.6082
 4364TIP3   OH213097   6.137   5.398   1.195  0.3216  0.0211  0.7388
 4364TIP3    H113098   6.204   5.451   1.152 -0.6259  1.6763  1.1901
 4364TIP3    H213099   6.073   5.380   1.126  0.5493 -0.3639  0.6296
 4365TIP3   OH213100   0.337   5.507   3.685  0.0011  0.2706  0.1319
 4365TIP3    H113101   0.305   5.506   3.595  0.4285  0.0077 -0.0207
 4365TIP3    H213102   0.350   5.600   3.705  1.1702  0.2755 -0.5414
 4366TIP3   OH213103   5.133   0.635   1.010  0.4899  0.3668 -0.1317
 4366TIP3    H113104   5.100   0.718   1.046 -0.6554 -0.2802  0.3630
 4366TIP3    H213105   5.226   0.651   0.995  0.3406  1.6629  0.2018
 4367TIP3   OH213106   5.773   5.165   0.239  0.3186  0.6562  0.0400
 4367TIP3    H113107   5.754   5.258   0.236 -0.7271  0.4379 -1.3179
 4367TIP3    H213108   5.802   5.143   0.150 -1.3923 -0.6741 -0.2389
 4368TIP3   OH213109   3.099   2.046   2.800 -0.0774 -0.1107 -0.0540
 4368TIP3    H113110   3.072   1.955   2.807  0.6417 -0.3695 -0.5992
 4368TIP3    H213111   3.066   2.075   2.716  0.9140 -0.2934 -0.5183
 4369TIP3   OH213112   3.881   3.131   2.618  0.0112  0.2268  0.3173
 4369TIP3    H113113   3.919   3.112   2.703  0.4401  0.1561  0.1098
 4369TIP3    H213114   3.796   3.171   2.638 -0.0841 -0.1949  0.7721
 4370TIP3   OH213115   3.988   4.713   1.112 -0.0628 -0.0687  0.5631
 4370TIP3    H113116   3.911   4.766   1.132  0.3597  0.0263  2.0482
 4370TIP3    H213117   4.061   4.773   1.121  0.2563 -0.3336 -0.1590
 4371TIP3   OH213118   3.969   3.851   2.351 -0.2386 -1.0685 -0.0986
 4371TIP3    H113119   3.964   3.882   2.441 -2.9837  0.5026 -0.6778
 4371TIP3    H213120   4.059   3.870   2.324 -0.0213  0.5679  1.5829
 4372TIP3   OH213121   5.429   5.327   3.587 -0.0044  0.1561 -0.8566
 4372TIP3    H113122   5.408   5.417   3.611  0.0619 -0.1298  0.3554
 4372TIP3    H213123   5.501   5.303   3.646 -0.0172 -0.6883 -1.1693
 4373TIP3   OH213124   5.174   5.636   4.071 -0.2326  0.3224 -0.3303
 4373TIP3    H113125   5.149   5.699   4.004  1.1962  2.1586  0.7649
 4373TIP3    H213126   5.231   5.574   4.027  0.2247  1.1668 -0.9403
 4374TIP3   OH213127   5.765   2.380   0.002  0.2051 -0.0307 -0.2599
 4374TIP3    H113128   5.709   2.347   0.072 -0.0276  1.4939  0.3308
 4374TIP3    H213129   5.851   2.343   0.021  0.3335  0.9700  1.3607
 4375TIP3   OH213130   3.955   3.283   3.515  0.5140 -0.4159  0.1020
 4375TIP3    H113131   3.971   3.223   3.442 -0.5670 -1.2311  0.5183
 4375TIP3    H213132   3.899   3.352   3.478  0.4944 -0.4815  0.0087
 4376TIP3   OH213133   3.387   5.096   3.836  0.3753  0.5309  0.2583
 4376TIP3    H113134   3.315   5.158   3.850  1.0272  1.3714  0.0141
 4376TIP3    H213135   3.347   5.010   3.846 -0.5941  0.9868  0.4507
 4377TIP3   OH213136   4.061   2.591   0.173  0.2311 -0.5561  0.2188
 4377TIP3    H113137   4.130   2.628   0.118 -1.3300  0.1755 -1.3576
 4377TIP3    H213138   4.106   2.527   0.228  2.5043  1.4018  0.8038
 4378TIP3   OH213139   0.797   2.838   4.616  0.2816  0.2953  0.4090
 4378TIP3    H113140   0.851   2.903   4.660 -1.8142  2.2880  0.2290
 4378TIP3    H213141   0.747   2.796   4.687  0.4735  0.0115  0.3769
 4379TIP3   OH213142   4.277   2.690   0.034  0.1147 -0.5688  0.2395
 4379TIP3    H113143   4.331   2.769   0.032  1.4956 -1.4625  0.7564
 4379TIP3    H213144   4.340   2.618   0.039 -1.1096 -1.7095 -0.2094
 4380TIP3   OH213145   3.514   3.201   3.003  0.6921 -0.5657 -0.3034
 4380TIP3    H113146   3.472   3.139   3.064  0.7216 -1.8271 -1.5191
 4380TIP3    H213147   3.444   3.260   2.977  0.0330 -1.6745 -1.0889
 4381TIP3   OH213148   2.779   4.145   5.177 -0.0028  0.1432 -0.2074
 4381TIP3    H113149   2.772   4.196   5.096  0.6504  1.1016  0.3273
 4381TIP3    H213150   2.871   4.120   5.183 -0.5742 -2.7282 -1.3903
 4382TIP3   OH213151   2.838   3.019   1.699  0.0335  0.0857 -0.0419
 4382TIP3    H113152   2.794   3.052   1.777  0.8008 -1.9285  1.3316
 4382TIP3    H213153   2.793   2.937   1.678  1.0421 -0.3699 -0.5460
 4383TIP3   OH213154   1.916   5.088   0.027 -0.1227  0.2078 -0.0522
 4383TIP3    H113155   1.864   5.039   0.090 -0.9524 -0.3354 -1.1168
 4383TIP3    H213156   1.968   5.022  -0.018 -0.0675  0.4899 -0.4129
 4384TIP3   OH213157   5.800   2.733   3.349  0.6793  0.0071  0.6733
 4384TIP3    H113158   5.732   2.793   3.378 -0.3412 -0.4370 -0.6650
 4384TIP3    H213159   5.753   2.666   3.299  2.1121 -0.2788 -0.3567
 4385TIP3   OH213160   3.046   3.832   4.017  1.0360  0.0067 -0.2460
 4385TIP3    H113161   2.993   3.897   4.064  0.0160  0.4108 -1.8493
 4385TIP3    H213162   3.107   3.885   3.965  0.3426 -0.2734 -1.3965
 4386TIP3   OH213163   5.815   1.975   3.302 -0.0924  0.2933 -0.0390
 4386TIP3    H113164   5.821   2.031   3.224 -0.3359 -1.3711 -1.3206
 4386TIP3    H213165   5.905   1.954   3.324 -0.0215  0.7958  0.1494
 4387TIP3   OH213166   1.667   0.735   2.622  0.2582  0.3167 -0.6868
 4387TIP3    H113167   1.643   0.642   2.622 -0.0440  0.3694  1.0611
 4387TIP3    H213168   1.609   0.774   2.556 -1.8834 -0.2229  0.7802
 4388TIP3   OH213169   5.571   3.822   2.988  0.2410 -0.0733  0.8798
 4388TIP3    H113170   5.643   3.808   2.927  1.2768 -2.0196  2.4477
 4388TIP3    H213171   5.503   3.762   2.958 -0.0834  0.4908  0.4495
 4389TIP3   OH213172   2.534   5.828   1.988 -0.4080 -0.3038  0.2438
 4389TIP3    H113173   2.559   5.786   2.070 -0.8096 -0.2778  0.3854
 4389TIP3    H213174   2.615   5.866   1.954 -0.6326  1.7446  1.8243
 4390TIP3   OH213175   3.448   3.058   3.898 -0.5802 -0.0103 -0.2940
 4390TIP3    H113176   3.412   3.045   3.986 -0.7705  3.1358  0.2058
 4390TIP3    H213177   3.380   3.107   3.852  0.1556 -0.2733 -1.7201
 4391TIP3   OH213178   0.336   2.561   3.607 -0.2479 -0.4478  0.0667
 4391TIP3    H113179   0.380   2.510   3.675 -1.3967 -1.7463 -0.1234
 4391TIP3    H213180   0.374   2.530   3.525  0.6600  0.6473  0.0426
 4392TIP3   OH213181   2.772   4.225   3.309  0.1741 -0.2737  0.2277
 4392TIP3    H113182   2.850   4.280   3.305  0.0021 -0.1036 -1.7295
 4392TIP3    H213183   2.795   4.155   3.370  2.8398 -1.6289 -2.1119
 4393TIP3   OH213184   1.810   4.189   1.892 -0.1178 -0.5432 -0.0803
 4393TIP3    H113185   1.796   4.282   1.873  1.2838 -0.0049  1.2939
 4393TIP3    H213186   1.744   4.168   1.958 -0.4464 -0.5314 -0.4033
 4394TIP3   OH213187   5.321   4.253   1.117 -0.1808  0.2427  0.5514
 4394TIP3    H113188   5.248   4.292   1.068 -1.0366 -0.2591  1.4054
 4394TIP3    H213189   5.398   4.270   1.062 -0.5957  2.5741  0.5565
 4395TIP3   OH213190   2.797   5.034   1.715  0.3530 -0.4565  0.8248
 4395TIP3    H113191   2.769   5.105   1.658  1.0826 -1.1858 -0.4933
 4395TIP3    H213192   2.803   5.074   1.802  1.1863  1.1983  0.0524
 4396TIP3   OH213193   3.491   5.367   4.541 -0.1029 -0.0107  0.8842
 4396TIP3    H113194   3.554   5.307   4.501 -0.4197  0.2146  0.0406
 4396TIP3    H213195   3.451   5.316   4.612  0.0662 -0.5950  0.5673
 4397TIP3   OH213196   4.225   2.648   4.008 -0.2286  0.1680 -0.3242
 4397TIP3    H113197   4.134   2.620   4.000 -0.4107  0.0296  1.6761
 4397TIP3    H213198   4.258   2.601   4.085  1.2208  1.0141 -0.3905
 4398TIP3   OH213199   0.045   4.741   5.133  0.5318  0.2628 -0.8187
 4398TIP3    H113200   0.108   4.719   5.202 -0.0860 -0.9364 -0.6081
 4398TIP3    H213201   0.084   4.816   5.088  1.8283 -0.0857 -0.3276
 4399TIP3   OH213202   5.297   0.331   2.904  0.1156 -0.3358 -0.3477
 4399TIP3    H113203   5.320   0.362   2.816 -1.8630 -0.6143 -1.0202
 4399TIP3    H213204   5.339   0.393   2.963 -0.2970  1.1947 -1.5629
 4400TIP3   OH213205   6.214   1.906   0.300  0.6734  0.1596  0.2069
 4400TIP3    H113206   6.309   1.919   0.302  0.4430  2.2622  1.4066
 4400TIP3    H213207   6.180   1.987   0.263 -0.6216 -1.1731 -1.6580
 4401TIP3   OH213208   2.231   0.900   2.727 -0.3295  0.3792  0.1990
 4401TIP3    H113209   2.165   0.968   2.741  1.7494  2.5264  0.1984
 4401TIP3    H213210   2.312   0.937   2.764  0.9895 -1.9461 -0.1572
 4402TIP3   OH213211   0.583   0.126   0.817  0.0072  0.4980  0.0331
 4402TIP3    H113212   0.523   0.186   0.861 -0.7752  1.3945 -2.1179
 4402TIP3    H213213   0.549   0.119   0.728  2.0888 -0.3997 -0.7665
 4403TIP3   OH213214   3.570   0.678   3.090 -0.6940 -0.3039  0.1385
 4403TIP3    H113215   3.554   0.717   3.176 -1.0415  1.1020 -0.5400
 4403TIP3    H213216   3.529   0.738   3.028  0.8142 -0.5169 -1.1322
 4404TIP3   OH213217   5.732   3.671   0.344 -0.2875 -0.4050  0.9451
 4404TIP3    H113218   5.678   3.626   0.408 -2.1201 -0.7797 -0.7602
 4404TIP3    H213219   5.821   3.639   0.360 -0.9909 -1.8621  2.1067
 4405TIP3   OH213220   5.935   0.315   1.019 -0.4918 -0.4356 -0.3398
 4405TIP3    H113221   5.870   0.376   0.985 -0.2549 -0.2405 -0.4400
 4405TIP3    H213222   5.888   0.268   1.089 -0.6634 -0.1137 -0.2320
 4406TIP3   OH213223   0.251   5.688   1.898 -0.2675 -0.1246  0.7077
 4406TIP3    H113224   0.341   5.705   1.927 -0.5824 -0.2956  1.8480
 4406TIP3    H213225   0.203   5.674   1.979 -1.3955  0.2759  0.1219
 4407TIP3   OH213226   1.204   2.365   2.772  0.4325  0.3988  0.3832
 4407TIP3    H113227   1.121   2.337   2.813  0.8978 -1.3789  0.1939
 4407TIP3    H213228   1.183   2.371   2.679 -0.0350  2.1852  0.5733
 4408TIP3   OH213229   2.341   0.604   3.740 -0.3909  0.0628  0.2426
 4408TIP3    H113230   2.314   0.593   3.649  0.8798  1.5483 -0.3684
 4408TIP3    H213231   2.363   0.697   3.747 -2.0070  0.3513  2.5181
 4409TIP3   OH213232   5.389   0.524   3.109 -0.1975 -0.0234  0.1558
 4409TIP3    H113233   5.450   0.454   3.132 -0.1847 -1.1266 -2.8419
 4409TIP3    H213234   5.444   0.600   3.093  0.2826 -0.6194 -1.1218
 4410TIP3   OH213235   4.670   3.318   1.048  0.3129 -0.7553  0.0926
 4410TIP3    H113236   4.739   3.300   0.984 -1.3286 -1.4113 -1.5934
 4410TIP3    H213237   4.636   3.404   1.024  0.1328 -0.6992  0.5335
 4411TIP3   OH213238   5.235   0.838   1.175 -0.3318 -0.0666 -0.1912
 4411TIP3    H113239   5.231   0.929   1.147  0.0652 -0.1399 -0.4866
 4411TIP3    H213240   5.248   0.843   1.270 -0.9416  0.1809 -0.1163
 4412TIP3   OH213241   4.963   1.879   2.382  0.1555  0.0676 -0.4021
 4412TIP3    H113242   4.914   1.914   2.457 -0.4891  0.6194 -1.0746
 4412TIP3    H213243   5.036   1.831   2.422  1.3949  2.5785  0.5763
 4413TIP3   OH213244   5.182   2.060   0.923 -0.2670 -0.0989 -0.6959
 4413TIP3    H113245   5.197   2.113   1.001 -3.5115 -1.7809  1.2870
 4413TIP3    H213246   5.130   2.116   0.865 -3.6200 -0.7689  1.3590
 4414TIP3   OH213247   6.092   0.996   0.309 -0.6006 -0.4740  0.2906
 4414TIP3    H113248   6.098   1.052   0.232  0.5213 -1.7661 -0.6182
 4414TIP3    H213249   6.166   0.936   0.300 -2.5398 -3.0557  0.3942
 4415TIP3   OH213250   2.199   0.144   4.727 -0.7175 -0.2706  0.1142
 4415TIP3    H113251   2.236   0.056   4.717 -0.7451 -0.2057 -0.5750
 4415TIP3    H213252   2.275   0.203   4.721 -1.0839  0.0355 -3.6750
 4416TIP3   OH213253   0.550   3.874   1.920 -0.8752  0.0855 -0.0951
 4416TIP3    H113254   0.580   3.964   1.931  0.2493 -0.1774 -0.8078
 4416TIP3    H213255   0.457   3.877   1.941 -1.0280  1.5566 -0.8180
 4417TIP3   OH213256   4.569   3.308   3.072 -0.1569 -0.6278  0.2393
 4417TIP3    H113257   4.621   3.332   3.149 -0.9855 -2.6617  1.5500
 4417TIP3    H213258   4.623   3.245   3.025 -0.5933 -1.2452  0.5348
 4418TIP3   OH213259   1.761   5.890   0.245 -0.0598  0.0770 -0.3150
 4418TIP3    H113260   1.721   5.803   0.246 -0.4349  0.2425  1.1473
 4418TIP3    H213261   1.780   5.906   0.152  0.6547 -1.8360 -0.5507
 4419TIP3   OH213262   3.377   0.323   4.060 -0.6874  0.3693 -0.1505
 4419TIP3    H113263   3.447   0.343   4.121 -1.8927  0.3135  1.2955
 4419TIP3    H213264   3.323   0.402   4.059 -1.8621 -0.3999  0.5291
 4420TIP3   OH213265   2.687   0.925   2.202  0.1803  0.2743  0.1437
 4420TIP3    H113266   2.708   1.019   2.207  0.2572  0.3468 -1.1857
 4420TIP3    H213267   2.718   0.899   2.115 -0.0631 -0.9354  0.4123
 4421TIP3   OH213268   4.764   2.016   3.341 -0.0738 -0.0848 -0.2651
 4421TIP3    H113269   4.707   2.087   3.311  0.3188 -0.0971 -1.1021
 4421TIP3    H213270   4.826   2.059   3.400 -1.5712 -0.2640  1.5361
 4422TIP3   OH213271   1.444   4.465   4.491 -0.4243  0.0463 -0.0335
 4422TIP3    H113272   1.473   4.377   4.469  0.3478  1.0023 -3.6907
 4422TIP3    H213273   1.356   4.472   4.454 -0.6273  0.7144  0.5464
 4423TIP3   OH213274   5.094   3.004   3.385 -0.7004  0.5430 -0.0457
 4423TIP3    H113275   5.181   2.969   3.405 -0.6637  0.9181  0.4848
 4423TIP3    H213276   5.110   3.092   3.351 -0.7990  0.1060 -1.2572
 4424TIP3   OH213277   2.509   1.020   2.856 -0.1179  0.0183 -0.1680
 4424TIP3    H113278   2.488   0.957   2.926  0.5586  0.6667  0.6377
 4424TIP3    H213279   2.457   1.097   2.878  0.2742  0.3072 -0.2471
 4425TIP3   OH213280   1.109   3.131   3.925 -0.0523  0.2597  0.8132
 4425TIP3    H113281   1.165   3.122   3.849 -0.5582 -1.9101  0.6339
 4425TIP3    H213282   1.144   3.206   3.972  2.6560 -0.6593  0.4302
 4426TIP3   OH213283   1.269   0.393   1.333  0.0415 -1.0586 -0.0487
 4426TIP3    H113284   1.302   0.482   1.328  2.7150 -2.0274 -2.3277
 4426TIP3    H213285   1.295   0.363   1.421 -0.7877  0.3240  0.6972
 4427TIP3   OH213286   5.134   4.466   0.031  0.1815  0.6516 -0.1512
 4427TIP3    H113287   5.051   4.447  -0.011 -0.2215  1.0791  0.4348
 4427TIP3    H213288   5.117   4.456   0.125  1.2409 -0.9484 -0.0951
 4428TIP3   OH213289   3.915   1.989   4.952 -0.2432  0.0866  0.5424
 4428TIP3    H113290   3.887   2.079   4.935 -0.6901 -0.5641 -3.1782
 4428TIP3    H213291   4.010   1.990   4.938 -0.6347 -0.4880 -3.1902
 4429TIP3   OH213292   2.265   0.607   1.594  0.0613 -0.3279  0.1121
 4429TIP3    H113293   2.198   0.624   1.659  0.5336 -1.4060  0.9074
 4429TIP3    H213294   2.293   0.517   1.610 -0.1781 -0.8147 -1.9237
 4430TIP3   OH213295   2.605   4.701   4.090 -0.0539 -0.8765 -0.0613
 4430TIP3    H113296   2.685   4.737   4.053  0.2964 -0.9634  0.5991
 4430TIP3    H213297   2.598   4.613   4.052 -0.5371 -0.3976 -1.1270
 4431TIP3   OH213298   4.466   3.467   1.522  0.3096 -0.0090  0.0080
 4431TIP3    H113299   4.380   3.490   1.487  0.8924 -0.2029 -1.6021
 4431TIP3    H213300   4.527   3.484   1.450  1.7581  0.9849  1.3954
 4432TIP3   OH213301   2.508   5.895   2.546  0.3159  0.1319 -0.4291
 4432TIP3    H113302   2.487   5.924   2.635 -0.5828 -0.6280 -0.3867
 4432TIP3    H213303   2.603   5.878   2.548  0.5843  1.5678 -0.0472
 4433TIP3   OH213304   3.544   5.976   4.613 -0.6212 -0.0502 -0.1193
 4433TIP3    H113305   3.486   5.916   4.567  2.0388 -1.4046 -2.0412
 4433TIP3    H213306   3.557   6.048   4.551  1.7203 -1.0903 -0.9736
 4434TIP3   OH213307   1.138   1.204   4.110 -0.4633  0.1159 -0.3627
 4434TIP3    H113308   1.055   1.245   4.085 -1.3640 -0.4425  1.5500
 4434TIP3    H213309   1.129   1.113   4.080  0.8274  0.7554 -3.0253
 4435TIP3   OH213310   4.593   0.420   3.503 -0.7910 -0.1050 -0.0498
 4435TIP3    H113311   4.596   0.495   3.562  1.1787 -1.8027  2.2194
 4435TIP3    H213312   4.549   0.352   3.553 -0.2436 -1.2277 -1.0533
 4436TIP3   OH213313   1.108   5.120   4.217  0.2159  0.0368 -0.3492
 4436TIP3    H113314   1.093   5.028   4.240  0.3766  0.2425  0.6221
 4436TIP3    H213315   1.059   5.132   4.136  0.0304 -0.8571 -0.3849
 4437TIP3   OH213316   4.866   4.357   3.379  0.0651  0.3429  0.2860
 4437TIP3    H113317   4.816   4.359   3.460  0.1676  0.1048  0.3544
 4437TIP3    H213318   4.886   4.449   3.361 -1.7233  0.6071 -0.5591
 4438TIP3   OH213319   2.792   4.271  -0.008 -0.7590  0.2404  0.4513
 4438TIP3    H113320   2.723   4.332  -0.036 -2.3021 -1.9161 -0.7550
 4438TIP3    H213321   2.831   4.313   0.069 -1.7524  2.6876 -0.2642
 4439TIP3   OH213322   2.273   0.854   0.098 -0.3388  0.1147 -0.0333
 4439TIP3    H113323   2.303   0.942   0.119 -0.2912  0.4152 -1.2475
 4439TIP3    H213324   2.351   0.799   0.108  0.2071  0.5865 -1.3426
 4440TIP3   OH213325   1.503   5.358   4.076  0.0866  0.0144  0.0159
 4440TIP3    H113326   1.417   5.399   4.068 -0.2892 -0.3726  1.7275
 4440TIP3    H213327   1.534   5.352   3.986 -1.7439  0.0199 -0.6752
 4441TIP3   OH213328   5.780   0.629   1.844  0.0590 -0.2133 -0.0154
 4441TIP3    H113329   5.798   0.536   1.851  1.1123 -0.0828 -0.7395
 4441TIP3    H213330   5.866   0.670   1.839 -0.3940  0.7250 -0.5152
 4442TIP3   OH213331   0.603   2.170   3.088 -0.5795 -0.3040 -0.3717
 4442TIP3    H113332   0.512   2.140   3.093 -0.8257  0.3982 -0.6811
 4442TIP3    H213333   0.650   2.110   3.146 -1.6536  0.8900  1.8617
 4443TIP3   OH213334   3.372   4.909   2.984  0.0923  0.2064  0.1061
 4443TIP3    H113335   3.317   4.845   2.939  0.1294  0.4983 -0.3678
 4443TIP3    H213336   3.454   4.863   3.002  0.0356  0.0524 -0.0295
 4444TIP3   OH213337   2.410   3.036   2.688  0.3446 -0.6595 -0.0551
 4444TIP3    H113338   2.410   2.959   2.631  1.1308 -0.7829  0.1073
 4444TIP3    H213339   2.377   3.106   2.632 -0.5963 -1.1557 -0.1352
 4445TIP3   OH213340   4.203   0.935   2.888  0.2760  0.4769  0.2944
 4445TIP3    H113341   4.109   0.920   2.888  0.5297 -1.3277  0.3823
 4445TIP3    H213342   4.240   0.862   2.938  1.6636  1.6966  1.1581
 4446TIP3   OH213343   2.159   0.494   4.959 -0.1590  0.1029 -0.1113
 4446TIP3    H113344   2.116   0.411   4.935  0.8019  0.2254 -2.5289
 4446TIP3    H213345   2.136   0.506   5.051 -2.1590 -1.7291 -0.2617
 4447TIP3   OH213346   4.954   5.452   3.795 -0.0445  0.2450  0.3508
 4447TIP3    H113347   4.876   5.434   3.846 -1.7369 -3.2724 -3.0318
 4447TIP3    H213348   5.025   5.411   3.844 -0.8679  0.4530  1.7676
 4448TIP3   OH213349   1.719   5.567   2.187  0.0375  0.1296  0.8075
 4448TIP3    H113350   1.642   5.564   2.244 -0.7028  0.2531 -0.1662
 4448TIP3    H213351   1.691   5.526   2.105  0.4567  1.7417 -0.1920
 4449TIP3   OH213352   5.823   3.661   0.917 -0.1090  0.0891  0.4314
 4449TIP3    H113353   5.903   3.707   0.945  0.6206  0.4132 -1.9702
 4449TIP3    H213354   5.777   3.642   0.999  1.5109  1.5501  1.7712
 4450TIP3   OH213355   0.530   5.489   0.590 -0.3009 -0.5548  0.0762
 4450TIP3    H113356   0.519   5.420   0.525 -1.5836  0.4463 -0.8146
 4450TIP3    H213357   0.538   5.569   0.539  1.0218  0.0074  1.0912
 4451TIP3   OH213358   3.243   5.409   2.465 -0.8763 -0.6698 -0.1168
 4451TIP3    H113359   3.315   5.357   2.430 -0.2620 -0.8709  1.3526
 4451TIP3    H213360   3.180   5.345   2.498 -1.7399 -0.4958 -1.3439
 4452TIP3   OH213361   4.408   4.780   0.011 -0.2612  0.3526 -0.6933
 4452TIP3    H113362   4.366   4.702   0.048 -1.3803  0.9717 -0.6063
 4452TIP3    H213363   4.337   4.844   0.005  1.2002  2.4817  2.3218
 4453TIP3   OH213364   2.021   5.610   1.912  0.5444 -0.1242 -0.1668
 4453TIP3    H113365   2.088   5.623   1.844  0.2666  0.6135 -0.3138
 4453TIP3    H213366   1.960   5.547   1.874  0.2625  0.4672 -0.7038
 4454TIP3   OH213367   0.419   2.778   1.899 -0.4633 -0.0794 -0.1173
 4454TIP3    H113368   0.390   2.831   1.824  0.1384  0.4516  0.0161
 4454TIP3    H213369   0.343   2.774   1.957 -0.7670 -0.0527 -0.5107
 4455TIP3   OH213370   2.044   0.250   4.934  0.0067 -0.3340  0.3572
 4455TIP3    H113371   2.037   0.184   5.003 -0.9101 -1.2124 -0.5428
 4455TIP3    H213372   2.078   0.203   4.859 -2.4751 -0.3174 -0.8869
 4456TIP3   OH213373   1.056   2.215   0.749 -0.0899 -0.0829 -0.2392
 4456TIP3    H113374   1.063   2.138   0.806 -0.9137  0.1462  0.1854
 4456TIP3    H213375   1.110   2.193   0.672  0.4867 -0.6688  0.3207
 4457TIP3   OH213376   5.422   1.838   0.796 -0.1613  0.1293  0.0569
 4457TIP3    H113377   5.406   1.749   0.830 -1.0504  0.3231  0.1626
 4457TIP3    H213378   5.474   1.824   0.717 -1.3288 -0.5754 -0.6135
 4458TIP3   OH213379   4.945   4.457   2.969 -0.2342  0.1748  0.8021
 4458TIP3    H113380   4.920   4.524   2.905  0.7825 -1.7472 -1.7592
 4458TIP3    H213381   4.863   4.415   2.993 -0.5387  0.1801 -0.1672
 4459TIP3   OH213382   3.941   0.291   5.181 -0.7809  0.6235  0.8369
 4459TIP3    H113383   3.988   0.278   5.098 -1.0033  1.2217  0.6078
 4459TIP3    H213384   3.891   0.372   5.167 -1.3037  0.3903  1.3373
 4460TIP3   OH213385   4.701   4.846   0.084  0.0116 -0.3065 -0.1995
 4460TIP3    H113386   4.789   4.882   0.069 -0.4248  1.7922  1.7869
 4460TIP3    H213387   4.707   4.756   0.052  2.0640  0.5699 -2.6338
 4461TIP3   OH213388   6.200   4.723   2.664 -0.0870  0.1688 -0.0094
 4461TIP3    H113389   6.203   4.666   2.741  0.0905 -1.2300 -1.0144
 4461TIP3    H213390   6.291   4.752   2.652  0.2689 -1.1392 -0.7499
 4462TIP3   OH213391   0.201   0.310   1.477 -0.8563 -0.2010 -0.0957
 4462TIP3    H113392   0.152   0.359   1.411 -0.5221  0.7445  0.3383
 4462TIP3    H213393   0.281   0.362   1.491 -2.3892  1.5570  3.4834
 4463TIP3   OH213394   0.955   1.362   2.535 -0.7675  0.3735 -0.9796
 4463TIP3    H113395   0.928   1.360   2.444  0.4262 -0.4936 -1.3364
 4463TIP3    H213396   1.033   1.307   2.539 -0.1714  1.2491  0.3596
 4464TIP3   OH213397   4.652   5.739   4.884 -0.3809 -0.3267  0.1703
 4464TIP3    H113398   4.694   5.753   4.799  1.2579 -4.0854  0.1614
 4464TIP3    H213399   4.720   5.756   4.948 -0.9055  0.1531  0.6103
 4465TIP3   OH213400   5.792   4.303   3.726 -0.0231 -0.2672 -0.0675
 4465TIP3    H113401   5.854   4.248   3.677  0.7411  0.2883  0.2565
 4465TIP3    H213402   5.839   4.327   3.806 -0.4846  0.5357 -0.0265
 4466TIP3   OH213403   0.758   0.828   2.899 -0.4364 -0.2641  0.4039
 4466TIP3    H113404   0.799   0.819   2.985  0.1785  0.3354  0.1792
 4466TIP3    H213405   0.715   0.744   2.884 -2.0305  0.1782  2.0656
 4467TIP3   OH213406   4.716   5.104   0.919 -0.1340  0.3343  0.1101
 4467TIP3    H113407   4.637   5.118   0.866  0.1132 -0.0095 -0.3632
 4467TIP3    H213408   4.687   5.112   1.009 -0.5946  0.8001 -0.0800
 4468TIP3   OH213409   4.453   3.878   0.439  0.2933  0.1216  0.0654
 4468TIP3    H113410   4.402   3.818   0.494  0.9574 -1.0826 -0.6073
 4468TIP3    H213411   4.513   3.822   0.391 -0.1350  1.1525 -1.7729
 4469TIP3   OH213412   2.512   1.803   2.074  0.0032  0.2974  0.3137
 4469TIP3    H113413   2.511   1.899   2.071 -1.5467  0.2942 -0.4453
 4469TIP3    H213414   2.447   1.781   2.141 -0.2390 -0.2208 -0.0875
 4470TIP3   OH213415   2.406   1.759   0.029 -0.1124  0.5895 -0.7684
 4470TIP3    H113416   2.489   1.804   0.045 -0.6962  1.2657  0.4891
 4470TIP3    H213417   2.388   1.773  -0.064  0.0913  2.3165 -0.5627
 4471TIP3   OH213418   2.195   5.704   3.645 -0.2259  0.1156  0.1617
 4471TIP3    H113419   2.130   5.652   3.599  0.2660  0.8512 -1.4453
 4471TIP3    H213420   2.272   5.646   3.650 -0.4930 -0.2062  0.7017
 4472TIP3   OH213421   1.454   4.083   1.882 -0.3039 -0.3584  0.1769
 4472TIP3    H113422   1.434   4.153   1.820  0.5043 -0.3272 -0.0625
 4472TIP3    H213423   1.429   4.118   1.967 -0.5655 -0.0533 -0.0215
 4473TIP3   OH213424   3.625   2.535   0.461  0.5005 -0.1601 -0.2049
 4473TIP3    H113425   3.571   2.611   0.445  0.2887 -0.4205 -0.7363
 4473TIP3    H213426   3.571   2.460   0.434  0.1925 -0.6107  1.5216
 4474TIP3   OH213427   0.032   1.838   1.345 -0.3634 -0.8779  0.3755
 4474TIP3    H113428   0.003   1.791   1.267 -1.1757 -2.0180  1.3184
 4474TIP3    H213429   0.002   1.784   1.418  1.3071 -0.3966  1.4829
 4475TIP3   OH213430   4.813   4.541   2.298 -0.3858  0.1966  0.1884
 4475TIP3    H113431   4.776   4.549   2.385 -1.1958 -1.5259  0.0430
 4475TIP3    H213432   4.905   4.517   2.313 -0.4101  0.3302  0.5508
 4476TIP3   OH213433   3.044   4.655   0.211  0.7477 -0.5779  0.0847
 4476TIP3    H113434   3.005   4.628   0.128  1.5875 -1.6405  0.0152
 4476TIP3    H213435   3.046   4.575   0.264  1.3926 -0.2017  0.6476
 4477TIP3   OH213436   2.295   0.066   3.153  0.1415 -0.2096  0.0597
 4477TIP3    H113437   2.264   0.082   3.064  2.7880 -2.3780 -1.4031
 4477TIP3    H213438   2.244  -0.011   3.182 -0.7240  0.4998  0.4834
 4478TIP3   OH213439   1.020   2.530   1.758  0.0533  0.4424 -0.0909
 4478TIP3    H113440   0.971   2.448   1.752  0.4125  0.0466  1.8345
 4478TIP3    H213441   0.958   2.596   1.726 -1.1411 -0.2679  0.6546
 4479TIP3   OH213442   6.283   0.593   3.184 -0.2428  0.5323 -0.2116
 4479TIP3    H113443   6.225   0.593   3.260 -1.4299  1.9032 -1.0672
 4479TIP3    H213444   6.277   0.504   3.150  0.4289 -0.1481  1.3534
 4480TIP3   OH213445   6.278   3.275   1.518 -0.4037  0.5551  0.0114
 4480TIP3    H113446   6.347   3.340   1.501  0.1917 -0.3174 -1.1189
 4480TIP3    H213447   6.279   3.263   1.613  0.7777  0.8287  0.0548
 4481TIP3   OH213448   4.439   0.334   1.687 -0.2024 -0.0912 -0.7701
 4481TIP3    H113449   4.352   0.301   1.707  0.9559 -2.5110  0.6627
 4481TIP3    H213450   4.479   0.350   1.772  0.9605  0.4311 -1.3885
 4482TIP3   OH213451   3.692   5.103   3.053  0.1727 -0.2442 -0.0408
 4482TIP3    H113452   3.659   5.079   3.140  1.6677 -1.0220  0.3414
 4482TIP3    H213453   3.628   5.166   3.021 -1.8070 -1.7938  0.5721
 4483TIP3   OH213454   4.856   0.029   1.689 -0.5551 -0.3825 -0.6353
 4483TIP3    H113455   4.797   0.102   1.671 -0.8970 -0.6506 -0.6060
 4483TIP3    H213456   4.943   0.070   1.694 -0.9448  0.3276  1.2272
 4484TIP3   OH213457   3.283   1.810   0.777 -0.0527  0.1510 -0.2893
 4484TIP3    H113458   3.227   1.746   0.733  0.3846 -0.3270 -0.1626
 4484TIP3    H213459   3.304   1.770   0.861  0.3670  0.3819 -0.2804
 4485TIP3   OH213460   2.541   3.504   4.839 -0.1305  0.1934  0.2938
 4485TIP3    H113461   2.559   3.585   4.791  1.3666  0.5551  1.3974
 4485TIP3    H213462   2.471   3.462   4.789 -0.8112  2.0656 -0.4055
 4486TIP3   OH213463   2.171   0.803   2.276 -0.0775  0.8630 -0.7143
 4486TIP3    H113464   2.139   0.742   2.210  0.8454  0.1214 -0.4796
 4486TIP3    H213465   2.258   0.829   2.246  1.3801 -1.2812  1.3225
 4487TIP3   OH213466   2.687   3.058   4.149 -0.1013  0.2795 -0.4408
 4487TIP3    H113467   2.643   3.032   4.230 -2.1470 -0.6780 -1.7691
 4487TIP3    H213468   2.776   3.025   4.158 -0.4481 -0.2988  1.1741
 4488TIP3   OH213469   1.972   2.388   1.185  0.6908  0.4105  0.0053
 4488TIP3    H113470   1.888   2.431   1.202  0.3557 -0.1700 -0.1541
 4488TIP3    H213471   2.021   2.400   1.267 -0.0970 -0.4840  0.6432
 4489TIP3   OH213472   4.596   2.197   1.046  1.1112 -0.7455 -0.1906
 4489TIP3    H113473   4.665   2.254   1.014 -0.6482  0.4782 -2.0460
 4489TIP3    H213474   4.593   2.124   0.984 -0.0966 -0.0930 -0.9426
 4490TIP3   OH213475   2.123   5.258   0.684  0.3389 -0.2835 -0.2136
 4490TIP3    H113476   2.081   5.179   0.718  1.7308 -0.6671  0.6621
 4490TIP3    H213477   2.097   5.327   0.745  1.0265 -0.5309  0.3588
 4491TIP3   OH213478   0.268   2.375   3.904  0.2077 -0.4444  0.0885
 4491TIP3    H113479   0.321   2.452   3.881  1.0959 -0.6903  1.1983
 4491TIP3    H213480   0.313   2.302   3.862  0.3439 -0.5588  0.4247
 4492TIP3   OH213481   6.080   4.372   1.836  0.1827  0.0313  0.1260
 4492TIP3    H113482   6.014   4.322   1.884  0.2057  0.6176  0.7834
 4492TIP3    H213483   6.035   4.453   1.810  0.3784  0.0313 -0.2199
 4493TIP3   OH213484   5.605   5.580   0.386  0.0916 -0.0994 -0.0248
 4493TIP3    H113485   5.604   5.651   0.323  0.5383 -0.0025  0.0755
 4493TIP3    H213486   5.513   5.557   0.398 -0.1188  0.9499  0.4897
 4494TIP3   OH213487   0.572   0.120   1.978  0.3750  0.1648 -0.0937
 4494TIP3    H113488   0.624   0.085   1.906  1.0646  0.1938  0.3839
 4494TIP3    H213489   0.500   0.166   1.935  0.7946  0.2112 -0.7636
 4495TIP3   OH213490   0.662   3.688   4.877  0.1404  0.2440  0.2688
 4495TIP3    H113491   0.625   3.757   4.822  1.7000  0.8617 -0.0368
 4495TIP3    H213492   0.756   3.702   4.874  0.4402 -1.3869  0.8944
 4496TIP3   OH213493   2.967   5.117   3.125 -0.0189  0.2593  0.4678
 4496TIP3    H113494   2.937   5.157   3.207  3.5454  2.0757  1.1167
 4496TIP3    H213495   3.033   5.053   3.154 -0.7082 -1.1361 -0.9276
 4497TIP3   OH213496   3.205   2.336   3.616  0.5425  0.1290  0.7622
 4497TIP3    H113497   3.267   2.375   3.554  2.9749 -0.6633  2.5314
 4497TIP3    H213498   3.232   2.370   3.701  0.2746 -2.2915  1.9058
 4498TIP3   OH213499   3.017   5.025   0.844  0.3555  0.1214  0.0555
 4498TIP3    H113500   2.968   5.072   0.776  1.3828  2.0330  0.5651
 4498TIP3    H213501   2.950   4.998   0.907 -0.1871  1.6644  0.1741
 4499TIP3   OH213502   1.513   5.797   4.620  0.2991 -0.2033 -0.3381
 4499TIP3    H113503   1.580   5.804   4.688 -1.1303  1.4942  1.0096
 4499TIP3    H213504   1.448   5.736   4.657  0.0885 -0.2165 -0.7234
 4500TIP3   OH213505   2.993   4.854   1.752 -0.0315  0.4797  0.0201
 4500TIP3    H113506   2.927   4.923   1.750  0.1309  0.7105  1.3945
 4500TIP3    H213507   3.034   4.863   1.838 -0.6521 -1.9333  0.6345
 4501TIP3   OH213508   1.161   5.521   0.058 -0.2458 -0.0318  0.0978
 4501TIP3    H113509   1.143   5.615   0.054  2.1717  0.5827  1.5434
 4501TIP3    H213510   1.204   5.502  -0.026 -0.5931  0.1741 -0.1318
 4502TIP3   OH213511   5.442   3.433   4.927  0.0201 -0.2093 -0.5802
 4502TIP3    H113512   5.430   3.525   4.948 -0.3361 -0.2619 -0.5438
 4502TIP3    H213513   5.516   3.404   4.980 -2.3779 -1.0112  2.6556
 4503TIP3   OH213514   0.458   1.354   3.793 -0.4243  0.1526 -0.0452
 4503TIP3    H113515   0.402   1.316   3.861 -2.5737  1.2260 -1.1192
 4503TIP3    H213516   0.469   1.285   3.728 -1.7197  0.3430 -0.4951
 4504TIP3   OH213517   5.264   4.098   4.630  0.0743  0.9103  0.0244
 4504TIP3    H113518   5.232   4.028   4.573  0.8294  0.7851 -0.2549
 4504TIP3    H213519   5.309   4.159   4.571  0.3395  1.0904  0.4067
 4505TIP3   OH213520   4.921   4.191   4.272 -0.2774  0.4533  0.4054
 4505TIP3    H113521   4.900   4.161   4.361 -0.3915  0.1735  0.2857
 4505TIP3    H213522   4.856   4.148   4.216  0.0068  0.3533  0.1491
 4506TIP3   OH213523   5.322   3.737   2.070  0.5424  0.1652  0.0708
 4506TIP3    H113524   5.233   3.719   2.101  0.5393  0.2514  0.1129
 4506TIP3    H213525   5.378   3.718   2.146  0.7216 -1.4712 -0.4287
 4507TIP3   OH213526   3.879   1.131   3.055  0.1656  0.5934 -0.2994
 4507TIP3    H113527   3.891   1.122   2.961 -0.7812 -1.1035 -0.3053
 4507TIP3    H213528   3.803   1.189   3.065  0.6539  1.2875 -0.5454
 4508TIP3   OH213529   0.103   2.488   3.331 -0.6857 -0.2072 -0.5921
 4508TIP3    H113530   0.161   2.451   3.265 -1.0434  0.5924 -1.3817
 4508TIP3    H213531   0.109   2.583   3.317 -0.4068  0.0104  0.8422
 4509TIP3   OH213532   1.393   3.207   1.373  0.0698 -0.0040  0.1669
 4509TIP3    H113533   1.464   3.238   1.316  0.3159  0.6712  0.8189
 4509TIP3    H213534   1.416   3.116   1.392  0.1780 -0.1261 -0.5064
 4510TIP3   OH213535   2.944   2.891   4.797  0.3429  0.0575 -0.3240
 4510TIP3    H113536   2.948   2.795   4.791 -1.5218 -0.1693  1.2089
 4510TIP3    H213537   2.898   2.908   4.879 -1.4498  2.2051 -1.6456
 4511TIP3   OH213538   2.737   1.469   3.552 -0.0623 -0.3333 -0.4213
 4511TIP3    H113539   2.738   1.564   3.537 -2.9889  0.1232  1.3638
 4511TIP3    H213540   2.803   1.434   3.493  0.7106  2.7618 -1.5620
 4512TIP3   OH213541   3.457   0.036   2.370  0.0894 -0.1540 -0.5640
 4512TIP3    H113542   3.492  -0.006   2.292 -1.2769 -0.8892 -0.8042
 4512TIP3    H213543   3.412   0.114   2.337  0.6393  0.2703 -0.3491
 4513TIP3   OH213544   4.440   2.365   1.595 -0.4909  0.4149 -0.1257
 4513TIP3    H113545   4.456   2.427   1.666 -1.9108  0.0851  0.5086
 4513TIP3    H213546   4.511   2.301   1.604  0.5534  1.4981 -0.3344
 4514TIP3   OH213547   1.001   4.378   2.906 -0.0998 -0.3066  0.0329
 4514TIP3    H113548   0.909   4.353   2.918 -0.0278 -0.4561  0.2923
 4514TIP3    H213549   0.998   4.472   2.888 -0.3023 -0.3013  0.0856
 4515TIP3   OH213550   4.139   0.940   0.407 -0.3401 -0.2389 -0.4428
 4515TIP3    H113551   4.097   0.893   0.335 -1.0929 -0.4280  0.1110
 4515TIP3    H213552   4.089   1.021   0.414 -1.5867 -1.1105  1.1888
 4516TIP3   OH213553   0.258   3.538   4.081  0.7468  0.3570  0.0602
 4516TIP3    H113554   0.290   3.551   3.992  0.2273 -1.6255 -0.4720
 4516TIP3    H213555   0.291   3.451   4.105 -2.9565 -1.2439 -0.0186
 4517TIP3   OH213556   5.192   0.678   0.152  0.5287  0.2278 -0.4232
 4517TIP3    H113557   5.230   0.612   0.093  1.5118 -0.5123  0.9902
 4517TIP3    H213558   5.266   0.732   0.179  0.4318 -0.5810  1.5674
 4518TIP3   OH213559   5.016   5.288   0.325 -0.3650  0.2418 -0.1827
 4518TIP3    H113560   5.027   5.362   0.266 -0.7116 -0.6823 -1.4466
 4518TIP3    H213561   5.060   5.215   0.281  1.1743 -0.0235  1.6689
 4519TIP3   OH213562   5.613   1.777   0.605 -0.3940  0.2700 -0.1893
 4519TIP3    H113563   5.619   1.834   0.528  1.0552  1.1865  0.5562
 4519TIP3    H213564   5.612   1.688   0.569  0.8235  0.6628 -1.2780
 4520TIP3   OH213565   1.625   2.993   1.125  0.1623  0.1409  0.0286
 4520TIP3    H113566   1.600   2.956   1.209 -1.6133 -0.9557 -0.9181
 4520TIP3    H213567   1.585   3.080   1.123  0.7009  0.4015  0.5437
 4521TIP3   OH213568   5.822   3.150   1.786  0.5322  0.1290  0.3413
 4521TIP3    H113569   5.834   3.245   1.788  1.4650  0.0178  0.1930
 4521TIP3    H213570   5.741   3.137   1.735  0.6899  0.8177 -0.0947
 4522TIP3   OH213571   5.455   4.356   0.418  0.8287  0.2626 -0.3666
 4522TIP3    H113572   5.380   4.406   0.385 -0.7014 -1.6046  0.1129
 4522TIP3    H213573   5.482   4.403   0.497 -0.6934  0.2646  0.1797
 4523TIP3   OH213574   1.861   3.606   2.067  0.2447 -0.4219 -0.3363
 4523TIP3    H113575   1.932   3.592   2.131 -0.1942  0.7055  0.4171
 4523TIP3    H213576   1.807   3.528   2.074 -0.2297  0.0173  1.2659
 4524TIP3   OH213577   5.271   1.711   4.685  0.3061 -0.4085 -0.4764
 4524TIP3    H113578   5.232   1.754   4.609 -0.1105 -1.8859 -1.1385
 4524TIP3    H213579   5.296   1.782   4.743 -0.3715  0.7094 -1.5158
 4525TIP3   OH213580   2.359   5.918   0.834  0.2378  0.0230  0.5309
 4525TIP3    H113581   2.377   5.992   0.775 -0.2906 -0.2844 -0.0315
 4525TIP3    H213582   2.392   5.841   0.787 -1.7042 -0.4453 -0.1575
 4526TIP3   OH213583   3.681   4.409   2.202  0.0467  0.3025 -0.4785
 4526TIP3    H113584   3.688   4.347   2.129 -0.3777  0.2244 -0.4561
 4526TIP3    H213585   3.672   4.353   2.280  0.1669  0.3870 -0.4040
 4527TIP3   OH213586   2.306   4.426   1.457  0.1595 -0.4692 -0.0771
 4527TIP3    H113587   2.337   4.338   1.436 -0.5777 -0.6763 -0.3114
 4527TIP3    H213588   2.236   4.443   1.395 -0.4210 -0.1307  0.6544
 4528TIP3   OH213589   6.328   5.061   3.513  0.1981  0.2621  0.4389
 4528TIP3    H113590   6.298   5.061   3.423 -0.9901 -0.4800  0.8144
 4528TIP3    H213591   6.410   5.011   3.512 -0.0814 -0.1916 -0.1453
 4529TIP3   OH213592   5.138   2.604   0.640  0.3555 -0.2038 -0.0613
 4529TIP3    H113593   5.092   2.688   0.631 -1.1244 -0.9415  0.2209
 4529TIP3    H213594   5.131   2.563   0.554  1.6099  0.2032 -0.3711
 4530TIP3   OH213595   4.804   2.333   1.853 -0.0029 -0.0243  0.2638
 4530TIP3    H113596   4.785   2.318   1.945 -1.4461 -0.3774 -0.0642
 4530TIP3    H213597   4.899   2.324   1.846  0.3080  1.4024  1.9601
 4531TIP3   OH213598   5.670   0.663   4.847  0.5263 -0.1772  0.1806
 4531TIP3    H113599   5.682   0.718   4.770  1.1176 -1.2859 -0.5466
 4531TIP3    H213600   5.608   0.595   4.818 -0.0213 -0.0396  0.9934
 4532TIP3   OH213601   5.886   3.654   1.312  0.1906  0.4956  0.1338
 4532TIP3    H113602   5.916   3.625   1.398 -0.1228 -0.8485 -0.1863
 4532TIP3    H213603   5.925   3.741   1.301 -0.3327  0.9889  1.9053
 4533TIP3   OH213604   3.362   4.721   5.095 -0.0398  0.2186  0.2228
 4533TIP3    H113605   3.351   4.799   5.148  1.0686  1.0033 -0.6430
 4533TIP3    H213606   3.325   4.744   5.009 -2.5071 -1.2886  0.7891
 4534TIP3   OH213607   5.580   5.177   2.194 -0.0633 -0.1955  0.0191
 4534TIP3    H113608   5.659   5.216   2.233  1.3836 -2.4957 -0.4593
 4534TIP3    H213609   5.611   5.136   2.114 -1.9797 -0.3046 -0.7057
 4535TIP3   OH213610   2.423   3.136   3.684  0.1198  0.2038  0.1680
 4535TIP3    H113611   2.487   3.109   3.750  0.7431  1.3843  0.0745
 4535TIP3    H213612   2.414   3.231   3.697 -2.8178 -0.0974  1.2477
 4536TIP3   OH213613   3.669   4.930   3.686  0.0253 -0.9366 -0.1383
 4536TIP3    H113614   3.651   5.015   3.645 -0.9992 -0.2211  1.6967
 4536TIP3    H213615   3.759   4.938   3.718 -0.0241 -0.5870 -0.0801
 4537TIP3   OH213616   2.446   1.868   4.084 -0.6438  0.3039 -0.4185
 4537TIP3    H113617   2.495   1.864   4.166 -0.3979  0.8089 -0.5351
 4537TIP3    H213618   2.510   1.847   4.016 -0.7485  0.2878 -0.5141
 4538TIP3   OH213619   2.373   0.642   1.345 -0.7424 -1.1637  0.0009
 4538TIP3    H113620   2.422   0.561   1.359  2.4905  0.7951  1.2445
 4538TIP3    H213621   2.324   0.655   1.426  1.2631 -0.4066  1.1768
 4539TIP3   OH213622   4.961   3.280   2.795 -0.4554  0.6765  0.1061
 4539TIP3    H113623   4.997   3.271   2.707 -1.0339 -0.3914 -0.0435
 4539TIP3    H213624   5.027   3.241   2.853 -0.1739  1.1783  0.1271
 4540TIP3   OH213625   4.033   5.180   4.343  0.0744  0.0755  0.2731
 4540TIP3    H113626   3.983   5.101   4.324  0.9140 -0.1322 -1.2487
 4540TIP3    H213627   3.973   5.253   4.324 -0.6102 -0.1767  1.4119
 4541TIP3   OH213628   2.965   2.090   4.624  0.2606  0.1932  0.0165
 4541TIP3    H113629   2.881   2.128   4.601  0.7528  1.3169 -0.0005
 4541TIP3    H213630   2.977   2.111   4.717 -0.5565 -2.0923  0.7033
 4542TIP3   OH213631   1.555   2.036   4.378  0.3191  0.7306 -0.2931
 4542TIP3    H113632   1.473   2.073   4.412 -0.5488 -1.3752  0.0940
 4542TIP3    H213633   1.563   2.072   4.290 -1.1560  0.8324 -0.4157
 4543TIP3   OH213634   1.309   2.513   3.679  0.4352  0.1343  0.2024
 4543TIP3    H113635   1.311   2.584   3.615  0.6268 -0.5931 -0.6083
 4543TIP3    H213636   1.356   2.548   3.755 -0.2087  1.1741  0.1358
 4544TIP3   OH213637   0.567   2.236   0.831  0.1610  0.2260  0.0827
 4544TIP3    H113638   0.628   2.305   0.805  1.3515 -0.8223 -0.0012
 4544TIP3    H213639   0.523   2.211   0.749 -1.1240  1.6384  0.3010
 4545TIP3   OH213640   3.852   3.123   0.184 -0.3563  0.1015  0.2959
 4545TIP3    H113641   3.942   3.098   0.202 -0.4719 -0.4087  0.1647
 4545TIP3    H213642   3.854   3.156   0.094 -0.8721 -2.9239 -0.9376
 4546TIP3   OH213643   5.650   3.207   1.010  0.5895 -0.1324  0.0482
 4546TIP3    H113644   5.719   3.236   0.951  1.0589 -1.8955 -0.3440
 4546TIP3    H213645   5.697   3.157   1.078 -0.1242  0.2956  0.8721
 4547TIP3   OH213646   2.916   2.090   1.274  0.3957 -0.2197  0.0326
 4547TIP3    H113647   2.833   2.077   1.320 -0.0677 -0.2463 -0.7979
 4547TIP3    H213648   2.905   2.045   1.190  0.6477  1.1169 -0.7510
 4548TIP3   OH213649   4.735   2.693   3.884  0.3519  0.8806 -0.0957
 4548TIP3    H113650   4.704   2.761   3.945  1.1236  1.3930 -0.2605
 4548TIP3    H213651   4.804   2.736   3.834 -0.6478  0.6495 -1.7427
 4549TIP3   OH213652   4.658   4.240   1.199 -0.4484 -0.2737  0.1218
 4549TIP3    H113653   4.708   4.161   1.183 -0.5415 -0.5437  1.1483
 4549TIP3    H213654   4.581   4.211   1.249 -1.1636  0.2668 -0.6254
 4550TIP3   OH213655   5.249   3.876   1.615  0.0817 -0.2600  0.0956
 4550TIP3    H113656   5.247   3.793   1.567  1.9373  0.6277 -1.6710
 4550TIP3    H213657   5.188   3.932   1.567 -1.5596 -0.7035  1.5910
 4551TIP3   OH213658   3.049   2.473   4.884 -1.4509  0.0819  0.0444
 4551TIP3    H113659   2.957   2.500   4.884 -1.7305 -0.8269 -0.0486
 4551TIP3    H213660   3.059   2.424   4.966 -1.0698  0.1048  0.0130
 4552TIP3   OH213661   4.288   3.399   0.269 -0.2652  0.1970 -0.0370
 4552TIP3    H113662   4.240   3.474   0.303 -0.9155 -0.0876 -0.3046
 4552TIP3    H213663   4.264   3.394   0.177  0.9705  0.5653 -0.3921
 4553TIP3   OH213664   2.876   4.257   4.934  0.2094  0.1086  0.0135
 4553TIP3    H113665   2.885   4.299   4.849 -1.1112 -0.2870 -0.3517
 4553TIP3    H213666   2.922   4.174   4.925 -1.1150 -0.5711 -0.8129
 4554TIP3   OH213667   0.246   4.525   2.376 -0.1973 -0.0268 -0.6450
 4554TIP3    H113668   0.272   4.494   2.289  0.1679 -0.5876 -0.3466
 4554TIP3    H213669   0.316   4.585   2.402 -0.8733  1.0257 -1.1970
 4555TIP3   OH213670   1.904   3.864   4.405 -0.1250 -0.4945  0.4059
 4555TIP3    H113671   1.846   3.905   4.469  2.0889 -0.7963  2.7870
 4555TIP3    H213672   1.873   3.773   4.400 -0.9636 -0.2098  0.1978
 4556TIP3   OH213673   0.846   5.810   0.800  1.0174 -0.6732  0.2380
 4556TIP3    H113674   0.878   5.721   0.780 -0.9317 -1.4876  0.5194
 4556TIP3    H213675   0.760   5.815   0.758 -0.1137  0.0790  2.4397
 4557TIP3   OH213676   5.394   4.109   0.535  0.4944 -0.0887 -0.2337
 4557TIP3    H113677   5.424   4.025   0.499  1.3619  0.2160 -0.2423
 4557TIP3    H213678   5.419   4.174   0.469 -0.8087  0.1105 -0.5583
 4558TIP3   OH213679   1.048   1.008   3.352  0.4130  0.2451 -0.2666
 4558TIP3    H113680   1.017   1.095   3.379  2.3535  0.5945  1.0896
 4558TIP3    H213681   0.979   0.975   3.294 -1.8352  1.4195  1.5404
 4559TIP3   OH213682   2.315   0.891   3.036 -0.4373  0.0942  0.3583
 4559TIP3    H113683   2.381   0.853   3.093  1.8890  0.5610 -1.8463
 4559TIP3    H213684   2.315   0.836   2.958  0.1295  2.2112 -1.2401
 4560TIP3   OH213685   0.597   4.524   3.089  0.0888  0.0337  0.3922
 4560TIP3    H113686   0.579   4.468   3.165  2.5056 -2.8752 -0.9687
 4560TIP3    H213687   0.609   4.463   3.016 -0.4813  2.6080 -2.0327
 4561TIP3   OH213688   4.544   2.167   1.310 -0.0221  0.0255  0.2575
 4561TIP3    H113689   4.565   2.165   1.216  0.0682 -0.3120  0.2836
 4561TIP3    H213690   4.530   2.259   1.329  1.2945  0.2469  0.2113
 4562TIP3   OH213691   4.696   4.559   4.976 -0.9773 -0.4325  0.6528
 4562TIP3    H113692   4.602   4.574   4.969 -1.0694 -1.7322 -1.8365
 4562TIP3    H213693   4.736   4.626   4.921 -0.5904 -1.1546  0.0380
 4563TIP3   OH213694   5.039   4.013   1.466 -0.4550  0.0585  0.2763
 4563TIP3    H113695   5.009   4.038   1.553 -1.5206 -1.6528  0.4537
 4563TIP3    H213696   5.028   4.092   1.413  2.6783  1.9888  2.1776
 4564TIP3   OH213697   5.939   4.237   4.802 -0.3928  0.7398  0.7486
 4564TIP3    H113698   5.998   4.260   4.731 -0.4744  2.0407  1.0831
 4564TIP3    H213699   5.869   4.302   4.798 -3.2062 -2.1301 -1.1683
 4565TIP3   OH213700   0.632   3.161   4.714 -0.1171  0.1044 -0.8510
 4565TIP3    H113701   0.621   3.244   4.759  0.9634  0.0983 -0.5656
 4565TIP3    H213702   0.652   3.098   4.784 -1.6226 -0.5584 -0.9720
 4566TIP3   OH213703   3.434   2.293   0.352 -0.0280  0.6147  0.0204
 4566TIP3    H113704   3.361   2.232   0.345 -0.5540  1.1394  0.8419
 4566TIP3    H213705   3.416   2.344   0.431  1.0891  0.9323  0.0890
 4567TIP3   OH213706   1.056   0.122   4.755  0.2626 -0.0928 -0.1566
 4567TIP3    H113707   1.007   0.199   4.785 -0.5897 -0.7756  0.2736
 4567TIP3    H213708   1.044   0.121   4.660  1.7832  1.2957 -0.3889
 4568TIP3   OH213709   0.968   4.603   0.041 -0.3601  0.4188 -0.5595
 4568TIP3    H113710   0.882   4.610   0.082  0.5395  0.8849  1.3322
 4568TIP3    H213711   1.018   4.545   0.099  1.0115  1.2189 -0.9105
 4569TIP3   OH213712   3.065   4.585   1.394 -0.5026 -0.4170  0.0603
 4569TIP3    H113713   3.136   4.522   1.384  0.8068  1.0033  0.0293
 4569TIP3    H213714   3.099   4.651   1.454 -1.6562  0.5080 -0.2514
 4570TIP3   OH213715   3.859   3.662   3.262  0.6195  0.3246  0.0697
 4570TIP3    H113716   3.877   3.702   3.176 -0.2636  1.0827  0.2205
 4570TIP3    H213717   3.900   3.722   3.324 -0.2924  0.7488  0.2714
 4571TIP3   OH213718   2.305   4.102   4.282  0.1546  0.2125  0.9651
 4571TIP3    H113719   2.250   4.025   4.297  0.6372 -0.0831  1.2346
 4571TIP3    H213720   2.334   4.128   4.369 -2.6421  2.7091  1.3104
 4572TIP3   OH213721   0.025   2.434   0.904 -0.6542  0.3427 -0.1767
 4572TIP3    H113722   0.103   2.385   0.931 -1.6052 -1.8080 -1.1342
 4572TIP3    H213723   0.060   2.508   0.854  0.8518  1.0389  1.7432
 4573TIP3   OH213724   1.938   4.622   0.857 -0.1681 -0.4160 -0.2283
 4573TIP3    H113725   1.979   4.686   0.914  1.7273 -0.6574 -1.2330
 4573TIP3    H213726   1.992   4.544   0.866  1.4572  0.1005 -3.6856
 4574TIP3   OH213727   0.610   5.885   2.524 -0.3240  0.4398 -0.5816
 4574TIP3    H113728   0.694   5.916   2.491 -0.6554  0.8733 -1.0536
 4574TIP3    H213729   0.585   5.815   2.464  0.1595 -0.3773  0.1505
 4575TIP3   OH213730   0.479   4.382   4.938  0.3372  0.1872  0.7131
 4575TIP3    H113731   0.519   4.428   4.864 -0.3159 -0.1864  0.1221
 4575TIP3    H213732   0.548   4.325   4.971  0.2678 -0.5728 -0.3981
 4576TIP3   OH213733   0.648   5.828   4.126 -0.5762 -0.2440  0.1587
 4576TIP3    H113734   0.562   5.788   4.115 -0.0657 -0.9202 -1.7188
 4576TIP3    H213735   0.640   5.914   4.084  0.2603 -1.2169 -2.1037
 4577TIP3   OH213736   1.353   3.318   3.974 -0.2377  0.7446  0.0601
 4577TIP3    H113737   1.393   3.276   4.050  1.7641  2.3480 -0.0311
 4577TIP3    H213738   1.393   3.275   3.898  0.2978  1.4148 -0.0448
 4578TIP3   OH213739   1.465   4.401   3.130  0.2656  1.0998 -0.9024
 4578TIP3    H113740   1.501   4.489   3.119  0.0781  1.0228 -2.2337
 4578TIP3    H213741   1.371   4.415   3.144  0.5184  1.2054  1.0046
 4579TIP3   OH213742   4.136   4.185   2.129 -0.2135 -0.5193  0.1397
 4579TIP3    H113743   4.216   4.184   2.076 -0.0459 -1.8773  0.3745
 4579TIP3    H213744   4.074   4.237   2.078  0.7001  0.2498 -0.2120
 4580TIP3   OH213745   0.142   5.846   2.363  0.6670 -0.0661  0.1109
 4580TIP3    H113746   0.064   5.887   2.327  0.6647  0.5887  0.8303
 4580TIP3    H213747   0.213   5.905   2.341  1.4045 -1.8290 -2.6738
 4581TIP3   OH213748   5.275   2.251   2.802 -0.0331  0.1555  0.2467
 4581TIP3    H113749   5.198   2.305   2.821 -1.3946 -1.8791  0.7770
 4581TIP3    H213750   5.303   2.279   2.715 -1.1627  1.1498  0.1829
 4582TIP3   OH213751   5.350   0.770   0.565 -0.5164  0.1541  1.5818
 4582TIP3    H113752   5.294   0.795   0.491 -0.0086  0.2058  1.2126
 4582TIP3    H213753   5.320   0.682   0.588  1.5146 -1.3139 -0.8777
 4583TIP3   OH213754   4.044   2.730   3.066  0.5073 -0.0819  0.2175
 4583TIP3    H113755   4.031   2.637   3.048  1.0186  0.0635 -0.9697
 4583TIP3    H213756   3.957   2.768   3.061  0.3509 -0.4240  0.3078
 4584TIP3   OH213757   4.895   2.540   4.071 -0.0543 -0.1930 -0.1769
 4584TIP3    H113758   4.839   2.601   4.023  0.7619  0.1654 -0.6989
 4584TIP3    H213759   4.910   2.582   4.155 -0.1204 -0.0400 -0.2406
 4585TIP3   OH213760   4.545   1.547   0.928 -0.6959 -0.4534 -0.3864
 4585TIP3    H113761   4.469   1.606   0.925 -0.7096 -0.4465  0.1066
 4585TIP3    H213762   4.507   1.459   0.930 -0.6790 -0.4717 -0.7995
 4586TIP3   OH213763   3.292  -0.006   4.676  0.0303  0.3978  0.1871
 4586TIP3    H113764   3.294   0.006   4.581 -2.5567 -1.1397 -0.1488
 4586TIP3    H213765   3.222   0.052   4.706  0.9407  1.0037  1.2182
 4587TIP3   OH213766   1.474   4.727   0.093  0.4335  0.0871 -0.0148
 4587TIP3    H113767   1.541   4.723   0.025  0.9350  0.7643  0.4247
 4587TIP3    H213768   1.494   4.807   0.142 -0.4214  0.0545  0.4097
 4588TIP3   OH213769   1.326   5.367   5.008 -0.3133  0.2779  0.3427
 4588TIP3    H113770   1.397   5.398   5.065 -0.4845  0.8093  0.2758
 4588TIP3    H213771   1.259   5.337   5.069 -0.5701  1.0150  0.4352
 4589TIP3   OH213772   4.377   5.965   5.027  0.7512  0.3872  0.2452
 4589TIP3    H113773   4.420   6.046   4.999 -0.1810  0.5681 -0.7407
 4589TIP3    H213774   4.322   5.940   4.953  0.5604 -0.8321  0.7692
 4590TIP3   OH213775   0.303   0.004   1.767 -0.3020  0.1521  0.1342
 4590TIP3    H113776   0.235   0.022   1.832  0.7143 -1.9262  1.9073
 4590TIP3    H213777   0.318   0.089   1.725 -1.9653  1.2914  1.6687
 4591TIP3   OH213778   5.144   3.246   3.283 -0.1636  0.0981  0.2390
 4591TIP3    H113779   5.235   3.275   3.283 -0.3075  0.5531  0.5318
 4591TIP3    H213780   5.094   3.323   3.310 -0.9069  0.6141 -2.3584
 4592TIP3   OH213781   2.986   2.266   0.833  0.3455  0.7279 -0.1999
 4592TIP3    H113782   2.984   2.353   0.794  0.1215  0.6976 -0.2619
 4592TIP3    H213783   2.899   2.230   0.814 -0.1600  1.1067  1.2326
 4593TIP3   OH213784   6.312   1.667   1.134 -0.3566  0.1517 -0.0787
 4593TIP3    H113785   6.222   1.636   1.134 -0.5454  0.6592  0.6507
 4593TIP3    H213786   6.365   1.589   1.119 -0.9550  0.0312 -1.7821
 4594TIP3   OH213787   3.467   5.691   4.427 -0.3259  0.1548  0.4751
 4594TIP3    H113788   3.381   5.680   4.386  0.6231 -0.2251 -1.5096
 4594TIP3    H213789   3.467   5.628   4.499 -0.7575 -1.7975 -1.1409
 4595TIP3   OH213790   0.335   4.191   2.425 -0.3386  0.1389  0.5781
 4595TIP3    H113791   0.263   4.229   2.475  1.6822  3.4346  1.2517
 4595TIP3    H213792   0.414   4.214   2.474  1.3372 -2.1074 -0.8404
 4596TIP3   OH213793   3.479   2.881   3.341 -0.3859 -0.1244 -0.1519
 4596TIP3    H113794   3.425   2.855   3.416 -0.4091  0.0071 -0.1235
 4596TIP3    H213795   3.540   2.945   3.378 -0.3068 -0.1636 -0.2157
 4597TIP3   OH213796   5.117   5.556   0.720 -0.0603 -0.9699  0.0218
 4597TIP3    H113797   5.160   5.475   0.691 -0.9627 -1.5048  0.1335
 4597TIP3    H213798   5.083   5.596   0.640 -1.3304 -1.7285  0.1574
 4598TIP3   OH213799   0.533   2.753   0.738 -0.1598 -0.0782  0.3131
 4598TIP3    H113800   0.570   2.689   0.678 -1.2623 -0.0086 -0.4867
 4598TIP3    H213801   0.597   2.823   0.742  0.9531 -1.1029  1.0149
 4599TIP3   OH213802   2.891   0.622   1.288 -0.3769 -0.3120 -0.3690
 4599TIP3    H113803   2.911   0.714   1.274 -0.2340 -0.3177 -0.2149
 4599TIP3    H213804   2.899   0.610   1.383  0.0773 -0.5881 -0.4405
 4600TIP3   OH213805   4.316   0.210   4.401  0.2492 -0.3582  0.1894
 4600TIP3    H113806   4.245   0.151   4.423  0.4488 -0.6242  0.1279
 4600TIP3    H213807   4.300   0.288   4.453  0.0933 -0.5437  0.4199
 4601TIP3   OH213808   5.058   4.601   1.677 -0.1183 -0.0008  0.2017
 4601TIP3    H113809   5.033   4.689   1.703  1.5781  0.6344 -0.2139
 4601TIP3    H213810   5.151   4.594   1.700 -0.6912 -2.4717  2.3184
 4602TIP3   OH213811   5.803   0.029   1.150  0.0835 -0.6101  0.3037
 4602TIP3    H113812   5.771   0.109   1.108 -1.8671 -1.0070  0.9730
 4602TIP3    H213813   5.844  -0.020   1.079  1.6275  1.0717 -0.0656
 4603TIP3   OH213814   3.104   1.352   4.099 -0.3360  0.0379  0.9575
 4603TIP3    H113815   3.038   1.381   4.162 -0.4330  2.0797 -0.0129
 4603TIP3    H213816   3.175   1.415   4.107 -1.0105  1.3496 -1.9932
 4604TIP3   OH213817   5.117   4.934   1.693  0.9041 -0.4468 -0.4088
 4604TIP3    H113818   5.188   4.870   1.705  1.1265 -0.3266 -1.0497
 4604TIP3    H213819   5.132   4.999   1.761  0.1460 -1.5328  0.8414
 4605TIP3   OH213820   2.576   1.228   5.047  0.5222  0.3942  0.7451
 4605TIP3    H113821   2.668   1.224   5.075  0.5114 -1.0543  0.6800
 4605TIP3    H213822   2.547   1.137   5.050 -0.4084  0.5906 -0.9053
 4606TIP3   OH213823   2.855   4.603   1.740  0.7394 -0.4022  0.0607
 4606TIP3    H113824   2.890   4.688   1.764  0.2767 -0.3532  0.5790
 4606TIP3    H213825   2.771   4.623   1.697  0.8164 -0.5758 -0.1753
 4607TIP3   OH213826   6.317   1.684   3.868 -0.4997  0.4074 -0.5327
 4607TIP3    H113827   6.312   1.766   3.918  1.3587 -0.3470  1.0102
 4607TIP3    H213828   6.389   1.697   3.807  0.4660 -0.3810  0.4014
 4608TIP3   OH213829   0.249   1.043   0.579 -0.5747  0.1468  0.3335
 4608TIP3    H113830   0.253   0.948   0.584 -1.5129  0.1065  0.4858
 4608TIP3    H213831   0.244   1.062   0.486  2.2081  0.2048  0.0874
 4609TIP3   OH213832   0.721   2.563   4.736 -0.1967 -0.4102  0.4453
 4609TIP3    H113833   0.813   2.580   4.718  0.0411 -1.9375  0.0644
 4609TIP3    H213834   0.701   2.485   4.685 -1.9672  0.4350 -0.2336
 4610TIP3   OH213835   5.348   2.893   3.373  0.4420 -0.2657 -0.0648
 4610TIP3    H113836   5.302   2.810   3.361 -2.8865  0.9093  2.8247
 4610TIP3    H213837   5.415   2.874   3.439 -0.7147 -0.5688  1.0514
 4611TIP3   OH213838   4.111   4.722   3.811 -0.0441  0.4081 -0.2141
 4611TIP3    H113839   4.019   4.742   3.825 -0.5935 -1.2342 -1.2533
 4611TIP3    H213840   4.151   4.807   3.790 -1.9361  0.7710 -2.8301
 4612TIP3   OH213841   0.442   4.152   2.164  0.3475 -0.0400 -0.1484
 4612TIP3    H113842   0.400   4.152   2.250  0.0605 -1.8115 -0.2715
 4612TIP3    H213843   0.457   4.245   2.145 -1.9126  0.5488  0.6664
 4613TIP3   OH213844   5.349   4.130   0.805 -0.0612 -1.1103 -0.0046
 4613TIP3    H113845   5.265   4.174   0.810  0.3582 -0.1965 -0.6850
 4613TIP3    H213846   5.381   4.148   0.716  2.0898  0.9592  1.0552
 4614TIP3   OH213847   3.844   1.072   1.440  0.1918  0.0046  0.1312
 4614TIP3    H113848   3.748   1.072   1.442  0.1974  0.1463  0.4202
 4614TIP3    H213849   3.867   1.158   1.405  0.2456  0.8494  2.1063
 4615TIP3   OH213850   5.877   3.392   4.407  0.4009 -0.2659 -0.2110
 4615TIP3    H113851   5.947   3.357   4.463 -0.2140  0.2904  0.9376
 4615TIP3    H213852   5.898   3.359   4.320  0.8124 -2.0626  0.5061
 4616TIP3   OH213853   4.301   5.066   4.263 -0.3836 -0.4931  0.3857
 4616TIP3    H113854   4.274   5.009   4.334 -2.7616  0.3476  0.2269
 4616TIP3    H213855   4.231   5.060   4.198  0.5994  0.5543 -0.8529
 4617TIP3   OH213856   5.263   1.254   2.351 -0.6000  0.2132 -0.0122
 4617TIP3    H113857   5.310   1.336   2.365  0.2435 -0.2725  0.0967
 4617TIP3    H213858   5.179   1.266   2.395 -1.5149  1.9105 -2.0404
 4618TIP3   OH213859   3.180   1.160   0.924 -0.7328 -0.1470 -0.1656
 4618TIP3    H113860   3.183   1.218   0.848 -0.5635 -0.4880 -0.4249
 4618TIP3    H213861   3.110   1.195   0.979  0.1946  1.0418  0.2991
 4619TIP3   OH213862   5.553   3.146   2.021 -0.0742  0.1985  0.3421
 4619TIP3    H113863   5.577   3.226   1.975  0.5991  0.0225  0.3616
 4619TIP3    H213864   5.638   3.106   2.045 -0.3957 -0.4902  0.3669
 4620TIP3   OH213865   1.374   3.358   0.793 -0.3300 -0.3085 -0.2621
 4620TIP3    H113866   1.361   3.288   0.857  0.5891 -0.3300 -0.0915
 4620TIP3    H213867   1.440   3.324   0.733 -1.0458 -0.2159 -1.1319
 4621TIP3   OH213868   1.130   2.814   2.170 -0.7704 -0.2189 -0.4060
 4621TIP3    H113869   1.110   2.826   2.077 -1.5629 -0.7227 -0.3106
 4621TIP3    H213870   1.140   2.903   2.204 -1.7555  0.0258 -0.7107
 4622TIP3   OH213871   6.191   5.458   3.938  0.5195 -0.0293 -0.3471
 4622TIP3    H113872   6.259   5.434   3.874  1.1881  0.7090  0.0641
 4622TIP3    H213873   6.162   5.545   3.910 -0.8173 -0.6583 -0.9620
 4623TIP3   OH213874   5.219   5.360   2.659  0.4952  0.4223  0.4407
 4623TIP3    H113875   5.287   5.405   2.609  0.0249 -0.6715 -1.2766
 4623TIP3    H213876   5.250   5.270   2.668  0.2485  0.4323  1.5529
 4624TIP3   OH213877   4.994   1.638   0.079  0.0889 -0.1888 -0.2978
 4624TIP3    H113878   5.009   1.600  -0.008 -1.1974  0.1185 -0.6887
 4624TIP3    H213879   4.958   1.566   0.130 -0.3431 -0.0605 -0.4104
 4625TIP3   OH213880   0.071   1.187   2.546 -0.0807 -0.5057 -0.1277
 4625TIP3    H113881   0.159   1.183   2.509  0.3099  0.3378  0.6806
 4625TIP3    H213882   0.058   1.102   2.588  0.0626 -0.8959 -0.8535
 4626TIP3   OH213883   0.509   1.164   3.587 -0.0273 -0.4665  0.0173
 4626TIP3    H113884   0.536   1.074   3.606 -1.1480 -1.7610 -3.6973
 4626TIP3    H213885   0.415   1.156   3.567 -0.1299  1.5308 -0.4694
 4627TIP3   OH213886   2.419   3.289   4.087 -0.7041 -0.5676  0.3175
 4627TIP3    H113887   2.421   3.204   4.043 -0.5669  0.0888 -0.9966
 4627TIP3    H213888   2.507   3.325   4.074 -1.3442  0.6313 -0.9193
 4628TIP3   OH213889   0.946   4.898   4.982  0.5773  0.0907 -0.3418
 4628TIP3    H113890   0.947   4.824   4.921 -1.2690  0.3779 -0.7813
 4628TIP3    H213891   0.994   4.967   4.937 -0.4651  0.1853 -1.3522
 4629TIP3   OH213892   4.344   1.011   1.741 -0.3713 -0.1821 -0.5894
 4629TIP3    H113893   4.252   1.006   1.768 -0.3138 -0.3299 -0.4210
 4629TIP3    H213894   4.343   0.994   1.647 -0.1213 -4.3522 -0.0395
 4630TIP3   OH213895   3.682   4.245   2.009  0.0827  0.2133 -0.3289
 4630TIP3    H113896   3.659   4.247   1.916  0.2017  0.2296 -0.3585
 4630TIP3    H213897   3.708   4.155   2.025 -0.2323  0.1376 -0.2382
 4631TIP3   OH213898   0.145   4.208   4.044 -0.2273  0.0545  0.7434
 4631TIP3    H113899   0.170   4.117   4.062  2.0162  0.3781 -0.2919
 4631TIP3    H213900   0.153   4.216   3.949  1.3718  1.7380  0.9587
 4632TIP3   OH213901   2.817   0.229   1.157  0.4733 -0.1219 -0.1113
 4632TIP3    H113902   2.784   0.205   1.244  2.3743  0.8451  0.9337
 4632TIP3    H213903   2.741   0.221   1.100 -1.2285  0.6783  1.9088
 4633TIP3   OH213904   1.893   1.648   2.152  0.3901  0.5942  0.2979
 4633TIP3    H113905   1.884   1.586   2.080  2.1174 -0.6925  1.1190
 4633TIP3    H213906   1.842   1.608   2.224 -0.2335  1.2084  0.2082
 4634TIP3   OH213907   3.180   4.778   1.546 -0.0742  0.4735  0.5187
 4634TIP3    H113908   3.104   4.796   1.601 -0.5056  1.8268 -0.4886
 4634TIP3    H213909   3.241   4.849   1.564  0.7054 -0.2474  0.8296
 4635TIP3   OH213910   4.641   1.832   0.554  0.3763 -0.6226 -0.2122
 4635TIP3    H113911   4.629   1.831   0.459 -0.6012  0.5552 -0.1171
 4635TIP3    H213912   4.554   1.849   0.590  0.9849  0.4365  0.8399
 4636TIP3   OH213913   1.344   0.740   0.196 -0.0906  0.8047 -0.0183
 4636TIP3    H113914   1.322   0.669   0.136 -1.2816  1.4091 -0.3504
 4636TIP3    H213915   1.384   0.807   0.140 -0.1267  0.9012  0.0702
 4637TIP3   OH213916   4.124   3.590   4.307 -0.0871 -0.3504  0.2139
 4637TIP3    H113917   4.156   3.610   4.395 -1.6372 -1.7760  1.1572
 4637TIP3    H213918   4.088   3.502   4.314 -0.4336 -0.4118 -1.8158
 4638TIP3   OH213919   5.396   2.119   0.757 -0.3942  0.0835  0.4063
 4638TIP3    H113920   5.364   2.130   0.846  0.2058  1.3447  0.4833
 4638TIP3    H213921   5.442   2.035   0.758  0.3190  0.4697  1.5037
 4639TIP3   OH213922   0.797   4.312   0.352 -0.1116  0.6711  0.7410
 4639TIP3    H113923   0.786   4.407   0.364 -1.2332  0.5417  0.8619
 4639TIP3    H213924   0.731   4.273   0.410 -0.2977 -0.1576 -0.0033
 4640TIP3   OH213925   5.907   5.496   2.474 -0.0815 -0.7710  0.0895
 4640TIP3    H113926   5.993   5.538   2.480  0.1760 -1.3171  0.2899
 4640TIP3    H213927   5.845   5.566   2.491  0.3324 -0.4092  0.1311
 4641TIP3   OH213928   2.481   4.245   3.269  0.3435  0.8851  0.2971
 4641TIP3    H113929   2.501   4.221   3.360  0.7038 -0.5120 -0.1215
 4641TIP3    H213930   2.564   4.279   3.235  0.8743 -0.7598 -0.1508
 4642TIP3   OH213931   1.981   2.209   3.276 -0.6839  0.3900 -0.3921
 4642TIP3    H113932   1.945   2.139   3.220  0.0443 -0.1458 -0.2083
 4642TIP3    H213933   2.059   2.170   3.314 -0.3779  1.2560 -0.1300
 4643TIP3   OH213934   0.711   3.690   2.344 -0.9143  0.0383 -0.0509
 4643TIP3    H113935   0.664   3.772   2.325  0.3323  0.5369 -1.1612
 4643TIP3    H213936   0.737   3.698   2.435 -0.4069  1.1204 -0.2698
 4644TIP3   OH213937   2.343   1.508   4.493 -0.2642 -0.1397  0.6479
 4644TIP3    H113938   2.330   1.574   4.425 -0.7230  1.9841  2.6657
 4644TIP3    H213939   2.393   1.438   4.451 -1.4963  0.5358 -2.1318
 4645TIP3   OH213940   3.042   2.786   0.829  0.4988  0.3180  0.1393
 4645TIP3    H113941   3.108   2.744   0.884  2.9092  0.6161 -2.2802
 4645TIP3    H213942   3.036   2.875   0.862 -0.5021 -0.3362  1.8366
 4646TIP3   OH213943   2.625   4.837   2.780  0.1021  0.0292 -0.0526
 4646TIP3    H113944   2.650   4.758   2.827 -1.7544 -0.4133  0.2550
 4646TIP3    H213945   2.704   4.891   2.781  1.4468 -1.8315 -0.3679
 4647TIP3   OH213946   0.242   5.332   3.452 -0.0947 -0.1778  0.1956
 4647TIP3    H113947   0.265   5.395   3.385  1.1313 -2.0967 -1.3153
 4647TIP3    H213948   0.169   5.283   3.415  1.0167 -1.6935 -0.1352
 4648TIP3   OH213949   0.755   1.053   0.567  0.3720 -0.6384  0.0145
 4648TIP3    H113950   0.826   0.991   0.546  0.8466  0.4044 -1.7075
 4648TIP3    H213951   0.768   1.124   0.505 -2.1553 -0.3772 -0.2866
 4649TIP3   OH213952   4.152   4.494   3.301  0.3319  0.1028  0.3639
 4649TIP3    H113953   4.244   4.520   3.303  0.8579 -1.6462  1.5167
 4649TIP3    H213954   4.145   4.434   3.227 -0.6080  2.4246 -1.5581
 4650TIP3   OH213955   4.735   4.454   0.247 -0.3020  0.4698 -0.2862
 4650TIP3    H113956   4.755   4.362   0.265 -2.2299  0.2550  1.0398
 4650TIP3    H213957   4.707   4.456   0.155  1.9444  0.1842 -1.0410
 4651TIP3   OH213958   6.149   2.717   3.395  0.3134 -0.4877 -0.0745
 4651TIP3    H113959   6.159   2.707   3.489  1.3329  1.2679  0.0662
 4651TIP3    H213960   6.235   2.748   3.365 -0.2828 -0.0243 -1.4027
 4652TIP3   OH213961   2.832   0.103   0.767 -0.2065 -0.3624 -0.1572
 4652TIP3    H113962   2.909   0.053   0.738  0.3926  1.3149 -1.6153
 4652TIP3    H213963   2.762   0.037   0.771  0.6719 -1.4557 -1.4827
 4653TIP3   OH213964   3.582   1.881   1.132 -0.0524 -0.4909  0.0440
 4653TIP3    H113965   3.499   1.877   1.085  0.7300 -1.8964 -1.2992
 4653TIP3    H213966   3.621   1.794   1.121  1.0414 -0.2538  1.7048
 4654TIP3   OH213967   3.492   4.931   4.464  0.0151 -0.2000  0.5752
 4654TIP3    H113968   3.421   4.900   4.520 -2.1366  1.2522 -1.1729
 4654TIP3    H213969   3.513   4.855   4.408 -2.5458  0.2157 -1.1081
 4655TIP3   OH213970   2.486   0.330   1.517  0.2271  0.3209 -0.1152
 4655TIP3    H113971   2.438   0.286   1.447  0.8385 -0.0996 -0.2862
 4655TIP3    H213972   2.427   0.330   1.592  0.0944 -0.5087 -0.2107
 4656TIP3   OH213973   3.174   5.687   4.081 -0.0045 -0.4418  0.1655
 4656TIP3    H113974   3.088   5.677   4.122  0.6068 -0.4426  1.4987
 4656TIP3    H213975   3.233   5.706   4.154  1.0758 -0.1068 -0.7700
 4657TIP3   OH213976   1.693   0.574   4.181 -0.2807  0.1950 -0.2227
 4657TIP3    H113977   1.786   0.550   4.179 -0.4991 -0.6976 -0.1496
 4657TIP3    H213978   1.660   0.535   4.262 -0.5430  1.2347  0.1934
 4658TIP3   OH213979   4.236   2.961   3.097  0.5077 -0.2555  0.1525
 4658TIP3    H113980   4.276   2.997   3.176 -2.0771  1.8776  0.6098
 4658TIP3    H213981   4.191   2.881   3.127  1.8285 -1.0075  0.2134
 4659TIP3   OH213982   5.647   2.582   3.148  0.0499  0.0849  0.6197
 4659TIP3    H113983   5.638   2.667   3.103  0.2981  0.1505  0.6879
 4659TIP3    H213984   5.697   2.528   3.087  0.3537  0.1611  0.7988
 4660TIP3   OH213985   6.285   4.067   2.332 -1.0417  0.8751 -0.1859
 4660TIP3    H113986   6.268   4.161   2.335  0.7978  1.2595 -0.5865
 4660TIP3    H213987   6.219   4.028   2.389 -1.6667  2.4325  0.1867
 4661TIP3   OH213988   5.713   1.334   3.450 -0.1735  0.4708 -0.1109
 4661TIP3    H113989   5.729   1.333   3.356 -0.6036  1.6228 -0.2216
 4661TIP3    H213990   5.619   1.318   3.459 -0.4255  1.9000  0.0090
 4662TIP3   OH213991   3.821   3.776   4.919 -0.1810  1.0952 -0.0956
 4662TIP3    H113992   3.912   3.763   4.892 -0.7649  0.5071 -1.9034
 4662TIP3    H213993   3.780   3.820   4.845 -1.9421 -0.8936 -0.3905
 4663TIP3   OH213994   6.066   5.211   0.920 -0.0455 -0.4570  0.5357
 4663TIP3    H113995   5.988   5.265   0.910  0.3678  0.0403 -0.1153
 4663TIP3    H213996   6.034   5.128   0.954 -0.9409 -0.5070 -0.3772
 4664TIP3   OH213997   2.119   1.256   4.582  0.1298  0.3256  0.0738
 4664TIP3    H113998   2.176   1.211   4.520  0.5417 -0.7810  1.1927
 4664TIP3    H213999   2.116   1.346   4.552  0.4719 -0.1346 -1.4235
 4665TIP3   OH214000   6.297   1.629   1.484  0.1405 -0.0920 -0.3692
 4665TIP3    H114001   6.274   1.541   1.514  1.8613 -0.2930  0.4592
 4665TIP3    H214002   6.368   1.656   1.542  0.9179  1.0874 -1.8158
 4666TIP3   OH214003   5.120   3.642   4.632  0.1577  0.2728 -0.1984
 4666TIP3    H114004   5.140   3.570   4.692 -1.6010 -1.5185 -1.6284
 4666TIP3    H214005   5.036   3.676   4.662  0.0514  0.4426 -0.6764
 4667TIP3   OH214006   0.744   5.229   2.331 -0.1450 -0.3935  0.2964
 4667TIP3    H114007   0.801   5.188   2.395 -0.4674  0.1438  0.9388
 4667TIP3    H214008   0.747   5.170   2.255  0.7217 -0.7116  0.5655
 4668TIP3   OH214009   5.879   0.064   2.464  0.2803 -0.1177 -0.1602
 4668TIP3    H114010   5.834   0.129   2.518 -1.4417 -2.3016  1.2197
 4668TIP3    H214011   5.958   0.042   2.513  0.3989  0.2407 -0.1843
 4669TIP3   OH214012   2.452   4.490   0.576  0.2982  0.1675 -0.5773
 4669TIP3    H114013   2.488   4.575   0.603 -0.1373 -0.0359  0.7442
 4669TIP3    H214014   2.523   4.428   0.595 -0.3914 -0.1281  1.2910
 4670TIP3   OH214015   2.340   0.201   1.322  0.7625  0.0629  0.4050
 4670TIP3    H114016   2.334   0.136   1.252  0.5406 -0.7646  1.1812
 4670TIP3    H214017   2.250   0.229   1.337  0.7653 -0.0648  0.6496
 4671TIP3   OH214018   1.018   2.283   0.070  0.3465 -0.4924  0.2846
 4671TIP3    H114019   1.087   2.223   0.096 -0.1950 -0.3880  2.1199
 4671TIP3    H214020   1.055   2.370   0.085  0.0042 -0.4344  0.8543
 4672TIP3   OH214021   6.335   1.163   1.434  0.1893 -0.4996  0.5321
 4672TIP3    H114022   6.312   1.186   1.344  2.2859 -0.9361 -0.1810
 4672TIP3    H214023   6.301   1.235   1.486 -0.0840  0.3380 -0.7449
 4673TIP3   OH214024   5.494   4.650   4.009  0.0945 -1.0414  0.1679
 4673TIP3    H114025   5.550   4.574   3.998 -0.0546 -1.4987  2.2595
 4673TIP3    H214026   5.507   4.678   4.099 -1.7129 -0.0928  0.1949
 4674TIP3   OH214027   5.146   4.248   3.833 -0.1315 -0.1747  0.0652
 4674TIP3    H114028   5.083   4.292   3.890  0.0938 -0.0205  0.1926
 4674TIP3    H214029   5.191   4.186   3.890  2.0147  1.8515  0.7286
 4675TIP3   OH214030   4.357   4.887   4.015 -0.2169 -0.3258 -0.0962
 4675TIP3    H114031   4.263   4.903   4.023 -0.0858  0.2534  0.3168
 4675TIP3    H214032   4.377   4.829   4.089  0.1739  1.4542  1.2466
 4676TIP3   OH214033   1.386   3.169   2.937 -0.0305  0.1976  0.0327
 4676TIP3    H114034   1.298   3.174   2.899 -1.0694  1.3781  2.3954
 4676TIP3    H214035   1.401   3.076   2.951 -0.8432 -0.0253 -0.4970
 4677TIP3   OH214036   3.616   4.287   4.718 -0.5121 -0.0001 -0.2432
 4677TIP3    H114037   3.653   4.340   4.788  0.6606  0.0713 -0.8914
 4677TIP3    H214038   3.637   4.335   4.638 -0.3571 -0.9179 -0.7651
 4678TIP3   OH214039   0.840   3.649   1.374 -0.2613 -0.1989 -0.0421
 4678TIP3    H114040   0.862   3.577   1.315 -0.3236 -0.5231  0.3234
 4678TIP3    H214041   0.872   3.727   1.330  0.4208 -0.5236 -0.1283
 4679TIP3   OH214042   4.918   3.934   5.156 -0.0132  0.1550  0.0283
 4679TIP3    H114043   4.909   3.842   5.181  1.6816  0.7793  3.6432
 4679TIP3    H214044   5.003   3.940   5.113 -0.9976 -0.1923 -2.0956
 4680TIP3   OH214045   0.964   5.480   1.854 -0.4605  0.7863  0.4466
 4680TIP3    H114046   0.975   5.497   1.760 -0.1022  0.7502  0.4831
 4680TIP3    H214047   1.027   5.411   1.874 -0.6554  0.6750  0.6794
 4681TIP3   OH214048   4.523   0.829   5.084 -0.1368  0.4872  0.2286
 4681TIP3    H114049   4.530   0.768   5.158  0.6664  0.5830  0.2428
 4681TIP3    H214050   4.614   0.853   5.064 -0.2786 -0.0896 -1.2440
 4682TIP3   OH214051   3.180   2.407   2.378  0.2280 -0.1641 -0.1981
 4682TIP3    H114052   3.088   2.428   2.392  0.5345  0.3049  1.2982
 4682TIP3    H214053   3.216   2.484   2.334 -0.0395 -0.2477 -0.5656
 4683TIP3   OH214054   1.339   0.351   0.538 -0.1031  0.1567 -0.0058
 4683TIP3    H114055   1.373   0.276   0.586  0.7868  1.4950  1.5317
 4683TIP3    H214056   1.351   0.327   0.446  0.5012 -1.4176  0.4499
 4684TIP3   OH214057   5.134   0.439   1.523 -0.1376  0.0443  0.0533
 4684TIP3    H114058   5.182   0.439   1.607  1.1550  1.7815 -0.6183
 4684TIP3    H214059   5.100   0.528   1.515 -0.2081 -0.0844 -1.2809
 4685TIP3   OH214060   3.436   2.478   0.034 -0.1303 -0.3047 -0.6056
 4685TIP3    H114061   3.409   2.465   0.125  0.6407 -1.3455 -0.5006
 4685TIP3    H214062   3.362   2.444  -0.017 -1.1688  1.5593 -0.4175
 4686TIP3   OH214063   0.631   2.666   2.884  0.4501 -0.3441 -0.3623
 4686TIP3    H114064   0.549   2.707   2.914  0.0232  0.9265 -2.9149
 4686TIP3    H214065   0.605   2.578   2.856 -0.1173  0.0987 -1.2820
 4687TIP3   OH214066   5.138   4.810   1.267  0.1281 -0.0725  0.4692
 4687TIP3    H114067   5.119   4.898   1.299 -0.4513  1.8537 -4.2516
 4687TIP3    H214068   5.053   4.766   1.266 -0.1381  0.4320  0.1825
 4688TIP3   OH214069   5.451   5.706   1.526 -0.5090 -0.0162  0.0643
 4688TIP3    H114070   5.451   5.798   1.500  0.3075  0.2278  0.8710
 4688TIP3    H214071   5.360   5.679   1.517 -0.5481  0.4995 -1.4132
 4689TIP3   OH214072   3.158   4.119   2.059 -0.4156  0.2282  0.0363
 4689TIP3    H114073   3.088   4.167   2.102  0.5610  0.5287  1.3404
 4689TIP3    H214074   3.237   4.171   2.075  0.4081 -1.0091  0.1631
 4690TIP3   OH214075   4.390   1.323   4.107  0.1175 -0.4254 -0.4912
 4690TIP3    H114076   4.464   1.262   4.104  0.4233 -0.0946  0.1586
 4690TIP3    H214077   4.316   1.270   4.137  0.7570 -0.1383  1.7406
 4691TIP3   OH214078   0.088   4.244   3.770 -0.2067  0.3730 -0.0594
 4691TIP3    H114079   0.097   4.311   3.702  1.7391 -0.4082 -0.6328
 4691TIP3    H214080   0.021   4.184   3.736 -0.7509  1.1000 -0.3001
 4692TIP3   OH214081   2.826   4.686   3.666 -0.4685 -0.0144  0.0500
 4692TIP3    H114082   2.905   4.666   3.715 -0.3861 -2.4383 -0.9401
 4692TIP3    H214083   2.850   4.760   3.610  0.4982  0.4847  1.0980
 4693TIP3   OH214084   3.575   3.638   3.184 -0.8534  0.1348 -1.0420
 4693TIP3    H114085   3.634   3.714   3.185  0.3218 -0.7399  0.4517
 4693TIP3    H214086   3.557   3.623   3.091  0.3973  1.1147 -1.4680
 4694TIP3   OH214087   5.173   4.216   3.518 -0.9622  0.2031  0.0617
 4694TIP3    H114088   5.167   4.134   3.568  0.6655 -0.0389 -0.0718
 4694TIP3    H214089   5.257   4.254   3.544 -0.5425  0.5892 -1.7007
 4695TIP3   OH214090   1.961   3.608   4.519 -0.3631 -0.1332 -0.7219
 4695TIP3    H114091   1.877   3.562   4.522  0.0786 -0.9301 -0.3084
 4695TIP3    H214092   1.966   3.653   4.603  0.2019 -1.1609 -0.1820
 4696TIP3   OH214093   4.055   3.786   3.422  0.3847  0.1415  0.7339
 4696TIP3    H114094   4.121   3.811   3.357  0.8157  0.1449  1.1660
 4696TIP3    H214095   4.090   3.705   3.461  0.1782  0.1957  1.0282
 4697TIP3   OH214096   3.054   4.577   4.632  0.2472  0.3222  0.0836
 4697TIP3    H114097   3.106   4.503   4.600 -1.5196 -0.7151 -0.5334
 4697TIP3    H214098   2.988   4.592   4.565  0.2471  2.1769  0.4316
 4698TIP3   OH214099   5.584   3.232   0.191 -0.0855 -0.2223 -0.4364
 4698TIP3    H114100   5.626   3.158   0.148 -1.6090 -1.3049 -0.1626
 4698TIP3    H214101   5.507   3.251   0.138 -0.3005  0.4470  0.0937
 4699TIP3   OH214102   4.345   1.971   1.364 -0.5015 -0.0776  0.1873
 4699TIP3    H114103   4.293   1.985   1.444 -1.0628  0.5387 -0.2683
 4699TIP3    H214104   4.397   2.051   1.355  2.1226 -1.4881  1.7414
 4700TIP3   OH214105   4.657   0.769   2.458  0.2569  0.1157 -0.8850
 4700TIP3    H114106   4.659   0.675   2.474 -0.2582 -0.0692 -1.8064
 4700TIP3    H214107   4.565   0.788   2.440  0.0123  1.1675  1.2233
 4701TIP3   OH214108   3.481   2.072   1.353 -0.1599 -0.4470 -0.1957
 4701TIP3    H114109   3.543   2.112   1.292 -0.7283  2.1724  0.8259
 4701TIP3    H214110   3.490   2.122   1.434 -3.3161 -0.1824  0.1250
 4702TIP3   OH214111   1.958   2.248   2.852  0.2829 -0.3067 -0.2143
 4702TIP3    H114112   1.889   2.231   2.788  0.1598  0.0257 -0.1738
 4702TIP3    H214113   1.933   2.196   2.928 -0.8378  1.0932  0.4215
 4703TIP3   OH214114   5.727   5.426   0.061  0.0449 -0.4345  0.1749
 4703TIP3    H114115   5.777   5.403   0.140  0.1889 -0.5801  0.0413
 4703TIP3    H214116   5.678   5.504   0.086  0.4092 -0.2366  0.2796
 4704TIP3   OH214117   3.487   5.340   2.267 -0.4182  0.2343  0.1586
 4704TIP3    H114118   3.568   5.290   2.280 -1.5293 -2.1887 -1.3936
 4704TIP3    H214119   3.419   5.273   2.259 -2.5696  2.1697  1.0851
 4705TIP3   OH214120   2.526   4.507   4.952 -0.8213  0.3853 -0.1193
 4705TIP3    H114121   2.504   4.589   4.995  0.3796  0.7323 -0.1434
 4705TIP3    H214122   2.589   4.465   5.011 -0.7648 -0.1138 -0.5267
 4706TIP3   OH214123   1.426   5.477   3.457 -0.0560  0.7930 -0.5313
 4706TIP3    H114124   1.448   5.444   3.371  0.3866  0.1600 -0.1816
 4706TIP3    H214125   1.361   5.415   3.491  0.1375  0.7610 -0.2158
 4707TIP3   OH214126   4.757   5.449   3.956  0.0642 -0.8694  0.5587
 4707TIP3    H114127   4.692   5.509   3.917 -0.2261 -1.1912  0.5411
 4707TIP3    H214128   4.706   5.394   4.015  0.6532  0.2874  2.2114
 4708TIP3   OH214129   1.066   1.533   3.894  0.0959 -0.2138 -0.3124
 4708TIP3    H114130   1.054   1.591   3.970 -1.0649  1.3512 -1.6212
 4708TIP3    H214131   0.990   1.475   3.896 -1.3450  1.4994 -1.6144
 4709TIP3   OH214132   3.868   0.882   1.248 -0.1622  0.2683 -0.5373
 4709TIP3    H114133   3.868   0.964   1.298 -1.5213 -0.4866  0.7750
 4709TIP3    H214134   3.793   0.889   1.189  1.1809  0.9706 -2.2339
 4710TIP3   OH214135   0.897   3.554   2.554 -0.4857 -0.1430  0.0297
 4710TIP3    H114136   0.986   3.519   2.543  0.0533  0.9909  0.6293
 4710TIP3    H214137   0.843   3.501   2.496  0.2756 -2.0150  0.9645
 4711TIP3   OH214138   5.638   3.501   0.558  0.5096 -0.0804  0.3655
 4711TIP3    H114139   5.567   3.557   0.588  1.0895  0.0687  1.4900
 4711TIP3    H214140   5.595   3.424   0.522 -0.3058  1.0158 -1.1611
 4712TIP3   OH214141   2.144   4.272   4.058  0.3285  0.0298  0.1920
 4712TIP3    H114142   2.193   4.222   4.123  1.0743  0.1295 -0.2874
 4712TIP3    H214143   2.188   4.357   4.055  1.6240 -0.6555 -1.9428
 4713TIP3   OH214144   0.119   3.754   4.474 -0.1052  0.2606 -0.2775
 4713TIP3    H114145   0.191   3.713   4.426 -0.1504  0.8242 -0.8420
 4713TIP3    H214146   0.040   3.719   4.433 -0.1742 -0.6528  0.5920
 4714TIP3   OH214147   2.586   0.520   4.897 -0.4441  0.2257 -0.2534
 4714TIP3    H114148   2.615   0.592   4.841  0.9058  2.0748  2.6145
 4714TIP3    H214149   2.663   0.464   4.907 -0.1639  0.8145  1.0317
 4715TIP3   OH214150   4.067   0.263   2.031  0.0219 -0.6256 -0.7204
 4715TIP3    H114151   4.146   0.212   2.011 -0.1568 -1.8405  1.3181
 4715TIP3    H214152   4.018   0.207   2.091 -0.4086  1.7441  1.3257
 4716TIP3   OH214153   2.574   3.410   5.088  0.3828  0.3180 -0.3685
 4716TIP3    H114154   2.637   3.473   5.124 -0.2002  0.2482  0.8151
 4716TIP3    H214155   2.553   3.444   5.002  0.5496  1.4165  0.0018
 4717TIP3   OH214156   6.253   2.727   1.463  0.1010 -0.7864 -0.2691
 4717TIP3    H114157   6.273   2.651   1.519 -0.7408  0.3313  1.6415
 4717TIP3    H214158   6.333   2.779   1.465 -0.9374  0.9197  2.7965
 4718TIP3   OH214159   2.248   1.887   1.204  0.5740  0.1442 -0.4437
 4718TIP3    H114160   2.297   1.836   1.139  0.4209 -0.7985  0.1575
 4718TIP3    H214161   2.170   1.835   1.222  1.5329 -0.6058  1.9006
 4719TIP3   OH214162   5.463   0.710   1.623 -0.1193 -0.2173 -0.0473
 4719TIP3    H114163   5.503   0.627   1.597 -0.4752  0.0848 -1.6983
 4719TIP3    H214164   5.440   0.698   1.715  2.2490 -0.9644  0.5101
 4720TIP3   OH214165   2.929   2.489   2.467  0.6685 -0.7540  0.1599
 4720TIP3    H114166   2.889   2.575   2.450  0.9813 -0.7480 -0.6115
 4720TIP3    H214167   2.947   2.489   2.561 -0.0816 -0.3019  0.3145
 4721TIP3   OH214168   1.991   0.505   3.204  0.3904  0.0166 -0.4794
 4721TIP3    H114169   1.925   0.573   3.214  1.1160  0.5603  0.8966
 4721TIP3    H214170   1.988   0.457   3.287  1.9620  0.2962 -0.2340
 4722TIP3   OH214171   6.118   0.068   4.256  0.3900 -0.7702 -0.1865
 4722TIP3    H114172   6.179  -0.006   4.266  0.1949 -0.6542  3.1390
 4722TIP3    H214173   6.050   0.051   4.321  0.3060  2.2756  0.6610
 4723TIP3   OH214174   5.380   4.327   3.163 -0.3140  0.1999  0.2035
 4723TIP3    H114175   5.365   4.239   3.200  0.0891  0.0639  0.0458
 4723TIP3    H214176   5.314   4.335   3.094  0.0694 -0.2403 -0.2218
 4724TIP3   OH214177   1.651   2.002   3.471 -1.3866 -0.2876 -0.0329
 4724TIP3    H114178   1.638   1.966   3.383 -0.9796 -0.4952 -0.0069
 4724TIP3    H214179   1.656   1.926   3.528 -1.8958 -0.1456  0.2078
 4725TIP3   OH214180   3.565   2.660   3.978 -0.5357 -0.0759  0.5994
 4725TIP3    H114181   3.653   2.647   3.944 -1.4062 -2.6228 -0.9992
 4725TIP3    H214182   3.529   2.732   3.926 -0.4772 -1.2852 -1.2193
 4726TIP3   OH214183   0.094   5.019   4.208  0.5819 -0.1394 -0.0681
 4726TIP3    H114184   0.067   5.104   4.174 -0.0213 -0.6015 -0.7777
 4726TIP3    H214185   0.159   4.987   4.145 -0.3483 -0.8847 -0.6730
 4727TIP3   OH214186   2.538   5.013   1.328  1.1727 -0.1591  0.8940
 4727TIP3    H114187   2.446   5.027   1.305  0.6434 -1.2671  2.1475
 4727TIP3    H214188   2.560   4.929   1.287  1.6717  0.1711  0.4803
 4728TIP3   OH214189   5.685   5.353   3.713 -0.2349 -0.1737 -0.0187
 4728TIP3    H114190   5.640   5.373   3.795 -0.0966 -1.8548  0.5025
 4728TIP3    H214191   5.778   5.368   3.731 -0.4032  2.1677 -0.7504
 4729TIP3   OH214192   4.215   5.788   3.776  0.3422  1.0896  0.6799
 4729TIP3    H114193   4.170   5.782   3.861 -0.0604  0.3889  0.4245
 4729TIP3    H214194   4.243   5.880   3.770 -0.4456  1.3689  1.1509
 4730TIP3   OH214195   6.163   3.773   3.659 -0.6848  0.3177  0.4376
 4730TIP3    H114196   6.134   3.746   3.572  0.0432 -0.9164  0.5655
 4730TIP3    H214197   6.248   3.731   3.671 -0.3495  1.2196  1.3879
 4731TIP3   OH214198   3.838   2.260   3.805  0.1747 -0.3687 -0.1478
 4731TIP3    H114199   3.881   2.192   3.856  0.4451  1.1276  1.7694
 4731TIP3    H214200   3.906   2.295   3.748  0.8140  0.1096  0.8658
 4732TIP3   OH214201   3.366   0.168   2.977 -0.4584 -0.3989  0.3689
 4732TIP3    H114202   3.342   0.218   2.899 -0.8335  0.0477  0.7635
 4732TIP3    H214203   3.461   0.167   2.976 -0.3075  2.3179  1.5464
 4733TIP3   OH214204   2.218   2.714   1.964 -0.4743  0.0268  0.1379
 4733TIP3    H114205   2.175   2.700   1.880 -0.2343 -1.7317  0.2541
 4733TIP3    H214206   2.147   2.705   2.029 -0.3416 -0.6124  0.2063
 4734TIP3   OH214207   5.081   4.415   0.290  0.1088  0.2675 -0.7835
 4734TIP3    H114208   5.026   4.443   0.364 -0.9079 -0.5938 -1.1779
 4734TIP3    H214209   5.084   4.319   0.298 -0.3771  0.1187 -2.0774
 4735TIP3   OH214210   0.465   0.556   3.951 -0.0920  0.0624 -0.5728
 4735TIP3    H114211   0.497   0.469   3.977 -0.4660 -0.4200 -1.6692
 4735TIP3    H214212   0.373   0.556   3.977 -0.0732  0.1686 -0.5049
 4736TIP3   OH214213   4.514   1.230   1.828 -0.1311  0.2086 -0.5112
 4736TIP3    H114214   4.460   1.309   1.827 -1.2148 -0.3899  1.9422
 4736TIP3    H214215   4.459   1.163   1.788  0.0239  0.2711 -0.8301
 4737TIP3   OH214216   2.009   5.481   0.361 -0.3231 -0.4279  0.0378
 4737TIP3    H114217   2.089   5.477   0.412 -1.2327 -1.3091  1.4744
 4737TIP3    H214218   1.972   5.567   0.380  0.8059  0.4419 -1.5218
 4738TIP3   OH214219   3.324   4.232   4.748  0.3165  0.3530 -0.0812
 4738TIP3    H114220   3.416   4.258   4.756 -0.4019  2.7535  1.1309
 4738TIP3    H214221   3.292   4.225   4.838 -1.8134  4.2458 -0.3349
 4739TIP3   OH214222   0.724   3.225   1.127  0.4768 -0.7406  0.0067
 4739TIP3    H114223   0.681   3.147   1.091 -0.2364 -0.2870 -0.1445
 4739TIP3    H214224   0.750   3.276   1.050 -0.2063 -0.2228  0.1096
 4740TIP3   OH214225   5.007   1.896   0.423 -0.3307  0.0823 -0.6060
 4740TIP3    H114226   4.979   1.943   0.501  3.5701  1.1089  0.3686
 4740TIP3    H214227   4.976   1.806   0.436 -1.6780  0.7416  0.9921
 4741TIP3   OH214228   1.550   3.502   4.134  0.3202  0.0466 -0.3626
 4741TIP3    H114229   1.593   3.457   4.062  0.2269 -0.5630 -0.0482
 4741TIP3    H214230   1.621   3.537   4.187  0.4277 -0.6124 -0.0622
 4742TIP3   OH214231   1.472   1.524   2.042 -0.0281 -0.6773 -0.1968
 4742TIP3    H114232   1.518   1.607   2.059  1.0282 -1.4086  0.6103
 4742TIP3    H214233   1.494   1.502   1.952 -0.7446  0.1726 -0.5968
 4743TIP3   OH214234   2.956   3.073   0.161  0.6729  0.0252  0.6838
 4743TIP3    H114235   3.008   2.996   0.187  1.7410  1.0023  1.5646
 4743TIP3    H214236   3.021   3.144   0.154 -0.4163  1.0603  0.8240
 4744TIP3   OH214237   5.594   1.517   5.116  0.5509  0.2978 -0.1467
 4744TIP3    H114238   5.637   1.593   5.154  1.9334 -0.6802  0.3234
 4744TIP3    H214239   5.640   1.442   5.153 -1.6389 -0.8278  0.4392
 4745TIP3   OH214240   2.315   1.128   4.431 -0.1649 -0.4990  0.2978
 4745TIP3    H114241   2.372   1.058   4.462  1.5334  2.3989  4.6581
 4745TIP3    H214242   2.374   1.198   4.405 -1.8158  0.3672 -1.3993
 4746TIP3   OH214243   3.231   5.265   3.386 -0.1633 -0.4282 -0.0265
 4746TIP3    H114244   3.291   5.191   3.376 -0.7036 -1.5590  3.6515
 4746TIP3    H214245   3.286   5.339   3.411 -0.0120 -0.7016  0.4587
 4747TIP3   OH214246   0.024   0.844   0.918  0.0875  0.4372  0.2281
 4747TIP3    H114247   0.114   0.812   0.924 -0.0503  0.1694  1.0268
 4747TIP3    H214248   0.032   0.938   0.904  0.4918  0.2346 -1.0178
 4748TIP3   OH214249   5.933   3.657   2.648  0.0799 -0.0129 -0.0761
 4748TIP3    H114250   5.910   3.574   2.605  0.1875 -0.7148  1.1476
 4748TIP3    H214251   6.011   3.686   2.603 -1.2067  0.6266 -2.0319
 4749TIP3   OH214252   2.514   3.199   2.099  0.6125 -0.0841 -0.0999
 4749TIP3    H114253   2.455   3.252   2.153  0.9678 -0.1517  0.3666
 4749TIP3    H214254   2.467   3.116   2.086  0.1246  0.2796 -0.6952
 4750TIP3   OH214255   1.449   1.149   2.048 -0.2087  0.2616 -0.1534
 4750TIP3    H114256   1.445   1.056   2.026 -0.0041  0.0496  0.6550
 4750TIP3    H214257   1.413   1.194   1.971 -0.0319 -0.4626 -0.6695
 4751TIP3   OH214258   3.422   1.239   4.424 -0.1723 -0.0593 -0.0968
 4751TIP3    H114259   3.517   1.230   4.417 -0.0104  1.3521  0.0963
 4751TIP3    H214260   3.391   1.245   4.334  0.1889  1.8173 -0.1231
 4752TIP3   OH214261   2.213   1.174   3.027 -0.2459 -0.3161  0.1918
 4752TIP3    H114262   2.255   1.174   2.941 -0.2120 -1.0634  0.2078
 4752TIP3    H214263   2.209   1.082   3.053 -0.4520 -0.1175  0.8974
 4753TIP3   OH214264   2.978   0.697   4.877 -0.3648 -0.0052  0.1955
 4753TIP3    H114265   2.899   0.689   4.825 -0.7103 -0.1154  0.7291
 4753TIP3    H214266   2.949   0.682   4.967  0.3622 -0.6336  0.3346
 4754TIP3   OH214267   4.362   2.425   1.971 -0.5183 -0.2274  0.6268
 4754TIP3    H114268   4.350   2.346   1.919  1.7512 -0.0418 -0.3129
 4754TIP3    H214269   4.422   2.479   1.919 -0.4523  1.2454  2.1356
 4755TIP3   OH214270   5.804   3.046   4.094 -0.2369  0.3296 -0.0904
 4755TIP3    H114271   5.784   2.953   4.103  1.1131 -0.0713 -1.0435
 4755TIP3    H214272   5.897   3.050   4.075 -0.2258  1.9044  0.1044
 4756TIP3   OH214273   4.366   0.683   0.716  0.3548  0.5725  0.1554
 4756TIP3    H114274   4.459   0.678   0.693 -0.0361 -2.1513 -1.2350
 4756TIP3    H214275   4.346   0.599   0.758 -1.5562  0.9323  0.0804
 4757TIP3   OH214276   3.434   2.512   4.440 -0.1593 -0.6990  0.1937
 4757TIP3    H114277   3.385   2.560   4.507 -2.0191 -0.1996 -1.4190
 4757TIP3    H214278   3.448   2.575   4.370 -1.4886 -2.0691 -1.4194
 4758TIP3   OH214279   5.458   3.344   2.471 -0.7012  0.2453  0.6400
 4758TIP3    H114280   5.405   3.305   2.542 -0.8175  0.0414  0.4425
 4758TIP3    H214281   5.468   3.273   2.408 -1.4605  0.7190 -0.0310
 4759TIP3   OH214282   2.682   5.781   1.327 -0.6209 -0.1696 -0.2473
 4759TIP3    H114283   2.731   5.863   1.325 -1.4216  0.3153 -0.3121
 4759TIP3    H214284   2.591   5.807   1.337 -0.9107 -1.0445 -0.4817
 4760TIP3   OH214285   0.787   3.903   3.633  0.3403 -0.0443 -0.7591
 4760TIP3    H114286   0.814   3.949   3.553  0.4600  0.6272 -0.3410
 4760TIP3    H214287   0.720   3.841   3.604 -1.0812  1.5744 -1.1028
 4761TIP3   OH214288   0.476   4.855   4.238  0.1868 -0.0079 -0.2043
 4761TIP3    H114289   0.543   4.888   4.299 -0.3405 -1.4112  1.2035
 4761TIP3    H214290   0.508   4.769   4.211 -0.5388 -0.2361 -0.3565
 4762TIP3   OH214291   1.967   0.515   0.191  0.0230  0.0668  0.2103
 4762TIP3    H114292   1.982   0.557   0.106 -0.1769 -0.1600  0.0600
 4762TIP3    H214293   2.053   0.513   0.232  0.3486 -0.8489 -0.4666
 4763TIP3   OH214294   1.538   2.085   2.463  0.6425  0.5032  0.3889
 4763TIP3    H114295   1.540   2.172   2.422 -0.7830  1.5758  2.4099
 4763TIP3    H214296   1.447   2.074   2.490  1.3459 -0.3881  2.6162
 4764TIP3   OH214297   4.522   1.899   1.754  0.2716 -0.0817 -0.0425
 4764TIP3    H114298   4.612   1.925   1.739 -0.4073  1.4062 -1.9088
 4764TIP3    H214299   4.502   1.839   1.682 -0.0705 -0.9305  0.7284
 4765TIP3   OH214300   4.982   4.892   0.020  0.0984  0.1537 -0.6556
 4765TIP3    H114301   5.006   4.803   0.046 -1.7011 -0.5590 -1.2931
 4765TIP3    H214302   5.059   4.925  -0.027  1.2565 -0.5796  0.6533
 4766TIP3   OH214303   3.691   0.313   3.713  0.1217  0.3894 -0.4407
 4766TIP3    H114304   3.717   0.248   3.648 -0.1401  0.2176 -0.3737
 4766TIP3    H214305   3.659   0.262   3.787 -0.8948  0.5935 -0.7179
 4767TIP3   OH214306   4.789   2.953   4.443  0.0434 -0.0920  0.3688
 4767TIP3    H114307   4.742   2.909   4.373  0.5603  1.4702 -1.0346
 4767TIP3    H214308   4.858   2.892   4.468 -1.4682 -1.5829  1.0843
 4768TIP3   OH214309   3.128   3.574   3.987  0.3437  0.3395 -0.1649
 4768TIP3    H114310   3.106   3.664   4.010  0.1230  0.3351 -0.3604
 4768TIP3    H214311   3.191   3.547   4.054  0.1046  0.5034  0.1266
 4769TIP3   OH214312   6.183   1.609   4.573 -0.0327  0.7965 -0.3483
 4769TIP3    H114313   6.248   1.619   4.642 -0.2793  0.6444 -0.0891
 4769TIP3    H214314   6.189   1.517   4.547 -2.0547  0.0248  1.6340
 4770TIP3   OH214315   1.940   1.664   2.586  0.5833 -0.1068  0.1619
 4770TIP3    H114316   1.945   1.610   2.665  1.2826 -1.1595 -0.5686
 4770TIP3    H214317   2.031   1.669   2.555  0.1797 -0.7296 -1.2234
 4771TIP3   OH214318   0.019   1.270   3.474  0.4999 -0.3038  0.1761
 4771TIP3    H114319  -0.060   1.259   3.422  0.6402  0.0962 -0.1297
 4771TIP3    H214320   0.069   1.337   3.428  1.0601 -0.6168  0.3150
 4772TIP3   OH214321   4.601   2.015   4.464  0.3115 -0.1024 -0.3905
 4772TIP3    H114322   4.556   1.933   4.485 -0.2712 -0.0055 -1.1917
 4772TIP3    H214323   4.693   1.999   4.484 -0.0645 -0.2972  1.3203
 4773TIP3   OH214324   5.103   4.186   2.098  0.3268  0.2265  0.6123
 4773TIP3    H114325   5.026   4.132   2.119  0.7565  0.1464  2.1261
 4773TIP3    H214326   5.078   4.274   2.125  0.1104  0.5558 -0.6228
 4774TIP3   OH214327   3.455   0.684   1.567 -0.0432  0.5346 -0.1325
 4774TIP3    H114328   3.529   0.652   1.516 -0.1807  0.3164 -0.1976
 4774TIP3    H214329   3.387   0.617   1.555  0.0132  0.3473  0.5469
 4775TIP3   OH214330   4.675   0.930   4.264  0.2706  0.0394 -0.0132
 4775TIP3    H114331   4.646   0.839   4.260  1.2486 -0.3624  1.3447
 4775TIP3    H214332   4.596   0.981   4.246 -0.0493 -1.0498 -2.1062
 4776TIP3   OH214333   1.335   3.115   0.905 -0.2735  0.0749  0.3031
 4776TIP3    H114334   1.310   3.071   0.823  0.3741 -0.2124  0.2578
 4776TIP3    H214335   1.300   3.058   0.974 -0.5749  0.1716  0.2313
 4777TIP3   OH214336   2.210   4.686   1.239 -0.6237 -0.0772 -0.4127
 4777TIP3    H114337   2.115   4.700   1.245 -0.7247 -0.3276 -1.2362
 4777TIP3    H214338   2.219   4.618   1.171 -0.0350 -2.3497  1.7848
 4778TIP3   OH214339   4.178   1.520   1.448 -0.0540  0.4195 -0.2546
 4778TIP3    H114340   4.113   1.468   1.401  0.8742 -0.2897 -0.7966
 4778TIP3    H214341   4.143   1.528   1.536 -0.7024 -0.2570 -0.4368
 4779TIP3   OH214342   4.356   2.763   1.190 -0.1943 -0.3530 -0.2761
 4779TIP3    H114343   4.313   2.695   1.137 -0.1914  0.9557 -2.0705
 4779TIP3    H214344   4.309   2.843   1.168 -0.9631  0.1086  2.6929
 4780TIP3   OH214345   4.023   1.570   3.000  0.3137 -0.0846  0.1305
 4780TIP3    H114346   4.096   1.538   3.054  0.7413  0.5541 -0.0522
 4780TIP3    H214347   3.999   1.496   2.945 -0.2896 -0.8339  1.3538
 4781TIP3   OH214348   0.683   3.191   4.000  0.2009  0.6974  0.2458
 4781TIP3    H114349   0.666   3.281   3.972  1.8372  0.4931 -1.6492
 4781TIP3    H214350   0.766   3.197   4.048 -0.4546  0.3834  1.4691
 4782TIP3   OH214351   5.139   1.651   4.209  0.1133  0.1628  0.1550
 4782TIP3    H114352   5.044   1.638   4.209  0.1812 -0.3901 -0.3718
 4782TIP3    H214353   5.167   1.622   4.122  0.5953  1.6583 -0.2044
 4783TIP3   OH214354   5.085   0.898   4.890  0.0408 -0.0743  0.1442
 4783TIP3    H114355   5.105   0.963   4.957  0.2073  2.7249 -2.3731
 4783TIP3    H214356   5.160   0.840   4.889  0.9811  1.0731  1.0007
 4784TIP3   OH214357   3.355   1.693   3.901 -0.1044 -0.5808  0.1232
 4784TIP3    H114358   3.445   1.727   3.910 -0.8961  1.4982  0.7313
 4784TIP3    H214359   3.348   1.669   3.809  0.9079 -0.2666 -0.0528
 4785TIP3   OH214360   2.969   5.722   1.454 -0.3829  0.1539  0.3831
 4785TIP3    H114361   2.973   5.700   1.360  1.5798 -0.8408  0.6507
 4785TIP3    H214362   2.966   5.637   1.498  0.1568  0.5719  1.2560
 4786TIP3   OH214363   5.078   4.436   3.227  0.3157  0.1085 -0.4984
 4786TIP3    H114364   5.077   4.515   3.282 -2.2670 -0.5110  0.5294
 4786TIP3    H214365   5.038   4.463   3.145  2.1738  0.5164 -1.3107
 4787TIP3   OH214366   2.630   4.344   1.579 -0.0167 -0.1466 -0.0766
 4787TIP3    H114367   2.586   4.429   1.586  1.9568  0.9367 -0.1793
 4787TIP3    H214368   2.673   4.332   1.664  1.1513 -0.1863 -0.6544
 4788TIP3   OH214369   4.624   1.206   2.985  0.0041  0.1405 -0.0120
 4788TIP3    H114370   4.619   1.189   2.891  1.8506 -1.3096  0.1048
 4788TIP3    H214371   4.537   1.183   3.018  0.1407 -2.0387 -0.9937
 4789TIP3   OH214372   0.095   2.946   3.986  0.0605 -0.1595  0.1082
 4789TIP3    H114373   0.023   2.924   3.926 -0.8084 -0.3555  1.1834
 4789TIP3    H214374   0.140   3.019   3.943 -0.4046 -0.4285 -0.8783
 4790TIP3   OH214375   1.920   0.618   4.362  0.2013  0.4041  0.5522
 4790TIP3    H114376   1.917   0.607   4.457 -0.0671  0.7159  0.5808
 4790TIP3    H214377   2.013   0.632   4.343  0.5761 -1.7862  0.5147
 4791TIP3   OH214378   2.278   4.247   0.440 -0.8504  0.6807 -0.1523
 4791TIP3    H114379   2.315   4.256   0.528  1.3141 -1.2749 -0.7567
 4791TIP3    H214380   2.354   4.235   0.383 -2.2200  1.5366 -2.2622
 4792TIP3   OH214381   3.747   2.927   4.342  0.3339  0.1669 -0.0107
 4792TIP3    H114382   3.825   2.922   4.287  0.6084 -0.7744  0.4295
 4792TIP3    H214383   3.777   2.899   4.429 -0.4388  0.0114  0.2161
 4793TIP3   OH214384   0.007   1.063   1.710  0.0345  0.5168 -0.0019
 4793TIP3    H114385  -0.008   1.080   1.617 -0.2096  1.6257  0.2226
 4793TIP3    H214386   0.062   1.136   1.739  1.0118 -0.3936  0.4947
 4794TIP3   OH214387   5.023   2.182   0.748  0.0874 -0.0046 -0.3980
 4794TIP3    H114388   4.961   2.253   0.764 -0.2077 -0.6731  1.7698
 4794TIP3    H214389   4.973   2.118   0.697 -0.5057  0.1598 -0.0355
 4795TIP3   OH214390   1.689   1.296   2.522  0.0505  0.4539  0.3038
 4795TIP3    H114391   1.630   1.235   2.567 -1.2327 -0.0452 -1.9465
 4795TIP3    H214392   1.776   1.272   2.555 -0.7831  0.1615  2.5205
 4796TIP3   OH214393   2.954   5.399   0.565 -0.8715  0.4588 -0.3536
 4796TIP3    H114394   3.013   5.437   0.630 -1.4574  0.2504  0.3017
 4796TIP3    H214395   2.894   5.470   0.543  0.1957  0.9818 -1.7518
 4797TIP3   OH214396   6.025   0.920   3.786  0.0703  0.6218 -0.0313
 4797TIP3    H114397   6.058   0.859   3.852 -0.9670  1.0926  0.9738
 4797TIP3    H214398   5.945   0.956   3.826  0.9300  3.0450 -0.3240
 4798TIP3   OH214399   2.558   1.706   2.704 -0.2112 -0.5492 -0.4248
 4798TIP3    H114400   2.609   1.644   2.757 -0.9260 -1.7300 -1.0875
 4798TIP3    H214401   2.550   1.784   2.760 -1.3193 -1.8988  1.4085
 4799TIP3   OH214402   3.223   3.451   3.763  0.0283  0.5749 -0.3619
 4799TIP3    H114403   3.255   3.535   3.730  0.9964  0.8883  1.2622
 4799TIP3    H214404   3.192   3.470   3.852 -0.0551 -0.7087 -0.0969
 4800TIP3   OH214405   2.214   4.923   3.671 -0.5688  0.2222 -0.2687
 4800TIP3    H114406   2.119   4.923   3.659 -0.8422  0.3468  1.6357
 4800TIP3    H214407   2.227   4.915   3.765  1.3414 -0.8579 -0.5632
 4801TIP3   OH214408   0.744   5.306   1.869 -0.0657 -0.0664 -0.3252
 4801TIP3    H114409   0.705   5.340   1.949  1.3348 -0.9893  0.7940
 4801TIP3    H214410   0.811   5.371   1.846 -0.2738  0.0539 -0.6065
 4802TIP3   OH214411   1.103   0.474   0.229 -0.2214  0.0377  0.1046
 4802TIP3    H114412   1.159   0.474   0.152  0.1332  0.2948  0.3584
 4802TIP3    H214413   1.015   0.456   0.195  0.2327 -1.8797 -0.1153
 4803TIP3   OH214414   1.824   3.524   3.083  0.0134  0.0547  0.3379
 4803TIP3    H114415   1.729   3.523   3.073  0.0311  1.3951 -0.2109
 4803TIP3    H214416   1.854   3.591   3.021  1.2723  0.0506  0.9053
 4804TIP3   OH214417   4.968   1.258   2.813  0.0192  0.2758 -0.1493
 4804TIP3    H114418   4.968   1.346   2.850 -0.1778  0.4097 -0.4636
 4804TIP3    H214419   4.876   1.240   2.793 -0.0373 -0.2683  0.5319
 4805TIP3   OH214420   4.093   1.985   0.178 -0.3169  0.7497  0.4245
 4805TIP3    H114421   4.112   1.923   0.108 -0.2079  1.1819  0.0633
 4805TIP3    H214422   4.177   1.997   0.223 -0.2822  0.8218  0.3409
 4806TIP3   OH214423   3.142   1.598   1.214  0.2329 -0.2113  0.0148
 4806TIP3    H114424   3.218   1.546   1.188  1.6483  1.1033  1.3312
 4806TIP3    H214425   3.130   1.579   1.307  0.3722  1.2705  0.3657
 4807TIP3   OH214426   2.758   3.901   0.645 -0.2772 -0.3073 -0.0245
 4807TIP3    H114427   2.850   3.876   0.658  0.0507  0.9208  0.0652
 4807TIP3    H214428   2.724   3.833   0.587  1.0966  0.0550 -1.3311
 4808TIP3   OH214429   4.038   3.265   2.164 -0.4567 -0.0145  0.1379
 4808TIP3    H114430   3.962   3.211   2.186 -0.2793 -0.9570 -1.4275
 4808TIP3    H214431   4.010   3.316   2.088  0.0746  0.5473  0.3116
 4809TIP3   OH214432   0.323   5.359   2.817  0.1183  0.5586 -0.1522
 4809TIP3    H114433   0.345   5.276   2.775  1.6803 -0.2967  2.1252
 4809TIP3    H214434   0.228   5.358   2.825  0.0458 -0.5977 -0.9054
 4810TIP3   OH214435   2.010   0.858   3.272  0.1470 -0.2111  0.5712
 4810TIP3    H114436   1.936   0.917   3.263 -0.8988 -1.4315  0.9334
 4810TIP3    H214437   2.085   0.916   3.286 -0.8715  1.0241  1.1235
 4811TIP3   OH214438   1.814   3.338   5.078 -0.0236 -0.1459  0.2599
 4811TIP3    H114439   1.881   3.394   5.116 -0.4572 -0.8403  2.1384
 4811TIP3    H214440   1.862   3.282   5.017  0.9556  0.0220  0.8578
 4812TIP3   OH214441   1.308   0.715   1.500 -0.2715 -0.3555 -0.3440
 4812TIP3    H114442   1.225   0.718   1.548  0.1823  0.7913  0.4319
 4812TIP3    H214443   1.314   0.801   1.458  0.2657 -0.6334 -0.8439
 4813TIP3   OH214444   1.489   4.122   3.014  0.5029  0.8643 -0.4691
 4813TIP3    H114445   1.409   4.100   2.966  0.1622 -2.0625  1.2548
 4813TIP3    H214446   1.474   4.211   3.045 -1.7640  0.6740 -0.8531
 4814TIP3   OH214447   3.598   5.488   0.028  0.0723  0.2816  0.5777
 4814TIP3    H114448   3.654   5.560  -0.001  0.2944  0.0555  0.4434
 4814TIP3    H214449   3.597   5.494   0.123  2.2204 -1.1145  0.7615
 4815TIP3   OH214450   0.408   4.186   2.814 -0.5097  0.6941  0.4742
 4815TIP3    H114451   0.400   4.271   2.771  0.4246  1.2720  1.3981
 4815TIP3    H214452   0.498   4.183   2.846 -0.1120 -1.2187 -0.6837
 4816TIP3   OH214453   0.958   1.318   2.972 -0.5484 -0.3089 -0.2479
 4816TIP3    H114454   0.938   1.327   3.066  2.2725  0.1854  0.3987
 4816TIP3    H214455   0.937   1.227   2.953  1.5615 -1.3366  1.7251
 4817TIP3   OH214456   4.536   5.888   3.871 -0.1132  0.6188 -0.3334
 4817TIP3    H114457   4.554   5.869   3.963 -0.5371  1.4505 -0.0720
 4817TIP3    H214458   4.464   5.828   3.848 -0.3604  0.7808  0.0237
 4818TIP3   OH214459   4.004   0.084   3.497  0.3788 -0.3958  0.1098
 4818TIP3    H114460   4.035   0.175   3.499  1.5631 -0.7774  0.0531
 4818TIP3    H214461   4.045   0.044   3.573  0.2618 -1.0111 -0.1522
 4819TIP3   OH214462   1.988   5.905   3.690  0.2627  0.1122 -0.2456
 4819TIP3    H114463   2.051   5.837   3.665  0.4136 -0.2297  1.0089
 4819TIP3    H214464   1.906   5.857   3.704 -0.1272  0.4665 -1.2224
 4820TIP3   OH214465   0.238   4.473   2.995  0.1712  0.5575  0.3106
 4820TIP3    H114466   0.230   4.402   3.058 -1.2456 -0.4902 -0.9707
 4820TIP3    H214467   0.150   4.512   2.992  0.3265  0.8576 -0.7014
 4821TIP3   OH214468   2.721   3.825   4.917  0.1629 -0.1759 -0.1530
 4821TIP3    H114469   2.679   3.797   4.836 -0.5095 -0.2141  0.2018
 4821TIP3    H214470   2.799   3.872   4.889 -0.8932  1.2113 -0.9004
 4822TIP3   OH214471   3.194   0.899   1.151 -0.5036  0.3462  0.0360
 4822TIP3    H114472   3.251   0.950   1.094 -1.6900 -0.0743 -1.5953
 4822TIP3    H214473   3.109   0.900   1.107 -1.3061 -0.5349  1.4873
 4823TIP3   OH214474   4.074   5.733   0.561  0.2713 -0.6843  0.0831
 4823TIP3    H114475   4.069   5.748   0.656 -0.9556 -1.2870  0.1292
 4823TIP3    H214476   3.993   5.770   0.527 -0.9477 -3.4522 -0.2850
 4824TIP3   OH214477   3.493   2.152   1.618 -0.0654 -0.0289  0.4769
 4824TIP3    H114478   3.398   2.164   1.619 -0.0820  0.1113 -0.6775
 4824TIP3    H214479   3.512   2.099   1.695 -1.0678  0.0368  0.7827
 4825TIP3   OH214480   3.402   4.154   3.634  0.0703  0.3516  0.2500
 4825TIP3    H114481   3.349   4.230   3.659 -0.0208  0.2658  0.3204
 4825TIP3    H214482   3.465   4.189   3.571  0.6640  0.6799  1.0207
 4826TIP3   OH214483   6.164   1.228   0.126 -0.1379 -0.0344  0.1803
 4826TIP3    H114484   6.084   1.211   0.077 -0.9634  2.1218  0.6743
 4826TIP3    H214485   6.229   1.253   0.060  0.3684 -2.2958 -0.2791
 4827TIP3   OH214486   3.901   4.273   2.962  0.3048 -0.3527  0.4559
 4827TIP3    H114487   3.972   4.312   2.913  1.6443 -1.6517  1.2823
 4827TIP3    H214488   3.830   4.262   2.897  0.7099  1.2412 -0.2950
 4828TIP3   OH214489   1.217   4.005   4.366  0.6623 -0.4218  0.5716
 4828TIP3    H114490   1.277   4.078   4.383 -0.6358  0.8706 -0.2090
 4828TIP3    H214491   1.274   3.928   4.364  2.3762  0.8084 -0.5881
 4829TIP3   OH214492   5.135   4.921   2.367  0.0116 -0.2765 -0.0591
 4829TIP3    H114493   5.145   4.876   2.451 -0.3665 -2.7032 -1.2151
 4829TIP3    H214494   5.208   4.890   2.314  0.1652  1.1078 -0.7041
 4830TIP3   OH214495   3.831   0.657   3.793  0.0404 -0.1879 -0.7860
 4830TIP3    H114496   3.851   0.610   3.712 -2.0164 -2.4183 -0.0990
 4830TIP3    H214497   3.879   0.609   3.861 -0.2422  0.1378 -0.3493
 4831TIP3   OH214498   1.152   5.273   0.803  0.5171  0.0463 -0.3975
 4831TIP3    H114499   1.120   5.188   0.832  2.1363 -0.4058  0.1821
 4831TIP3    H214500   1.075   5.316   0.765 -0.8563 -0.7849  1.2661
 4832TIP3   OH214501   4.341   2.280   0.982  0.0071  0.1540 -0.4167
 4832TIP3    H114502   4.298   2.198   1.007  0.8026 -0.7864 -1.9641
 4832TIP3    H214503   4.431   2.270   1.014  0.2462  0.1622 -1.0543
 4833TIP3   OH214504   3.459   5.060   0.226 -0.0719  0.6252  0.2719
 4833TIP3    H114505   3.365   5.046   0.232 -0.0201 -0.0497 -0.4254
 4833TIP3    H214506   3.474   5.140   0.277 -1.1474  1.2683 -0.3871
 4834TIP3   OH214507   3.308   3.074   2.722 -0.0961 -0.3159  0.3109
 4834TIP3    H114508   3.280   3.118   2.642  2.2247  1.5404  0.4194
 4834TIP3    H214509   3.265   2.989   2.719 -0.2824 -0.2051 -2.7836
 4835TIP3   OH214510   3.257   0.462   4.640 -0.1443 -0.6116  0.0876
 4835TIP3    H114511   3.326   0.492   4.581 -0.3918  1.0332  0.5998
 4835TIP3    H214512   3.241   0.535   4.699 -2.7895 -0.6534 -0.4223
 4836TIP3   OH214513   5.763   3.332   2.795  0.4167  0.4958 -0.4564
 4836TIP3    H114514   5.742   3.298   2.882 -0.6660 -0.5936 -1.1141
 4836TIP3    H214515   5.856   3.356   2.801  0.8324 -1.1667  0.5161
 4837TIP3   OH214516   4.892   1.275  -0.031 -0.2778 -0.2236  0.1046
 4837TIP3    H114517   4.898   1.220   0.047 -0.9505 -0.6823 -0.1613
 4837TIP3    H214518   4.862   1.360   0.001  0.3048 -0.1430  0.4528
 4838TIP3   OH214519   6.237   5.416   2.494  0.1445 -0.0059 -0.6007
 4838TIP3    H114520   6.325   5.384   2.512 -0.0337  0.6454  1.8179
 4838TIP3    H214521   6.181   5.367   2.555 -1.1203 -0.0529 -1.7453
 4839TIP3   OH214522   1.300   5.706   4.261  0.6214 -0.2610  0.4173
 4839TIP3    H114523   1.232   5.668   4.315 -0.0019  0.4980  0.1876
 4839TIP3    H214524   1.253   5.761   4.198  1.5151  2.3999  1.9040
 4840TIP3   OH214525   4.928   0.452   2.230 -0.3386  0.4995  0.0678
 4840TIP3    H114526   4.910   0.539   2.266 -0.1849  1.0493 -1.1286
 4840TIP3    H214527   4.953   0.469   2.139 -0.2553 -0.7975 -0.1647
 4841TIP3   OH214528   4.548   1.284   4.670 -0.4080 -0.2288  0.0082
 4841TIP3    H114529   4.516   1.301   4.581 -1.4392 -0.3490  0.3474
 4841TIP3    H214530   4.498   1.343   4.725  0.2772 -0.1091  0.5156
 4842TIP3   OH214531   4.007   2.566   2.177  0.3672 -0.1843  0.1259
 4842TIP3    H114532   4.090   2.596   2.215  0.8439 -0.3004 -0.7957
 4842TIP3    H214533   4.017   2.581   2.083  0.6233 -3.1316 -0.4060
 4843TIP3   OH214534   2.670   1.440   1.923  0.3321  0.9876 -0.0846
 4843TIP3    H114535   2.675   1.519   1.869 -0.9794  1.5000  0.4821
 4843TIP3    H214536   2.666   1.473   2.013  1.8202  0.1738  0.3053
 4844TIP3   OH214537   3.787   3.172   2.224 -0.1537 -0.1390  0.4885
 4844TIP3    H114538   3.738   3.251   2.245  0.6833 -0.1383  2.7321
 4844TIP3    H214539   3.749   3.105   2.282  0.8280 -0.7326  0.4576
 4845TIP3   OH214540   0.908   1.839   2.669 -0.1866 -0.2963 -0.1826
 4845TIP3    H114541   0.933   1.758   2.624  1.1498 -0.8126  1.3786
 4845TIP3    H214542   0.992   1.879   2.693 -0.8348  0.3174  1.1701
 4846TIP3   OH214543   3.974   0.372   0.832 -0.2747 -0.3299 -0.3449
 4846TIP3    H114544   4.008   0.367   0.743 -0.3633 -0.6664 -0.3601
 4846TIP3    H214545   4.033   0.317   0.884  1.3196  1.8325  0.2978
 4847TIP3   OH214546   3.196   1.020   5.012  0.2311 -0.0735  0.4563
 4847TIP3    H114547   3.229   1.100   5.053 -0.8400  0.5306  0.1760
 4847TIP3    H214548   3.152   1.050   4.933 -1.0677 -0.8292  0.8709
 4848TIP3   OH214549   1.914   2.303   3.954 -0.4375 -0.0602  0.3604
 4848TIP3    H114550   1.945   2.368   3.891 -1.2688 -0.3307 -0.3454
 4848TIP3    H214551   1.887   2.354   4.030 -0.5057  0.3750  0.0511
 4849TIP3   OH214552   0.663   2.152   2.809  0.0897  0.1807 -0.3826
 4849TIP3    H114553   0.604   2.111   2.873 -0.2744 -1.3369 -1.6259
 4849TIP3    H214554   0.742   2.097   2.811  0.0725  0.1137 -1.2257
 4850TIP3   OH214555   5.169   5.947   5.031 -0.2326 -0.5791 -0.4532
 4850TIP3    H114556   5.211   5.977   5.111 -1.6393  1.1721 -0.3145
 4850TIP3    H214557   5.151   5.854   5.046  1.8262 -0.9356  0.1899
 4851TIP3   OH214558   5.287   0.432   1.751 -0.2054 -0.3860 -0.0361
 4851TIP3    H114559   5.273   0.373   1.825  0.6948  1.8527  2.0676
 4851TIP3    H214560   5.381   0.429   1.736 -0.1702  0.3999  0.0086
 4852TIP3   OH214561   0.297   5.333   4.373  0.0103 -0.1426 -0.0937
 4852TIP3    H114562   0.207   5.330   4.405  0.0207 -1.2270 -0.1547
 4852TIP3    H214563   0.291   5.380   4.289 -0.1146  2.0300  1.0702
 4853TIP3   OH214564   1.964   4.438   1.610 -0.1721 -0.0269  0.0351
 4853TIP3    H114565   1.873   4.467   1.613 -0.4487 -0.8910  1.7657
 4853TIP3    H214566   2.002   4.470   1.692  0.5521 -1.2065  0.1919
 4854TIP3   OH214567   4.863   4.559   3.812  0.1222  0.0753 -0.0005
 4854TIP3    H114568   4.770   4.580   3.824  0.2292  1.1170 -0.8478
 4854TIP3    H214569   4.872   4.542   3.718  0.8583  0.3852  0.0081
 4855TIP3   OH214570   5.362   4.590   3.782  0.0237 -1.3266 -0.0367
 4855TIP3    H114571   5.267   4.597   3.786 -0.0465 -2.5652  1.0003
 4855TIP3    H214572   5.393   4.627   3.865  0.4605 -1.0365 -0.3177
 4856TIP3   OH214573   3.666   2.371   1.968  0.2450  0.1858  0.0759
 4856TIP3    H114574   3.666   2.462   1.938  0.8673 -0.2563 -1.3463
 4856TIP3    H214575   3.574   2.354   1.991  0.1508  1.2045  0.5002
 4857TIP3   OH214576   3.286   1.800   2.789 -0.3163  0.1376 -0.2848
 4857TIP3    H114577   3.223   1.868   2.762 -0.8192  0.4745  1.5268
 4857TIP3    H214578   3.371   1.835   2.765 -0.5555  1.5470  0.7487
 4858TIP3   OH214579   5.686   4.370   5.126 -0.7159  0.3610  0.8091
 4858TIP3    H114580   5.591   4.380   5.134 -0.8075 -0.0388  0.2488
 4858TIP3    H214581   5.713   4.444   5.071 -0.6556  0.6644  1.2432
 4859TIP3   OH214582   1.941   4.306   0.772 -0.2691  0.2387 -0.2282
 4859TIP3    H114583   1.949   4.301   0.867  1.7084  0.0864 -0.3600
 4859TIP3    H214584   2.021   4.350   0.743  0.9334 -2.8164 -2.0411
 4860TIP3   OH214585   2.542   1.385   2.803 -0.4432 -0.5791  0.1262
 4860TIP3    H114586   2.607   1.433   2.751 -0.9952 -0.8758 -0.8556
 4860TIP3    H214587   2.568   1.401   2.894  0.6928 -0.2602 -0.2352
 4861TIP3   OH214588   0.046   0.056   1.549 -0.0044  0.0390  0.1705
 4861TIP3    H114589   0.089   0.142   1.544 -0.2378  0.2730  1.6669
 4861TIP3    H214590   0.045   0.025   1.459 -1.1462  2.2236 -0.6582
 4862TIP3   OH214591   2.543   4.126   0.082 -0.2994  0.1004  0.2304
 4862TIP3    H114592   2.602   4.201   0.081 -1.7533  1.2963  0.8662
 4862TIP3    H214593   2.530   4.107   0.175 -4.6311  3.0130  0.5089
 4863TIP3   OH214594   6.008   3.066   3.615  0.5033  0.0319  0.3839
 4863TIP3    H114595   6.101   3.053   3.598  0.8755  2.4134  0.2022
 4863TIP3    H214596   5.978   3.118   3.540 -0.8152 -0.0978  0.8015
 4864TIP3   OH214597   4.918   0.983   1.949  0.7743  0.3819 -0.7891
 4864TIP3    H114598   4.860   1.023   1.884  1.1681 -1.1092 -2.1380
 4864TIP3    H214599   5.000   1.032   1.941  0.4525  0.9688 -0.5587
 4865TIP3   OH214600   4.515   5.370   4.543 -0.0642 -0.0883  0.3977
 4865TIP3    H114601   4.573   5.300   4.573  1.0408  0.4200 -0.4838
 4865TIP3    H214602   4.475   5.336   4.463  0.3946  0.2429  0.0249
 4866TIP3   OH214603   2.727   2.992   0.008  0.3219  0.4283 -0.4565
 4866TIP3    H114604   2.799   3.010   0.068  0.9465 -1.3781 -0.5902
 4866TIP3    H214605   2.649   2.992   0.063  1.0795 -3.1385  0.8733
 4867TIP3   OH214606   3.864   5.239   0.956  0.4594 -0.4203 -0.8875
 4867TIP3    H114607   3.799   5.310   0.959 -1.2184 -1.8128 -2.2020
 4867TIP3    H214608   3.821   5.166   1.001  1.1226 -1.3462 -1.7284
 4868TIP3   OH214609   5.439   5.833   3.074 -0.2774 -0.3593 -0.5715
 4868TIP3    H114610   5.492   5.753   3.065 -0.9620 -0.7510 -1.3569
 4868TIP3    H214611   5.467   5.872   3.156 -0.9553 -2.1921  0.5837
 4869TIP3   OH214612   1.574   3.835   1.899 -0.0874 -0.3315  0.1928
 4869TIP3    H114613   1.525   3.788   1.832  0.5923  2.5930 -2.6666
 4869TIP3    H214614   1.523   3.915   1.915  1.6065  0.8006  0.2594
 4870TIP3   OH214615   5.184   3.529   3.840 -0.4702 -0.0954  0.0086
 4870TIP3    H114616   5.276   3.507   3.856 -0.2791 -0.6171 -1.6263
 4870TIP3    H214617   5.135   3.468   3.895  0.1456 -1.2701 -0.7143
 4871TIP3   OH214618   2.774   3.012   0.652  0.1652 -0.2960 -0.5216
 4871TIP3    H114619   2.740   2.946   0.712  2.8360 -1.8638 -0.5882
 4871TIP3    H214620   2.775   3.093   0.703 -0.1218 -1.0104  0.6520
 4872TIP3   OH214621   0.275   0.722   1.604  0.9124 -0.4281 -0.3629
 4872TIP3    H114622   0.321   0.762   1.678 -2.9220  0.1827  1.9534
 4872TIP3    H214623   0.223   0.793   1.566 -1.8856 -1.9225  0.4035
 4873TIP3   OH214624   3.675   1.245   4.264  0.2737 -0.3935  0.4256
 4873TIP3    H114625   3.678   1.293   4.181  0.2818  0.7762  1.0847
 4873TIP3    H214626   3.755   1.269   4.309  0.1980 -0.9087  0.8473
 4874TIP3   OH214627   2.741   0.677   4.690 -0.7742  0.0278 -0.1522
 4874TIP3    H114628   2.766   0.738   4.620 -1.6637  1.7736  0.9719
 4874TIP3    H214629   2.679   0.617   4.649 -0.0218 -0.0141 -1.2531
 4875TIP3   OH214630   4.511   4.569   4.308  0.5961  0.3136 -0.6003
 4875TIP3    H114631   4.582   4.579   4.245  2.3414  0.9421  1.3609
 4875TIP3    H214632   4.441   4.626   4.274  0.6307 -0.9621 -3.0123
 4876TIP3   OH214633   4.565   3.236   1.970  0.1873 -0.3385 -0.6891
 4876TIP3    H114634   4.626   3.247   2.043  1.5578  3.1224 -2.1358
 4876TIP3    H214635   4.481   3.218   2.011  1.2785 -0.5307  1.6173
 4877TIP3   OH214636   5.000   5.593   3.582  0.2796 -0.3005  0.8094
 4877TIP3    H114637   4.962   5.558   3.501 -0.0653  1.0804  0.3367
 4877TIP3    H214638   4.948   5.554   3.652 -0.4486 -0.3041  0.2768
 4878TIP3   OH214639   2.717   3.261   4.665 -0.3241  0.2645 -0.0769
 4878TIP3    H114640   2.749   3.171   4.653  1.1994  1.0317 -2.6953
 4878TIP3    H214641   2.735   3.281   4.757  1.4147 -1.3827  0.0032
 4879TIP3   OH214642   1.559   4.005   0.793  0.6007  0.1141  0.0948
 4879TIP3    H114643   1.639   4.055   0.779 -0.4991  2.0588  0.2343
 4879TIP3    H214644   1.588   3.919   0.822  2.7344 -0.5433 -3.3330
 4880TIP3   OH214645   0.692   0.175   2.700  0.3089 -0.9868 -0.1832
 4880TIP3    H114646   0.615   0.191   2.754 -0.2399 -1.6898 -0.7368
 4880TIP3    H214647   0.765   0.172   2.762 -0.1651 -0.7518  0.3946
 4881TIP3   OH214648   4.998   0.697   3.815 -0.1335  0.6353 -0.0512
 4881TIP3    H114649   4.982   0.712   3.908 -1.1645  0.6682 -0.2251
 4881TIP3    H214650   4.966   0.608   3.800 -2.0601  1.4126 -0.8231
 4882TIP3   OH214651   2.922   5.696   4.153 -0.5120  0.1455  0.0287
 4882TIP3    H114652   2.885   5.703   4.065  0.9521 -2.7350 -0.9501
 4882TIP3    H214653   2.849   5.665   4.207 -0.7588 -0.8763 -0.8390
 4883TIP3   OH214654   2.286   5.474   3.768 -0.1493 -0.2333  0.1421
 4883TIP3    H114655   2.234   5.519   3.835 -2.2631  0.6907 -1.9633
 4883TIP3    H214656   2.259   5.382   3.774 -0.5134 -0.1120  0.4038
 4884TIP3   OH214657   3.165   0.270   0.176  0.1917 -0.2050  0.1647
 4884TIP3    H114658   3.157   0.182   0.215  1.2422 -0.9171 -1.1545
 4884TIP3    H214659   3.196   0.325   0.248  2.2236 -1.5226  0.3703
 4885TIP3   OH214660   3.272   3.997   2.412  0.0724  0.3305 -0.1182
 4885TIP3    H114661   3.234   3.926   2.361  1.2059 -2.1151  2.1749
 4885TIP3    H214662   3.218   4.001   2.491  0.2087  1.8622 -0.0774
 4886TIP3   OH214663   1.035   3.598   2.964  0.2876 -0.2060 -0.1724
 4886TIP3    H114664   0.989   3.525   2.922 -1.7789  0.8778  0.0886
 4886TIP3    H214665   1.036   3.576   3.057  1.3817 -0.7702 -0.3025
 4887TIP3   OH214666   6.308   4.106   4.810 -0.0628  0.2810 -0.0645
 4887TIP3    H114667   6.348   4.119   4.724 -1.0447  0.6928 -0.4757
 4887TIP3    H214668   6.381   4.115   4.872  0.7411 -0.4619 -0.8617
 4888TIP3   OH214669   1.157   2.235   1.734  0.2390 -0.4738  0.0594
 4888TIP3    H114670   1.106   2.306   1.695  1.5227 -0.6739 -2.1711
 4888TIP3    H214671   1.110   2.155   1.707 -0.3455 -0.5509  1.2511
 4889TIP3   OH214672   0.334   4.452   2.722  0.6426  0.4017  0.0159
 4889TIP3    H114673   0.303   4.489   2.804  1.8889  0.2385  0.5828
 4889TIP3    H214674   0.254   4.438   2.670 -0.4776 -1.7397  2.0853
 4890TIP3   OH214675   5.255   3.093   2.967 -0.2432  0.3686 -0.4195
 4890TIP3    H114676   5.163   3.100   2.991 -0.6498 -0.7847 -1.5709
 4890TIP3    H214677   5.270   2.999   2.954  0.7588  0.6584 -1.5176
 4891TIP3   OH214678   5.199   4.508   4.084  0.1106 -0.1845  0.3240
 4891TIP3    H114679   5.295   4.498   4.087  0.1601 -0.2408 -0.9217
 4891TIP3    H214680   5.166   4.419   4.101  0.3316 -0.5617 -1.1361
 4892TIP3   OH214681   0.422   1.020   2.178 -0.1935 -0.6840 -0.4394
 4892TIP3    H114682   0.373   0.960   2.122  0.0387  0.5945 -2.1018
 4892TIP3    H214683   0.355   1.078   2.215 -0.4742 -2.1696  1.5409
 4893TIP3   OH214684   2.088   2.783   1.263  0.0012  0.6547  0.4474
 4893TIP3    H114685   2.039   2.866   1.263 -1.8798 -0.4145  0.3953
 4893TIP3    H214686   2.081   2.752   1.353 -0.3888 -0.0453  0.1812
 4894TIP3   OH214687   2.174   2.597   4.101 -0.0527  0.2488 -0.3176
 4894TIP3    H114688   2.214   2.631   4.181 -0.1881 -0.4363  0.0521
 4894TIP3    H214689   2.131   2.516   4.129  1.9923 -1.3613 -1.5485
 4895TIP3   OH214690   2.363   1.260   2.073  0.4303  0.0688  0.2486
 4895TIP3    H114691   2.374   1.260   2.168  1.6216 -0.1870  0.1284
 4895TIP3    H214692   2.336   1.350   2.053 -0.4238 -0.0292  0.8705
 4896TIP3   OH214693   5.786   3.740   4.918 -0.7926 -0.4784  0.4607
 4896TIP3    H114694   5.872   3.713   4.951  0.3998  0.7432 -1.4545
 4896TIP3    H214695   5.774   3.828   4.953 -0.7202 -0.2020 -0.1982
 4897TIP3   OH214696   2.423   4.287   2.302 -0.0987 -0.0109 -0.5693
 4897TIP3    H114697   2.503   4.338   2.290  0.1349 -0.2773 -0.1780
 4897TIP3    H214698   2.427   4.220   2.233 -0.0889  0.1036 -0.6803
 4898TIP3   OH214699   2.104   2.046   4.638 -0.8956  0.0034  0.4192
 4898TIP3    H114700   2.130   2.014   4.725  0.3801  1.8122  0.7768
 4898TIP3    H214701   2.027   2.100   4.655 -1.2965 -0.5136  0.2557
 4899TIP3   OH214702   5.520   0.395   4.030 -0.0454  0.1749 -0.1349
 4899TIP3    H114703   5.462   0.338   3.980 -1.0417  1.1277 -0.0905
 4899TIP3    H214704   5.486   0.483   4.016  0.4076  0.5885  1.2095
 4900TIP3   OH214705   2.798   3.969   3.476 -0.0401  0.0534 -0.0202
 4900TIP3    H114706   2.748   3.894   3.444 -1.7734  0.8024  0.7984
 4900TIP3    H214707   2.888   3.951   3.450 -0.6127 -1.7026 -0.9249
 4901TIP3   OH214708   2.604   0.341   0.800  0.0168 -0.5223  0.4794
 4901TIP3    H114709   2.590   0.434   0.820 -0.9941 -0.9654  2.0335
 4901TIP3    H214710   2.691   0.338   0.760 -0.2389  1.1742 -0.2881
 4902TIP3   OH214711   4.834   4.905   2.177 -0.7105 -0.1385  0.6828
 4902TIP3    H114712   4.871   4.828   2.133  1.0719  1.6609 -1.1764
 4902TIP3    H214713   4.740   4.888   2.178 -0.5441 -1.5795 -1.2910
 4903TIP3   OH214714   1.792   4.546   1.374 -0.0116 -0.0699  0.5560
 4903TIP3    H114715   1.773   4.541   1.468  2.4376 -0.7944  1.0696
 4903TIP3    H214716   1.709   4.523   1.332 -1.3440  0.8858  2.4933
 4904TIP3   OH214717   3.323   4.516   0.807 -0.1353 -0.0090 -0.1015
 4904TIP3    H114718   3.333   4.445   0.871  1.3568 -0.0934 -0.4044
 4904TIP3    H214719   3.377   4.490   0.733 -1.4719  0.3132 -1.2405
 4905TIP3   OH214720   6.191   2.485   2.822 -0.6541  0.6037  0.2349
 4905TIP3    H114721   6.108   2.440   2.837 -0.6063  0.3719 -0.1873
 4905TIP3    H214722   6.219   2.513   2.909 -0.6292 -0.2755  0.5198
 4906TIP3   OH214723   3.524   3.471   1.673 -0.7642 -0.4020 -0.3703
 4906TIP3    H114724   3.491   3.422   1.748  0.2959  0.6150  0.8069
 4906TIP3    H214725   3.607   3.429   1.652 -0.6771 -0.1926 -0.4492
 4907TIP3   OH214726   1.154   0.422   4.060 -0.6019 -0.3387  0.4472
 4907TIP3    H114727   1.085   0.435   3.995  0.9365  2.1517 -0.8788
 4907TIP3    H214728   1.147   0.499   4.117  1.5029  0.4113 -0.2245
 4908TIP3   OH214729   5.879   3.773   1.741 -0.1028 -0.0417 -0.0873
 4908TIP3    H114730   5.938   3.729   1.680  0.4037  0.6852 -0.1369
 4908TIP3    H214731   5.894   3.866   1.726 -0.7682  0.1512  0.3860
 4909TIP3   OH214732   4.891   1.618   3.378  0.3101 -0.1244  0.1121
 4909TIP3    H114733   4.983   1.596   3.364  0.7553  1.0160  1.0540
 4909TIP3    H214734   4.857   1.637   3.291  1.4747  1.2702 -0.0708
 4910TIP3   OH214735   6.100   1.592   4.972 -0.0952 -0.2977 -0.3668
 4910TIP3    H114736   6.120   1.588   5.065 -0.7772  1.7739 -0.0647
 4910TIP3    H214737   6.184   1.610   4.929 -0.0299  0.4787  0.0610
 4911TIP3   OH214738   2.500   4.698   3.413  0.3788  0.3287  0.2952
 4911TIP3    H114739   2.533   4.788   3.421  1.3434 -0.1356  1.9540
 4911TIP3    H214740   2.410   4.703   3.444  0.6446  0.6131  1.0541
 4912TIP3   OH214741   4.404   4.245   3.158 -0.0597  0.1522 -0.3037
 4912TIP3    H114742   4.309   4.247   3.152 -0.0338  2.5719 -0.7235
 4912TIP3    H214743   4.423   4.251   3.251 -0.2800 -1.0634 -0.1598
 4913TIP3   OH214744   0.368   5.733   1.567 -0.5342  0.1000  0.9285
 4913TIP3    H114745   0.314   5.754   1.643 -3.9254  0.9134 -1.4541
 4913TIP3    H214746   0.390   5.818   1.529 -0.3508 -0.3249  0.0702
 4914TIP3   OH214747   1.690   3.550   2.807  0.1030 -0.3463  0.0231
 4914TIP3    H114748   1.670   3.481   2.870  0.7342  0.0806  0.7032
 4914TIP3    H214749   1.608   3.564   2.760 -1.1350  1.0807  2.4417
 4915TIP3   OH214750   2.461   1.054   1.926 -0.9675  0.5803  0.2488
 4915TIP3    H114751   2.420   1.069   1.841 -1.9689  0.0667  0.6266
 4915TIP3    H214752   2.463   1.140   1.968  2.3479  1.5096 -1.4507
 4916TIP3   OH214753   2.196   2.269   3.009 -0.4135 -0.2871  0.4608
 4916TIP3    H114754   2.159   2.247   2.923  1.1807 -0.9146 -0.1197
 4916TIP3    H214755   2.146   2.345   3.038  0.2825  1.2404 -1.9776
 4917TIP3   OH214756   2.794   3.880   0.175  0.3518  0.2785  0.1181
 4917TIP3    H114757   2.771   3.950   0.235 -2.4241  0.1910 -0.6873
 4917TIP3    H214758   2.780   3.917   0.087  1.0304 -0.5932 -0.3750
 4918TIP3   OH214759   0.899   3.498   4.138 -0.4619 -0.7836 -0.1530
 4918TIP3    H114760   0.891   3.403   4.150  0.3144 -0.8454 -0.0858
 4918TIP3    H214761   0.973   3.508   4.079 -0.7508 -0.2268 -0.4248
 4919TIP3   OH214762   5.980   3.438   1.143 -0.3758 -0.0282  0.8158
 4919TIP3    H114763   6.049   3.486   1.098 -1.1348 -0.3767 -0.7931
 4919TIP3    H214764   5.936   3.503   1.197 -0.6935  0.8948 -0.4862
 4920TIP3   OH214765   1.591   2.282   4.957  0.4094  0.0306  0.0369
 4920TIP3    H114766   1.621   2.195   4.931 -3.0097 -1.0465 -0.8935
 4920TIP3    H214767   1.627   2.341   4.891  4.3074 -0.2223  1.6841
 4921TIP3   OH214768   0.465   0.224   1.647 -0.3593  0.4008  0.0295
 4921TIP3    H114769   0.504   0.295   1.596 -1.5952  1.2988  0.3069
 4921TIP3    H214770   0.539   0.167   1.668  0.5597  1.2852 -0.7064
 4922TIP3   OH214771   4.969   1.921   4.246 -0.1632 -0.3998  0.4451
 4922TIP3    H114772   5.058   1.955   4.240  0.0522 -1.1044 -0.5744
 4922TIP3    H214773   4.915   1.998   4.262  0.3857  0.3378 -1.0855
 4923TIP3   OH214774   4.727   0.508   0.007  0.6153 -0.0261 -0.7630
 4923TIP3    H114775   4.655   0.446  -0.002  0.4213  0.2504 -1.2203
 4923TIP3    H214776   4.780   0.475   0.079  0.0333 -0.2392 -0.4314
 4924TIP3   OH214777   2.816   4.366   4.348  0.3351  0.7713 -0.2512
 4924TIP3    H114778   2.831   4.430   4.279 -1.0071  0.1830 -1.1418
 4924TIP3    H214779   2.731   4.391   4.386 -0.0005 -0.2030 -0.3290
 4925TIP3   OH214780   6.077   1.751   1.648 -0.3071 -0.1362 -0.0274
 4925TIP3    H114781   6.130   1.731   1.571 -1.1118 -0.2162 -0.5773
 4925TIP3    H214782   6.130   1.722   1.722 -0.3030 -1.8201 -0.6478
 4926TIP3   OH214783   0.851   1.614   5.127 -0.4384  0.0533 -0.1951
 4926TIP3    H114784   0.875   1.698   5.089 -1.2779  0.9588  1.1952
 4926TIP3    H214785   0.760   1.600   5.100 -0.5057 -0.0967  0.0976
 4927TIP3   OH214786   4.977   5.764   4.763 -0.2583  0.4221 -0.7192
 4927TIP3    H114787   4.891   5.767   4.720 -0.7585 -0.9675  0.1020
 4927TIP3    H214788   4.959   5.792   4.852 -0.1578 -1.1656 -0.1652
 4928TIP3   OH214789   1.815   1.836   2.414 -0.3333  0.0449  0.6247
 4928TIP3    H114790   1.726   1.800   2.417 -0.0499 -0.6428  1.6717
 4928TIP3    H214791   1.863   1.786   2.481  1.0218 -0.0869 -0.3885
 4929TIP3   OH214792   1.422   1.907   1.249  0.3792  0.6812 -0.3423
 4929TIP3    H114793   1.445   1.927   1.158 -2.2252 -0.7022 -1.4199
 4929TIP3    H214794   1.436   1.813   1.257 -2.6799  0.1204 -0.4914
 4930TIP3   OH214795   1.296   4.752   3.129 -0.0124  0.0329 -0.3534
 4930TIP3    H114796   1.209   4.789   3.147  0.1237  0.6727 -0.9621
 4930TIP3    H214797   1.280   4.660   3.109 -0.8665  0.6918 -2.9781
 4931TIP3   OH214798   3.107   5.100   4.685  0.0210 -0.1020  0.4342
 4931TIP3    H114799   3.192   5.143   4.692  0.1028 -0.3058  0.7147
 4931TIP3    H214800   3.129   5.008   4.667 -0.1533  0.2967 -2.2803
 4932TIP3   OH214801   2.429   6.017   4.976 -0.1439  0.1788 -0.2133
 4932TIP3    H114802   2.511   5.980   5.009 -0.0669 -0.0636 -0.6723
 4932TIP3    H214803   2.365   5.946   4.984  0.3057 -0.5291 -2.3259
 4933TIP3   OH214804   6.208   4.496   5.146 -0.2896  0.6993  0.3137
 4933TIP3    H114805   6.205   4.586   5.178  0.4852  1.0748 -0.6229
 4933TIP3    H214806   6.149   4.495   5.070 -0.9535  0.1973  0.8278
 4934TIP3   OH214807   0.345   3.342   4.783  0.5825  0.2174  0.4623
 4934TIP3    H114808   0.435   3.354   4.812  0.8854 -0.3005 -0.2237
 4934TIP3    H214809   0.342   3.250   4.754 -0.3612  0.0111  1.1621
 4935TIP3   OH214810   1.851   3.969   4.696  0.0060 -0.0729  0.0900
 4935TIP3    H114811   1.760   3.963   4.666  0.0825 -0.2675 -0.1082
 4935TIP3    H214812   1.867   4.063   4.706  0.0692  0.0177 -0.7745
 4936TIP3   OH214813   3.074   5.049   1.963 -0.4193 -0.4453 -0.2755
 4936TIP3    H114814   3.004   5.113   1.969  0.1021  0.1957 -0.9287
 4936TIP3    H214815   3.155   5.100   1.963 -0.0392 -0.8067 -3.7772
 4937TIP3   OH214816   4.662   4.034   5.099  0.3708  0.1340  0.3188
 4937TIP3    H114817   4.705   3.959   5.139 -2.8815 -1.4643  1.1631
 4937TIP3    H214818   4.637   4.089   5.174 -3.0699 -1.3672  0.4492
 4938TIP3   OH214819   0.022   5.437   4.967  0.7687  0.5346  0.1414
 4938TIP3    H114820   0.071   5.519   4.962  2.9143 -0.7049 -0.1138
 4938TIP3    H214821   0.036   5.395   4.882  1.8976 -1.2481  1.1498
 4939TIP3   OH214822   3.743   4.039   0.867 -0.1346 -0.2707 -0.7292
 4939TIP3    H114823   3.802   4.006   0.935  0.4705  1.5976 -0.2856
 4939TIP3    H214824   3.720   3.962   0.816  1.1628 -1.3668  0.2546
 4940TIP3   OH214825   1.557   2.558   2.247  0.1100  0.2660  0.5871
 4940TIP3    H114826   1.468   2.585   2.226 -0.1638 -1.4431 -0.6732
 4940TIP3    H214827   1.587   2.621   2.312 -1.8285  1.1722  0.6555
 4941TIP3   OH214828   5.702   4.357   2.882 -0.1178  0.0037 -0.2300
 4941TIP3    H114829   5.691   4.268   2.916 -1.3612  0.0479 -0.4599
 4941TIP3    H214830   5.694   4.413   2.959  2.5255 -0.1369  0.2176
 4942TIP3   OH214831   2.373   2.958   2.237  0.3668 -0.1631  0.2166
 4942TIP3    H114832   2.302   2.966   2.173  1.2310  0.2225 -0.7220
 4942TIP3    H214833   2.329   2.946   2.321 -0.8472  1.5723 -0.1239
 4943TIP3   OH214834   5.979   0.834   3.530 -0.3830  0.0372  0.1940
 4943TIP3    H114835   6.013   0.861   3.616  1.0697 -0.9616 -0.0349
 4943TIP3    H214836   5.896   0.791   3.550 -1.1701  1.8054  0.8573
 4944TIP3   OH214837   4.308   4.044   3.445  0.5193 -0.0925 -0.3242
 4944TIP3    H114838   4.288   3.998   3.364 -0.3470  0.5426 -0.4937
 4944TIP3    H214839   4.335   4.132   3.417  1.1286 -0.1571  0.0362
 4945TIP3   OH214840   1.766   3.065   1.561  0.2402 -0.3413  0.1830
 4945TIP3    H114841   1.769   2.972   1.583  0.5554  0.0511  1.9945
 4945TIP3    H214842   1.679   3.078   1.522 -0.7580 -0.9877  2.0637
 4946TIP3   OH214843   6.013   4.873   1.631  0.1492 -0.5236  0.1207
 4946TIP3    H114844   6.049   4.939   1.691 -0.9753  0.3643 -0.1499
 4946TIP3    H214845   6.057   4.792   1.656  1.8199  0.3685  0.2621
 4947TIP3   OH214846   6.292   4.894   2.009  0.2286  0.1163  0.8768
 4947TIP3    H114847   6.379   4.879   1.973 -0.2624 -0.5611 -0.0702
 4947TIP3    H214848   6.256   4.966   1.957  0.2540  0.4791  1.3483
 4948TIP3   OH214849   5.278   4.783   2.577 -0.3860  0.0460  0.3184
 4948TIP3    H114850   5.314   4.861   2.618 -2.0681  0.9073  0.2476
 4948TIP3    H214851   5.349   4.719   2.579  1.3387  1.8667 -0.4929
 4949TIP3   OH214852   0.246   1.476   0.744  0.2956  0.3958 -1.1052
 4949TIP3    H114853   0.180   1.528   0.790  1.1382 -1.2422  2.2656
 4949TIP3    H214854   0.304   1.541   0.704  0.7520  2.1277  2.0594
 4950TIP3   OH214855   2.754   2.960   4.622  0.0094 -0.4907  0.0770
 4950TIP3    H114856   2.824   2.958   4.688 -0.9968 -0.9877  1.1765
 4950TIP3    H214857   2.737   2.868   4.602 -1.2594 -0.4548  0.8779
 4951TIP3   OH214858   5.638   4.706   3.214  0.1624 -1.0019 -0.2095
 4951TIP3    H114859   5.720   4.756   3.224 -1.5193  2.3761 -1.6310
 4951TIP3    H214860   5.576   4.751   3.272 -1.8234 -0.4445 -2.6422
 4952TIP3   OH214861   4.050   5.047   0.467 -0.6621 -0.1307  0.0911
 4952TIP3    H114862   4.039   5.064   0.560  0.3410 -2.6988  0.7795
 4952TIP3    H214863   4.104   4.968   0.463  1.8694  1.5332 -2.7438
 4953TIP3   OH214864   3.453   2.117   2.174 -0.2078 -0.2874 -0.1874
 4953TIP3    H114865   3.451   2.159   2.260  2.9308  0.8325 -0.5621
 4953TIP3    H214866   3.413   2.181   2.115  1.8588  1.0095 -0.2598
 4954TIP3   OH214867   5.026   5.309   3.342  0.0468  0.2516 -0.1522
 4954TIP3    H114868   5.117   5.287   3.322 -0.1573 -0.9838  0.1723
 4954TIP3    H214869   4.988   5.334   3.257 -0.2423 -2.7938 -1.0439
 4955TIP3   OH214870   3.317   1.165   4.144  0.2073 -0.2322  0.0311
 4955TIP3    H114871   3.241   1.219   4.124  0.7491  0.3536 -0.4974
 4955TIP3    H214872   3.384   1.193   4.081  0.3082 -1.9639 -0.6908
 4956TIP3   OH214873   4.702   5.642   3.758  0.0525  0.7022 -0.0715
 4956TIP3    H114874   4.671   5.602   3.677  1.3975  2.0945 -1.3270
 4956TIP3    H214875   4.750   5.720   3.730  0.9912  0.9500  2.0424
 4957TIP3   OH214876   4.932   1.213   4.605 -0.0245 -0.0719  0.2159
 4957TIP3    H114877   5.021   1.249   4.604  0.4068 -1.0973 -0.3301
 4957TIP3    H214878   4.943   1.122   4.576 -0.9863 -0.8233  2.0289
 4958TIP3   OH214879   3.286   3.329   5.025  0.8111 -0.2001 -0.0846
 4958TIP3    H114880   3.280   3.309   4.932 -2.2209 -0.5258  0.0826
 4958TIP3    H214881   3.197   3.320   5.058  1.4541  1.6059  2.5300
 4959TIP3   OH214882   1.148   3.027   1.749  0.3261  0.1245  0.2759
 4959TIP3    H114883   1.110   3.046   1.663 -0.1999  2.1599  0.8850
 4959TIP3    H214884   1.241   3.014   1.732  0.0462 -0.6707 -0.7333
 4960TIP3   OH214885   5.344   3.794   3.875  0.1785  0.1780  0.2406
 4960TIP3    H114886   5.427   3.753   3.902 -1.2509 -0.8784  3.5879
 4960TIP3    H214887   5.283   3.721   3.868 -1.1380  1.1873  0.7578
 4961TIP3   OH214888   4.386   2.365   0.723  0.1812 -0.0674  0.6147
 4961TIP3    H114889   4.365   2.335   0.812  1.5274  1.0107  1.3324
 4961TIP3    H214890   4.328   2.440   0.709 -0.0397 -0.2437  0.5834
 4962TIP3   OH214891   5.676   3.578   4.460 -0.5877 -0.1421  0.0105
 4962TIP3    H114892   5.617   3.512   4.496  1.7351 -1.5683  1.5455
 4962TIP3    H214893   5.754   3.529   4.435  0.7738  1.8699  0.0504
 4963TIP3   OH214894   3.658   0.739   0.341  0.4524 -0.6105  0.5421
 4963TIP3    H114895   3.677   0.742   0.247  2.4237  1.6074  0.9044
 4963TIP3    H214896   3.695   0.657   0.371  0.1293 -1.1725 -0.5433
 4964TIP3   OH214897   1.601   1.810   0.718  0.5056 -0.0913  0.2544
 4964TIP3    H114898   1.602   1.898   0.679 -0.3848  0.8113  2.1492
 4964TIP3    H214899   1.693   1.787   0.728  0.7856 -0.3054 -2.1223
 4965TIP3   OH214900   5.339   1.399   0.269  0.3212 -0.2760  0.1567
 4965TIP3    H114901   5.312   1.339   0.199  0.5686  1.5630 -1.5985
 4965TIP3    H214902   5.275   1.470   0.266  1.6298  0.9544  0.2502
 4966TIP3   OH214903   5.775   3.752   2.828 -0.0204 -0.2716  0.1761
 4966TIP3    H114904   5.843   3.714   2.773 -0.0897 -1.6256  0.9681
 4966TIP3    H214905   5.798   3.725   2.917 -0.2308  1.3684  0.7523
 4967TIP3   OH214906   1.387   2.736   0.046 -0.3050 -0.1499  0.3125
 4967TIP3    H114907   1.314   2.732   0.109 -2.1727 -0.6289 -1.7315
 4967TIP3    H214908   1.389   2.827   0.017 -0.5329 -0.2618 -0.0731
 4968TIP3   OH214909   1.208   0.549   4.697  0.6898  0.1879  0.2399
 4968TIP3    H114910   1.270   0.487   4.658  0.2287 -0.3937  0.4134
 4968TIP3    H214911   1.199   0.619   4.631  0.9452 -0.1086 -0.1122
 4969TIP3   OH214912   3.581   3.792   4.643 -0.0549  0.0740  0.0678
 4969TIP3    H114913   3.641   3.731   4.599  2.5914  0.6420  2.5718
 4969TIP3    H214914   3.637   3.865   4.670 -2.4317  1.8894  0.3846
 4970TIP3   OH214915   5.017   5.306   4.236 -0.2821 -0.1080  0.3764
 4970TIP3    H114916   4.946   5.254   4.272  0.5030 -0.6865  1.1144
 4970TIP3    H214917   4.981   5.394   4.228 -1.1466 -0.4440  0.5294
 4971TIP3   OH214918   2.127   2.767   3.917 -0.3620 -0.1113  0.2064
 4971TIP3    H114919   2.221   2.772   3.899 -0.4853 -1.3609 -0.9455
 4971TIP3    H214920   2.120   2.703   3.988 -0.3796 -0.5831 -0.2126
 4972TIP3   OH214921   4.662   3.447   0.687  0.4711 -0.2238 -0.1559
 4972TIP3    H114922   4.732   3.410   0.741 -0.8199 -1.3066  0.8601
 4972TIP3    H214923   4.707   3.488   0.614  2.1639 -0.8142  0.5024
 4973TIP3   OH214924   0.092   5.308   3.124  0.0509 -0.4336  0.1402
 4973TIP3    H114925   0.045   5.387   3.151 -0.5321 -1.3428  1.9254
 4973TIP3    H214926   0.042   5.275   3.049 -0.2616  0.3477 -0.0123
 4974TIP3   OH214927   6.292   5.944   0.685 -0.1145  0.1969  0.4736
 4974TIP3    H114928   6.266   5.894   0.762 -0.8035 -0.7855 -0.3813
 4974TIP3    H214929   6.387   5.956   0.695  0.2756 -2.2209  0.1753
 4975TIP3   OH214930   1.025   4.646   2.874  0.0480 -0.0774 -0.4991
 4975TIP3    H114931   1.060   4.708   2.810 -1.4600  0.8421 -0.4807
 4975TIP3    H214932   1.011   4.697   2.953  0.2026 -0.7983  0.0055
 4976TIP3   OH214933   5.931   2.542   1.573  0.1305  0.3249 -0.0322
 4976TIP3    H114934   5.974   2.600   1.636  1.0800  1.2085 -1.4450
 4976TIP3    H214935   5.967   2.567   1.488  0.4244 -2.2205 -0.7297
 4977TIP3   OH214936   0.617   1.804   4.755  0.4545 -0.7685  0.2202
 4977TIP3    H114937   0.558   1.765   4.690  1.7637 -0.2976 -1.2967
 4977TIP3    H214938   0.558   1.837   4.823 -1.2369  0.9823 -1.9175
 4978TIP3   OH214939   2.936   4.564   3.222 -0.2927  0.9521 -0.0787
 4978TIP3    H114940   2.903   4.552   3.311  1.3210 -1.9630  0.2600
 4978TIP3    H214941   2.983   4.482   3.203  0.5434  2.0192 -3.1215
 4979TIP3   OH214942   4.844   2.991   2.817 -0.5268 -0.0774 -0.2223
 4979TIP3    H114943   4.749   2.991   2.827 -0.6059  0.1981 -0.8957
 4979TIP3    H214944   4.868   3.084   2.817 -0.2440 -0.1482  0.0630
 4980TIP3   OH214945   2.235   3.905   3.206  0.1516  0.3411 -0.0735
 4980TIP3    H114946   2.173   3.837   3.233 -2.5633  2.5708 -0.1987
 4980TIP3    H214947   2.300   3.907   3.276 -0.2955 -1.5956  0.4649
 4981TIP3   OH214948   1.975   0.051   4.588 -0.1603 -0.3375  0.5838
 4981TIP3    H114949   2.044   0.110   4.617 -1.3833  0.7569  1.3485
 4981TIP3    H214950   1.953   0.001   4.666 -1.7827  0.9136  0.9677
 4982TIP3   OH214951   0.035   0.591   1.682  0.4328 -0.0944 -0.1424
 4982TIP3    H114952  -0.034   0.652   1.708  1.0362  1.0718 -1.1647
 4982TIP3    H214953   0.105   0.647   1.649  0.9548 -1.3537 -1.2635
 4983TIP3   OH214954   5.835   0.377   4.822  0.2703 -0.4148  0.1915
 4983TIP3    H114955   5.826   0.467   4.854  0.0059 -1.0642  2.0687
 4983TIP3    H214956   5.765   0.368   4.757  1.0382  1.0646 -0.9045
 4984TIP3   OH214957   3.304   3.129   4.334  0.1962 -0.0864 -0.2606
 4984TIP3    H114958   3.279   3.206   4.386 -2.6283 -0.6323 -0.6483
 4984TIP3    H214959   3.307   3.058   4.398  0.0429 -0.1571 -0.3329
 4985TIP3   OH214960   4.442   4.494   2.326 -0.1977 -0.5342 -0.2492
 4985TIP3    H114961   4.417   4.560   2.391 -1.7160 -0.3476 -0.9909
 4985TIP3    H214962   4.428   4.410   2.371 -0.4017 -0.3935 -0.0453
 4986TIP3   OH214963   4.247   3.028   1.008  0.4002  0.0608 -0.4074
 4986TIP3    H114964   4.297   2.968   0.954  0.8439  0.3337 -0.3042
 4986TIP3    H214965   4.308   3.099   1.028 -0.8232  1.9434 -2.7731
 4987TIP3   OH214966   2.963   4.433   3.811  0.4582  0.2213 -0.0233
 4987TIP3    H114967   2.881   4.444   3.763  0.8149  0.3224 -0.6185
 4987TIP3    H214968   2.939   4.381   3.887 -0.1788  0.3389 -0.1392
 4988TIP3   OH214969   3.270   0.883   0.797 -0.5148 -0.2353  0.7288
 4988TIP3    H114970   3.357   0.913   0.822  0.2812 -2.5555  0.8739
 4988TIP3    H214971   3.233   0.844   0.876 -1.5623  0.3808  0.5737
 4989TIP3   OH214972   4.508   3.217   4.671 -0.5515  0.0131 -0.3234
 4989TIP3    H114973   4.540   3.286   4.728 -3.2775  0.9450  0.2147
 4989TIP3    H214974   4.458   3.159   4.728  0.3066 -1.5136 -1.0605
 4990TIP3   OH214975   4.256   1.045   4.143 -0.8787  0.2255  0.4221
 4990TIP3    H114976   4.188   0.988   4.179  0.8840 -2.8330 -0.7906
 4990TIP3    H214977   4.329   1.038   4.204 -0.1453  0.0777 -0.4490
 4991TIP3   OH214978   5.237   4.035   2.543 -0.1575 -0.4857 -0.1936
 4991TIP3    H114979   5.239   3.942   2.564 -0.1112 -0.8399 -1.6072
 4991TIP3    H214980   5.266   4.039   2.451  0.7246  1.0059  0.1147
 4992TIP3   OH214981   5.903   1.076   3.279 -0.0492  0.1041  0.3569
 4992TIP3    H114982   5.978   1.017   3.287  0.9572  1.3564  0.5760
 4992TIP3    H214983   5.832   1.032   3.324  0.8065 -0.7237  0.9275
 4993TIP3   OH214984   0.125   2.092   3.653  0.8028  0.0573  0.2716
 4993TIP3    H114985   0.100   2.168   3.704 -0.5971 -0.4180  0.3278
 4993TIP3    H214986   0.051   2.031   3.661  2.1426 -1.6036  0.7958
 4994TIP3   OH214987   5.476   4.691   0.632 -0.3360  0.1982  0.3059
 4994TIP3    H114988   5.416   4.653   0.569 -0.2557 -1.2951  1.0705
 4994TIP3    H214989   5.562   4.659   0.606 -0.3895 -1.1104  1.5855
 4995TIP3   OH214990   2.714   2.404   3.176  0.3839  0.2612  0.0278
 4995TIP3    H114991   2.675   2.350   3.107  1.5200 -1.4935  0.6883
 4995TIP3    H214992   2.755   2.477   3.129 -1.2992  0.6848 -0.8737
 4996TIP3   OH214993   3.778   3.631   2.866 -0.1715 -0.7134  0.0144
 4996TIP3    H114994   3.785   3.672   2.779 -0.6230 -1.0942 -0.2095
 4996TIP3    H214995   3.684   3.612   2.875 -0.1813 -0.3491  0.7400
 4997TIP3   OH214996   1.198   4.500   3.087 -0.0304 -0.1532 -0.1474
 4997TIP3    H114997   1.132   4.463   3.146  0.7368 -0.1180  0.7501
 4997TIP3    H214998   1.176   4.464   3.001 -0.2101 -1.4690  0.4379
 4998TIP3   OH214999   2.916   4.666   0.669 -0.1995 -0.0143  0.4454
 4998TIP3    H115000   2.871   4.596   0.716 -0.1417 -0.0749  0.4118
 4998TIP3    H215001   2.965   4.714   0.736 -1.3573  0.8676  0.6807
 4999TIP3   OH215002   2.409   0.348   0.177  0.1406 -0.1977  0.1018
 4999TIP3    H115003   2.432   0.255   0.168  0.5945  0.0578 -1.7782
 4999TIP3    H215004   2.490   0.389   0.209  1.0778  0.0459 -2.4183
 5000TIP3   OH215005   0.502   3.043   3.612 -0.0904  0.0816 -0.0275
 5000TIP3    H115006   0.567   3.065   3.545 -0.6177  1.3475 -0.1643
 5000TIP3    H215007   0.545   3.065   3.695  0.5897 -1.5550  0.0844
 5001TIP3   OH215008   0.540   3.710   3.058 -0.7386  0.2188 -0.0237
 5001TIP3    H115009   0.584   3.768   2.996 -1.2952  2.6688  1.6720
 5001TIP3    H215010   0.453   3.696   3.020 -1.0697  1.6748  0.1064
 5002TIP3   OH215011   2.035   5.081   1.295  0.0737 -0.3073  0.1599
 5002TIP3    H115012   2.106   5.034   1.252  0.1568 -0.5846  0.5967
 5002TIP3    H215013   2.029   5.041   1.382  1.2997  1.6401  1.2069
 5003TIP3   OH215014   0.529   5.595   2.969 -0.0747  0.0436 -0.4000
 5003TIP3    H115015   0.572   5.597   3.055  0.1968  2.0346 -0.5143
 5003TIP3    H215016   0.437   5.579   2.988 -0.0017  0.3932  0.2812
 5004TIP3   OH215017   1.641   3.896   1.507  0.0456  0.0797  0.7143
 5004TIP3    H115018   1.691   3.960   1.557 -0.2612  0.8295  0.0745
 5004TIP3    H215019   1.549   3.918   1.523 -0.0730  1.0348 -1.0057
 5005TIP3   OH215020   0.671   2.478   0.368 -0.2047 -0.6412  0.0548
 5005TIP3    H115021   0.685   2.455   0.460  2.0760  1.0201  0.1980
 5005TIP3    H215022   0.696   2.400   0.319  0.9385 -0.7276  0.7545
 5006TIP3   OH215023   5.871   3.204   3.801  0.3658 -0.2798  0.1901
 5006TIP3    H115024   5.955   3.231   3.837  0.3358  0.6544 -0.4142
 5006TIP3    H215025   5.893   3.154   3.723  0.3793 -0.9350  0.6027
 5007TIP3   OH215026   4.356   2.181   4.068  0.1158 -0.0438 -0.2026
 5007TIP3    H115027   4.425   2.243   4.047  0.1539  0.4278  1.2678
 5007TIP3    H215028   4.318   2.212   4.150  0.3467 -2.1298  0.7609
 5008TIP3   OH215029   2.870   0.595   2.785 -0.0813  0.2440 -0.2280
 5008TIP3    H115030   2.938   0.651   2.824 -0.3829  0.0483  0.6157
 5008TIP3    H215031   2.849   0.532   2.854 -0.2697 -0.4524 -0.9092
 5009TIP3   OH215032   3.942   3.358   0.841 -0.5980  0.6572  0.3813
 5009TIP3    H115033   3.960   3.272   0.880  0.3278  0.6971  0.0704
 5009TIP3    H215034   4.016   3.412   0.868 -0.1987  0.8284 -0.9889
 5010TIP3   OH215035   0.468   4.499   3.753 -0.1842  0.6230  0.8047
 5010TIP3    H115036   0.451   4.406   3.744 -1.4554  0.9943 -1.1624
 5010TIP3    H215037   0.529   4.520   3.682 -1.5550  1.6417 -0.1215
 5011TIP3   OH215038   2.328   4.953   4.889 -0.2953  0.3470  0.1816
 5011TIP3    H115039   2.254   4.974   4.831  0.5147  1.3186 -0.5274
 5011TIP3    H215040   2.323   5.018   4.959 -1.6847 -1.2414  1.6678
 5012TIP3   OH215041   2.822   3.241   0.794  0.4634  0.0327 -0.3622
 5012TIP3    H115042   2.778   3.246   0.879  1.6949  0.4233  0.2910
 5012TIP3    H215043   2.765   3.290   0.734 -1.6474 -2.2689 -0.3698
 5013TIP3   OH215044   2.359   5.773   2.800  0.2270 -0.5596  0.5560
 5013TIP3    H115045   2.276   5.732   2.780  0.2911 -1.0359  1.2305
 5013TIP3    H215046   2.411   5.704   2.842  0.4679  0.0937  1.3763
 5014TIP3   OH215047   4.926   2.098   3.999  0.0710 -0.2732 -0.2713
 5014TIP3    H115048   5.010   2.131   3.966 -0.4345 -0.5397 -1.9150
 5014TIP3    H215049   4.871   2.176   4.006  0.3600 -0.1280  0.6130
 5015TIP3   OH215050   0.120   5.620   0.564 -0.0172  0.5645  0.2499
 5015TIP3    H115051   0.183   5.691   0.549  0.3151  0.3153  0.4307
 5015TIP3    H215052   0.129   5.563   0.487  0.2818  0.3102  0.4701
 5016TIP3   OH215053   5.253   5.200   1.196 -0.8109  0.0799  0.2807
 5016TIP3    H115054   5.162   5.197   1.225 -0.1914  0.3650  2.5253
 5016TIP3    H215055   5.283   5.109   1.202 -0.3088  0.3171  2.0692
 5017TIP3   OH215056   0.042   3.164   0.308  0.4494  0.2918 -0.6292
 5017TIP3    H115057   0.083   3.082   0.280  0.7793  0.9253 -2.0891
 5017TIP3    H215058   0.115   3.220   0.335  0.2559  0.2626 -0.0240
 5018TIP3   OH215059   2.355   4.249   4.965 -0.4294 -0.1147  0.1463
 5018TIP3    H115060   2.384   4.322   4.911  0.0065 -1.7485 -1.9780
 5018TIP3    H215061   2.424   4.183   4.955 -0.6502 -0.7378  2.2442
 5019TIP3   OH215062   4.873   0.562   3.184  0.0593 -0.3445  0.1137
 5019TIP3    H115063   4.888   0.612   3.104  1.9699  1.1644  1.3093
 5019TIP3    H215064   4.936   0.490   3.179 -1.2971 -1.5207 -0.6731
 5020TIP3   OH215065   2.928   0.354   3.391 -1.0051 -1.1614 -0.0551
 5020TIP3    H115066   2.928   0.275   3.338 -0.4497 -0.7488 -0.6817
 5020TIP3    H215067   2.879   0.330   3.470  1.0280 -2.8473  0.8072
 5021TIP3   OH215068   2.101   5.029   2.540 -0.5075 -0.6091 -0.3307
 5021TIP3    H115069   2.144   5.073   2.613  2.6595 -1.7251 -1.3143
 5021TIP3    H215070   2.049   5.096   2.498  0.7519  1.0815  0.6758
 5022TIP3   OH215071   5.768   0.462   4.284  0.3532  0.1178 -0.1738
 5022TIP3    H115072   5.673   0.467   4.297  0.3850 -2.0025  1.4659
 5022TIP3    H215073   5.778   0.400   4.212  0.5172  2.2260 -2.0834
 5023TIP3   OH215074   4.115   2.256   3.260  0.1409 -0.4145 -0.1374
 5023TIP3    H115075   4.108   2.164   3.233  0.3392 -1.2466  2.3895
 5023TIP3    H215076   4.034   2.273   3.307  0.4897  0.4595  0.1576
 5024TIP3   OH215077   0.733   3.211   1.390 -0.0634 -0.4495  0.1648
 5024TIP3    H115078   0.760   3.302   1.402 -1.8938  0.1134  0.2961
 5024TIP3    H215079   0.745   3.195   1.296  1.7999 -0.6262  0.4007
 5025TIP3   OH215080   4.195   1.469   3.168 -0.2195 -0.4088  0.4917
 5025TIP3    H115081   4.185   1.375   3.153  0.2603 -0.3816 -0.0328
 5025TIP3    H215082   4.234   1.475   3.255  1.5551 -0.7960 -0.2277
 5026TIP3   OH215083   4.869   3.299   0.847 -0.1089  0.9588 -0.6795
 5026TIP3    H115084   4.948   3.273   0.894 -0.2301  1.3461 -0.2514
 5026TIP3    H215085   4.849   3.225   0.790 -1.2870 -0.5795  1.5747
 5027TIP3   OH215086   1.946   2.799   2.050  0.0404  0.3831  0.0766
 5027TIP3    H115087   1.950   2.848   2.132 -1.1702  1.2865 -0.3671
 5027TIP3    H215088   1.883   2.729   2.066  1.0071 -0.4327  0.3943
 5028TIP3   OH215089   2.857   0.300   0.464  0.1050 -0.1036  0.2741
 5028TIP3    H115090   2.881   0.249   0.387  0.1708 -2.4659  1.7681
 5028TIP3    H215091   2.775   0.261   0.495  0.1312  0.7158  1.4626
 5029TIP3   OH215092   5.279   4.765   4.900  0.0458 -0.2125  0.8377
 5029TIP3    H115093   5.284   4.831   4.831 -1.8242  1.2119  1.9684
 5029TIP3    H215094   5.200   4.716   4.882  0.5769 -1.1207  0.9158
 5030TIP3   OH215095   1.506   5.804   0.971 -0.8695 -0.6844 -0.6252
 5030TIP3    H115096   1.542   5.772   1.053 -0.2471  0.0209 -0.6066
 5030TIP3    H215097   1.457   5.730   0.935 -1.3324 -0.9221  0.4805
 5031TIP3   OH215098   0.445   4.140   4.708 -0.2216 -0.4223 -0.2149
 5031TIP3    H115099   0.390   4.217   4.694 -2.5890 -1.8275  0.6465
 5031TIP3    H215100   0.394   4.068   4.669  1.2957 -1.7312  0.1316
 5032TIP3   OH215101   2.029   3.527   2.320 -0.4951  0.3823 -0.1937
 5032TIP3    H115102   2.124   3.530   2.315 -0.4084  1.0466  1.4687
 5032TIP3    H215103   2.009   3.437   2.345 -0.1646  0.7694  1.5464
 5033TIP3   OH215104   4.466   1.688   2.485 -0.5567  0.4012 -0.2194
 5033TIP3    H115105   4.388   1.637   2.461 -1.2962  1.0622  0.7054
 5033TIP3    H215106   4.482   1.666   2.577  0.1723  0.5127 -0.3124
 5034TIP3   OH215107   5.324   5.066   2.617 -0.3567 -0.2945 -0.1057
 5034TIP3    H115108   5.364   5.049   2.531 -1.1155  0.2673 -0.5812
 5034TIP3    H215109   5.398   5.083   2.675  0.2622 -2.0460 -0.3112
 5035TIP3   OH215110   2.386   5.278   0.320 -0.1120  0.9343  0.5273
 5035TIP3    H115111   2.366   5.223   0.396  1.3574 -0.9935 -0.4086
 5035TIP3    H215112   2.300   5.305   0.287 -0.7932  1.8000  2.8058
 5036TIP3   OH215113   0.737   4.569   1.107  0.5088  0.1174  0.1292
 5036TIP3    H115114   0.648   4.549   1.136 -0.0207 -1.1055 -2.0357
 5036TIP3    H215115   0.729   4.651   1.058  1.1471  1.4884  2.2282
 5037TIP3   OH215116   1.318   1.562   0.594 -0.4844 -0.4809 -0.1348
 5037TIP3    H115117   1.408   1.587   0.579 -0.6224 -0.4249 -0.8858
 5037TIP3    H215118   1.281   1.634   0.645 -0.5517  0.2807 -1.2412
 5038TIP3   OH215119   1.350   0.879   0.838  0.1704  0.1005 -0.4434
 5038TIP3    H115120   1.289   0.818   0.879 -0.8908  1.5453  0.2569
 5038TIP3    H215121   1.302   0.913   0.763 -0.5213  2.2569  0.8716
 5039TIP3   OH215122   5.115   5.067   0.504 -0.2657  0.0561  0.4717
 5039TIP3    H115123   5.041   5.116   0.469  1.1311  2.1476  0.2912
 5039TIP3    H215124   5.119   4.988   0.450 -0.8986  1.0677 -1.1312
 5040TIP3   OH215125   4.747   4.299   2.142  0.1353 -0.0694  1.0587
 5040TIP3    H115126   4.762   4.369   2.206  1.4902  1.5262 -0.8739
 5040TIP3    H215127   4.673   4.330   2.090  1.2777  0.4188 -0.3534
 5041TIP3   OH215128   1.061   2.010   4.672 -0.5188  0.0383 -0.3349
 5041TIP3    H115129   0.986   1.956   4.698 -1.5928  1.3393 -0.5999
 5041TIP3    H215130   1.041   2.096   4.708 -0.0125  0.8549 -1.9257
 5042TIP3   OH215131   1.104   5.641   4.930  0.0065  0.0990  0.5369
 5042TIP3    H115132   1.062   5.624   5.015 -2.5426  1.7812 -0.2660
 5042TIP3    H215133   1.083   5.564   4.877  0.4529 -0.3501  0.9945
 5043TIP3   OH215134   0.443   1.715   4.577 -0.1698  0.1972 -0.0017
 5043TIP3    H115135   0.475   1.638   4.529  2.0495  1.4868 -0.7531
 5043TIP3    H215136   0.440   1.784   4.511  1.4376  1.6294  1.3275
 5044TIP3   OH215137   3.076   4.437   0.428 -0.2061 -0.7016 -0.3080
 5044TIP3    H115138   3.099   4.518   0.473 -0.3273 -0.6135 -0.4045
 5044TIP3    H215139   3.070   4.371   0.498  0.2453 -0.7077 -0.2720
 5045TIP3   OH215140   5.909   3.441   0.558 -0.2124 -0.2060 -0.2162
 5045TIP3    H115141   5.815   3.450   0.569 -0.4459 -1.6961 -0.7119
 5045TIP3    H215142   5.928   3.482   0.473 -0.2782  0.7925  0.2453
 5046TIP3   OH215143   1.428   3.655   1.714 -0.1535  0.6265  0.6250
 5046TIP3    H115144   1.427   3.603   1.634  1.0048  0.5127  0.6594
 5046TIP3    H215145   1.380   3.602   1.778  0.7647 -0.2982  0.5777
 5047TIP3   OH215146   3.174   3.224   2.542  0.7835 -0.4110  0.3527
 5047TIP3    H115147   3.222   3.166   2.482 -0.4865 -0.0776 -1.0311
 5047TIP3    H215148   3.086   3.188   2.545  0.6868 -0.1164  1.6501
 5048TIP3   OH215149   1.256   0.349   2.619  1.1963  0.0930  0.1644
 5048TIP3    H115150   1.262   0.359   2.524 -2.5010  1.2861 -0.1398
 5048TIP3    H215151   1.250   0.439   2.652 -0.5531 -0.3229  1.1193
 5049TIP3   OH215152   2.411   0.340   3.782  0.5915  0.2116 -0.3329
 5049TIP3    H115153   2.410   0.300   3.695 -1.3609 -0.3829 -0.0831
 5049TIP3    H215154   2.352   0.415   3.775 -0.6253 -0.5967  0.7756
 5050TIP3   OH215155   1.201   0.050   0.479  0.0595  0.0913  0.1556
 5050TIP3    H115156   1.279   0.056   0.534  0.2635 -1.3321  0.0612
 5050TIP3    H215157   1.133   0.097   0.528  0.9641  1.3893  0.2080
 5051TIP3   OH215158   0.893   5.325   3.208  0.7281 -0.5252 -0.4950
 5051TIP3    H115159   0.882   5.230   3.206 -1.9266 -0.2870 -0.7625
 5051TIP3    H215160   0.988   5.338   3.206  1.1734 -3.1535 -0.2013
 5052TIP3   OH215161   5.924   3.063   2.909 -0.4180 -0.6586 -0.3402
 5052TIP3    H115162   5.999   3.120   2.928  1.0281 -3.0499  1.7006
 5052TIP3    H215163   5.854   3.098   2.964 -0.4011  0.7045 -1.1320
 5053TIP3   OH215164   5.757   5.653   1.035  0.6473 -0.4750 -0.0044
 5053TIP3    H115165   5.759   5.626   0.943 -0.6355  1.5519 -0.6925
 5053TIP3    H215166   5.663   5.660   1.056  0.9198  1.0337  0.8240
 5054TIP3   OH215167   1.512   5.830   4.925  0.3385 -0.2148 -0.1626
 5054TIP3    H115168   1.554   5.755   4.968 -1.0567  0.5163  2.7374
 5054TIP3    H215169   1.422   5.828   4.956  0.1331  2.3636 -0.3973
 5055TIP3   OH215170   3.286   4.396   3.118  0.1436  1.0417 -0.6209
 5055TIP3    H115171   3.323   4.326   3.170  1.9402  3.2089  1.2241
 5055TIP3    H215172   3.331   4.391   3.034 -0.0659 -0.2248 -0.6712
 5056TIP3   OH215173   3.197   5.007   0.304 -0.0913  0.1901 -0.0087
 5056TIP3    H115174   3.113   4.997   0.260 -0.2575 -0.5389  0.4461
 5056TIP3    H215175   3.196   4.939   0.372  0.3585  0.9600  0.7903
 5057TIP3   OH215176   5.258   1.941   3.980  0.0459  0.6714 -0.4264
 5057TIP3    H115177   5.231   1.859   3.940  0.0170  0.4619  0.0143
 5057TIP3    H215178   5.331   1.971   3.927  1.6440 -0.8659  0.8046
 5058TIP3   OH215179   1.630   5.888   2.958 -0.2768 -0.2207 -0.5873
 5058TIP3    H115180   1.652   5.794   2.956 -0.0935 -0.1673 -1.3933
 5058TIP3    H215181   1.715   5.931   2.970 -0.3448 -0.1487 -0.3601
 5059TIP3   OH215182   5.179   3.306   2.160 -0.0242  0.2136 -0.0372
 5059TIP3    H115183   5.258   3.279   2.206 -0.3896  0.8659  0.9979
 5059TIP3    H215184   5.211   3.338   2.075  0.6272 -1.1428 -0.3291
 5060TIP3   OH215185   5.988   2.806   4.405  0.9139  0.2642  0.2484
 5060TIP3    H115186   6.018   2.845   4.323 -1.0755 -0.7434 -1.0605
 5060TIP3    H215187   5.960   2.718   4.381 -2.3121  0.8314  1.3657
 5061TIP3   OH215188   6.147   5.377   0.375 -0.0004  0.2922  0.0924
 5061TIP3    H115189   6.158   5.349   0.466 -3.6871  1.3719  1.0022
 5061TIP3    H215190   6.170   5.299   0.324 -2.7069 -2.1515  2.2080
 5062TIP3   OH215191   5.795   4.700   4.085  0.0624  0.7257  0.4492
 5062TIP3    H115192   5.741   4.687   4.163  3.3140 -2.3489  2.5636
 5062TIP3    H215193   5.764   4.633   4.024  0.5705 -0.1945  1.1604
 5063TIP3   OH215194   3.960   1.369   0.656 -0.1356  0.3512  0.1733
 5063TIP3    H115195   3.968   1.276   0.637 -1.4195 -0.2018  2.0674
 5063TIP3    H215196   3.896   1.401   0.593  0.8155  0.1579 -0.9416
 5064TIP3   OH215197   5.705   4.367   1.762  0.2640  0.7745  0.0507
 5064TIP3    H115198   5.644   4.362   1.688 -0.7174 -2.1124  0.8874
 5064TIP3    H215199   5.690   4.453   1.801 -2.9784  0.4062 -0.1104
 5065TIP3   OH215200   6.019   3.182   1.396  0.2027  0.4950  0.4126
 5065TIP3    H115201   6.100   3.193   1.446  0.6928  0.4472 -0.3485
 5065TIP3    H215202   6.047   3.187   1.304 -0.5131 -0.5309  0.1266
 5066TIP3   OH215203   1.350   2.004   2.901 -0.2810  0.0734  0.3031
 5066TIP3    H115204   1.286   1.949   2.946 -0.6096 -1.0066 -1.4148
 5066TIP3    H215205   1.402   1.942   2.849  1.0045  1.1289  0.2801
 5067TIP3   OH215206   1.926   4.502   2.283 -0.5405  1.3029 -0.0130
 5067TIP3    H115207   1.952   4.547   2.203 -0.0889 -0.0511 -0.6580
 5067TIP3    H215208   1.867   4.433   2.253  0.5593  0.0299  0.6569
 5068TIP3   OH215209   5.155   0.776   1.853 -0.2481 -0.4434  0.0506
 5068TIP3    H115210   5.181   0.863   1.824 -3.2486  1.0003  1.3198
 5068TIP3    H215211   5.235   0.737   1.888  1.9298  0.4225 -3.5028
 5069TIP3   OH215212   1.259   3.949   4.812 -0.2570 -0.3919 -0.5287
 5069TIP3    H115213   1.298   4.031   4.782  0.4207 -0.0290  1.1783
 5069TIP3    H215214   1.334   3.893   4.832 -0.6997 -2.0256 -3.0329
 5070TIP3   OH215215   1.748   2.205   4.490 -0.1252 -0.4519 -0.2544
 5070TIP3    H115216   1.681   2.139   4.476 -2.5583  1.5581  1.0756
 5070TIP3    H215217   1.723   2.278   4.433  1.7026 -0.0990 -0.6902
 5071TIP3   OH215218   5.314   0.314   0.988 -0.4624  0.3303  0.2483
 5071TIP3    H115219   5.364   0.238   1.015 -0.5267 -0.0378 -0.6405
 5071TIP3    H215220   5.350   0.386   1.040 -1.1216 -0.4738  1.8822
 5072TIP3   OH215221   2.159   1.736   4.911 -0.1894 -0.1354  0.5448
 5072TIP3    H115222   2.198   1.724   4.998  0.3159 -0.2212  0.3091
 5072TIP3    H215223   2.191   1.662   4.860 -1.0734 -0.4859  0.4865
 5073TIP3   OH215224   2.182   1.381   4.247 -0.2099 -0.2229  0.3435
 5073TIP3    H115225   2.257   1.333   4.211  0.3471 -0.5992  1.9451
 5073TIP3    H215226   2.107   1.324   4.230 -0.3526  0.5442 -2.0772
 5074TIP3   OH215227   0.902   2.388   0.556 -0.1619 -0.1223 -0.3783
 5074TIP3    H115228   0.962   2.328   0.602  0.1681  0.7124  0.2978
 5074TIP3    H215229   0.954   2.421   0.482 -0.8592 -1.8625 -1.7124
 5075TIP3   OH215230   5.673   0.871   1.033 -0.7608  0.5463 -0.5943
 5075TIP3    H115231   5.602   0.807   1.028 -0.7661  0.5262 -0.2623
 5075TIP3    H215232   5.644   0.944   0.977 -0.7828  0.2902 -0.9223
 5076TIP3   OH215233   5.749   5.718   2.503 -0.8872  0.2235 -0.1141
 5076TIP3    H115234   5.657   5.736   2.482 -0.5302  3.2162  0.5059
 5076TIP3    H215235   5.791   5.804   2.505  2.0635 -1.0688 -0.7687
 5077TIP3   OH215236   5.797   0.625   1.107  0.2940  0.1565  0.2186
 5077TIP3    H115237   5.800   0.587   1.020  3.0103  0.9247 -0.1269
 5077TIP3    H215238   5.759   0.712   1.094 -0.8978 -0.3638  0.1197
 5078TIP3   OH215239   5.005   0.703   0.599  0.4232 -0.2690  0.0048
 5078TIP3    H115240   4.978   0.795   0.593  1.9413  0.2811  0.9765
 5078TIP3    H215241   5.071   0.692   0.531 -0.7256 -1.0553 -1.0285
 5079TIP3   OH215242   2.869   0.983   3.499  0.2170  0.6310 -0.0279
 5079TIP3    H115243   2.921   0.926   3.556 -0.0278  0.8751  0.4421
 5079TIP3    H215244   2.913   0.977   3.414  1.7024  1.7163  0.6149
 5080TIP3   OH215245   1.901   2.461   2.283 -0.1047 -0.2116 -0.6192
 5080TIP3    H115246   1.841   2.388   2.268 -0.1308 -0.4451  0.5258
 5080TIP3    H215247   1.888   2.519   2.209 -3.5609  0.9690  0.7364
 5081TIP3   OH215248   5.218   5.427   1.760  0.3108  0.6575  0.7007
 5081TIP3    H115249   5.289   5.405   1.699 -0.4887  1.5325 -0.5800
 5081TIP3    H215250   5.155   5.356   1.749  0.5495  0.3749  1.1402
 5082TIP3   OH215251   1.044   2.048   3.590 -0.5295 -0.6581  0.5548
 5082TIP3    H115252   1.053   2.143   3.580 -1.3955 -0.6229  0.0001
 5082TIP3    H215253   1.134   2.015   3.591 -0.1499  0.2943  2.1875
 5083TIP3   OH215254   2.853   2.673   1.727 -0.5513 -0.3854  0.1312
 5083TIP3    H115255   2.759   2.653   1.727 -0.5562 -0.4239 -0.8351
 5083TIP3    H215256   2.895   2.589   1.705 -0.2919 -0.3544  0.4994
 5084TIP3   OH215257   1.664   5.120   4.795 -0.0257  0.3154 -0.0365
 5084TIP3    H115258   1.719   5.197   4.780  0.6596  0.2972  2.0825
 5084TIP3    H215259   1.658   5.078   4.709  0.2191  2.2932 -1.0802
 5085TIP3   OH215260   4.372   1.404   3.389 -0.6739 -0.8544 -0.0124
 5085TIP3    H115261   4.455   1.445   3.414  0.6650 -1.5769 -2.9181
 5085TIP3    H215262   4.388   1.310   3.401 -1.9858 -0.9049  1.7387
 5086TIP3   OH215263   3.802   3.971   4.685 -0.0572  0.0590  0.0683
 5086TIP3    H115264   3.843   4.046   4.727  1.7604 -1.1862  0.6624
 5086TIP3    H215265   3.853   3.958   4.605 -0.7452 -0.1774 -0.3363
 5087TIP3   OH215266   4.333   0.758   2.465  0.5247 -0.0072  0.1116
 5087TIP3    H115267   4.352   0.692   2.398 -0.0310  0.4490 -0.5099
 5087TIP3    H215268   4.267   0.718   2.521  0.4553 -0.1114 -0.0457
 5088TIP3   OH215269   2.478   5.174   3.760  0.1034 -0.4325 -0.6733
 5088TIP3    H115270   2.563   5.130   3.751  0.1245 -0.3688 -0.7968
 5088TIP3    H215271   2.493   5.261   3.723  0.2435 -0.0920  0.1659
 5089TIP3   OH215272   0.819   2.295   1.151  0.1693 -0.1595  0.1197
 5089TIP3    H115273   0.806   2.274   1.244 -2.6698 -1.2138 -0.4156
 5089TIP3    H215274   0.788   2.217   1.105  0.3223  0.8382 -1.7431
 5090TIP3   OH215275   0.636   0.832   3.283 -0.4121  0.4805  0.0087
 5090TIP3    H115276   0.623   0.749   3.237  1.6560  0.9181 -1.5326
 5090TIP3    H215277   0.596   0.898   3.226  0.6715  0.8457 -0.3584
 5091TIP3   OH215278   4.203   5.002   1.041 -0.5276 -0.6606  0.5832
 5091TIP3    H115279   4.221   4.975   1.131 -0.6380  1.6750  1.3777
 5091TIP3    H215280   4.180   5.094   1.048 -0.6757 -0.4505 -1.8453
 5092TIP3   OH215281   1.519   4.763   1.214 -0.2193  0.4319 -0.1686
 5092TIP3    H115282   1.430   4.786   1.190 -0.3886 -1.0924 -1.1502
 5092TIP3    H215283   1.574   4.811   1.152 -0.3752  0.8173 -0.0148
 5093TIP3   OH215284   0.429   0.184   2.483  0.3580  0.3001  0.2362
 5093TIP3    H115285   0.524   0.173   2.481  0.0859 -2.7975 -0.1796
 5093TIP3    H215286   0.414   0.247   2.553  2.7434  1.6964 -0.3983
 5094TIP3   OH215287   3.929   0.519   1.926 -0.2719  0.0924  0.3715
 5094TIP3    H115288   3.979   0.541   2.005  2.8853 -0.1555 -1.3805
 5094TIP3    H215289   3.921   0.423   1.929  0.4375  0.0174  0.1090
 5095TIP3   OH215290   5.466   3.990   1.013 -0.2027 -0.2973  0.0216
 5095TIP3    H115291   5.442   4.053   0.945 -0.2623 -2.5065 -2.1309
 5095TIP3    H215292   5.557   4.011   1.034 -0.8335  1.7921  0.9394
 5096TIP3   OH215293   2.654   2.121   3.788 -0.5672  1.0668 -0.0299
 5096TIP3    H115294   2.687   2.135   3.700 -1.2585 -2.4362 -0.9968
 5096TIP3    H215295   2.564   2.154   3.786 -0.6311  0.8653 -0.7121
 5097TIP3   OH215296   2.110   1.582   2.374  0.1855  0.1422  0.1137
 5097TIP3    H115297   2.029   1.617   2.335  0.7528  0.7040 -0.6050
 5097TIP3    H215298   2.109   1.490   2.350 -0.5592 -0.0015  0.6684
 5098TIP3   OH215299   2.998   2.581   3.537 -0.1567 -0.1353  0.3027
 5098TIP3    H115300   3.041   2.639   3.474  0.0668  0.4745  0.9979
 5098TIP3    H215301   2.905   2.594   3.522 -0.1566  1.4856  1.3476
 5099TIP3   OH215302   1.599   2.831   4.651 -0.1095 -0.5409 -0.2903
 5099TIP3    H115303   1.594   2.912   4.702  1.6659 -1.1216  0.8923
 5099TIP3    H215304   1.560   2.854   4.566  0.1313  1.4888  0.0958
 5100TIP3   OH215305   6.284   5.072   1.639  0.3821 -0.3333  0.3126
 5100TIP3    H115306   6.194   5.084   1.609 -0.6792 -2.9176  2.0793
 5100TIP3    H215307   6.306   4.983   1.614  3.9228  1.2276 -3.2686
 5101TIP3   OH215308   3.794   4.065   3.350 -0.7389 -0.0524  0.2768
 5101TIP3    H115309   3.707   4.057   3.389 -0.3581 -1.1890  0.9391
 5101TIP3    H215310   3.794   4.002   3.278  0.1270 -1.4604  1.4458
 5102TIP3   OH215311   0.265   5.673   3.082 -0.4263 -0.1484 -0.3957
 5102TIP3    H115312   0.233   5.732   3.150  0.6061  0.6323 -0.5758
 5102TIP3    H215313   0.284   5.592   3.128 -1.0279 -0.0761 -0.0023
 5103TIP3   OH215314   5.576   2.317   0.728 -0.3537  0.2133  0.1878
 5103TIP3    H115315   5.510   2.248   0.739 -0.8390  0.3491 -1.5952
 5103TIP3    H215316   5.525   2.397   0.717  0.1677  0.5881  0.4650
 5104TIP3   OH215317   2.773   0.925   0.571 -0.1863 -0.2914 -0.0101
 5104TIP3    H115318   2.833   0.852   0.559 -0.4371 -0.1736 -2.2427
 5104TIP3    H215319   2.830   1.000   0.590  0.0482 -1.0558  2.9134
 5105TIP3   OH215320   6.269   1.238   0.719 -0.3832  0.0144 -0.3158
 5105TIP3    H115321   6.324   1.234   0.640 -0.8207  1.8173 -0.7489
 5105TIP3    H215322   6.332   1.248   0.790  0.0217 -1.7076 -0.3724
 5106TIP3   OH215323   0.650   4.744   0.615  0.6107  0.1739  0.2132
 5106TIP3    H115324   0.587   4.816   0.613  1.2125  0.6957 -1.0739
 5106TIP3    H215325   0.707   4.765   0.689  1.0555  1.2916 -0.4122
 5107TIP3   OH215326   3.341   2.289   4.978  0.3547 -0.1120  0.1211
 5107TIP3    H115327   3.336   2.385   4.987  2.0168 -0.0112  0.2526
 5107TIP3    H215328   3.358   2.276   4.884 -1.2121 -0.3789 -0.1587
 5108TIP3   OH215329   2.624   1.335   1.103  0.6900  0.3412 -0.2730
 5108TIP3    H115330   2.605   1.401   1.170 -1.0473  0.0337 -0.4123
 5108TIP3    H215331   2.566   1.358   1.031 -0.6345 -1.8372  0.0188
 5109TIP3   OH215332   3.879   2.492   3.015  0.5405  0.1114 -0.3995
 5109TIP3    H115333   3.881   2.416   2.957  2.5739 -0.5466  0.4439
 5109TIP3    H215334   3.791   2.491   3.052  0.9923 -2.9832  0.9574
 5110TIP3   OH215335   4.334   1.660   1.262  0.0681 -0.0887  0.4488
 5110TIP3    H115336   4.394   1.700   1.325 -0.5808  0.2152  0.8799
 5110TIP3    H215337   4.277   1.604   1.315 -0.5169  0.2094  0.1410
 5111TIP3   OH215338   0.270   1.694   1.311  0.3380  0.5018 -0.7081
 5111TIP3    H115339   0.260   1.607   1.350  0.6405 -0.2868 -2.2883
 5111TIP3    H215340   0.192   1.742   1.338 -0.4673 -0.6859 -0.8463
 5112TIP3   OH215341   3.010   5.460   1.498  0.5245 -0.1579 -0.2940
 5112TIP3    H115342   2.961   5.441   1.418  0.1559  1.2977 -0.4596
 5112TIP3    H215343   3.019   5.376   1.542 -1.5942 -0.5889 -0.5689
 5113TIP3   OH215344   6.051   4.486   3.247 -0.0417 -0.1296  0.4149
 5113TIP3    H115345   6.036   4.530   3.164 -0.0596  0.1581  0.5681
 5113TIP3    H215346   5.977   4.426   3.257 -1.5945  1.8424  1.5506
 5114TIP3   OH215347   1.020   5.969   1.674 -0.2924 -0.4027  0.3983
 5114TIP3    H115348   0.940   5.917   1.663  0.2497 -1.0078 -0.9318
 5114TIP3    H215349   1.026   6.021   1.594  0.9617 -0.8305  0.1941
 5115TIP3   OH215350   5.863   1.416   5.112 -0.5468  0.6596 -0.1199
 5115TIP3    H115351   5.942   1.402   5.060 -0.5810 -0.8331  0.1918
 5115TIP3    H215352   5.853   1.511   5.115  2.3151  1.0283  1.3946
 5116TIP3   OH215353   4.860   3.622   2.261 -0.2005 -0.0171 -0.4757
 5116TIP3    H115354   4.860   3.667   2.346 -0.4645 -0.3590 -0.2914
 5116TIP3    H215355   4.952   3.607   2.242 -0.1039  0.7333 -0.6092
 5117TIP3   OH215356   1.900   1.832   4.756 -0.1659  0.1786  0.0763
 5117TIP3    H115357   1.972   1.789   4.710 -0.4910  1.3411 -1.6005
 5117TIP3    H215358   1.822   1.781   4.732 -0.1588 -0.0007  0.4263
 5118TIP3   OH215359   5.089   3.007   0.561  0.0256  0.1570 -0.3243
 5118TIP3    H115360   5.111   2.976   0.473  0.2898 -0.5804 -0.0038
 5118TIP3    H215361   5.048   2.932   0.604 -0.8771  0.7634 -0.0904
 5119TIP3   OH215362   5.967   3.404   1.911 -0.2941 -0.0859 -0.2284
 5119TIP3    H115363   5.949   3.487   1.954  1.9246  0.0847  0.5271
 5119TIP3    H215364   5.952   3.420   1.818 -0.5573  0.9575 -0.0107
 5120TIP3   OH215365   0.612   5.637   1.486  0.7455  0.4630 -0.6240
 5120TIP3    H115366   0.524   5.638   1.524  1.1042  0.9888  0.2296
 5120TIP3    H215367   0.621   5.548   1.451 -0.6044  0.8052 -1.9370
 5121TIP3   OH215368   5.766   5.867   1.426  0.1976 -0.2531 -0.2684
 5121TIP3    H115369   5.694   5.873   1.488  0.0022 -3.0286 -0.1310
 5121TIP3    H215370   5.844   5.853   1.480  0.2588 -1.0866 -0.5573
 5122TIP3   OH215371   3.904   4.189   4.871  0.2805  0.0332 -0.0055
 5122TIP3    H115372   3.970   4.153   4.930  0.8410  1.1113  0.0704
 5122TIP3    H215373   3.824   4.192   4.923  0.2849 -0.8617  0.0533
 5123TIP3   OH215374   2.921   2.804   4.243  0.3888  0.1965 -0.5768
 5123TIP3    H115375   2.858   2.772   4.178 -0.2809  1.8319 -0.7905
 5123TIP3    H215376   3.005   2.767   4.215 -0.0869 -0.0852 -1.6868
 5124TIP3   OH215377   5.650   3.046   2.671 -0.4018  0.2657  0.5075
 5124TIP3    H115378   5.693   3.011   2.593 -0.2973  0.3307  0.5357
 5124TIP3    H215379   5.703   3.122   2.695  0.0593 -0.2565  1.1420
 5125TIP3   OH215380   3.331   2.423   0.549  0.6845 -0.5322 -0.1850
 5125TIP3    H115381   3.330   2.492   0.615  0.1505 -0.2203 -0.5064
 5125TIP3    H215382   3.313   2.342   0.597  0.7562 -0.3703  0.1133
 5126TIP3   OH215383   3.170   1.675   5.114 -0.0577  0.4934  0.3939
 5126TIP3    H115384   3.128   1.600   5.157  0.2429  1.6405  2.8575
 5126TIP3    H215385   3.143   1.668   5.023 -2.7181 -0.7858  1.1765
 5127TIP3   OH215386   0.556   3.290   3.308  0.0935 -0.1397 -0.1554
 5127TIP3    H115387   0.568   3.342   3.228  0.6823 -1.3319 -0.8589
 5127TIP3    H215388   0.645   3.271   3.337 -0.0979  0.7531  1.1362
 5128TIP3   OH215389   3.549   2.178   4.265  0.1814 -0.2973 -0.0030
 5128TIP3    H115390   3.605   2.220   4.331 -0.6343 -1.8474  1.7872
 5128TIP3    H215391   3.553   2.236   4.190  1.5892  1.3116  1.2277
 5129TIP3   OH215392   2.990   3.770   0.695 -0.0452  0.2905  0.4448
 5129TIP3    H115393   3.066   3.748   0.641 -0.4401 -0.2709  0.1184
 5129TIP3    H215394   2.924   3.705   0.673  0.1797 -0.7056  2.4646
 5130TIP3   OH215395   6.108   1.938   2.475 -0.1180  0.0641  0.7080
 5130TIP3    H115396   6.021   1.918   2.442 -0.5379  1.7131  0.7399
 5130TIP3    H215397   6.159   1.962   2.397  0.0206  0.0950  0.8069
 5131TIP3   OH215398  -0.017   1.146   5.047 -0.5069 -0.5471 -0.0124
 5131TIP3    H115399   0.023   1.068   5.085 -0.5205 -1.9409 -2.6052
 5131TIP3    H215400   0.054   1.188   4.999 -0.5622  0.9717  1.1541
 5132TIP3   OH215401   1.865   5.198   3.501  0.3788  0.0452 -0.4221
 5132TIP3    H115402   1.819   5.131   3.552 -1.6323  1.3999 -0.3653
 5132TIP3    H215403   1.929   5.148   3.450 -1.2453 -1.9874 -0.6291
 5133TIP3   OH215404   0.910   0.548   2.767  0.0688  0.3977 -0.5013
 5133TIP3    H115405   0.997   0.586   2.781  0.0169  1.2452 -2.2010
 5133TIP3    H215406   0.926   0.469   2.716 -0.0858 -0.0500  0.1347
 5134TIP3   OH215407   4.377   4.126   2.887  0.6114 -0.0736 -0.3321
 5134TIP3    H115408   4.351   4.034   2.883  2.0211 -0.5498  0.9087
 5134TIP3    H215409   4.370   4.149   2.979  1.4654  0.7078 -0.4491
 5135TIP3   OH215410   6.213   4.664   2.161  0.3057 -0.1414  0.8508
 5135TIP3    H115411   6.232   4.744   2.113 -0.6897  0.2554  1.0811
 5135TIP3    H215412   6.271   4.667   2.237  0.7980 -0.0117  0.4743
 5136TIP3   OH215413   0.452   5.716   5.069  0.2034 -0.1566 -0.1626
 5136TIP3    H115414   0.500   5.799   5.067  1.3060 -0.7781 -0.6077
 5136TIP3    H215415   0.447   5.689   4.977  1.4305 -1.4222  0.0943
 5137TIP3   OH215416   5.450   1.300   4.532 -0.4573  0.1363  0.4423
 5137TIP3    H115417   5.429   1.317   4.624  1.2514  1.2444  0.6736
 5137TIP3    H215418   5.368   1.319   4.485 -1.3514 -0.4677  1.7208
 5138TIP3   OH215419   4.783   0.704   1.589  0.3438 -0.3518  0.0868
 5138TIP3    H115420   4.837   0.741   1.520 -0.1961  1.0485  0.3869
 5138TIP3    H215421   4.697   0.692   1.548  0.0626  0.3443  0.4607
 5139TIP3   OH215422   1.227   3.220   5.057 -0.0604  0.1282  0.0632
 5139TIP3    H115423   1.311   3.264   5.046 -0.8509  1.5641 -0.5910
 5139TIP3    H215424   1.240   3.161   5.131  2.4669 -2.1113 -1.9372
 5140TIP3   OH215425   0.071   3.267   1.112 -0.4284  0.0354 -0.2214
 5140TIP3    H115426  -0.022   3.266   1.135 -0.6988 -2.1213 -1.2013
 5140TIP3    H215427   0.072   3.289   1.018  0.0434 -0.1709 -0.2673
 5141TIP3   OH215428   0.895   2.745   1.660  0.4643  0.4227 -1.0938
 5141TIP3    H115429   0.807   2.730   1.625 -0.6297  0.5046  1.4019
 5141TIP3    H215430   0.921   2.829   1.623 -1.1167  1.0799 -0.8281
 5142TIP3   OH215431   2.047   1.616   4.220  0.6394  0.4797 -0.1700
 5142TIP3    H115432   1.975   1.595   4.161  0.3596 -1.2482  0.7229
 5142TIP3    H215433   2.084   1.531   4.245  3.4936  1.2879 -1.1582
 5143TIP3   OH215434   3.910   5.261   2.600  0.3114  0.7404 -0.5400
 5143TIP3    H115435   3.895   5.168   2.617  0.4043  0.9369  0.7301
 5143TIP3    H215436   4.000   5.277   2.631  0.4651  1.1615 -1.1791
 5144TIP3   OH215437   0.119   3.585   0.184 -0.0322  0.4518  0.2681
 5144TIP3    H115438   0.065   3.540   0.249 -0.5695  0.1694 -0.3608
 5144TIP3    H215439   0.114   3.530   0.106  1.0715  0.4872  0.1484
 5145TIP3   OH215440   3.420   3.383   2.647  0.5207 -0.2058 -0.2610
 5145TIP3    H115441   3.383   3.470   2.634  0.9939  0.2844  1.4215
 5145TIP3    H215442   3.355   3.338   2.701  1.5201  0.0769  1.2398
 5146TIP3   OH215443   2.966   3.252   3.994  0.0336  0.1767 -0.2216
 5146TIP3    H115444   2.944   3.160   3.978  1.3076  0.1238 -1.9744
 5146TIP3    H215445   3.054   3.250   4.032 -1.1443  0.5851  2.8496
 5147TIP3   OH215446   2.171   5.554   5.188 -0.2058 -0.7347  0.2300
 5147TIP3    H115447   2.246   5.598   5.147 -0.2958 -2.0313 -1.4217
 5147TIP3    H215448   2.097   5.576   5.131 -0.7378 -0.9367  0.8395
 5148TIP3   OH215449   6.187   2.699   4.717  0.6974  0.3115  0.0776
 5148TIP3    H115450   6.211   2.620   4.765 -0.6426 -0.3185 -0.2469
 5148TIP3    H215451   6.217   2.683   4.628 -0.3668 -0.2192 -0.1912
 5149TIP3   OH215452   5.804   3.655   4.024  0.8693 -0.0401  0.1690
 5149TIP3    H115453   5.876   3.630   4.081 -0.1032 -1.7386  0.6991
 5149TIP3    H215454   5.734   3.681   4.084  1.0251  1.7180 -0.3412
 5150TIP3   OH215455   5.821   5.638   4.556  0.3182  0.2342  0.0757
 5150TIP3    H115456   5.821   5.622   4.461 -0.4229  0.5761  0.0144
 5150TIP3    H215457   5.886   5.576   4.590 -0.1477 -0.6220 -0.5423
 5151TIP3   OH215458   3.231   3.871   0.503 -0.2167  0.0698 -0.0721
 5151TIP3    H115459   3.307   3.859   0.447 -0.8781 -1.9290 -0.6015
 5151TIP3    H215460   3.156   3.852   0.447 -1.0706  1.1188  0.6759
 5152TIP3   OH215461   3.158   5.287   3.805 -0.6252 -0.0091 -0.2386
 5152TIP3    H115462   3.170   5.339   3.884 -1.3000 -0.2463  0.0242
 5152TIP3    H215463   3.128   5.350   3.739  0.9569  0.3850 -0.6064
 5153TIP3   OH215464   5.887   2.076   0.413  1.0503  0.6530  0.2824
 5153TIP3    H115465   5.973   2.079   0.455  0.9805 -1.4572  0.7280
 5153TIP3    H215466   5.905   2.048   0.323  0.8295 -0.2282  0.5001
 5154TIP3   OH215467   5.418   2.707   4.707 -0.1366  0.7300  0.0153
 5154TIP3    H115468   5.422   2.646   4.634  0.5689 -0.2060  0.8094
 5154TIP3    H215469   5.334   2.687   4.750 -0.1777  0.7313 -0.0644
 5155TIP3   OH215470   0.493   0.144   2.905 -0.4481 -0.3054  0.2337
 5155TIP3    H115471   0.507   0.211   2.972 -0.6845  1.1495 -1.0900
 5155TIP3    H215472   0.402   0.115   2.919 -0.9742  0.9978 -0.2645
 5156TIP3   OH215473   3.310   4.702   2.596  0.0008 -0.1959 -0.1069
 5156TIP3    H115474   3.312   4.606   2.595 -0.5651 -0.2638  1.6813
 5156TIP3    H215475   3.259   4.724   2.674 -1.1754  1.5727 -1.3059
 5157TIP3   OH215476   5.305   5.510   0.911 -0.2715  0.4574 -0.8233
 5157TIP3    H115477   5.360   5.455   0.855 -1.3672 -1.7343  0.0919
 5157TIP3    H215478   5.229   5.531   0.857 -0.0072  0.7797 -1.0706
 5158TIP3   OH215479   5.498   0.214   1.396 -0.0573 -0.4592 -0.1223
 5158TIP3    H115480   5.567   0.161   1.435 -1.0309 -0.6812  1.3886
 5158TIP3    H215481   5.507   0.200   1.301  1.0795 -1.5772  0.1263
 5159TIP3   OH215482   0.377   3.493   1.167 -0.6250 -0.2009  0.0553
 5159TIP3    H115483   0.386   3.544   1.087 -0.9199  0.3073  0.3450
 5159TIP3    H215484   0.425   3.542   1.233 -2.3142  0.6029  0.7300
 5160TIP3   OH215485   3.681   2.622   1.875 -0.4407  0.8012  0.4535
 5160TIP3    H115486   3.771   2.634   1.843 -0.7236 -1.2054 -1.4033
 5160TIP3    H215487   3.632   2.694   1.837  0.0506  0.8260 -0.1543
 5161TIP3   OH215488   5.574   5.261   1.043  0.2545  0.1022  0.4486
 5161TIP3    H115489   5.553   5.274   0.950  0.1287  0.2878  0.5033
 5161TIP3    H215490   5.511   5.315   1.090 -0.5131 -0.9748  0.6993
 5162TIP3   OH215491   6.242   3.138   3.208 -0.6465  0.2520 -0.2077
 5162TIP3    H115492   6.157   3.099   3.230 -1.2869  1.4099 -0.5430
 5162TIP3    H215493   6.275   3.172   3.291 -0.4285 -0.3189 -0.0517
 5163TIP3   OH215494   3.868   2.282   3.379  0.4745  0.0612 -0.6678
 5163TIP3    H115495   3.823   2.364   3.395  0.9752  0.5676 -1.7530
 5163TIP3    H215496   3.805   2.215   3.405 -1.2285  0.7345 -2.7991
 5164TIP3   OH215497   0.957   4.345   4.718 -0.1672  0.0130 -0.2764
 5164TIP3    H115498   1.009   4.387   4.787 -0.9999  1.0909 -0.2962
 5164TIP3    H215499   0.949   4.411   4.650 -2.7688  0.4141  0.3279
 5165TIP3   OH215500   5.356   1.796   2.616 -0.2304  0.0765  0.1280
 5165TIP3    H115501   5.395   1.880   2.642 -0.2808 -0.0789  0.7152
 5165TIP3    H215502   5.430   1.735   2.614 -0.2679  0.0296  0.1683
 5166TIP3   OH215503   5.659   3.107   0.642  0.3985  0.5036  0.9045
 5166TIP3    H115504   5.673   3.013   0.636 -0.5843  0.4071 -0.3887
 5166TIP3    H215505   5.746   3.145   0.636  0.6347 -0.2425 -1.3014
 5167TIP3   OH215506   4.578   2.881   1.241 -0.7101 -0.0449  0.3088
 5167TIP3    H115507   4.560   2.954   1.182  0.0584 -1.7737 -2.2533
 5167TIP3    H215508   4.496   2.831   1.244 -0.3573 -0.6886 -0.4402
 5168TIP3   OH215509   2.210   1.502   4.747 -0.4420  0.1004  0.3629
 5168TIP3    H115510   2.265   1.503   4.669 -1.3266 -2.9755 -0.4500
 5168TIP3    H215511   2.258   1.447   4.809 -0.1350  1.8487  1.7704
 5169TIP3   OH215512   2.469   5.587   3.079 -0.4753  0.6037 -0.1134
 5169TIP3    H115513   2.517   5.537   3.145  0.0766  1.2136 -0.0473
 5169TIP3    H215514   2.413   5.646   3.130 -2.0659 -0.7875 -0.1736
 5170TIP3   OH215515   1.494   0.175   1.922 -0.5425 -0.4027 -0.0718
 5170TIP3    H115516   1.486   0.080   1.913 -0.8404 -0.4290  0.4074
 5170TIP3    H215517   1.415   0.201   1.969 -0.5233  0.1011 -0.3165
 5171TIP3   OH215518   6.266   2.598   4.469  0.0850  0.0704 -0.2918
 5171TIP3    H115519   6.220   2.659   4.411 -0.6003  0.0388  0.2199
 5171TIP3    H215520   6.324   2.549   4.410 -0.8014 -0.1536 -0.9931
 5172TIP3   OH215521   3.210   1.960   2.492 -0.5478  0.1216  0.2124
 5172TIP3    H115522   3.161   1.882   2.468  0.5186  0.4194 -3.5778
 5172TIP3    H215523   3.300   1.940   2.467  0.2949  1.5516  1.9002
 5173TIP3   OH215524   4.391   3.256   3.530  0.1512  0.0326  0.1044
 5173TIP3    H115525   4.320   3.268   3.594 -1.3629  1.5461 -1.7124
 5173TIP3    H215526   4.358   3.188   3.470  0.4988  0.3046 -0.4047
 5174TIP3   OH215527   3.557   4.304   3.473  0.6175 -0.5722 -0.4389
 5174TIP3    H115528   3.615   4.332   3.402 -2.5232  0.5748 -2.7709
 5174TIP3    H215529   3.574   4.366   3.543  0.1901  1.6576 -2.1807
 5175TIP3   OH215530   5.532   1.081   1.587 -0.0122  0.1748  0.1900
 5175TIP3    H115531   5.591   1.009   1.609  0.3692  0.3421 -0.2584
 5175TIP3    H215532   5.517   1.127   1.669 -0.8992 -0.8754  0.6490
 5176TIP3   OH215533   0.682   1.684   1.684  0.8784 -0.2159  0.1120
 5176TIP3    H115534   0.625   1.662   1.610  0.1438 -0.0993  0.6273
 5176TIP3    H215535   0.755   1.623   1.677  0.2872 -0.9150 -0.1150
 5177TIP3   OH215536   4.614   2.823   4.092  0.0168  0.2473 -0.1445
 5177TIP3    H115537   4.623   2.916   4.114  0.1753 -0.1918  1.8333
 5177TIP3    H215538   4.600   2.780   4.176  0.7104 -1.6305 -0.9424
 5178TIP3   OH215539   2.971   5.071   3.884 -0.1067  0.0873  0.0416
 5178TIP3    H115540   3.026   5.128   3.829 -0.4187  2.5164  2.0324
 5178TIP3    H215541   3.033   5.031   3.946  0.0703 -1.6044 -1.1717
 5179TIP3   OH215542   3.812   2.897   2.934  0.3413  0.6437 -0.1469
 5179TIP3    H115543   3.721   2.920   2.915 -0.6040 -0.6638  2.3756
 5179TIP3    H215544   3.840   2.847   2.857 -1.3917  0.2514 -0.5666
 5180TIP3   OH215545   3.139   0.467   3.538  0.2732  0.3015  0.1043
 5180TIP3    H115546   3.224   0.449   3.498  0.4020 -0.2162  0.6027
 5180TIP3    H215547   3.075   0.442   3.472  0.4994  2.0887 -0.8688
 5181TIP3   OH215548   3.318   3.110   0.661  0.5944 -0.0315  0.3434
 5181TIP3    H115549   3.404   3.146   0.641  0.4261 -0.9758 -2.6885
 5181TIP3    H215550   3.329   3.015   0.649 -0.7384 -0.2102  0.3959
 5182TIP3   OH215551   2.597   0.454   0.339  0.1242 -0.2014 -0.6060
 5182TIP3    H115552   2.635   0.521   0.396 -0.7143  0.3052 -0.6122
 5182TIP3    H215553   2.530   0.412   0.393  1.1042 -1.5294 -0.3775
 5183TIP3   OH215554   3.059   4.224   1.735  0.3388 -0.0958 -0.6357
 5183TIP3    H115555   3.073   4.147   1.680 -1.6242  0.5992 -2.2317
 5183TIP3    H215556   3.026   4.291   1.675  0.8201  1.6329  0.9169
 5184TIP3   OH215557   3.022   3.498   3.454  0.0932 -0.1605 -0.0676
 5184TIP3    H115558   3.066   3.501   3.539  0.7562 -1.9477 -0.3105
 5184TIP3    H215559   2.985   3.585   3.443  0.8362  0.4004  1.6095
 5185TIP3   OH215560   2.228   4.347   4.430 -0.0615  0.2825 -0.6600
 5185TIP3    H115561   2.133   4.346   4.417  0.0329 -1.3855 -1.5648
 5185TIP3    H215562   2.262   4.391   4.352 -0.0524 -0.1223 -0.8903
 5186TIP3   OH215563   0.686   2.807   3.137 -0.1567 -0.4578 -0.9930
 5186TIP3    H115564   0.658   2.829   3.226  0.0171  0.8488 -1.2521
 5186TIP3    H215565   0.604   2.783   3.092  0.0536 -5.0121  0.4603
 5187TIP3   OH215566   6.169   5.754   5.038  0.5434  0.2160  0.0805
 5187TIP3    H115567   6.247   5.706   5.064  0.4134 -0.2953 -0.4342
 5187TIP3    H215568   6.097   5.693   5.052  0.3349  0.3776 -0.2604
 5188TIP3   OH215569   5.449   1.678   1.883 -0.4474 -0.6043  1.0513
 5188TIP3    H115570   5.514   1.740   1.914 -0.5307 -0.5582  1.1315
 5188TIP3    H215571   5.420   1.714   1.799 -0.1403 -0.7875  0.8645
 5189TIP3   OH215572   1.930   4.009   3.980 -1.0715  0.5831 -0.2931
 5189TIP3    H115573   1.951   4.078   3.917  0.6837  0.1870 -0.1922
 5189TIP3    H215574   1.914   4.056   4.062  0.6598  0.8877 -0.0901
 5190TIP3   OH215575   4.489   3.151   4.992  0.4099 -0.1323 -0.2434
 5190TIP3    H115576   4.427   3.098   4.942 -0.0089  0.5101 -0.4230
 5190TIP3    H215577   4.433   3.207   5.046  0.8478 -0.0375  0.1080
 5191TIP3   OH215578   5.174   0.491   4.585  0.2637  0.3125 -0.3646
 5191TIP3    H115579   5.172   0.476   4.679 -1.8802 -0.9275 -0.5412
 5191TIP3    H215580   5.158   0.585   4.575 -1.8769  0.1013  0.5100
 5192TIP3   OH215581   4.472   3.783   3.243  0.3366 -0.2878  0.1023
 5192TIP3    H115582   4.464   3.720   3.171 -1.8344 -0.1290  0.1516
 5192TIP3    H215583   4.486   3.728   3.321  0.3980 -0.5785 -0.1124
 5193TIP3   OH215584   4.845   1.043   0.818 -0.5909 -0.6474  0.0570
 5193TIP3    H115585   4.937   1.017   0.816 -0.3097  0.3457 -0.7273
 5193TIP3    H215586   4.801   0.973   0.866  0.6938 -0.7224  1.1823
 5194TIP3   OH215587   3.030   3.259   5.070 -0.2716 -0.0253  0.7270
 5194TIP3    H115588   3.061   3.185   5.121  3.2523  1.6666  1.3466
 5194TIP3    H215589   2.989   3.318   5.134 -1.6764 -0.6995  0.4798
 5195TIP3   OH215590   0.388   3.427   1.593  0.2960  0.1374 -0.1610
 5195TIP3    H115591   0.324   3.483   1.636 -0.2127  0.3727 -1.2040
 5195TIP3    H215592   0.391   3.458   1.502  1.3799 -0.3180 -0.2940
 5196TIP3   OH215593   2.287   2.195   1.237 -1.0090  0.7519 -0.3469
 5196TIP3    H115594   2.217   2.135   1.209 -0.2165 -0.3663  0.0104
 5196TIP3    H215595   2.367   2.157   1.201  0.0263 -0.5553  2.9665
 5197TIP3   OH215596   3.758   1.462   0.471  0.2745  0.6553 -0.8174
 5197TIP3    H115597   3.756   1.557   0.480 -1.9552  0.6783 -1.0028
 5197TIP3    H215598   3.748   1.447   0.377  1.3598  0.2074 -0.8813
 5198TIP3   OH215599   4.023   3.372   1.213 -0.0790  0.3385 -0.1124
 5198TIP3    H115600   3.939   3.338   1.245 -0.1816  0.9091  0.2500
 5198TIP3    H215601   4.009   3.386   1.120  0.1619 -1.1712 -0.3932
 5199TIP3   OH215602   1.451   2.995   4.068  0.2278 -0.0368  0.4185
 5199TIP3    H115603   1.455   3.068   4.130 -1.9913  2.5235 -2.1893
 5199TIP3    H215604   1.497   3.026   3.990 -1.8867 -0.7924 -1.2356
 5200TIP3   OH215605   0.261   2.254   3.230 -0.0706 -0.1736  0.4922
 5200TIP3    H115606   0.216   2.170   3.234 -0.8134  0.1764 -0.1645
 5200TIP3    H215607   0.236   2.291   3.145  0.6621  0.4802  0.5445
 5201TIP3   OH215608   1.907   2.446   4.207  0.3974 -0.5211 -0.0091
 5201TIP3    H115609   1.895   2.541   4.200 -1.1889 -0.5600  1.3881
 5201TIP3    H215610   1.824   2.415   4.243  1.5350 -2.2043  1.3147
 5202TIP3   OH215611   3.720   0.785   3.566  0.3706 -0.5076  0.4157
 5202TIP3    H115612   3.712   0.875   3.533 -0.4798 -0.1350  1.5794
 5202TIP3    H215613   3.796   0.789   3.624  0.4345 -0.5931  0.3384
 5203TIP3   OH215614   2.022   5.992   4.447  0.4976 -0.0241 -0.1780
 5203TIP3    H115615   2.092   5.935   4.415 -0.3849 -0.1885 -1.9808
 5203TIP3    H215616   1.960   5.996   4.373 -0.6764  1.2599  0.8377
 5204TIP3   OH215617   5.575   3.211   5.030 -1.0457 -0.0953  0.0859
 5204TIP3    H115618   5.585   3.202   4.935  1.6189  0.8686  0.1751
 5204TIP3    H215619   5.589   3.122   5.063  0.5786 -0.0484 -0.3505
 5205TIP3   OH215620   5.353   1.511   5.016  0.2521 -0.3526 -0.0070
 5205TIP3    H115621   5.300   1.552   5.085  1.8625  1.5221  0.1712
 5205TIP3    H215622   5.440   1.502   5.055  1.0147  0.0678 -1.5415
 5206TIP3   OH215623   3.768   3.043   0.426 -0.0498 -0.8342 -0.4425
 5206TIP3    H115624   3.846   3.086   0.462  0.7920 -2.1667 -0.6001
 5206TIP3    H215625   3.771   3.063   0.332 -0.5497  0.0629 -0.2831
 5207TIP3   OH215626   5.975   5.623   0.070  0.2531  0.0665 -0.1628
 5207TIP3    H115627   6.022   5.696   0.110  1.1907 -0.0126 -1.0979
 5207TIP3    H215628   5.924   5.585   0.142 -0.5974  1.8861  0.2582
 5208TIP3   OH215629   2.248   5.388   2.003  0.5022  0.6531  0.3595
 5208TIP3    H115630   2.258   5.475   2.042 -0.4461  1.0872 -0.3175
 5208TIP3    H215631   2.262   5.402   1.909 -2.6811  0.7449 -0.2364
 5209TIP3   OH215632   0.257   3.033   0.869 -0.8641  0.2088 -0.1925
 5209TIP3    H115633   0.176   3.067   0.831 -1.2840 -0.9542 -0.3731
 5209TIP3    H215634   0.308   3.111   0.891 -1.9835  0.9538 -0.1713
 5210TIP3   OH215635   1.769   4.350   4.462  0.3700  0.8175  0.1599
 5210TIP3    H115636   1.823   4.389   4.393  1.4897 -1.0609 -0.1064
 5210TIP3    H215637   1.686   4.331   4.418  0.2755  1.6686 -0.0493
 5211TIP3   OH215638   3.948   0.729   2.601 -0.2958  0.0584  0.1639
 5211TIP3    H115639   3.953   0.645   2.555 -0.6675 -0.5284  1.1598
 5211TIP3    H215640   3.860   0.762   2.582  0.1390  0.6532 -0.9193
 5212TIP3   OH215641   6.135   1.235   3.304  0.5798 -0.5030  0.5097
 5212TIP3    H115642   6.057   1.181   3.295  0.2033 -0.0778  1.1962
 5212TIP3    H215643   6.183   1.222   3.222  0.5892 -2.0104  0.7340
 5213TIP3   OH215644   2.390   0.341   3.156  0.3287 -0.0388 -0.2014
 5213TIP3    H115645   2.412   0.249   3.169 -0.6225 -0.1377  0.9274
 5213TIP3    H215646   2.318   0.340   3.093 -0.3848 -0.1589  0.6024
 5214TIP3   OH215647   6.207   3.766   4.711 -0.0112 -0.1559 -0.3512
 5214TIP3    H115648   6.140   3.707   4.677 -0.6233 -2.5185  4.0914
 5214TIP3    H215649   6.159   3.837   4.754  0.4101 -0.2352  0.2807
 5215TIP3   OH215650   3.118   5.229   1.601  0.6462 -0.1181  0.2701
 5215TIP3    H115651   3.134   5.274   1.684 -1.3744 -0.3326  0.8191
 5215TIP3    H215652   3.167   5.147   1.609  1.0753  0.1937  0.9340
 5216TIP3   OH215653   5.515   1.596   4.376 -0.2168 -0.6570  0.5435
 5216TIP3    H115654   5.449   1.527   4.374 -1.4808  0.5118 -0.0231
 5216TIP3    H215655   5.520   1.622   4.468  1.3899 -2.4839  1.0286
 5217TIP3   OH215656   5.762   3.975   1.205 -0.2356  0.0568  0.3717
 5217TIP3    H115657   5.715   3.892   1.204 -0.5125  0.1546 -2.5607
 5217TIP3    H215658   5.836   3.960   1.262 -0.5953 -2.0272  0.3620
 5218TIP3   OH215659   3.814   0.902   4.791  0.0164 -0.2229 -0.1753
 5218TIP3    H115660   3.837   0.991   4.818  0.6512 -0.4270 -0.0015
 5218TIP3    H215661   3.866   0.846   4.849 -1.9280 -0.7665  1.1564
 5219TIP3   OH215662   1.255   2.917   1.088 -0.1921 -0.3491  0.3946
 5219TIP3    H115663   1.160   2.912   1.080 -0.1156  0.1666 -1.1441
 5219TIP3    H215664   1.274   2.871   1.170 -1.6072 -2.1239 -0.1956
 5220TIP3   OH215665   1.995   4.605   5.012 -0.1702  0.4094 -0.0036
 5220TIP3    H115666   1.986   4.536   5.078 -1.5275 -2.2001 -2.6693
 5220TIP3    H215667   2.072   4.655   5.040 -0.1184 -1.1152  2.9881
 5221TIP3   OH215668   4.735   5.782   4.625  0.1240 -0.0130  0.5753
 5221TIP3    H115669   4.775   5.795   4.539  1.6477 -1.3395  1.0099
 5221TIP3    H215670   4.644   5.809   4.615  0.5393  0.8386 -1.1579
 5222TIP3   OH215671   1.022   2.610   3.770 -0.8008 -0.3227  0.6732
 5222TIP3    H115672   1.033   2.515   3.775  1.0880 -0.0900  1.9073
 5222TIP3    H215673   0.998   2.627   3.679 -1.2051 -1.9617  0.4389
 5223TIP3   OH215674   6.301   3.559   1.662  0.7959  0.7187  0.4140
 5223TIP3    H115675   6.299   3.476   1.709  0.1904  1.1241  1.1133
 5223TIP3    H215676   6.393   3.570   1.637  0.8301 -0.2984  0.0496
 5224TIP3   OH215677   5.743   5.895   1.872  0.2637 -0.3621  0.3388
 5224TIP3    H115678   5.790   5.870   1.792 -0.2914  0.5427 -0.2847
 5224TIP3    H215679   5.654   5.864   1.859 -0.5047  1.9512 -0.5451
 5225TIP3   OH215680   3.634   1.759   3.817  0.2458 -0.2152  0.5271
 5225TIP3    H115681   3.683   1.698   3.762  1.4375 -0.2368  1.5391
 5225TIP3    H215682   3.686   1.839   3.815 -1.6919  1.0570 -1.3801
 5226TIP3   OH215683   0.386   0.289   0.497  0.9118  0.4144 -0.5737
 5226TIP3    H115684   0.307   0.247   0.465  0.9207  0.3309 -0.4869
 5226TIP3    H215685   0.449   0.218   0.508  0.5812  0.2823  0.6290
 5227TIP3   OH215686   0.781   2.015   1.332 -0.3172  0.0153 -0.0229
 5227TIP3    H115687   0.864   2.025   1.286 -1.5830  2.3777 -2.0491
 5227TIP3    H215688   0.734   1.948   1.282 -0.0762 -0.5531  0.4923
 5228TIP3   OH215689   2.324   4.709   4.684 -0.4172 -0.3914  0.2372
 5228TIP3    H115690   2.396   4.772   4.685 -1.6386  1.1309 -1.4959
 5228TIP3    H215691   2.365   4.626   4.660  0.9723  0.0584  0.9110
 5229TIP3   OH215692   1.147   2.895   3.162 -0.1391 -0.1501 -0.2217
 5229TIP3    H115693   1.138   2.801   3.179 -0.4686 -0.0326  0.2619
 5229TIP3    H215694   1.058   2.924   3.142 -0.6942  0.6795  2.8754
 5230TIP3   OH215695   2.620   5.101   3.207  0.4167 -0.4776  0.2559
 5230TIP3    H115696   2.597   5.126   3.297  1.1098 -0.3655  0.4054
 5230TIP3    H215697   2.676   5.025   3.216 -0.3966 -1.1401 -0.1401
 5231TIP3   OH215698   5.288   4.220   1.920  0.2846  0.5457  0.6907
 5231TIP3    H115699   5.210   4.194   1.969 -0.5088  0.5015 -0.5618
 5231TIP3    H215700   5.326   4.137   1.889  0.3586  0.6137  0.5998
 5232TIP3   OH215701   1.925   5.901   2.641  0.7231  0.0756  0.3472
 5232TIP3    H115702   1.955   5.982   2.683  1.5739 -0.5763  1.0349
 5232TIP3    H215703   1.844   5.925   2.597  0.3025  1.0232  1.5868
 5233TIP3   OH215704   1.106   4.168   4.565 -0.0410 -0.2201  0.2424
 5233TIP3    H115705   1.023   4.187   4.607  0.4894  1.3966  0.6283
 5233TIP3    H215706   1.089   4.092   4.510 -1.8165  0.1952  0.1772
 5234TIP3   OH215707   2.692   3.758   2.495 -0.3905 -0.3983  0.3681
 5234TIP3    H115708   2.666   3.685   2.550 -0.1572 -1.9629 -1.4840
 5234TIP3    H215709   2.788   3.753   2.492 -0.3553  0.1355  0.3989
 5235TIP3   OH215710   3.632   0.187   2.914 -0.4941  0.0892  0.6169
 5235TIP3    H115711   3.663   0.096   2.917  0.0370  0.2966  1.9541
 5235TIP3    H215712   3.676   0.224   2.838 -0.6408 -0.7399  0.1121
 5236TIP3   OH215713   3.420   2.469   3.513 -0.0016  0.3925  0.1730
 5236TIP3    H115714   3.456   2.426   3.436 -1.9119  0.4007 -0.7901
 5236TIP3    H215715   3.463   2.555   3.514 -0.3323  0.6067 -1.2184
 5237TIP3   OH215716   5.100   5.186   2.297 -0.1898  0.3579 -0.4692
 5237TIP3    H115717   5.175   5.234   2.262  1.0868 -1.1220  0.1281
 5237TIP3    H215718   5.136   5.102   2.325 -1.9903 -0.2126  0.2870
 5238TIP3   OH215719   2.184   3.670   5.177  0.2744 -0.1506  0.3988
 5238TIP3    H115720   2.279   3.678   5.187  0.1812 -0.3756  1.7254
 5238TIP3    H215721   2.161   3.731   5.107  1.3559  0.1701  0.3110
 5239TIP3   OH215722   2.371   0.075   0.181 -0.0877 -0.7409 -0.5443
 5239TIP3    H115723   2.464   0.093   0.191 -0.2342  0.1196 -0.6754
 5239TIP3    H215724   2.365  -0.021   0.184  0.8291 -0.8197 -0.8073
 5240TIP3   OH215725   5.655   2.812   4.810 -0.0119  0.3667 -0.5308
 5240TIP3    H115726   5.581   2.779   4.758 -1.8609  1.2189  1.4065
 5240TIP3    H215727   5.730   2.762   4.778 -0.8346  1.3000 -4.4574
 5241TIP3   OH215728   0.905   2.593   2.184  0.6711 -0.5003 -0.2503
 5241TIP3    H115729   0.856   2.591   2.102  1.3944 -0.5918 -0.6879
 5241TIP3    H215730   0.956   2.674   2.180  0.7960 -0.5603  0.0595
 5242TIP3   OH215731   4.942   2.114   1.149  0.1944  0.1231 -0.1613
 5242TIP3    H115732   4.972   2.081   1.064 -0.0930  0.5598 -0.4363
 5242TIP3    H215733   4.931   2.208   1.136  0.9020  0.3199  0.5861
 5243TIP3   OH215734   0.836   3.334   0.909  0.1176 -0.0241  0.2420
 5243TIP3    H115735   0.843   3.335   0.813  2.1577 -0.7506  0.3326
 5243TIP3    H215736   0.915   3.289   0.938 -0.9176 -0.6622  2.2512
 5244TIP3   OH215737   3.084   3.988   1.622  0.4604 -0.2103  0.3835
 5244TIP3    H115738   3.108   3.914   1.565  0.2646 -0.2375  0.3377
 5244TIP3    H215739   3.067   3.948   1.707  1.4787 -0.0904  0.6645
 5245TIP3   OH215740   5.456   2.197   4.409 -0.8698  0.0224  0.1218
 5245TIP3    H115741   5.454   2.169   4.500  0.2082 -1.3336 -0.2277
 5245TIP3    H215742   5.549   2.195   4.385 -0.9701  1.8924 -0.5809
 5246TIP3   OH215743   1.119   3.211   2.910  0.0919  0.5550  0.2725
 5246TIP3    H115744   1.076   3.141   2.861 -0.1849  0.6487  0.3789
 5246TIP3    H215745   1.059   3.231   2.982  0.6217  0.2335  0.8117
 5247TIP3   OH215746   0.017   5.738   2.977 -0.4514 -0.5618  0.2014
 5247TIP3    H115747   0.105   5.702   2.985 -0.5434 -0.9101 -0.2977
 5247TIP3    H215748  -0.003   5.775   3.063  0.3259 -0.1502  0.2134
 5248TIP3   OH215749   2.802   3.389   4.268  0.0925  0.0882 -0.1632
 5248TIP3    H115750   2.800   3.347   4.182 -1.8116 -1.1844  0.4302
 5248TIP3    H215751   2.796   3.483   4.250 -1.6070 -0.2133 -1.4303
 5249TIP3   OH215752   0.848   4.457   2.638 -0.4366  0.1897 -0.1664
 5249TIP3    H115753   0.780   4.440   2.704  0.4390  0.2723  0.7803
 5249TIP3    H215754   0.900   4.377   2.635  0.0831  0.5161 -0.0711
 5250TIP3   OH215755   4.924   1.621   2.622 -0.2787  0.8114  0.3642
 5250TIP3    H115756   4.881   1.578   2.548  0.3477  1.6627 -0.5250
 5250TIP3    H215757   5.017   1.621   2.600  0.0533  0.1700  1.6496
 5251TIP3   OH215758   3.351   4.252   0.931  0.4948  0.7449  0.2118
 5251TIP3    H115759   3.346   4.205   0.848 -0.1600 -0.2216  0.7702
 5251TIP3    H215760   3.388   4.188   0.992  1.9553  1.7672  0.4498
 5252TIP3   OH215761   0.890   2.991   3.117 -0.1939  0.3725  0.3365
 5252TIP3    H115762   0.891   3.036   3.202  0.7780 -1.2085  1.1974
 5252TIP3    H215763   0.816   2.931   3.122 -0.3686  0.5409 -0.1127
 5253TIP3   OH215764   4.147   0.498   2.919  0.3208  0.5169  0.4915
 5253TIP3    H115765   4.216   0.494   2.985  0.0054 -3.0089  0.8331
 5253TIP3    H215766   4.067   0.517   2.969  0.0059 -2.5844  1.3894
 5254TIP3   OH215767   3.351   2.346   3.085  0.4922 -0.5860 -0.4648
 5254TIP3    H115768   3.293   2.322   3.157  0.7935  3.3069  1.3560
 5254TIP3    H215769   3.300   2.408   3.032  1.6085 -0.3363 -1.2847
 5255TIP3   OH215770   4.551   0.125   4.589 -0.1463 -0.2103 -0.6141
 5255TIP3    H115771   4.461   0.112   4.559 -1.1315  0.7689  1.7183
 5255TIP3    H215772   4.543   0.159   4.678  2.5061  2.0273 -1.0779
 5256TIP3   OH215773   1.932   1.525   4.722 -0.1220  0.2629 -0.2000
 5256TIP3    H115774   1.943   1.536   4.628 -0.0178 -0.5887 -0.2882
 5256TIP3    H215775   2.020   1.509   4.755 -0.1720  0.4530  0.0286
 5257TIP3   OH215776   6.258   0.940   2.313 -0.1115  0.4247 -0.1544
 5257TIP3    H115777   6.205   0.860   2.313 -0.5182  0.6725  1.2523
 5257TIP3    H215778   6.323   0.926   2.381 -0.2004  1.3016  0.1254
 5258TIP3   OH215779   5.025   3.880   2.740 -0.1224  0.0399 -0.1867
 5258TIP3    H115780   5.011   3.827   2.818 -0.0721 -1.7341 -1.3260
 5258TIP3    H215781   5.045   3.967   2.774 -1.1444 -0.4125  1.7346
 5259TIP3   OH215782   5.254   2.909   2.621  0.0793  0.0443 -0.1664
 5259TIP3    H115783   5.207   2.827   2.635  0.4355  0.0369  1.2370
 5259TIP3    H215784   5.286   2.905   2.531  0.2537 -1.4518 -0.0598
 5260TIP3   OH215785   2.022   4.520   0.434  0.2641 -0.6169  0.0427
 5260TIP3    H115786   2.032   4.425   0.426  0.4662 -0.5901 -0.0192
 5260TIP3    H215787   1.928   4.535   0.423  0.3160 -0.7480 -0.6143
 5261TIP3   OH215788   3.824   0.938   0.913 -0.4187  0.0497 -0.0996
 5261TIP3    H115789   3.886   0.995   0.866 -1.1657  1.2253  0.2937
 5261TIP3    H215790   3.741   0.985   0.909 -0.7764 -0.4279  1.3024
 5262TIP3   OH215791   4.037   2.516   0.908  0.0369  0.5380 -0.0055
 5262TIP3    H115792   4.055   2.423   0.926  0.1933  0.9078  1.9589
 5262TIP3    H215793   3.942   2.523   0.914  0.1335  0.8146  1.7469
 5263TIP3   OH215794   5.702   3.956   2.645  0.0978 -1.5703  0.0290
 5263TIP3    H115795   5.630   3.987   2.700  0.1589 -1.2170 -0.0900
 5263TIP3    H215796   5.739   3.882   2.694 -0.6358 -2.0503 -0.1326
 5264TIP3   OH215797   3.913   5.673   0.268  0.6746  0.2305  0.3899
 5264TIP3    H115798   3.866   5.626   0.336  0.4292  0.8454  0.6508
 5264TIP3    H215799   3.990   5.709   0.312  0.0728  1.3490  0.5509
 5265TIP3   OH215800   4.140   0.815   1.232  0.1051 -0.3275  0.2037
 5265TIP3    H115801   4.045   0.827   1.227  0.1652 -0.3039 -2.1131
 5265TIP3    H215802   4.154   0.724   1.206  0.8220  0.5109 -2.7328
 5266TIP3   OH215803   3.648   1.525   4.595  0.2683 -0.2859  0.2341
 5266TIP3    H115804   3.686   1.550   4.511 -1.1380  0.7447 -0.1418
 5266TIP3    H215805   3.722   1.498   4.648  1.2321 -0.6253 -1.2207
 5267TIP3   OH215806   4.860   5.080   3.103 -0.9786  0.2153 -0.7161
 5267TIP3    H115807   4.821   5.007   3.056 -0.1870 -0.3262 -0.5497
 5267TIP3    H215808   4.845   5.061   3.195  1.2155 -0.9512 -0.5298
 5268TIP3   OH215809   5.625   2.976   2.269 -0.2833 -0.4010 -0.2281
 5268TIP3    H115810   5.671   2.920   2.332 -1.0617 -1.4336 -0.5511
 5268TIP3    H215811   5.695   3.013   2.215  0.3659  0.2432  1.0180
 5269TIP3   OH215812   4.288   1.424   1.106  0.2446 -0.1185 -0.1631
 5269TIP3    H115813   4.242   1.424   1.022  0.7522  0.5765 -0.4563
 5269TIP3    H215814   4.301   1.516   1.126 -1.5991 -0.1964  1.6745
 5270TIP3   OH215815   3.984   5.091   2.079  0.2745 -0.1615  0.1487
 5270TIP3    H115816   3.910   5.042   2.043  0.3696 -0.2465  0.0679
 5270TIP3    H215817   3.982   5.073   2.173  0.8466 -1.0449  0.0022
 5271TIP3   OH215818   5.529   0.035   0.911 -0.2173  0.1584  0.1308
 5271TIP3    H115819   5.464   0.013   0.844 -0.0753  2.0872 -0.6835
 5271TIP3    H215820   5.584   0.102   0.871  0.7904  0.3151  1.6793
 5272TIP3   OH215821   4.661   1.733   4.153 -0.0235  0.7307  0.2490
 5272TIP3    H115822   4.667   1.698   4.242  0.8766  1.5134  0.5134
 5272TIP3    H215823   4.613   1.667   4.104  0.6185 -0.3352  1.0153
 5273TIP3   OH215824   4.451   4.056   3.989 -0.1505  0.0929  0.3825
 5273TIP3    H115825   4.434   4.069   3.896  0.5910 -0.6919  0.1297
 5273TIP3    H215826   4.390   4.115   4.033 -0.7935  0.1638 -0.5882
 5274TIP3   OH215827   4.757   3.758   3.267 -0.1099  0.5866 -0.2593
 5274TIP3    H115828   4.779   3.775   3.175  2.1918 -0.7658 -0.0466
 5274TIP3    H215829   4.677   3.808   3.282 -0.3734  1.1257 -2.8918
 5275TIP3   OH215830   4.630   3.714   4.578  0.1165 -0.4934 -0.3297
 5275TIP3    H115831   4.676   3.637   4.545  0.3911 -0.6698  0.4449
 5275TIP3    H215832   4.696   3.762   4.628 -0.8370 -1.4311  1.9140
 5276TIP3   OH215833   3.711   5.002   1.376 -0.4296  0.2856  0.0685
 5276TIP3    H115834   3.783   5.058   1.406 -0.1123 -0.6969  1.2525
 5276TIP3    H215835   3.746   4.913   1.385 -0.8987 -0.1214 -1.8187
 5277TIP3   OH215836   3.251   5.171   2.617  0.1321  0.0158 -0.2889
 5277TIP3    H115837   3.338   5.157   2.579  0.4589  1.3350 -0.0968
 5277TIP3    H215838   3.265   5.166   2.711  0.5184  2.5768 -0.1428
 5278TIP3   OH215839   0.615   1.843   1.121 -0.2274 -0.2940  0.3758
 5278TIP3    H115840   0.535   1.871   1.166  0.7639  0.7539  1.5597
 5278TIP3    H215841   0.639   1.761   1.165  0.0070  0.0252  0.8461
 5279TIP3   OH215842   4.218   5.594   0.067  0.7059 -0.5572 -0.2473
 5279TIP3    H115843   4.142   5.541   0.044  0.2776  0.3380 -0.9914
 5279TIP3    H215844   4.276   5.589  -0.009  0.4193  0.4343 -0.5498
 5280TIP3   OH215845   1.332   5.211   0.239 -0.1170 -0.3367 -0.7593
 5280TIP3    H115846   1.251   5.219   0.190 -0.0159  0.3110 -0.8300
 5280TIP3    H215847   1.325   5.276   0.309  0.6387  0.2521 -1.2050
 5281TIP3   OH215848   4.589   4.783   2.174  0.8028 -0.1124  0.1873
 5281TIP3    H115849   4.495   4.804   2.171  0.7365 -0.4077  0.1580
 5281TIP3    H215850   4.595   4.708   2.233  0.7671 -1.4206 -1.4094
 5282TIP3   OH215851   4.289   4.222   0.860  0.1915 -0.0898 -0.1335
 5282TIP3    H115852   4.246   4.170   0.792  0.6432 -0.3969 -0.1857
 5282TIP3    H215853   4.241   4.305   0.860  0.1564 -0.1069 -0.7896
 5283TIP3   OH215854   3.779   0.489   0.398  0.1037 -0.2627  0.1439
 5283TIP3    H115855   3.779   0.426   0.470 -0.7475  2.1304  2.4091
 5283TIP3    H215856   3.823   0.444   0.326 -1.5496 -3.8286  1.1646
 5284TIP3   OH215857   4.353   4.076   4.891  0.2249 -0.2100  0.1752
 5284TIP3    H115858   4.281   4.049   4.947  0.5522 -0.1741  0.6131
 5284TIP3    H215859   4.332   4.039   4.805  0.0362 -0.7845  0.4675
 5285TIP3   OH215860   3.319   5.645   1.162  0.4384  0.1516  0.5982
 5285TIP3    H115861   3.360   5.596   1.233  0.9936  1.6207  1.3278
 5285TIP3    H215862   3.234   5.602   1.150  0.3487 -0.1731  2.1181
 5286TIP3   OH215863   5.838   2.806   0.805 -0.3974  0.0601  0.7356
 5286TIP3    H115864   5.747   2.780   0.816 -0.4017 -0.3866 -0.2345
 5286TIP3    H215865   5.887   2.724   0.806  0.0814  0.3403  1.8991
 5287TIP3   OH215866   1.034   5.182   2.971 -0.5612 -0.6666 -0.6034
 5287TIP3    H115867   1.046   5.276   2.976  0.4259 -0.7006 -1.7745
 5287TIP3    H215868   1.115   5.145   3.006 -0.9864 -1.0884 -0.0476
 5288TIP3   OH215869   6.334   5.970   2.629  0.1127 -0.1271 -0.1452
 5288TIP3    H115870   6.323   5.887   2.582 -0.3413 -0.1279 -0.0389
 5288TIP3    H215871   6.313   6.036   2.564  1.2438 -0.0501 -0.4682
 5289TIP3   OH215872   2.847   3.663   1.940  0.5699  0.4549  0.0294
 5289TIP3    H115873   2.820   3.726   2.007 -0.5132 -0.3190  0.3334
 5289TIP3    H215874   2.866   3.583   1.989  1.0826  0.2785 -0.4530
 5290TIP3   OH215875   2.563   4.859   3.706  0.4964  0.2792  0.4534
 5290TIP3    H115876   2.603   4.799   3.769  0.4368  1.8328  2.0352
 5290TIP3    H215877   2.627   4.929   3.696  0.7785 -0.2202 -1.7411
 5291TIP3   OH215878   4.831   3.475   2.499 -0.3912  0.0410  0.1702
 5291TIP3    H115879   4.855   3.468   2.407  2.2898 -0.3458  0.8340
 5291TIP3    H215880   4.861   3.561   2.526 -2.1098  0.5897  0.4965
 5292TIP3   OH215881   5.860   4.918   0.256 -0.0444  0.0220  0.5495
 5292TIP3    H115882   5.893   4.961   0.177  0.6851 -0.1042  0.7750
 5292TIP3    H215883   5.814   4.987   0.303 -0.3120  0.1471  0.1155
 5293TIP3   OH215884   1.844   1.556   1.046  0.0176  0.1721  0.1422
 5293TIP3    H115885   1.850   1.652   1.047  1.0361  0.1131  1.0796
 5293TIP3    H215886   1.916   1.527   1.102  0.5004 -1.1920 -1.1195
 5294TIP3   OH215887   0.333   2.848   4.669 -0.3053 -0.5831 -0.5465
 5294TIP3    H115888   0.320   2.921   4.730 -0.5361  0.4187 -1.7698
 5294TIP3    H215889   0.388   2.884   4.600 -2.1165 -0.9314 -2.2525
 5295TIP3   OH215890   1.636   1.466   1.329 -0.2864  0.4841 -0.1109
 5295TIP3    H115891   1.626   1.371   1.322 -0.9345  0.5681 -0.4981
 5295TIP3    H215892   1.705   1.479   1.393 -2.0144 -0.2285  2.0292
 5296TIP3   OH215893   4.025   2.365   2.745  0.2846 -0.2149 -0.2841
 5296TIP3    H115894   3.968   2.295   2.778  0.0109 -0.1465 -0.6124
 5296TIP3    H215895   4.015   2.362   2.650 -1.7252  1.9394 -0.2140
 5297TIP3   OH215896   5.269   1.545   1.331 -0.4165 -0.4101 -0.3677
 5297TIP3    H115897   5.188   1.528   1.284 -0.0667  1.3103 -1.7119
 5297TIP3    H215898   5.338   1.531   1.266  0.1168  1.4796 -0.2836
 5298TIP3   OH215899   4.668   2.037   4.922  0.1388 -0.0040 -0.1922
 5298TIP3    H115900   4.613   2.106   4.886 -0.1148  1.1461  2.2253
 5298TIP3    H215901   4.609   1.984   4.975  0.9956  0.1213  0.9172
 5299TIP3   OH215902   3.119   2.142   2.283  0.5808 -0.2058 -0.4786
 5299TIP3    H115903   3.143   2.232   2.305 -2.2589  0.2236  1.3452
 5299TIP3    H215904   3.176   2.088   2.338  0.9267  0.5236 -0.1084
 5300TIP3   OH215905   1.890   1.982   1.802  0.8119  0.5977 -0.3191
 5300TIP3    H115906   1.968   2.034   1.781 -0.4209  3.1817  1.0515
 5300TIP3    H215907   1.816   2.039   1.781 -0.6263 -0.4525  1.5161
 5301TIP3   OH215908   5.232   2.857   3.738  0.0090  0.6989 -0.1356
 5301TIP3    H115909   5.208   2.893   3.653 -0.4807  1.8856  0.4756
 5301TIP3    H215910   5.292   2.922   3.775  0.2918  0.1507  0.3818
 5302TIP3   OH215911   2.686   2.538   3.688  0.0988 -0.3477 -0.2203
 5302TIP3    H115912   2.630   2.496   3.753  0.2237  0.0601  0.1481
 5302TIP3    H215913   2.639   2.526   3.605 -0.2312 -0.5510 -0.0045
 5303TIP3   OH215914   1.908   0.782   1.915  0.2434 -0.1592 -0.0757
 5303TIP3    H115915   1.871   0.844   1.978  0.6698  1.5388 -1.4058
 5303TIP3    H215916   1.844   0.710   1.912 -1.1198  0.9748  0.3449
 5304TIP3   OH215917   0.972   0.173   3.486 -0.2965  0.5461  0.5107
 5304TIP3    H115918   0.986   0.226   3.564  0.9648  2.1161 -0.7194
 5304TIP3    H215919   1.051   0.186   3.434 -1.3118 -0.0601 -1.2563
 5305TIP3   OH215920   2.621   4.530   3.649 -0.1269  0.4525 -0.6413
 5305TIP3    H115921   2.699   4.585   3.643 -0.1011  0.3529 -1.4010
 5305TIP3    H215922   2.564   4.563   3.579 -1.6654  1.8944  1.1735
 5306TIP3   OH215923   2.281   5.615   3.315  0.4261 -0.5302 -0.0115
 5306TIP3    H115924   2.219   5.580   3.379 -0.2911  1.7774  0.6624
 5306TIP3    H215925   2.320   5.691   3.358 -0.0748  1.1250 -2.2528
 5307TIP3   OH215926   6.261   4.360   2.308 -0.1923 -0.1541  0.3862
 5307TIP3    H115927   6.208   4.439   2.320 -2.3937 -1.3611 -0.7713
 5307TIP3    H215928   6.281   4.359   2.214  0.3487 -0.6448  0.5043
 5308TIP3   OH215929   1.608   3.240   4.534  0.4148 -0.3152 -0.0011
 5308TIP3    H115930   1.662   3.204   4.465  1.0650  0.4695  0.0887
 5308TIP3    H215931   1.635   3.194   4.613  0.7589 -0.1272 -0.0075
 5309TIP3   OH215932   3.100   4.334   2.453 -0.4916  0.1992 -0.7349
 5309TIP3    H115933   3.061   4.356   2.368 -0.3281  0.0747 -0.8435
 5309TIP3    H215934   3.067   4.247   2.472  0.1060 -0.1048 -1.0548
 5310TIP3   OH215935   1.766   2.648   2.968 -0.1718  0.1986 -0.0745
 5310TIP3    H115936   1.695   2.589   2.992 -0.2181  0.7620  1.2469
 5310TIP3    H215937   1.759   2.721   3.030  0.5402  1.0699 -0.9873
 5311TIP3   OH215938   1.563   1.586   1.086  0.3684  0.6293 -0.3027
 5311TIP3    H115939   1.649   1.577   1.046  1.0517 -1.3631  1.4711
 5311TIP3    H215940   1.564   1.526   1.161 -2.0864  1.5571  0.5811
 5312TIP3   OH215941   4.449   2.923   0.043 -0.2222  0.2018 -0.3716
 5312TIP3    H115942   4.456   3.015   0.016 -1.4094  0.2768 -0.5012
 5312TIP3    H215943   4.531   2.904   0.088  0.2369  1.1860 -0.7705
 5313TIP3   OH215944   3.432   3.292   1.898 -0.6514 -0.0605  0.5582
 5313TIP3    H115945   3.417   3.282   1.992  0.8075 -1.0533  0.7136
 5313TIP3    H215946   3.478   3.213   1.872  1.9752  1.6246 -0.3197
 5314TIP3   OH215947   2.877   3.158   3.666  0.1389  0.6959  0.0383
 5314TIP3    H115948   2.897   3.124   3.579  1.7140  0.4257  0.4629
 5314TIP3    H215949   2.904   3.250   3.662  0.3485  0.6466  0.2718
 5315TIP3   OH215950   2.777   5.243   2.333 -0.0661  0.2919  0.0084
 5315TIP3    H115951   2.763   5.150   2.314 -0.6390  0.5118 -0.6753
 5315TIP3    H215952   2.689   5.280   2.341  0.1410  0.9318 -0.5184
 5316TIP3   OH215953   0.675   1.159   2.438 -0.0377 -0.3571 -0.0857
 5316TIP3    H115954   0.642   1.222   2.373  0.0499 -1.2419 -1.0151
 5316TIP3    H215955   0.641   1.191   2.521  1.4673  1.9339 -0.2738
 5317TIP3   OH215956   1.594   0.956   4.893  0.4153 -0.0633 -0.2487
 5317TIP3    H115957   1.585   0.878   4.839  0.1933  0.5341 -1.1001
 5317TIP3    H215958   1.504   0.987   4.905  0.3455 -0.7838  1.3978
 5318TIP3   OH215959   6.195   3.626   2.506  0.8023 -0.2344  0.0290
 5318TIP3    H115960   6.136   3.663   2.441 -0.4208  0.6573  1.5622
 5318TIP3    H215961   6.275   3.678   2.499  0.5354  0.1174 -0.4708
 5319TIP3   OH215962   1.779   2.349   1.644 -0.0696 -0.5190  0.2180
 5319TIP3    H115963   1.714   2.399   1.594 -0.7486  0.1553  1.7210
 5319TIP3    H215964   1.737   2.265   1.660 -0.2020 -0.4246  0.3740
 5320TIP3   OH215965   6.257   2.623   3.059 -0.4890 -0.1035 -0.0201
 5320TIP3    H115966   6.323   2.691   3.046 -0.5412 -0.1579 -0.6096
 5320TIP3    H215967   6.177   2.670   3.081 -0.4058 -0.0006  0.0617
 5321TIP3   OH215968   4.445   4.748   4.550 -0.1499 -0.1118  0.3768
 5321TIP3    H115969   4.506   4.787   4.488  0.2964 -2.2054 -0.5703
 5321TIP3    H215970   4.371   4.809   4.552  1.1151  1.5162  0.1177
 5322TIP3   OH215971   1.092   0.465   0.513  0.2455 -0.0732 -0.0467
 5322TIP3    H115972   1.184   0.448   0.532  0.3102 -1.4874 -1.3975
 5322TIP3    H215973   1.088   0.466   0.417 -0.7257  2.5301 -0.0399
 5323TIP3   OH215974   2.534   0.725   2.930  0.1981 -0.4126  0.0985
 5323TIP3    H115975   2.535   0.656   2.997 -0.3210 -1.8713 -1.3165
 5323TIP3    H215976   2.529   0.677   2.847 -0.7026  1.3699 -0.9294
 5324TIP3   OH215977   2.517   4.916   0.351 -0.2250  0.3115  0.2568
 5324TIP3    H115978   2.527   4.935   0.258  0.4081 -0.3092  0.1843
 5324TIP3    H215979   2.434   4.869   0.357  0.9902 -2.1067 -0.4295
 5325TIP3   OH215980   3.889   5.999   0.265 -0.6931  0.9179  0.3632
 5325TIP3    H115981   3.809   5.987   0.214 -0.2208 -1.2582  0.0336
 5325TIP3    H215982   3.874   5.949   0.346  0.3817  0.3042  0.2005
 5326TIP3   OH215983   1.583   1.976   4.976  0.1211  0.2058  0.3427
 5326TIP3    H115984   1.595   2.027   5.056 -0.8275 -1.0145  1.3069
 5326TIP3    H215985   1.506   1.921   4.994 -0.4671  0.3010 -1.6197
 5327TIP3   OH215986   5.853   1.264   2.326 -0.0755 -0.3148 -0.0073
 5327TIP3    H115987   5.914   1.211   2.277 -0.0739  0.5064 -0.9208
 5327TIP3    H215988   5.901   1.344   2.346 -0.1412 -0.5508  1.1732
 5328TIP3   OH215989   1.575   2.108   4.107 -0.2617 -0.2387  0.2160
 5328TIP3    H115990   1.550   2.030   4.059  1.1604  0.5334 -1.9317
 5328TIP3    H215991   1.563   2.180   4.045  1.2466  0.8617  1.1132
 5329TIP3   OH215992   3.895   1.412   4.334  0.6344  0.1107 -0.0472
 5329TIP3    H115993   3.958   1.370   4.275  0.4341  0.9588 -0.9011
 5329TIP3    H215994   3.904   1.505   4.314  0.4229  0.3962  1.1542
 5330TIP3   OH215995   5.437   1.183   2.571  0.1275  0.7298 -0.7225
 5330TIP3    H115996   5.433   1.092   2.600  0.0057  1.0804  0.4143
 5330TIP3    H215997   5.376   1.187   2.498  0.6183 -0.2442 -1.2014
 5331TIP3   OH215998   5.373   2.832   0.259 -0.3167 -0.0264 -0.0152
 5331TIP3    H115999   5.458   2.875   0.245  0.6598 -1.3566  1.4289
 5331TIP3    H216000   5.388   2.741   0.232 -2.1807  0.3038 -2.5387
 5332TIP3   OH216001   4.103   4.558   4.775 -0.0676  0.3315 -0.5326
 5332TIP3    H116002   4.052   4.504   4.714 -0.5663  0.1398  0.0416
 5332TIP3    H216003   4.192   4.525   4.767  0.2113  1.3949 -2.3674
 5333TIP3   OH216004   1.726   5.334   2.901 -0.2917  0.2251  0.2448
 5333TIP3    H116005   1.678   5.296   2.975  1.7973 -0.1336  1.5143
 5333TIP3    H216006   1.755   5.259   2.850 -0.5226  0.3995 -0.1424
 5334TIP3   OH216007   4.730   2.295   1.554 -0.2542 -0.5155 -0.4244
 5334TIP3    H116008   4.715   2.389   1.539 -0.9183 -0.7408 -1.1855
 5334TIP3    H216009   4.720   2.285   1.649  0.6242  0.3220 -0.2228
 5335TIP3   OH216010   2.295   4.132   2.497  0.3290  0.0771 -0.2183
 5335TIP3    H116011   2.282   4.166   2.585 -0.7662 -0.2033 -0.2574
 5335TIP3    H216012   2.333   4.204   2.448  1.8948 -0.0708  0.7198
 5336TIP3   OH216013   5.466   4.971   2.381 -0.2305 -0.4837 -0.8669
 5336TIP3    H116014   5.420   4.925   2.311  1.2136  0.4680 -2.5501
 5336TIP3    H216015   5.490   5.056   2.342 -0.0889  0.4258  1.0736
 5337TIP3   OH216016   5.873   4.655   4.700 -0.3408  0.2535  0.4960
 5337TIP3    H116017   5.804   4.669   4.635 -0.9036  0.6140  1.1593
 5337TIP3    H216018   5.951   4.695   4.662 -0.4408 -0.3112 -0.3413
 5338TIP3   OH216019   4.859   4.057   4.852  0.1565  0.7211 -0.1353
 5338TIP3    H116020   4.886   4.146   4.875  1.0859  0.3045  0.4486
 5338TIP3    H216021   4.907   4.001   4.913  1.4131 -0.3253 -1.9841
 5339TIP3   OH216022   0.162   2.506   1.362  0.3365 -0.8687  0.2745
 5339TIP3    H116023   0.210   2.470   1.287  1.1679 -1.9803  1.3088
 5339TIP3    H216024   0.211   2.584   1.387 -0.3851 -0.0385 -0.7852
 5340TIP3   OH216025   4.752   1.418   0.428  0.3323  0.3241  0.2254
 5340TIP3    H116026   4.721   1.335   0.462 -1.3046  0.7412 -0.1681
 5340TIP3    H216027   4.742   1.479   0.501  3.9208 -0.2248  1.3947
 5341TIP3   OH216028   1.911   5.102   4.981 -0.4575  0.4182  0.3906
 5341TIP3    H116029   1.852   5.131   4.912 -0.1605 -0.8612 -0.4289
 5341TIP3    H216030   1.881   5.015   5.004  0.6703  0.0298  0.4601
 5342TIP3   OH216031   4.314   4.927   2.593  0.6549 -0.5821  0.2213
 5342TIP3    H116032   4.229   4.905   2.554  0.8857  0.3925 -0.8954
 5342TIP3    H216033   4.376   4.920   2.520  1.1148  1.2032  0.3876
 5343TIP3   OH216034   0.403   1.843   2.041  0.0007 -0.1266  0.3480
 5343TIP3    H116035   0.441   1.831   2.128  0.0764 -1.1598  0.1791
 5343TIP3    H216036   0.478   1.857   1.984  0.0122 -0.3378  0.3100
 5344TIP3   OH216037   2.912   1.330   3.052 -0.5064  0.2305  0.0501
 5344TIP3    H116038   2.947   1.267   2.990 -0.5786 -0.8185  1.0466
 5344TIP3    H216039   2.971   1.326   3.127 -1.0413  0.6613  0.5077
 5345TIP3   OH216040   5.635   5.391   3.284  0.2476  0.7496 -0.5994
 5345TIP3    H116041   5.705   5.409   3.347  0.4152 -1.2436 -0.1561
 5345TIP3    H216042   5.676   5.335   3.218 -0.5957  0.7038 -1.0989
 5346TIP3   OH216043   1.457   0.605   3.472 -0.1780 -0.0939  0.4765
 5346TIP3    H116044   1.489   0.630   3.558  0.3195  2.2527 -0.3049
 5346TIP3    H216045   1.392   0.672   3.451 -0.4827 -0.7765 -0.8737
 5347TIP3   OH216046   6.154   5.738   3.926  0.2595 -0.6833 -0.4448
 5347TIP3    H116047   6.120   5.796   3.994  0.0626 -0.5179 -0.6794
 5347TIP3    H216048   6.194   5.797   3.862 -1.6595 -0.6028 -1.6872
 5348TIP3   OH216049   5.652   1.257   2.850  0.1116  0.1260  0.4312
 5348TIP3    H116050   5.602   1.320   2.799 -0.2275 -0.2004  0.3599
 5348TIP3    H216051   5.739   1.258   2.810 -0.1716 -0.1788 -0.2113
 5349TIP3   OH216052   2.860   0.431   4.937 -0.0018  0.1685 -0.3945
 5349TIP3    H116053   2.924   0.501   4.952 -0.1306  0.3146 -0.5325
 5349TIP3    H216054   2.914   0.352   4.932  0.3855  0.4946 -2.3165
 5350TIP3   OH216055   4.329   3.699   0.621  0.6265  0.3772  0.1266
 5350TIP3    H116056   4.399   3.707   0.686  0.4563 -0.7564  0.4817
 5350TIP3    H216057   4.296   3.610   0.633 -0.2004  0.5539 -0.7251
 5351TIP3   OH216058   2.515   2.655   1.024 -0.7370 -0.1152 -0.1532
 5351TIP3    H116059   2.477   2.678   1.109  0.2701 -0.3196  0.3671
 5351TIP3    H216060   2.492   2.563   1.012  0.0262 -0.3947  0.4176
 5352TIP3   OH216061   5.510   3.262   0.469 -0.9703  0.1162 -0.4092
 5352TIP3    H116062   5.559   3.197   0.518  1.0491  1.4549 -0.5499
 5352TIP3    H216063   5.517   3.233   0.378 -0.8135  0.0736 -0.3837
 5353TIP3   OH216064   3.270   2.069   4.638  0.0957  0.1611  0.1371
 5353TIP3    H116065   3.247   2.047   4.728 -1.9355 -1.2097 -0.6408
 5353TIP3    H216066   3.358   2.034   4.626  0.3892  0.3633  1.5747
 5354TIP3   OH216067   5.619   5.566   1.374  0.5851 -0.2792 -0.5339
 5354TIP3    H116068   5.552   5.599   1.433  1.8577  0.9023  0.3197
 5354TIP3    H216069   5.595   5.599   1.288  1.4617  2.4804  0.1859
 5355TIP3   OH216070   3.724   3.500   4.367 -0.4626 -1.0008 -0.6080
 5355TIP3    H116071   3.723   3.541   4.281 -1.1659  1.2930  0.4072
 5355TIP3    H216072   3.740   3.572   4.428  0.7803 -2.6616  1.1618
 5356TIP3   OH216073   2.999   2.455   1.701  0.0285 -0.1338  0.2325
 5356TIP3    H116074   2.967   2.389   1.639  0.0701  1.5743 -1.6928
 5356TIP3    H216075   3.070   2.499   1.655  0.6541  0.6492  1.8547
 5357TIP3   OH216076   2.996   0.583   4.475  0.9141  0.4217 -0.0218
 5357TIP3    H116077   3.038   0.606   4.558  0.6634  0.0710  0.2064
 5357TIP3    H216078   3.007   0.660   4.420  1.0359  0.6774  0.3597
 5358TIP3   OH216079   1.490   2.174   2.080 -1.1321 -0.0222 -0.2802
 5358TIP3    H116080   1.513   2.131   1.997  0.4763  0.1446  0.0503
 5358TIP3    H216081   1.395   2.169   2.083 -1.2617  0.1564 -2.2564
 5359TIP3   OH216082   6.206   1.099   4.324  1.3007 -0.2264 -0.0416
 5359TIP3    H116083   6.110   1.096   4.333  1.3388 -0.5037  0.3198
 5359TIP3    H216084   6.221   1.088   4.231  1.0012 -1.1087  0.0010
 5360TIP3   OH216085   6.363   0.053   3.893 -0.4573  0.5143 -0.2991
 5360TIP3    H116086   6.271   0.074   3.877 -0.9093  0.0441  1.4590
 5360TIP3    H216087   6.408   0.137   3.889 -1.3989  1.1447  1.3977
 5361TIP3   OH216088   3.648   0.221   4.455  0.3359 -0.2809 -0.0959
 5361TIP3    H116089   3.741   0.232   4.437  0.8213 -1.6078  1.3820
 5361TIP3    H216090   3.632   0.128   4.442 -0.1820 -0.5549  2.1192
 5362TIP3   OH216091   1.207   5.771   1.768  0.1969  0.4115  0.2493
 5362TIP3    H116092   1.155   5.841   1.729  0.9330  1.6844  1.4581
 5362TIP3    H216093   1.295   5.808   1.777  0.5420 -0.5648  1.1614
 5363TIP3   OH216094   5.257   3.774   2.666 -0.0628  0.3908  0.5939
 5363TIP3    H116095   5.270   3.725   2.747  0.2840  1.1206  0.9879
 5363TIP3    H216096   5.166   3.802   2.669 -0.7385 -1.5226 -0.3761
 5364TIP3   OH216097   2.502   4.498   0.895  0.3678  0.4831  0.4489
 5364TIP3    H116098   2.592   4.527   0.911  0.7229 -0.7045  0.6901
 5364TIP3    H216099   2.511   4.414   0.851 -0.5998 -0.3502  1.7609
 5365TIP3   OH216100   3.217   4.861   4.551  0.0767 -0.7882  0.3020
 5365TIP3    H116101   3.166   4.924   4.500 -2.4243 -1.2961  1.9957
 5365TIP3    H216102   3.249   4.799   4.487 -0.3148  0.3075 -1.0043
 5366TIP3   OH216103   0.093   1.703   0.810  0.1229 -0.9010  0.8032
 5366TIP3    H116104   0.017   1.755   0.837  0.0060 -1.3746  1.4300
 5366TIP3    H216105   0.169   1.752   0.843  0.1162 -0.2258 -0.1706
 5367TIP3   OH216106   0.106   0.481   4.977  0.1667  0.6510  0.3397
 5367TIP3    H116107   0.106   0.508   4.885 -2.0749  0.3110  0.1798
 5367TIP3    H216108   0.087   0.561   5.026  0.0533  0.5829  0.4067
 5368TIP3   OH216109   0.324   0.475   3.409  0.0791 -0.1635  0.0120
 5368TIP3    H116110   0.297   0.563   3.435  0.8876 -0.0544  0.4981
 5368TIP3    H216111   0.416   0.470   3.434  0.1332 -1.0241 -0.3448
 5369TIP3   OH216112   0.958   0.292   3.113  0.6024 -0.0083  0.2387
 5369TIP3    H116113   1.001   0.377   3.109  1.5604 -0.4670  0.5779
 5369TIP3    H216114   1.029   0.229   3.124 -0.0549 -0.9001 -0.4700
 5370TIP3   OH216115   0.458   5.222   1.866 -0.5659  0.8430  0.5896
 5370TIP3    H116116   0.422   5.305   1.837 -0.5851  1.3524  2.0204
 5370TIP3    H216117   0.551   5.226   1.842 -0.5158  1.3873  0.8589
 5371TIP3   OH216118   2.186   4.759   3.449  0.3971  0.0414  0.0751
 5371TIP3    H116119   2.177   4.793   3.538 -2.0687  0.2630 -0.2049
 5371TIP3    H216120   2.180   4.664   3.458 -2.4882  0.1300 -0.0127
 5372TIP3   OH216121   1.985   4.280   1.075 -0.2780 -0.3175  0.1878
 5372TIP3    H116122   1.910   4.338   1.059 -0.5814 -0.1698  1.9549
 5372TIP3    H216123   1.959   4.228   1.150  1.4862 -0.1188  0.9797
 5373TIP3   OH216124   3.691   5.157   0.474 -0.1757 -0.2482  0.4326
 5373TIP3    H116125   3.710   5.226   0.538 -1.1767 -0.5374  1.0474
 5373TIP3    H216126   3.616   5.110   0.510 -0.8111 -0.3755 -0.9853
 5374TIP3   OH216127   1.807   2.647   1.226 -1.3497 -0.5370 -0.3042
 5374TIP3    H116128   1.712   2.654   1.221 -1.2258  0.8819 -1.2081
 5374TIP3    H216129   1.839   2.731   1.192  0.2396 -1.5173 -1.3467
 5375TIP3   OH216130   2.166   1.057   4.994 -0.2762 -0.1769 -0.6627
 5375TIP3    H116131   2.146   1.149   5.013  0.7534 -0.0486 -0.1378
 5375TIP3    H216132   2.115   1.008   5.058  0.1105  0.0884 -0.1404
 5376TIP3   OH216133   3.265   0.702   2.800 -0.0619  0.0346 -0.1121
 5376TIP3    H116134   3.275   0.714   2.706 -0.7546  1.2951 -0.0403
 5376TIP3    H216135   3.239   0.610   2.810 -0.7470  0.1011 -1.2100
 5377TIP3   OH216136   1.395   5.061   3.816  0.0449  0.4401  0.7674
 5377TIP3    H116137   1.306   5.089   3.793  0.4640  0.7908 -0.5250
 5377TIP3    H216138   1.401   4.972   3.782 -0.2421 -0.0870  2.0578
 5378TIP3   OH216139   4.831   4.878   4.798  0.2823 -0.6938 -0.7302
 5378TIP3    H116140   4.820   4.963   4.840  0.2452 -1.4659  0.9336
 5378TIP3    H216141   4.746   4.860   4.758 -0.4950 -0.9432  0.9331
 5379TIP3   OH216142   1.666   0.186   4.150  0.3395 -0.0769 -0.3893
 5379TIP3    H116143   1.725   0.178   4.225  1.8342 -0.6977 -1.5569
 5379TIP3    H216144   1.689   0.270   4.111 -0.6036  0.3582 -0.0235
 5380TIP3   OH216145   1.610   3.594   0.502 -0.5336 -0.4915 -0.1061
 5380TIP3    H116146   1.592   3.503   0.524 -0.9098 -0.6584 -1.0643
 5380TIP3    H216147   1.527   3.627   0.468 -0.5187  0.3380  0.6195
 5381TIP3   OH216148   0.792   3.367   2.371  0.2186 -0.3741  0.6865
 5381TIP3    H116149   0.704   3.344   2.343  0.4707 -0.7499  0.1817
 5381TIP3    H216150   0.829   3.286   2.406 -0.2349  0.1701  2.5702
 5382TIP3   OH216151   1.332   0.676   2.989  0.2145 -0.0657  0.5876
 5382TIP3    H116152   1.319   0.696   3.081  1.4618  2.4191  0.2945
 5382TIP3    H216153   1.411   0.621   2.987  0.4142  0.2049  0.9814
 5383TIP3   OH216154   1.600   4.524   0.534  0.0895  0.1992  0.3432
 5383TIP3    H116155   1.585   4.457   0.600  0.3244  0.2460  0.4458
 5383TIP3    H216156   1.521   4.523   0.480  0.6247 -1.0803 -0.4705
 5384TIP3   OH216157   2.080   4.076   2.985  0.6011 -0.0049 -0.4839
 5384TIP3    H116158   2.142   4.037   3.047  1.0519 -0.3541 -1.1357
 5384TIP3    H216159   2.071   4.167   3.013 -0.6229 -0.6051  1.1889
 5385TIP3   OH216160   4.559   5.658   1.470 -0.3982 -0.2401 -0.2133
 5385TIP3    H116161   4.654   5.655   1.477 -0.3713 -0.2367 -0.5568
 5385TIP3    H216162   4.541   5.730   1.410 -0.7156  1.1496  1.4877
 5386TIP3   OH216163   4.333   0.471   3.105 -0.1256 -0.7592 -0.1284
 5386TIP3    H116164   4.378   0.546   3.143  1.5723 -1.5738 -0.4124
 5386TIP3    H216165   4.347   0.399   3.167 -0.6692 -1.1497 -0.4396
 5387TIP3   OH216166   1.130   2.431   4.123  0.0253  0.1107 -0.2682
 5387TIP3    H116167   1.110   2.337   4.119 -1.2182  0.3819 -1.0425
 5387TIP3    H216168   1.127   2.452   4.216 -4.7383  0.3245 -0.2208
 5388TIP3   OH216169   3.593   3.168   0.583  0.1208  0.2284  0.0155
 5388TIP3    H116170   3.664   3.182   0.646  0.5191 -0.5913 -0.2309
 5388TIP3    H216171   3.636   3.125   0.509 -0.3150  1.2692 -0.8796
 5389TIP3   OH216172   2.675   1.926   3.205 -0.4594 -0.1366  0.0952
 5389TIP3    H116173   2.721   1.850   3.168 -1.0394 -0.1941 -0.5279
 5389TIP3    H216174   2.739   1.967   3.263 -0.1968 -1.2186  0.6022
 5390TIP3   OH216175   5.046   2.445   1.579 -0.1404 -0.3662  0.2562
 5390TIP3    H116176   5.003   2.521   1.540 -1.2491 -0.6776  0.8418
 5390TIP3    H216177   5.050   2.465   1.673  0.6712 -0.5134  0.2634
 5391TIP3   OH216178   0.200   3.752   1.165  0.3239 -0.0661 -0.0958
 5391TIP3    H116179   0.193   3.695   1.089  1.1168 -0.2263 -0.0498
 5391TIP3    H216180   0.121   3.733   1.216  1.6319 -2.8318  1.1001
 5392TIP3   OH216181   3.604   1.775   2.016  1.0636  0.6382 -0.4848
 5392TIP3    H116182   3.677   1.830   2.044  2.2919 -0.4091 -1.4965
 5392TIP3    H216183   3.638   1.685   2.022 -0.1121  0.1323 -1.0505
 5393TIP3   OH216184   4.593   0.510   3.241 -0.2775 -0.2964 -0.4225
 5393TIP3    H116185   4.572   0.490   3.332  0.5990  0.1998 -0.0966
 5393TIP3    H216186   4.685   0.538   3.243  0.0279 -1.1383 -1.5876
 5394TIP3   OH216187   6.200   2.905   2.118 -0.1077 -0.2439  0.0726
 5394TIP3    H116188   6.276   2.926   2.173 -1.2303  0.9443  1.2344
 5394TIP3    H216189   6.190   2.810   2.127  0.9613 -0.3602  0.2446
 5395TIP3   OH216190   4.506   1.541   4.041  0.1205  0.0019  0.5203
 5395TIP3    H116191   4.455   1.468   4.075  0.3457 -0.4242 -0.0445
 5395TIP3    H216192   4.468   1.559   3.955  1.6937 -1.1427 -0.4611
 5396TIP3   OH216193   3.119   4.360   0.945  0.1305 -0.0741  0.0421
 5396TIP3    H116194   3.066   4.350   1.025  1.1247 -0.2201  0.7087
 5396TIP3    H216195   3.202   4.317   0.967  1.6082  2.5812  0.0867
 5397TIP3   OH216196   3.415   5.933   2.676  0.0090 -0.1372  0.1518
 5397TIP3    H116197   3.405   5.840   2.695  0.0370 -0.5481 -1.6578
 5397TIP3    H216198   3.452   5.936   2.588 -0.0950  1.5968  0.1188
 5398TIP3   OH216199   3.504   3.679   2.907  0.1078 -0.1828  0.0749
 5398TIP3    H116200   3.463   3.766   2.914  1.9840  0.6990  0.7432
 5398TIP3    H216201   3.434   3.623   2.875 -1.0034  1.7098 -1.0643
 5399TIP3   OH216202   2.174   1.320   5.046 -0.3169  0.1832 -0.2990
 5399TIP3    H116203   2.229   1.331   5.124 -0.2809  0.8307 -0.4111
 5399TIP3    H216204   2.235   1.327   4.973 -0.3082 -0.7053 -0.3807
 5400TIP3   OH216205   3.204   5.838   0.453 -0.8925 -0.0470  0.1807
 5400TIP3    H116206   3.241   5.761   0.409  0.5326 -0.0196  1.2604
 5400TIP3    H216207   3.230   5.912   0.399  1.2658  0.0347  1.2401
 5401TIP3   OH216208   4.401   1.721   3.359 -0.3132 -0.3080 -0.3587
 5401TIP3    H116209   4.476   1.662   3.357 -1.4272 -1.7512 -0.6792
 5401TIP3    H216210   4.391   1.750   3.268  0.9130  1.3406 -0.0305
 5402TIP3   OH216211   4.858   3.523   2.914  0.3985  0.1461  0.5315
 5402TIP3    H116212   4.889   3.443   2.873  0.5118 -0.3987  1.6554
 5402TIP3    H216213   4.920   3.539   2.986  0.3697  1.2293  0.3386
 5403TIP3   OH216214   1.512   4.638   4.992  0.1144  0.0643  0.0088
 5403TIP3    H116215   1.535   4.730   4.980 -2.3492  0.4727 -2.8846
 5403TIP3    H216216   1.441   4.639   5.057  0.6084  0.0919  0.5539
 5404TIP3   OH216217   3.740   3.708   2.609 -0.1816  0.2537 -0.7242
 5404TIP3    H116218   3.685   3.709   2.531  0.4110  1.3742 -1.1355
 5404TIP3    H216219   3.816   3.655   2.585 -0.3641 -0.0526 -0.6392
 5405TIP3   OH216220   6.339   3.473   2.855 -0.6528 -0.2344 -0.5249
 5405TIP3    H116221   6.333   3.555   2.904 -0.5541  0.3463 -1.4636
 5405TIP3    H216222   6.282   3.412   2.903  1.4195 -0.4937  1.8142
 5406TIP3   OH216223   1.451   2.230   4.572 -0.4774  0.2320  0.3687
 5406TIP3    H116224   1.434   2.176   4.650 -0.1922 -0.0340  0.2459
 5406TIP3    H216225   1.401   2.310   4.588 -1.0177 -0.1189  0.4892
 5407TIP3   OH216226   1.952   2.295   0.910  0.3370 -0.2002 -0.1124
 5407TIP3    H116227   1.944   2.326   1.000  0.1436 -0.1101 -0.1596
 5407TIP3    H216228   1.905   2.212   0.909  0.5421 -0.3145 -0.0724
 5408TIP3   OH216229   1.103   4.636   0.760  0.4117  0.4773  0.1026
 5408TIP3    H116230   1.090   4.700   0.690 -0.2789 -0.4030 -0.5858
 5408TIP3    H216231   1.021   4.589   0.766  0.9855 -0.5124  0.4373
 5409TIP3   OH216232   5.427   5.696   5.080  0.0784 -0.4507 -0.2400
 5409TIP3    H116233   5.474   5.680   4.998  0.2655  0.0799 -0.2378
 5409TIP3    H216234   5.464   5.632   5.141 -0.3551 -1.1286 -0.6762
 5410TIP3   OH216235   0.985   2.279   2.886  0.2868 -0.0201 -0.3049
 5410TIP3    H116236   0.895   2.309   2.871  0.6481  1.5116  0.3228
 5410TIP3    H216237   0.976   2.204   2.945 -0.5894 -0.1202 -0.5507
 5411TIP3   OH216238   0.791   5.018   2.134  0.1048  0.0941  0.9225
 5411TIP3    H116239   0.831   4.937   2.165  0.6564 -0.8371 -1.9298
 5411TIP3    H216240   0.857   5.057   2.077 -1.4539  0.6782 -0.5767
 5412TIP3   OH216241   5.933   2.272   1.669  0.4271  0.1075  0.1161
 5412TIP3    H116242   5.920   2.353   1.620  2.3916 -0.1404 -0.9267
 5412TIP3    H216243   5.904   2.203   1.610  0.4179 -0.0601  0.3149
 5413TIP3   OH216244   4.687   2.937   3.580 -0.0931 -0.0430  0.3743
 5413TIP3    H116245   4.743   3.010   3.555  1.4088 -1.1097  0.4289
 5413TIP3    H216246   4.642   2.966   3.659  0.1706  0.9593  0.1605
 5414TIP3   OH216247   0.289   3.166   1.546 -0.3223  0.3983 -0.6651
 5414TIP3    H116248   0.238   3.196   1.470 -1.5859 -0.1655 -0.0762
 5414TIP3    H216249   0.334   3.245   1.577 -0.5447  0.8405 -1.4303
 5415TIP3   OH216250   6.348   5.159   2.217  0.2242  0.2817  0.1038
 5415TIP3    H116251   6.317   5.091   2.157 -1.8354  1.6360 -0.4699
 5415TIP3    H216252   6.320   5.130   2.303  0.8902 -0.4065  0.1008
 5416TIP3   OH216253   0.265   2.947   0.207  0.0066 -0.7960  0.0468
 5416TIP3    H116254   0.289   3.028   0.163 -2.1905 -0.6740 -1.0355
 5416TIP3    H216255   0.304   2.878   0.154 -1.2917 -0.5803 -1.2283
 5417TIP3   OH216256   1.207   2.501   2.506  0.2825  0.1174  0.6265
 5417TIP3    H116257   1.247   2.449   2.437 -1.8586 -0.9471  0.1006
 5417TIP3    H216258   1.117   2.514   2.478  0.1092  2.1759  1.8655
 5418TIP3   OH216259   3.545   1.113   2.502  0.5296 -0.1610  0.1110
 5418TIP3    H116260   3.585   1.154   2.578  0.3414 -0.8553  0.5924
 5418TIP3    H216261   3.619   1.090   2.445  0.6078  1.3406 -0.4423
 5419TIP3   OH216262   2.653   0.483   4.477  0.4525 -0.1006  0.1358
 5419TIP3    H116263   2.639   0.388   4.471  1.4396 -0.3632  1.4154
 5419TIP3    H216264   2.692   0.506   4.393 -0.0755 -0.7762 -0.3056
 5420TIP3   OH216265   6.081   4.585   0.560  0.1047 -0.1560 -0.0401
 5420TIP3    H116266   6.066   4.532   0.481 -1.1579 -1.3768  0.9654
 5420TIP3    H216267   6.029   4.542   0.628  0.1071  1.6252  1.1576
 5421TIP3   OH216268   2.755   1.744   3.505 -0.1684 -0.3288 -0.2478
 5421TIP3    H116269   2.815   1.734   3.431  0.0487  1.9945 -0.4643
 5421TIP3    H216270   2.668   1.735   3.468 -0.0459  0.3056 -0.6944
 5422TIP3   OH216271   6.206   1.417   2.841 -0.2644 -0.2132 -0.2536
 5422TIP3    H116272   6.292   1.440   2.875 -0.3276  0.1721 -0.3388
 5422TIP3    H216273   6.224   1.381   2.754 -0.1208 -0.9941  0.0962
 5423TIP3   OH216274   0.066   5.309   2.817  0.5940 -0.8276  0.3149
 5423TIP3    H116275   0.079   5.274   2.729  0.1294 -0.2136 -0.0024
 5423TIP3    H216276   0.011   5.386   2.804 -1.3077 -1.9349  1.3548
 5424TIP3   OH216277   1.463   4.990   1.011  0.5375 -0.2619 -0.3903
 5424TIP3    H116278   1.407   4.940   0.952 -1.6768  1.1816  0.3689
 5424TIP3    H216279   1.485   5.069   0.962 -1.3988  0.9942  0.6276
 5425TIP3   OH216280   0.834   5.478   4.011  0.1597  0.4481 -0.5682
 5425TIP3    H116281   0.748   5.501   4.046 -0.2051 -0.5423 -0.7894
 5425TIP3    H216282   0.891   5.550   4.038 -0.1431 -0.1535  1.8360
 5426TIP3   OH216283   1.091   4.549   3.906 -0.7071  0.1156  0.1118
 5426TIP3    H116284   1.058   4.568   3.993  0.0290 -3.1321  1.2290
 5426TIP3    H216285   1.013   4.540   3.851 -1.2395  0.5651  0.7845
 5427TIP3   OH216286   4.359   4.516   4.644 -0.0402 -0.3292  0.1289
 5427TIP3    H116287   4.403   4.495   4.726  1.1181 -1.5878 -0.7595
 5427TIP3    H216288   4.397   4.599   4.616  0.5319 -0.5592  0.2138
 5428TIP3   OH216289   3.198   3.774   1.490 -0.1713  0.1575  0.5641
 5428TIP3    H116290   3.149   3.699   1.454 -0.3649 -0.0709  1.2831
 5428TIP3    H216291   3.255   3.735   1.556  1.3112  0.3722 -0.5529
 5429TIP3   OH216292   4.337   1.601   2.114 -0.1921  0.1304 -0.0272
 5429TIP3    H116293   4.334   1.510   2.142 -0.2658  0.2974  0.5177
 5429TIP3    H216294   4.274   1.606   2.041 -0.5211 -0.1506  0.2374
 5430TIP3   OH216295   2.170   2.478   2.357 -0.5360  0.0532  0.4342
 5430TIP3    H116296   2.231   2.456   2.287 -0.3746  2.4813 -0.2645
 5430TIP3    H216297   2.084   2.457   2.322 -0.2886 -1.6293  0.7281
 5431TIP3   OH216298   3.001   0.783   4.294 -0.0099 -0.4086  0.1218
 5431TIP3    H116299   3.089   0.813   4.318 -0.2464 -0.5359  1.2191
 5431TIP3    H216300   3.015   0.721   4.223  0.5544  1.6742 -1.6891
 5432TIP3   OH216301   6.252   5.160  -0.010 -0.3937  0.4502 -0.2934
 5432TIP3    H116302   6.204   5.105   0.052 -0.3722 -1.0720 -1.5688
 5432TIP3    H216303   6.242   5.249   0.024 -2.9281  0.0226  0.2640
 5433TIP3   OH216304   6.344   4.393   0.676 -0.1402 -0.3199 -0.0001
 5433TIP3    H116305   6.271   4.427   0.729 -0.1033  1.9108 -1.3051
 5433TIP3    H216306   6.421   4.406   0.731 -0.6198 -2.7512  1.4189
 5434TIP3   OH216307   1.197   3.679   1.988 -0.0857  0.0552  0.1379
 5434TIP3    H116308   1.273   3.624   1.969  0.4440  1.0650 -0.7544
 5434TIP3    H216309   1.230   3.744   2.050 -1.1468 -1.6163  2.6339
 5435TIP3   OH216310   4.737   3.122   1.714  0.2737 -0.3064 -0.0175
 5435TIP3    H116311   4.729   3.154   1.804  0.9293  0.7205 -0.3114
 5435TIP3    H216312   4.709   3.031   1.718 -1.4176  0.2168  0.9008
 5436TIP3   OH216313   5.459   2.553   2.826  0.0319  0.0682  0.2816
 5436TIP3    H116314   5.446   2.601   2.745  1.3919 -0.0585 -0.0437
 5436TIP3    H216315   5.372   2.546   2.865 -0.5929  0.3805 -1.0181
 5437TIP3   OH216316   1.073   5.367   2.588 -0.0820 -0.0575 -0.2414
 5437TIP3    H116317   1.094   5.276   2.570 -1.2845 -0.2778 -0.6882
 5437TIP3    H216318   1.056   5.370   2.682  2.4319  0.2712  0.2611
 5438TIP3   OH216319   1.334   2.209   5.052  0.0304 -0.9647  0.3112
 5438TIP3    H116320   1.300   2.219   5.141  1.3681 -0.1231  0.7516
 5438TIP3    H216321   1.418   2.254   5.053 -0.3894 -0.0520 -1.6707
 5439TIP3   OH216322   4.698   3.919   3.880 -0.2509 -0.1854  0.6119
 5439TIP3    H116323   4.637   3.853   3.913  0.2175 -0.4553  0.9706
 5439TIP3    H216324   4.665   4.002   3.915 -0.3913 -0.3329  0.8333
 5440TIP3   OH216325   5.135   1.923   1.501 -0.0110  0.6331  0.4382
 5440TIP3    H116326   5.100   1.869   1.429 -1.1967 -0.8765  2.0449
 5440TIP3    H216327   5.098   2.010   1.486 -1.4611 -0.0200 -0.0032
 5441TIP3   OH216328   4.488   1.423   2.684 -0.4586 -0.2721 -0.0973
 5441TIP3    H116329   4.394   1.415   2.668 -0.4537  0.6126 -0.6233
 5441TIP3    H216330   4.495   1.433   2.779 -0.8195 -1.1929  0.0386
 5442TIP3   OH216331   4.139   1.192   3.127  0.2858  0.3642 -0.1746
 5442TIP3    H116332   4.127   1.144   3.209  1.1297  0.7079  0.1610
 5442TIP3    H216333   4.062   1.170   3.075  0.2297 -0.6512  0.3143
 5443TIP3   OH216334   5.003   0.251   3.307 -0.7345  0.2377  0.6766
 5443TIP3    H116335   4.993   0.272   3.214  0.8067 -1.4874  0.0749
 5443TIP3    H216336   5.057   0.322   3.341 -1.6333  1.0962  0.3952
 5444TIP3   OH216337   3.276   4.139   3.919  1.0170  0.1415  0.1052
 5444TIP3    H116338   3.303   4.053   3.951  0.9832 -0.7596 -2.0929
 5444TIP3    H216339   3.345   4.164   3.858 -0.1372  0.5286 -1.1042
 5445TIP3   OH216340   2.439   4.678   3.086  0.4372  0.0455  0.0580
 5445TIP3    H116341   2.533   4.664   3.091  0.3277 -0.3621  1.6624
 5445TIP3    H216342   2.425   4.763   3.128  0.1453  0.3884 -0.7231
 5446TIP3   OH216343   4.933   3.269   2.280  0.3795  0.4269  0.0547
 5446TIP3    H116344   4.954   3.292   2.371  0.4656 -1.3166  0.5078
 5446TIP3    H216345   5.013   3.289   2.231  1.0874 -0.5933  0.7462
 5447TIP3   OH216346   2.549   1.538   2.377 -0.1692  0.4696  0.8965
 5447TIP3    H116347   2.456   1.562   2.383 -0.2374  0.5956 -0.4244
 5447TIP3    H216348   2.557   1.462   2.435 -1.3796 -0.3212  0.0856
 5448TIP3   OH216349   2.152   0.317   0.036 -0.7316 -0.0301 -0.3267
 5448TIP3    H116350   2.106   0.283   0.113 -0.5002 -1.3131 -0.7272
 5448TIP3    H216351   2.237   0.345   0.070 -0.9351  0.1675  0.0253
 5449TIP3   OH216352   0.924   0.084   0.093 -0.2748  0.1309 -0.3672
 5449TIP3    H116353   0.862   0.038   0.149 -1.8646  0.4098 -1.8140
 5449TIP3    H216354   0.979   0.134   0.154 -1.5524 -0.0302  0.9689
 5450TIP3   OH216355   1.509   3.216   4.188 -0.4104 -0.2102  0.4692
 5450TIP3    H116356   1.587   3.214   4.132 -1.1990  0.2589 -0.7020
 5450TIP3    H216357   1.542   3.238   4.275  0.8598 -0.9434  0.1989
 5451TIP3   OH216358   2.566   4.021   1.029 -0.7221 -0.0668 -0.1237
 5451TIP3    H116359   2.652   3.979   1.037 -0.8305 -0.2335  0.2180
 5451TIP3    H216360   2.528   4.013   1.117 -0.7249  0.7937 -0.0458
 5452TIP3   OH216361   2.897   5.458   3.517 -0.2737 -0.0613 -0.3149
 5452TIP3    H116362   2.884   5.365   3.498 -1.0653 -0.0260 -0.0038
 5452TIP3    H216363   2.910   5.462   3.612 -0.8996  0.2015 -0.2340
 5453TIP3   OH216364   3.019   2.528   0.445 -0.2906  0.2808  0.4047
 5453TIP3    H116365   3.020   2.467   0.519  1.4337 -0.7570 -0.4129
 5453TIP3    H216366   3.011   2.614   0.486 -0.9354 -0.3529  1.6999
 5454TIP3   OH216367   1.536   0.893   2.154 -0.0440  0.6774 -0.1345
 5454TIP3    H116368   1.631   0.893   2.141  0.4053 -0.7620  2.3414
 5454TIP3    H216369   1.501   0.847   2.078  1.1835  1.4167 -1.1903
 5455TIP3   OH216370   5.063   0.524   1.959  0.0848  0.4291  0.2337
 5455TIP3    H116371   5.093   0.612   1.939 -1.9446  1.4178  1.2281
 5455TIP3    H216372   4.994   0.507   1.895 -1.0142  0.4705  1.3656
 5456TIP3   OH216373   3.365   0.342   1.326  0.1269 -0.3250  0.2976
 5456TIP3    H116374   3.283   0.390   1.321  0.6042  0.6909  1.5673
 5456TIP3    H216375   3.401   0.345   1.238  0.4827  2.3389  0.4572
 5457TIP3   OH216376   4.568   5.863   1.288  0.4697 -0.2121  0.3914
 5457TIP3    H116377   4.599   5.798   1.225 -0.1158 -0.0651 -0.0640
 5457TIP3    H216378   4.639   5.927   1.294  0.3798 -0.0272 -0.4158
 5458TIP3   OH216379   0.862   0.837   2.086 -0.4121 -0.1002 -0.3514
 5458TIP3    H116380   0.874   0.914   2.142 -0.6458  1.5234 -2.4040
 5458TIP3    H216381   0.769   0.816   2.093 -0.7164  0.9002 -1.0440
 5459TIP3   OH216382   4.292   2.278   0.322 -0.3649 -0.3240 -0.6170
 5459TIP3    H116383   4.262   2.368   0.332  0.5090 -0.1039  0.0712
 5459TIP3    H216384   4.279   2.259   0.229  2.7376  1.7629 -1.6471
 5460TIP3   OH216385   4.088   1.707   0.261  0.4404  0.0547  0.2134
 5460TIP3    H116386   4.026   1.748   0.321 -1.1635  1.5014 -2.2170
 5460TIP3    H216387   4.162   1.682   0.315 -2.4788 -2.5311  3.5165
 5461TIP3   OH216388   2.146   3.933   4.672 -0.2614 -0.5075 -0.8853
 5461TIP3    H116389   2.194   4.012   4.645 -0.7852 -0.1146 -0.6837
 5461TIP3    H216390   2.062   3.939   4.625 -0.4133 -0.8028 -0.6516
 5462TIP3   OH216391   3.440   5.480   1.339 -0.5223  0.1261 -0.3601
 5462TIP3    H116392   3.498   5.408   1.313 -1.1315 -0.2147 -0.7984
 5462TIP3    H216393   3.401   5.451   1.422 -0.9591 -0.1650 -0.6638
 5463TIP3   OH216394   6.320   4.403   0.412 -0.1894  0.2087  0.1308
 5463TIP3    H116395   6.299   4.496   0.398  1.6138  0.4690 -1.2467
 5463TIP3    H216396   6.334   4.396   0.506 -1.0507  1.1701  0.3562
 5464TIP3   OH216397   0.431   5.902   0.974  0.0229  0.4036 -0.3432
 5464TIP3    H116398   0.431   5.992   0.942  1.6123  0.4723 -0.2459
 5464TIP3    H216399   0.398   5.850   0.901  3.6552  0.5275 -2.3445
 5465TIP3   OH216400   4.228   0.347   2.465  0.0986 -0.4063  0.3430
 5465TIP3    H116401   4.277   0.304   2.396  0.2026  0.2106  0.0230
 5465TIP3    H216402   4.264   0.311   2.546 -0.6105 -1.7752  0.0826
 5466TIP3   OH216403   2.308   2.542   1.703  0.3609 -0.2030 -0.2387
 5466TIP3    H116404   2.354   2.500   1.630 -0.1373 -0.3490 -0.4738
 5466TIP3    H216405   2.304   2.475   1.771 -0.5681 -0.6063 -0.6704
 5467TIP3   OH216406   1.932   1.816   0.160  0.0295 -0.1758 -0.2425
 5467TIP3    H116407   1.924   1.901   0.204  0.4199  0.0005 -0.4991
 5467TIP3    H216408   1.987   1.835   0.083  2.7370 -1.2501  1.3118
 5468TIP3   OH216409   2.902   0.087   0.258  0.3373  0.0678 -0.2155
 5468TIP3    H116410   2.893   0.013   0.318  0.1506  1.0806  1.0388
 5468TIP3    H216411   2.988   0.074   0.217 -0.0024 -1.2226 -0.5744
 5469TIP3   OH216412   4.536   0.439   4.945 -0.1324 -0.3584 -0.3555
 5469TIP3    H116413   4.476   0.514   4.944 -0.7275 -0.8312 -0.0315
 5469TIP3    H216414   4.483   0.366   4.914  0.3774 -0.7055 -0.4089
 5470TIP3   OH216415   3.258   5.580   2.689 -0.0837  0.6083 -0.0776
 5470TIP3    H116416   3.331   5.533   2.730 -0.8132 -0.9223 -0.4565
 5470TIP3    H216417   3.251   5.541   2.602 -1.2434  0.8655 -0.1037
 5471TIP3   OH216418   3.869  -0.019   5.149 -0.4399 -0.0821 -0.0062
 5471TIP3    H116419   3.800  -0.028   5.215 -1.5911  0.0076 -1.1633
 5471TIP3    H216420   3.867   0.073   5.125 -1.1181 -0.3957 -1.2644
 5472TIP3   OH216421   4.673   3.879   1.342 -0.1399 -0.7964 -0.4385
 5472TIP3    H116422   4.756   3.926   1.337  0.4158 -1.7194 -0.1246
 5472TIP3    H216423   4.633   3.892   1.256  0.1378 -0.0227 -0.4645
 5473TIP3   OH216424   2.665   3.086   2.794  0.1567  0.4798 -0.5710
 5473TIP3    H116425   2.637   3.115   2.881  1.8000  0.3374  0.0441
 5473TIP3    H216426   2.588   3.043   2.757 -0.4375  0.1173  1.0145
 5474TIP3   OH216427   3.627   3.888   0.037  0.2273 -0.0982  1.1300
 5474TIP3    H116428   3.662   3.949   0.102 -1.7079  2.7403 -0.2861
 5474TIP3    H216429   3.532   3.899   0.043 -0.0435 -0.5086 -1.4404
 5475TIP3   OH216430   3.060   3.982   0.912  0.2311 -0.1533  0.2321
 5475TIP3    H116431   3.066   3.912   0.848  1.2120 -0.0667  0.2195
 5475TIP3    H216432   3.150   3.996   0.942 -0.3059 -1.0026  2.4964
 5476TIP3   OH216433   4.095   4.391   0.771  0.2487 -0.6476  0.2394
 5476TIP3    H116434   4.117   4.479   0.740  1.4004 -1.0992 -0.2733
 5476TIP3    H216435   4.020   4.365   0.717  0.5271 -0.3664 -0.2950
 5477TIP3   OH216436   0.080   4.744   3.246  0.6598 -0.6411 -0.3219
 5477TIP3    H116437   0.176   4.740   3.238  0.8829  0.6655  1.2276
 5477TIP3    H216438   0.051   4.794   3.171  1.3004 -0.1763 -0.2637
 5478TIP3   OH216439   1.472   2.338   4.051 -0.0905 -0.8858  0.3394
 5478TIP3    H116440   1.458   2.432   4.062  1.9393 -0.5367  0.2896
 5478TIP3    H216441   1.393   2.308   4.006 -0.0677  1.1085 -1.2064
 5479TIP3   OH216442   5.427   2.566   0.704  0.3077  0.6548  0.3707
 5479TIP3    H116443   5.403   2.587   0.794 -0.0944 -0.7398  0.6185
 5479TIP3    H216444   5.344   2.562   0.657  0.3504 -0.3646  0.3529
 5480TIP3   OH216445   0.729   3.689   2.062 -0.0582 -0.1766  0.3383
 5480TIP3    H116446   0.655   3.738   2.025  0.3646  1.1980  1.2076
 5480TIP3    H216447   0.806   3.736   2.030  0.4179 -1.0650  0.1555
 5481TIP3   OH216448   5.425   4.015   1.813 -0.2420  0.8457 -0.0102
 5481TIP3    H116449   5.345   3.985   1.770  0.0262 -1.8307  1.1728
 5481TIP3    H216450   5.493   4.002   1.747 -0.6597  2.9798 -0.9636
 5482TIP3   OH216451   4.215   3.918   2.207  0.0832 -0.1522 -0.1939
 5482TIP3    H116452   4.169   3.999   2.185 -0.3557 -0.1824  0.5626
 5482TIP3    H216453   4.277   3.905   2.136 -2.6352 -1.3397 -2.5454
 5483TIP3   OH216454   5.835   4.259   0.964  0.1343 -0.2260  0.5339
 5483TIP3    H116455   5.835   4.171   0.926  0.0616 -0.0288  0.0675
 5483TIP3    H216456   5.926   4.275   0.989  0.3690  0.0270 -0.4686
 5484TIP3   OH216457   1.826   1.429   0.037 -0.2209 -0.1839  0.1603
 5484TIP3    H116458   1.772   1.427   0.115  0.7622  0.2850  0.8726
 5484TIP3    H216459   1.798   1.507  -0.010  1.1266  1.1708  1.5055
 5485TIP3   OH216460   4.744   0.230   3.397 -0.0848 -0.3806  0.4331
 5485TIP3    H116461   4.827   0.270   3.372 -0.5916  1.2830  1.2705
 5485TIP3    H216462   4.692   0.302   3.434 -0.8184 -1.8999  2.6045
 5486TIP3   OH216463   1.199   0.345   0.863  0.2430 -0.2671 -0.1687
 5486TIP3    H116464   1.282   0.385   0.887 -1.0379  0.6206  3.2379
 5486TIP3    H216465   1.206   0.254   0.893  0.4045 -0.5745 -1.0862
 5487TIP3   OH216466   0.285   2.625   4.559 -0.5022  0.1653 -0.1839
 5487TIP3    H116467   0.293   2.694   4.624 -1.0961  0.2562 -0.1973
 5487TIP3    H216468   0.373   2.588   4.552 -0.5656 -0.3602  1.2455
 5488TIP3   OH216469   3.240   2.406   1.472  0.0944 -0.0299 -0.2281
 5488TIP3    H116470   3.323   2.447   1.447 -0.2155  0.9611  0.3107
 5488TIP3    H216471   3.265   2.324   1.514  0.8961  0.8104  1.0220
 5489TIP3   OH216472   1.504   5.087   1.279  0.2279 -0.1497  0.1793
 5489TIP3    H116473   1.592   5.067   1.311  1.0351  1.3880 -0.9516
 5489TIP3    H216474   1.503   5.053   1.190 -0.9741 -1.7146  0.7361
 5490TIP3   OH216475   3.220   1.863   1.749 -0.4077  0.1215 -0.4694
 5490TIP3    H116476   3.159   1.791   1.767  0.6715 -0.6007  0.4864
 5490TIP3    H216477   3.174   1.941   1.778 -1.8307 -0.0687 -2.0412
 5491TIP3   OH216478   6.044   5.700   2.725  0.3038 -0.6011 -0.2749
 5491TIP3    H116479   5.999   5.681   2.808  0.1559  0.1889 -0.1646
 5491TIP3    H216480   6.118   5.640   2.724 -1.0707 -2.4086 -0.7491
 5492TIP3   OH216481   3.832   1.767   4.574 -0.0227  0.0340 -0.1831
 5492TIP3    H116482   3.919   1.769   4.615  0.7240 -0.6891 -1.6509
 5492TIP3    H216483   3.771   1.781   4.646  1.2838 -0.0688  0.9793
 5493TIP3   OH216484   2.630   4.003   2.361 -0.1361 -0.2554  0.1739
 5493TIP3    H116485   2.633   3.923   2.414  1.6117 -1.5469 -1.7614
 5493TIP3    H216486   2.544   4.001   2.320  0.2409 -1.6658 -0.5834
 5494TIP3   OH216487   0.201   5.128   1.693  0.5559 -0.4190 -0.1605
 5494TIP3    H116488   0.251   5.175   1.626 -0.5159  0.4904 -0.3551
 5494TIP3    H216489   0.113   5.122   1.657 -0.1647  0.4917  1.3402
 5495TIP3   OH216490   0.757   1.525   0.165  0.1063  0.7893 -0.2362
 5495TIP3    H116491   0.831   1.579   0.191 -0.0267  1.5761 -1.4383
 5495TIP3    H216492   0.686   1.554   0.222  1.3265 -1.9849  3.0313
 5496TIP3   OH216493   6.021   2.997   3.286 -0.1463  0.5218  0.0933
 5496TIP3    H116494   6.022   2.924   3.348 -1.3166 -0.0585 -0.5283
 5496TIP3    H216495   5.940   3.045   3.306  0.4855  1.5258  0.3314
 5497TIP3   OH216496   5.137   3.923   1.023 -0.4667 -0.0139  0.1584
 5497TIP3    H116497   5.115   3.849   1.081  0.9695 -0.3426  0.3382
 5497TIP3    H216498   5.219   3.956   1.059 -0.2437  0.6217 -0.9229
 5498TIP3   OH216499   1.076   1.948   0.886  0.4011  0.4044  0.4142
 5498TIP3    H116500   1.073   1.863   0.930  0.6055 -0.2509 -0.7642
 5498TIP3    H216501   0.992   1.954   0.840  0.4388  0.7789  0.3946
 5499TIP3   OH216502   0.459   4.396   3.318  0.5699  0.6718  0.1465
 5499TIP3    H116503   0.447   4.301   3.309 -0.2669  0.9703 -3.1001
 5499TIP3    H216504   0.396   4.422   3.385 -0.0722 -0.9233  0.1993
 5500TIP3   OH216505   3.305   3.972   1.048  0.6039  0.2744  0.1962
 5500TIP3    H116506   3.256   3.905   1.096  0.5459  0.3745  0.2760
 5500TIP3    H216507   3.382   3.989   1.102  0.2156  0.8534  0.5750
 5501TIP3   OH216508   4.799   5.319   3.627  0.1515  0.2012  0.0086
 5501TIP3    H116509   4.741   5.394   3.620 -0.6985 -0.3428  0.9346
 5501TIP3    H216510   4.882   5.356   3.658 -0.2659  0.7570  0.4861
 5502TIP3   OH216511   4.557   0.600   3.729 -0.2500  0.0313 -0.1845
 5502TIP3    H116512   4.504   0.662   3.779 -1.1768 -1.4152  0.6726
 5502TIP3    H216513   4.580   0.532   3.791 -0.6260 -1.3234 -1.4789
 5503TIP3   OH216514   0.428   2.452   0.599  0.0194  0.1381  0.2307
 5503TIP3    H116515   0.522   2.471   0.591  0.3914 -1.2970  0.8023
 5503TIP3    H216516   0.405   2.413   0.515  0.0568  0.0006  0.2848
 5504TIP3   OH216517   1.733   0.447   2.936  0.4964  0.4727  0.1861
 5504TIP3    H116518   1.810   0.502   2.927  0.7620 -0.1919 -2.1842
 5504TIP3    H216519   1.712   0.419   2.847 -1.0409 -1.3368  1.0351
 5505TIP3   OH216520   0.837   4.464   5.072  0.0619 -0.6409  0.3503
 5505TIP3    H116521   0.932   4.460   5.069  0.1021  0.5546 -0.7992
 5505TIP3    H216522   0.809   4.373   5.083  1.3474 -0.9025  1.5933
 5506TIP3   OH216523   1.447   3.646   2.396 -0.3405 -0.2756  0.4001
 5506TIP3    H116524   1.453   3.727   2.448 -0.0372  0.0937 -0.2019
 5506TIP3    H216525   1.419   3.675   2.309  0.1438 -0.7701  0.0685
 5507TIP3   OH216526   2.990   3.834   2.775  0.6428  0.3939  0.2953
 5507TIP3    H116527   2.973   3.744   2.803  0.1525  0.9954  2.0719
 5507TIP3    H216528   2.927   3.886   2.825  0.9168  1.7207 -0.7227
 5508TIP3   OH216529   0.767   3.947   4.116 -0.0400  0.6811 -0.8076
 5508TIP3    H116530   0.697   4.004   4.148 -0.4879 -0.1006 -0.3469
 5508TIP3    H216531   0.844   3.973   4.166 -0.3211  0.6615 -0.3557
 5509TIP3   OH216532   2.606   0.283   2.012 -0.3654  0.1859 -0.2959
 5509TIP3    H116533   2.602   0.297   1.917  1.3687 -0.1097 -0.4525
 5509TIP3    H216534   2.641   0.194   2.021 -0.2895  0.2992  0.6113
 5510TIP3   OH216535   3.077   3.144   2.869  0.0582  0.0314  0.3759
 5510TIP3    H116536   3.169   3.149   2.845  0.5528  1.0510  2.3010
 5510TIP3    H216537   3.031   3.191   2.799  0.9455 -0.6458 -0.6893
 5511TIP3   OH216538   4.132   1.831   2.966  0.7579  0.2568 -0.0555
 5511TIP3    H116539   4.100   1.741   2.963 -5.0015  1.9465 -2.2013
 5511TIP3    H216540   4.154   1.850   2.875  1.6833  1.1339  0.3405
 5512TIP3   OH216541   1.904   0.188   0.055  0.4622  0.1322 -0.3664
 5512TIP3    H116542   1.890   0.247   0.129  0.6456  0.0909 -0.2988
 5512TIP3    H216543   1.831   0.207  -0.004  0.6172  0.5539 -0.4269
 5513TIP3   OH216544   3.198   5.616   3.111 -0.4331  0.0583 -0.3238
 5513TIP3    H116545   3.247   5.693   3.082  0.8979 -0.3852  0.6390
 5513TIP3    H216546   3.134   5.651   3.174  0.1078  0.4027  0.0444
 5514TIP3   OH216547   1.233   1.785   0.714  0.6986  0.0849 -0.0569
 5514TIP3    H116548   1.210   1.877   0.698 -0.4480 -0.1629  0.0552
 5514TIP3    H216549   1.288   1.787   0.792  0.4600  0.6468  0.1038
 5515TIP3   OH216550   4.404   1.193   1.222 -0.0758  0.2022  0.1829
 5515TIP3    H116551   4.486   1.220   1.263  2.1751 -3.7713 -1.1923
 5515TIP3    H216552   4.378   1.267   1.168  1.1149  2.5467  2.6032
 5516TIP3   OH216553   2.161   3.802   4.279 -0.0625  0.1616  0.2614
 5516TIP3    H116554   2.076   3.810   4.323  0.5752  0.8867  1.4253
 5516TIP3    H216555   2.203   3.728   4.324 -0.5563 -1.0807 -1.2100
 5517TIP3   OH216556   3.010   0.988   3.251  0.2350 -0.5392 -0.3475
 5517TIP3    H116557   2.958   0.979   3.171  0.9620 -1.0922 -0.7707
 5517TIP3    H216558   3.092   0.943   3.231  0.1468 -1.3343  0.9642
 5518TIP3   OH216559   6.029   2.151   0.110  0.2555 -0.4476  0.4384
 5518TIP3    H116560   6.013   2.213   0.181  0.4097 -1.3605  1.2861
 5518TIP3    H216561   6.055   2.206   0.036  0.2284  0.5103  1.1237
 5519TIP3   OH216562   0.385   3.665   4.997 -0.3362 -0.5359  0.4162
 5519TIP3    H116563   0.466   3.651   4.947 -0.6299  0.5491 -0.3962
 5519TIP3    H216564   0.395   3.610   5.075  0.2575 -2.0982 -0.6955
 5520TIP3   OH216565   1.929   2.634   1.465  0.3212  0.4568 -0.0826
 5520TIP3    H116566   1.859   2.673   1.516  0.7074  0.9016  0.1166
 5520TIP3    H216567   1.899   2.640   1.374 -0.6958 -1.0090  0.1182
 5521TIP3   OH216568   4.073   1.976   2.669  0.3126 -0.1216  0.4015
 5521TIP3    H116569   4.037   2.053   2.624  0.4000 -0.3489 -0.0698
 5521TIP3    H216570   4.168   1.988   2.664  0.3203 -0.0429  0.7184
 5522TIP3   OH216571   1.206   5.887   4.935  1.3422  0.0561 -0.2975
 5522TIP3    H116572   1.189   5.794   4.917 -2.0075  0.3547  0.6249
 5522TIP3    H216573   1.199   5.929   4.849  1.1957 -0.3568 -0.4932
 5523TIP3   OH216574   3.125   2.387   4.612  0.1008 -0.0615  0.0978
 5523TIP3    H116575   3.127   2.425   4.700  0.7032 -0.1788  0.1391
 5523TIP3    H216576   3.124   2.463   4.554 -1.3136  0.0253  0.2086
 5524TIP3   OH216577   0.619   5.470   2.034 -0.7294  0.2477  0.2536
 5524TIP3    H116578   0.531   5.470   2.073 -1.1853 -0.8028 -0.7097
 5524TIP3    H216579   0.677   5.494   2.105 -1.3605 -2.8338  2.0052
 5525TIP3   OH216580   2.252   2.384   0.146  0.2669 -0.1501  0.2984
 5525TIP3    H116581   2.236   2.377   0.240  1.2057 -1.0025  0.4029
 5525TIP3    H216582   2.227   2.474   0.125 -2.4210 -0.6586  0.8593
 5526TIP3   OH216583   1.436   4.398   3.826  0.4114  0.4562  0.3477
 5526TIP3    H116584   1.500   4.393   3.897  1.7159  0.8855 -0.7613
 5526TIP3    H216585   1.458   4.324   3.770 -0.0820  0.6048 -0.0457
 5527TIP3   OH216586   2.246   3.625   3.005 -0.2807  0.1808  0.6372
 5527TIP3    H116587   2.221   3.642   3.096 -2.1448  0.8279  0.0404
 5527TIP3    H216588   2.216   3.702   2.957 -0.2069 -0.5824 -0.6771
 5528TIP3   OH216589   3.240   3.856   2.014 -0.6852 -0.6719  0.2993
 5528TIP3    H116590   3.326   3.861   1.970 -0.4286  0.5367  0.8960
 5528TIP3    H216591   3.216   3.947   2.029 -1.4154 -1.0399  1.4391
 5529TIP3   OH216592   0.215   5.542   0.146  0.3356 -0.2811  0.3239
 5529TIP3    H116593   0.221   5.497   0.230 -0.5840 -0.9002  0.0779
 5529TIP3    H216594   0.125   5.527   0.117  0.1762  1.2336 -0.0556
 5530TIP3   OH216595   0.400   3.700   3.880 -0.2662 -0.6627  0.0751
 5530TIP3    H116596   0.418   3.780   3.831 -0.8040 -1.1570 -0.9556
 5530TIP3    H216597   0.439   3.715   3.966 -0.4208  0.7360 -0.0766
 5531TIP3   OH216598   3.052   5.827   1.783  0.2829  0.1438 -0.2055
 5531TIP3    H116599   3.034   5.746   1.830 -1.0706 -0.5954 -1.8499
 5531TIP3    H216600   3.112   5.801   1.713  0.3326  0.6946 -0.3731
 5532TIP3   OH216601   5.735   4.034   4.767 -0.3995 -0.2802 -0.9337
 5532TIP3    H116602   5.783   3.984   4.701  0.4460 -0.4017 -0.2342
 5532TIP3    H216603   5.773   4.121   4.763 -0.5352 -0.2138 -0.7932
 5533TIP3   OH216604   2.906   5.876   0.457  0.4527  0.0369 -0.4186
 5533TIP3    H116605   2.996   5.848   0.471 -0.2018 -1.9639  0.2220
 5533TIP3    H216606   2.913   5.965   0.423  2.6294  0.1455  0.1663
 5534TIP3   OH216607   0.785   0.142   2.131  0.4360 -0.2893 -0.4069
 5534TIP3    H116608   0.713   0.135   2.069  0.8003  0.0117 -0.8748
 5534TIP3    H216609   0.744   0.139   2.218 -0.2879  1.3772 -0.6662
 5535TIP3   OH216610   4.029   3.780   3.842  0.2693 -0.0912  0.0286
 5535TIP3    H116611   3.996   3.691   3.856  0.8915 -0.1639  1.1892
 5535TIP3    H216612   3.975   3.815   3.771  1.7763 -2.3265 -2.4022
 5536TIP3   OH216613   4.019   5.992   2.548 -0.0487 -0.4284 -0.3043
 5536TIP3    H116614   4.091   6.025   2.601 -0.2253 -0.4454 -0.0567
 5536TIP3    H216615   4.030   5.897   2.550  0.5456 -0.3916 -1.1365
 5537TIP3   OH216616   1.090   4.344   1.104  0.3031  0.0325  0.1629
 5537TIP3    H116617   1.036   4.338   1.024  2.4336 -0.7043 -1.3066
 5537TIP3    H216618   1.038   4.398   1.163 -2.4173 -1.3058 -0.8196
 5538TIP3   OH216619   0.672   2.910   4.074  0.7921 -0.2669  0.1447
 5538TIP3    H116620   0.703   2.909   4.165  0.0901 -0.9198  0.3765
 5538TIP3    H216621   0.645   3.001   4.059  0.1486 -0.3345  0.8500
 5539TIP3   OH216622   5.027   3.526   3.129  0.3539  0.1682 -0.4062
 5539TIP3    H116623   5.122   3.516   3.121  0.5049  2.0340 -1.5203
 5539TIP3    H216624   5.009   3.516   3.222  1.3322 -2.2629 -0.3929
 5540TIP3   OH216625   3.618   1.113   0.797 -0.3036 -0.4292 -0.6284
 5540TIP3    H116626   3.624   1.055   0.720  1.1464  0.9370 -1.6161
 5540TIP3    H216627   3.622   1.202   0.760  0.4701  0.2633  1.0205
 5541TIP3   OH216628   4.329   1.292   5.117 -0.0531 -0.5275  0.1366
 5541TIP3    H116629   4.340   1.296   5.212  2.5381 -0.2506 -0.1016
 5541TIP3    H216630   4.383   1.363   5.083 -1.5404 -0.1363 -1.5361
 5542TIP3   OH216631   5.633   1.592   2.386 -0.0912 -0.1955 -0.4145
 5542TIP3    H116632   5.593   1.610   2.471  1.8202 -0.4905  0.6191
 5542TIP3    H216633   5.721   1.559   2.407  1.5835  2.4270 -2.4831
 5543TIP3   OH216634   3.586   1.345   1.011 -0.2482 -0.1780 -0.3306
 5543TIP3    H116635   3.675   1.325   0.983 -0.6749 -0.0970 -1.8166
 5543TIP3    H216636   3.536   1.352   0.930 -2.1601 -2.6114  0.5178
 5544TIP3   OH216637   2.246   2.739   4.324  0.4310 -0.0659 -0.7123
 5544TIP3    H116638   2.251   2.692   4.407  0.1365 -2.1417 -1.7985
 5544TIP3    H216639   2.177   2.804   4.337 -0.4863 -1.2015  0.2736
 5545TIP3   OH216640   4.247   2.660   2.286 -0.2203 -0.5022 -0.6930
 5545TIP3    H116641   4.290   2.583   2.249 -0.4386  0.3046 -2.7758
 5545TIP3    H216642   4.319   2.719   2.311 -0.0785 -0.6683 -0.7130
 5546TIP3   OH216643   3.681   4.474   4.241 -0.2193 -0.0066  0.6145
 5546TIP3    H116644   3.686   4.554   4.293  1.5507 -0.5970  1.4292
 5546TIP3    H216645   3.589   4.448   4.246 -0.4533  0.9660  1.9107
 5547TIP3   OH216646   6.037   1.136   1.936  0.3067  0.1223 -0.4707
 5547TIP3    H116647   5.967   1.070   1.941  0.4567  0.0057  0.2148
 5547TIP3    H216648   6.031   1.170   1.847  1.2957 -1.9981 -1.4089
 5548TIP3   OH216649   3.183   1.033   2.655  0.4333 -0.2448  0.2648
 5548TIP3    H116650   3.213   0.946   2.681 -0.8889 -0.6402  0.4946
 5548TIP3    H216651   3.166   1.025   2.561  1.2739  0.0659  0.0695
 5549TIP3   OH216652   4.332   5.818   2.934  0.0702  0.3935  0.0579
 5549TIP3    H116653   4.359   5.758   2.865 -0.2360  0.8414 -0.4552
 5549TIP3    H216654   4.386   5.896   2.921  0.5381  0.2033  0.7828
 5550TIP3   OH216655   3.568   3.483   4.907  0.5680  0.0517  0.4321
 5550TIP3    H116656   3.582   3.478   5.001 -0.4633  2.4832  0.8034
 5550TIP3    H216657   3.494   3.544   4.897 -0.0539 -0.9532 -1.9162
 5551TIP3   OH216658   2.457   2.644   0.326 -0.2702 -0.4821  0.4262
 5551TIP3    H116659   2.376   2.684   0.293 -1.3682 -4.0039 -1.6647
 5551TIP3    H216660   2.463   2.675   0.416 -2.1655  2.4346 -0.3075
 5552TIP3   OH216661   4.117   1.611   1.695  0.0997  0.5480 -0.2023
 5552TIP3    H116662   4.180   1.682   1.708  0.9006 -0.3827  1.3298
 5552TIP3    H216663   4.034   1.648   1.726 -0.0091  1.5449 -1.5678
 5553TIP3   OH216664   2.261   2.509   5.043  0.2786  0.1552  0.2477
 5553TIP3    H116665   2.280   2.585   4.989  0.6484  0.4221  0.7523
 5553TIP3    H216666   2.247   2.438   4.979 -0.4935  0.7262 -0.2394
 5554TIP3   OH216667   1.733   5.964   3.972 -0.1058  0.4262 -0.7746
 5554TIP3    H116668   1.655   5.972   4.028 -0.3498  2.5464 -1.3372
 5554TIP3    H216669   1.698   5.958   3.883  0.3241  2.1991 -1.1083
 5555TIP3   OH216670   0.042   2.743   1.809 -0.3019 -0.7051  0.1630
 5555TIP3    H116671   0.090   2.716   1.731 -1.4114 -0.8631 -0.4769
 5555TIP3    H216672   0.056   2.671   1.871 -0.9730 -1.4955 -0.5711
 5556TIP3   OH216673   1.790   0.150   1.457 -0.5289  0.0310 -0.7510
 5556TIP3    H116674   1.723   0.162   1.524 -1.2939  1.7454 -1.7597
 5556TIP3    H216675   1.823   0.062   1.472 -2.0248 -0.3410  0.6546
 5557TIP3   OH216676   3.742   1.853   1.513  0.4780 -0.0156 -0.3683
 5557TIP3    H116677   3.648   1.846   1.499 -0.0202  2.2402  1.2182
 5557TIP3    H216678   3.751   1.887   1.602  2.8176 -0.3234 -0.4078
 5558TIP3   OH216679   0.904   2.541   2.462  0.3716 -0.0711  0.4601
 5558TIP3    H116680   0.848   2.540   2.384 -0.0469  2.2414  0.6411
 5558TIP3    H216681   0.875   2.466   2.513 -0.5272 -0.6458 -0.8195
 5559TIP3   OH216682   1.559   4.981   2.718 -0.3560  0.3388 -0.2516
 5559TIP3    H116683   1.480   5.030   2.742 -0.4822  0.8436 -1.6102
 5559TIP3    H216684   1.630   5.043   2.728  0.2010 -0.6451  2.8414
 5560TIP3   OH216685   0.110   0.832   4.095  0.2971 -0.1967 -0.1254
 5560TIP3    H116686   0.072   0.919   4.080 -0.6659 -0.8950 -1.9917
 5560TIP3    H216687   0.038   0.780   4.130  0.3654 -0.6918 -0.6986
 5561TIP3   OH216688   3.474   1.565   1.798  0.3206  0.2262 -0.0453
 5561TIP3    H116689   3.546   1.541   1.739 -0.5066 -0.5290 -0.7846
 5561TIP3    H216690   3.499   1.651   1.832  2.1207 -0.5110  0.6197
 5562TIP3   OH216691   1.312   5.649   2.552  0.3208 -0.5514 -0.0692
 5562TIP3    H116692   1.346   5.728   2.594  0.0375 -1.0325  1.0937
 5562TIP3    H216693   1.235   5.626   2.604 -0.1100 -1.0970 -0.9365
 5563TIP3   OH216694   5.078   2.567   1.860  0.3984  0.0604  0.3446
 5563TIP3    H116695   4.998   2.604   1.899 -0.5688 -1.2576 -0.3171
 5563TIP3    H216696   5.136   2.642   1.850 -0.3574  0.8926  1.7791
 5564TIP3   OH216697   2.802   5.835   2.533  0.5820 -0.5003 -0.4529
 5564TIP3    H116698   2.812   5.741   2.542  1.4428 -0.2834  1.0925
 5564TIP3    H216699   2.887   5.871   2.556 -0.2119  0.7516  0.6673
 5565TIP3   OH216700   5.085   1.934   1.774  0.3992  0.1912  0.2454
 5565TIP3    H116701   5.125   1.939   1.687  1.4101  0.7525  0.7226
 5565TIP3    H216702   5.036   1.852   1.774  0.3996  0.1829 -0.8472
 5566TIP3   OH216703   0.511   4.454   0.760 -0.4801  0.5446  0.5470
 5566TIP3    H116704   0.525   4.547   0.743 -0.6679  0.8224  1.8480
 5566TIP3    H216705   0.597   4.414   0.742  0.1320  1.2492  1.7875
 5567TIP3   OH216706   1.480   5.148   3.493 -0.0870 -0.1000  0.2057
 5567TIP3    H116707   1.542   5.180   3.427 -0.8481 -1.7683 -1.3975
 5567TIP3    H216708   1.525   5.074   3.535 -0.6953 -0.8758 -0.4838
 5568TIP3   OH216709   1.208   2.741   0.246  0.3046  0.1981 -0.3477
 5568TIP3    H116710   1.228   2.781   0.331 -0.0130  0.6959 -0.5022
 5568TIP3    H216711   1.167   2.812   0.196  0.1271 -0.2082 -0.7766
 5569TIP3   OH216712   1.131   1.570   0.295 -0.1817 -0.2091 -1.1109
 5569TIP3    H116713   1.137   1.503   0.363  0.1475  1.6412  0.7847
 5569TIP3    H216714   1.194   1.543   0.228  0.9153 -1.0828  0.2349
 5570TIP3   OH216715   3.410   5.992   3.999 -0.2548  0.4495  0.2913
 5570TIP3    H116716   3.366   5.925   4.052 -2.8472  0.8224 -1.1950
 5570TIP3    H216717   3.456   6.046   4.063 -1.3006 -0.4768  1.9174
 5571TIP3   OH216718   0.565   0.818   3.931 -0.0007  0.2305 -0.0402
 5571TIP3    H116719   0.554   0.723   3.931  0.5336  0.1376  1.7004
 5571TIP3    H216720   0.654   0.832   3.963 -0.4872  1.3400  0.8693
 5572TIP3   OH216721   6.200   0.918   4.648  0.4661  0.2596 -0.1282
 5572TIP3    H116722   6.187   0.852   4.716  0.8071  1.1020  0.7803
 5572TIP3    H216723   6.137   0.986   4.668  0.0592  0.1946 -1.1070
 5573TIP3   OH216724   4.520   1.800   2.831 -0.0177  0.2148 -0.1183
 5573TIP3    H116725   4.500   1.797   2.925  0.1987 -2.0592 -0.0830
 5573TIP3    H216726   4.572   1.721   2.815 -2.0619 -0.7759 -2.5745
 5574TIP3   OH216727   5.512   2.029   3.282 -0.0337 -0.0430 -0.2719
 5574TIP3    H116728   5.506   1.973   3.205 -1.0324 -1.3258  0.7003
 5574TIP3    H216729   5.605   2.030   3.303 -0.0440 -1.8276  0.0121
 5575TIP3   OH216730   4.844   3.653   4.974 -0.0507  0.0211  0.4493
 5575TIP3    H116731   4.876   3.566   4.998 -0.8850  0.1201  2.0414
 5575TIP3    H216732   4.844   3.701   5.057  1.0497  1.7742 -0.5061
 5576TIP3   OH216733   0.315   2.532   0.317 -0.4710  0.1940  0.3338
 5576TIP3    H116734   0.313   2.618   0.358 -2.0952 -0.4472  1.6686
 5576TIP3    H216735   0.375   2.543   0.243  0.9190  1.9307  1.6255
 5577TIP3   OH216736   2.405   2.928   1.842 -0.3529 -0.1123  0.0634
 5577TIP3    H116737   2.337   2.935   1.909 -0.6618  3.3355 -0.4276
 5577TIP3    H216738   2.398   3.009   1.792  2.9317 -0.4346 -1.1774
 5578TIP3   OH216739   1.881   2.019   0.789  0.3281  0.3016 -0.2431
 5578TIP3    H116740   1.896   1.929   0.760  2.0330  0.9493 -1.5690
 5578TIP3    H216741   1.813   2.052   0.732  1.3538  0.5429 -1.3676
 5579TIP3   OH216742   0.666   0.685   0.904  0.3097 -0.1993 -0.3321
 5579TIP3    H116743   0.642   0.610   0.850 -1.5457 -0.5833  0.9611
 5579TIP3    H216744   0.680   0.649   0.991 -0.7527  0.9557  0.3447
 5580TIP3   OH216745   0.868   1.894   4.205  0.0530 -0.1092  0.4756
 5580TIP3    H116746   0.850   1.808   4.243 -2.1763 -0.6886 -1.5996
 5580TIP3    H216747   0.918   1.874   4.125 -0.1595  0.5584  0.1712
 5581TIP3   OH216748   3.869   2.379   0.673 -0.0283 -0.4207 -0.4703
 5581TIP3    H116749   3.957   2.345   0.689  0.1335 -0.0143 -0.5012
 5581TIP3    H216750   3.816   2.300   0.658 -0.1915 -0.8690  2.0191
 5582TIP3   OH216751   5.227   1.645   0.231  0.2625  0.3646  0.3606
 5582TIP3    H116752   5.135   1.653   0.206 -0.1704 -0.4323  1.5901
 5582TIP3    H216753   5.245   1.725   0.280 -0.4529 -0.4100  1.9927
 5583TIP3   OH216754   4.437   2.925   0.581 -0.5220 -0.2244  0.0392
 5583TIP3    H116755   4.392   2.892   0.503  0.3160  2.3643 -1.6700
 5583TIP3    H216756   4.530   2.919   0.559 -0.2973  1.5823  0.3137
 5584TIP3   OH216757   3.426   5.097   4.186 -0.5957 -0.1206  0.0792
 5584TIP3    H116758   3.475   5.023   4.221  1.3123  1.6272  1.3650
 5584TIP3    H216759   3.421   5.159   4.258 -1.4155  1.3629 -1.1805
 5585TIP3   OH216760   0.371   1.378   1.938  0.3217 -0.1472 -0.0216
 5585TIP3    H116761   0.412   1.374   1.851  1.4757 -1.1618  0.5341
 5585TIP3    H216762   0.294   1.322   1.930  0.2066  0.0810 -0.5130
 5586TIP3   OH216763   4.496   5.442   0.550 -0.1393 -0.6963  0.7230
 5586TIP3    H116764   4.471   5.350   0.555  0.9983 -1.0278  0.6733
 5586TIP3    H216765   4.548   5.448   0.470 -0.4042  0.0418  0.6001
 5587TIP3   OH216766   2.476   1.137   1.378  0.4955  0.0087 -0.4274
 5587TIP3    H116767   2.461   1.062   1.434 -0.9554 -0.6321 -1.6040
 5587TIP3    H216768   2.569   1.158   1.389  1.1737 -2.5380 -0.7657
 5588TIP3   OH216769   0.363   5.164   3.648  0.4807  0.3375 -0.2791
 5588TIP3    H116770   0.330   5.223   3.580 -0.1287  0.8262  0.4338
 5588TIP3    H216771   0.443   5.206   3.679  0.6300  0.2337 -0.5121
 5589TIP3   OH216772   3.111   1.125   4.762  0.5345  0.5419  0.1009
 5589TIP3    H116773   3.184   1.167   4.717  0.2576 -0.6529 -1.5197
 5589TIP3    H216774   3.038   1.130   4.700  0.3652 -1.8639  0.0277
 5590TIP3   OH216775   2.963   4.706   2.368  0.0542  0.1816  0.1916
 5590TIP3    H116776   2.993   4.621   2.336  1.3760 -0.3943  2.6437
 5590TIP3    H216777   2.977   4.766   2.295 -0.2748 -1.5462 -1.3792
 5591TIP3   OH216778   3.993   5.348   1.750  0.0824  0.5869  0.0064
 5591TIP3    H116779   3.901   5.372   1.744 -0.3931 -0.8085  1.0298
 5591TIP3    H216780   3.994   5.253   1.737  1.3064  0.4983  0.5620
 5592TIP3   OH216781   4.148   5.033   2.833 -0.3233 -0.1799  0.0184
 5592TIP3    H116782   4.118   4.966   2.895  1.1508  0.1299  1.1086
 5592TIP3    H216783   4.218   4.990   2.784 -0.1848  0.2041 -0.1163
 5593TIP3   OH216784   0.496   2.796   1.251  0.2697 -0.0712 -0.2184
 5593TIP3    H116785   0.482   2.838   1.166  0.2376  0.2988 -0.0347
 5593TIP3    H216786   0.505   2.869   1.312 -1.1366 -0.3192  0.3374
 5594TIP3   OH216787   3.886   3.476   0.148  0.5934  0.3216  0.1572
 5594TIP3    H116788   3.875   3.392   0.104 -0.4462  0.6676 -0.2868
 5594TIP3    H216789   3.874   3.456   0.241 -0.8206  0.1358 -0.0385
 5595TIP3   OH216790   5.242   5.487   1.167 -0.1740  0.2000 -0.2749
 5595TIP3    H116791   5.247   5.497   1.072 -2.2578  0.1253 -0.4427
 5595TIP3    H216792   5.230   5.393   1.180 -1.1528  0.3420 -0.0481
 5596TIP3   OH216793   3.295   0.288   0.917 -0.4210 -0.5509  0.3432
 5596TIP3    H116794   3.202   0.275   0.937 -0.8825  3.0388  1.3941
 5596TIP3    H216795   3.328   0.337   0.992  2.0558 -0.7925 -0.5164
 5597TIP3   OH216796   5.474   5.286   0.115  0.0851 -1.0516 -0.5035
 5597TIP3    H116797   5.492   5.192   0.118  0.0554 -1.0837 -1.3135
 5597TIP3    H216798   5.526   5.318   0.042 -2.0158 -0.8978 -2.0037
 5598TIP3   OH216799   6.104   3.997   5.144  0.5890 -0.0085 -0.0360
 5598TIP3    H116800   6.059   4.067   5.097  0.9679 -0.2336 -0.7458
 5598TIP3    H216801   6.182   4.038   5.181 -1.0579  0.8396  2.7787
 5599TIP3   OH216802   4.698   5.688   1.119  0.3289  0.1110 -0.0581
 5599TIP3    H116803   4.659   5.601   1.108  0.7793 -0.7749  3.8389
 5599TIP3    H216804   4.790   5.675   1.095  0.2590 -0.3542 -0.0939
 5600TIP3   OH216805   5.285   5.776   1.804  0.0204 -0.3105 -0.1615
 5600TIP3    H116806   5.350   5.728   1.752 -0.8582 -0.3551 -1.2567
 5600TIP3    H216807   5.206   5.722   1.800 -0.1791 -0.1268  0.9405
 5601TIP3   OH216808   5.329   5.821   4.812  0.0966  0.0799  0.0958
 5601TIP3    H116809   5.276   5.888   4.770 -0.3425 -0.8922 -0.9484
 5601TIP3    H216810   5.338   5.851   4.903 -0.2092  1.4561 -0.3103
 5602TIP3   OH216811   2.278   3.021   0.759 -0.2177 -0.0646 -0.0424
 5602TIP3    H116812   2.327   2.984   0.832 -0.3189 -0.5285 -0.2025
 5602TIP3    H216813   2.284   3.115   0.770  0.0031 -0.1321  0.4078
 5603TIP3   OH216814   5.546   2.831   0.715  0.3130  0.2938  0.1702
 5603TIP3    H116815   5.467   2.885   0.717 -0.3449 -0.5891 -1.0002
 5603TIP3    H216816   5.515   2.744   0.690  1.5114 -0.3583  0.8532
 5604TIP3   OH216817   5.167   4.707   4.299  0.0118  0.1680  0.1103
 5604TIP3    H116818   5.161   4.630   4.355 -0.6077 -1.3161 -1.8893
 5604TIP3    H216819   5.191   4.673   4.213  1.7379  2.4453 -0.4055
 5605TIP3   OH216820   0.160   1.032   0.084 -0.1330 -0.2341 -0.2111
 5605TIP3    H116821   0.118   1.075   0.010  0.2699 -0.5822 -0.6410
 5605TIP3    H216822   0.252   1.024   0.059  0.0928  0.0523  0.5092
 5606TIP3   OH216823   5.385   0.909   0.780  0.5759  0.6055 -0.2996
 5606TIP3    H116824   5.449   0.978   0.764  0.6261  0.4399 -0.8113
 5606TIP3    H216825   5.381   0.860   0.698  0.8362 -0.2372  0.1779
 5607TIP3   OH216826   4.076   1.106   4.755 -0.3273  0.4156  0.5874
 5607TIP3    H116827   4.065   1.081   4.847  0.4649 -2.3119  0.0141
 5607TIP3    H216828   4.122   1.190   4.759  1.0737 -0.3635  2.7120
 5608TIP3   OH216829   4.728   3.423   3.281 -0.3547 -0.0438 -0.2054
 5608TIP3    H116830   4.723   3.396   3.372 -1.2220  2.5461  0.6214
 5608TIP3    H216831   4.775   3.506   3.284  0.0501 -0.1572 -2.1976
 5609TIP3   OH216832   0.245   1.199   0.807  0.4238  0.3858  0.3019
 5609TIP3    H116833   0.232   1.284   0.764 -1.1644  0.3260  0.5873
 5609TIP3    H216834   0.250   1.137   0.734 -1.2413  0.4106  0.1246
 5610TIP3   OH216835   0.146   3.644   0.884  0.5473 -0.1812 -0.2373
 5610TIP3    H116836   0.143   3.708   0.813  0.5233  1.3996  1.1065
 5610TIP3    H216837   0.103   3.566   0.849  1.2521  0.2610 -2.1871
 5611TIP3   OH216838   5.023   3.243   4.470 -0.0932 -0.0222 -0.4334
 5611TIP3    H116839   5.005   3.280   4.556  0.9742 -0.2974 -0.0695
 5611TIP3    H216840   5.089   3.302   4.433  0.5255 -0.7215 -0.4572
 5612TIP3   OH216841   0.527   4.133   0.747  0.0347 -0.1144  0.2048
 5612TIP3    H116842   0.518   4.056   0.690 -0.3616  0.6195 -0.7530
 5612TIP3    H216843   0.448   4.130   0.802 -0.0266 -0.3359  0.1094
 5613TIP3   OH216844   2.685   1.457   0.768  0.7417  0.4585  0.9667
 5613TIP3    H116845   2.614   1.461   0.831  0.1229  1.6959  0.2433
 5613TIP3    H216846   2.689   1.546   0.732  0.2979 -0.4541 -1.5385
 5614TIP3   OH216847   3.854   2.324   1.718 -0.3027  0.4313 -0.5736
 5614TIP3    H116848   3.822   2.348   1.805 -0.2506  0.7598 -0.6470
 5614TIP3    H216849   3.948   2.336   1.723 -0.2482  0.0119 -0.5362
 5615TIP3   OH216850   2.780   1.193   0.788 -0.3161  0.4324 -0.0889
 5615TIP3    H116851   2.746   1.281   0.771  0.6499  0.6844 -0.8207
 5615TIP3    H216852   2.851   1.182   0.725 -0.6897 -1.0492 -0.2925
 5616TIP3   OH216853   5.915   1.374   3.646  0.0773  0.1356 -0.3070
 5616TIP3    H116854   5.850   1.362   3.577  0.0538  0.9118 -0.4362
 5616TIP3    H216855   5.864   1.402   3.722  0.0422 -1.2344  0.1969
 5617TIP3   OH216856   1.700   3.160   1.846 -0.2541  0.7240  0.4335
 5617TIP3    H116857   1.781   3.212   1.850  0.3300 -0.1239 -0.0605
 5617TIP3    H216858   1.730   3.069   1.839 -1.2450  0.4684 -0.7320
 5618TIP3   OH216859   2.979   0.595   5.129 -0.4054 -0.2806  0.4191
 5618TIP3    H116860   3.043   0.653   5.171 -0.9234  1.5488 -1.2001
 5618TIP3    H216861   2.961   0.528   5.195  3.5970 -1.2784  0.7936
 5619TIP3   OH216862   5.768   1.124   1.444  0.2859 -0.0496  0.0792
 5619TIP3    H116863   5.773   1.067   1.367 -2.3747  0.8644 -0.8808
 5619TIP3    H216864   5.729   1.070   1.512  0.0793 -0.0678 -0.0552
 5620TIP3   OH216865   1.760   3.722   0.718 -0.1067 -0.4476 -0.8075
 5620TIP3    H116866   1.687   3.707   0.659  1.1039  1.0883 -2.8152
 5620TIP3    H216867   1.781   3.635   0.752 -0.6433 -1.4705 -2.9301
 5621TIP3   OH216868   2.443   2.892   0.029 -0.3667  0.5911 -0.1650
 5621TIP3    H116869   2.369   2.915  -0.027 -0.8282 -1.3903 -0.4397
 5621TIP3    H216870   2.420   2.929   0.115 -2.2887 -0.9372  0.0582
 5622TIP3   OH216871   0.987   4.743   1.422 -0.6813  0.0573 -0.2235
 5622TIP3    H116872   0.937   4.696   1.490  0.9419  0.0542  1.0282
 5622TIP3    H216873   0.952   4.832   1.425 -0.6672  0.0460  0.6049
 5623TIP3   OH216874   4.267   3.477   2.141 -0.0638  0.3455  0.4871
 5623TIP3    H116875   4.236   3.457   2.229 -0.9825 -2.1614 -0.3214
 5623TIP3    H216876   4.360   3.455   2.142 -0.6982 -2.7186  0.0888
 5624TIP3   OH216877   5.659   5.337   2.708  0.2800  0.4209  0.5301
 5624TIP3    H116878   5.612   5.393   2.770 -1.7544 -0.6322  0.0066
 5624TIP3    H216879   5.734   5.390   2.680 -0.6285  2.2141  1.3368
 5625TIP3   OH216880   1.704   1.198   1.335 -0.3839  0.1517  0.1152
 5625TIP3    H116881   1.624   1.177   1.383  0.3257 -0.3172  1.1166
 5625TIP3    H216882   1.775   1.170   1.392  0.5110  0.6501 -0.7154
 5626TIP3   OH216883   5.345   1.286   1.720 -0.1774  0.1992  0.3511
 5626TIP3    H116884   5.374   1.361   1.669  2.7424 -1.3525 -0.4934
 5626TIP3    H216885   5.289   1.237   1.659 -0.8284  0.8723  0.3892
 5627TIP3   OH216886   2.471   2.934   3.164 -0.4327 -0.1173 -0.0335
 5627TIP3    H116887   2.448   3.016   3.120  0.1093 -0.0005 -0.1118
 5627TIP3    H216888   2.547   2.902   3.115 -1.7454 -1.6287 -1.1803
 5628TIP3   OH216889   1.929   2.990   1.146  0.1434 -0.1136 -0.4390
 5628TIP3    H116890   1.946   3.038   1.066 -0.7628  1.9654  0.5316
 5628TIP3    H216891   1.839   3.012   1.169  0.3126 -0.8097  1.0542
 5629TIP3   OH216892   0.571   4.311   1.055  0.0446  0.0205 -0.1299
 5629TIP3    H116893   0.660   4.310   1.021 -0.0725  0.7660 -0.4718
 5629TIP3    H216894   0.517   4.334   0.980 -0.7010 -2.4539 -0.4564
 5630TIP3   OH216895   5.279   1.203   3.646 -0.0703  0.0212 -0.2170
 5630TIP3    H116896   5.324   1.164   3.721 -1.3720 -0.4552  0.3566
 5630TIP3    H216897   5.232   1.130   3.606 -0.2873  0.4853 -0.8297
 5631TIP3   OH216898   4.527   5.939   0.646 -0.8964 -0.3626  0.7910
 5631TIP3    H116899   4.543   5.910   0.735 -2.9799  0.7022  1.5944
 5631TIP3    H216900   4.472   5.871   0.607 -0.4478 -0.5609  0.4972
 5632TIP3   OH216901   4.269   3.168   0.642  0.6434 -0.2999  0.0631
 5632TIP3    H116902   4.345   3.114   0.660  0.7379  0.6061  2.8390
 5632TIP3    H216903   4.210   3.152   0.716 -1.1749  0.2367 -1.2035
 5633TIP3   OH216904   2.840   0.604   2.477  0.5311 -0.5590  0.1415
 5633TIP3    H116905   2.842   0.614   2.572 -1.1639 -1.6029  0.3260
 5633TIP3    H216906   2.773   0.665   2.447  0.3258 -0.9719 -0.2612
 5634TIP3   OH216907   0.760   1.931   0.778 -0.3888 -0.5138 -1.0935
 5634TIP3    H116908   0.815   1.874   0.725 -0.5070 -1.1361 -0.5679
 5634TIP3    H216909   0.670   1.912   0.750 -0.4520 -0.8467 -0.6813
 5635TIP3   OH216910   0.143   0.817   2.437  0.2357 -0.4141  0.2129
 5635TIP3    H116911   0.232   0.848   2.458  0.7986 -1.1722 -0.9423
 5635TIP3    H216912   0.116   0.768   2.514  1.1228 -0.8071  0.2889
 5636TIP3   OH216913   1.127   5.747   3.077 -0.3970 -0.0605 -0.5425
 5636TIP3    H116914   1.068   5.821   3.062  2.3650  2.6695  1.0646
 5636TIP3    H216915   1.211   5.775   3.041  0.6708 -2.6504 -0.3025
 5637TIP3   OH216916   2.812   0.860   4.461 -0.1339  0.5097 -0.8393
 5637TIP3    H116917   2.875   0.840   4.392 -0.1472 -1.0507 -0.4298
 5637TIP3    H216918   2.735   0.806   4.441  0.1296 -0.5426  0.7529
 5638TIP3   OH216919   5.413   2.079   3.824  0.2116  0.1593  0.4395
 5638TIP3    H116920   5.469   2.106   3.751 -1.0751  0.7761 -0.3523
 5638TIP3    H216921   5.445   2.128   3.899  1.4913 -0.4075  0.2959
 5639TIP3   OH216922   4.670   5.131   4.970 -0.1218  0.1514  0.1811
 5639TIP3    H116923   4.739   5.197   4.983  0.5651 -0.5648  0.2344
 5639TIP3    H216924   4.636   5.115   5.058 -0.4471  0.5959  0.1393
 5640TIP3   OH216925   2.013   4.645   4.102 -0.4327  0.1419  0.0959
 5640TIP3    H116926   1.988   4.640   4.194 -0.2033 -0.8233  0.1165
 5640TIP3    H216927   1.995   4.558   4.067  1.5530 -0.2002 -0.2106
 5641TIP3   OH216928   1.318   5.245   4.766  0.8854 -0.8218 -0.2813
 5641TIP3    H116929   1.402   5.271   4.727  0.5933  0.3033 -0.2116
 5641TIP3    H216930   1.315   5.294   4.849  0.3379 -1.1704 -0.0914
 5642TIP3   OH216931   1.556   5.569   2.443  0.3068  0.4639 -0.2011
 5642TIP3    H116932   1.596   5.586   2.528 -0.3679  1.7042 -0.0983
 5642TIP3    H216933   1.463   5.587   2.457  0.1893  0.6880 -1.1919
 5643TIP3   OH216934   2.339   4.459   4.218  0.0740 -0.1178  0.2014
 5643TIP3    H116935   2.397   4.391   4.183  0.7437 -0.3274  1.6512
 5643TIP3    H216936   2.329   4.521   4.146 -1.1851 -2.0902 -1.4469
 5644TIP3   OH216937   0.986   4.969   2.478 -0.2709 -0.1432  0.1320
 5644TIP3    H116938   1.039   4.927   2.546 -0.4340  2.5512  2.0873
 5644TIP3    H216939   1.039   4.962   2.399  0.9382 -1.4771  1.0060
 5645TIP3   OH216940   1.729   3.270   0.314  0.0241 -0.1127  0.0709
 5645TIP3    H116941   1.780   3.194   0.284  0.8846  0.0098  1.1663
 5645TIP3    H216942   1.655   3.273   0.254  0.4879 -1.2328 -0.6091
 5646TIP3   OH216943   4.134   5.303   2.300 -0.4178  0.1746 -0.0156
 5646TIP3    H116944   4.073   5.260   2.360  0.3891  0.0223  0.7254
 5646TIP3    H216945   4.172   5.231   2.250  0.3614  0.0786  0.6857
 5647TIP3   OH216946   1.950   5.389   1.743  0.4684 -0.0292  0.1669
 5647TIP3    H116947   1.920   5.309   1.787 -0.4820 -0.0891 -0.5673
 5647TIP3    H216948   2.010   5.357   1.675 -0.4571 -0.1907 -0.5915
 5648TIP3   OH216949   5.679   2.603   2.264  0.5168  0.0070  0.5808
 5648TIP3    H116950   5.747   2.668   2.245 -0.2311  0.7207  0.2768
 5648TIP3    H216951   5.718   2.520   2.239  0.8519  0.5380 -0.7801
 5649TIP3   OH216952   4.523   3.200   0.013 -0.4667  0.6514 -0.2429
 5649TIP3    H116953   4.606   3.158   0.034  0.1513  1.1424 -1.6061
 5649TIP3    H216954   4.510   3.263   0.084  0.1666  0.3473  0.1531
 5650TIP3   OH216955   6.100   4.793   5.123  0.2510 -0.3067  0.0402
 5650TIP3    H116956   6.052   4.873   5.101 -1.1827 -1.1977 -0.1816
 5650TIP3    H216957   6.185   4.804   5.080 -0.0461  0.9268 -0.2940
 5651TIP3   OH216958   3.873   4.550   4.054  0.2958  0.2998 -0.3704
 5651TIP3    H116959   3.869   4.500   3.972  0.3732  0.9231 -0.7674
 5651TIP3    H216960   3.812   4.505   4.113  0.0784 -0.0371 -0.8461
 5652TIP3   OH216961   4.865   5.628   2.724  0.0517  0.2882  0.7561
 5652TIP3    H116962   4.867   5.714   2.766  1.4472  1.7649 -2.0929
 5652TIP3    H216963   4.791   5.633   2.663  1.9020  0.6944 -1.5939
 5653TIP3   OH216964   4.900   0.482   1.718 -0.2499 -0.4224 -0.2878
 5653TIP3    H116965   4.855   0.400   1.702 -1.2151 -0.1181  0.7810
 5653TIP3    H216966   4.854   0.546   1.664  0.7042 -0.6111 -1.3722
 5654TIP3   OH216967   5.718   4.277   0.518  0.1793 -0.4523  0.0956
 5654TIP3    H116968   5.714   4.184   0.499 -0.0709 -0.3206 -0.5440
 5654TIP3    H216969   5.719   4.319   0.431 -0.1147  0.1503  0.3752
 5655TIP3   OH216970   5.409   1.715   4.137 -0.3950  0.1210 -0.4612
 5655TIP3    H116971   5.324   1.733   4.177 -1.1816  0.0630 -2.0261
 5655TIP3    H216972   5.458   1.668   4.205 -1.5790  0.2137  0.4943
 5656TIP3   OH216973   1.843   5.727   4.067 -0.2879 -0.1978 -0.9397
 5656TIP3    H116974   1.867   5.661   4.001  0.0771  0.6482 -1.6796
 5656TIP3    H216975   1.805   5.799   4.016 -0.0319  0.4579 -0.2215
 5657TIP3   OH216976   0.896   5.848   2.625  0.1563  0.1302 -0.3332
 5657TIP3    H116977   0.880   5.926   2.573 -1.8607 -0.2053 -0.3104
 5657TIP3    H216978   0.932   5.784   2.563 -0.6816  0.2471 -0.9532
 5658TIP3   OH216979   5.349   0.043   2.902 -0.1353 -0.2383 -0.4928
 5658TIP3    H116980   5.369   0.045   2.809  2.1262 -0.4503 -0.0769
 5658TIP3    H216981   5.347   0.136   2.928  2.7518 -0.1718 -0.1690
 5659TIP3   OH216982   3.974   4.372   1.758  0.0519  0.1508  0.5644
 5659TIP3    H116983   4.014   4.355   1.673  0.1425 -0.6594  0.7615
 5659TIP3    H216984   3.935   4.459   1.749  0.3350  0.2065 -0.2003
 5660TIP3   OH216985   3.405   4.204   3.259  0.0574  0.5361 -0.3034
 5660TIP3    H116986   3.444   4.156   3.186  0.0880  1.3301 -0.8200
 5660TIP3    H216987   3.477   4.216   3.321  0.2835  0.7211 -0.5952
 5661TIP3   OH216988   0.545   5.724   3.316 -0.2358  0.6550  0.1330
 5661TIP3    H116989   0.525   5.798   3.259 -0.9214  0.4705  0.1284
 5661TIP3    H216990   0.618   5.754   3.370 -0.0332  1.0702 -0.3760
 5662TIP3   OH216991   2.998   1.781   2.814 -0.3616 -0.1361 -0.4525
 5662TIP3    H116992   2.964   1.786   2.724 -0.6153  0.2617 -0.3401
 5662TIP3    H216993   3.078   1.729   2.807  0.5640  1.3141 -1.2031
 5663TIP3   OH216994   2.106   1.114   1.991  0.2945 -0.2458 -0.2150
 5663TIP3    H116995   2.058   1.195   2.009 -1.3123 -0.8389 -1.6274
 5663TIP3    H216996   2.198   1.138   2.003 -0.0468  2.0926 -1.6923
 5664TIP3   OH216997   0.966   2.932   1.468  0.6327  0.0332 -0.0894
 5664TIP3    H116998   0.896   2.938   1.403  0.7802 -0.6599 -0.3168
 5664TIP3    H216999   1.038   2.887   1.423  0.6553 -0.6599  0.6161
 5665TIP3   OH217000   1.990   2.963   3.678  0.8161  0.4058  0.0709
 5665TIP3    H117001   1.980   2.986   3.770  1.0324  2.4394 -0.3569
 5665TIP3    H217002   2.056   3.025   3.645  0.3613  0.0667 -1.5561
 5666TIP3   OH217003   5.552   2.996   3.206  0.7886  0.0323 -0.1760
 5666TIP3    H117004   5.534   3.082   3.167  1.0137 -0.1482 -0.6927
 5666TIP3    H217005   5.478   2.980   3.264  1.0487  0.8495  0.4016
 5667TIP3   OH217006   1.328   2.563   3.942 -0.8508  0.5467 -0.3226
 5667TIP3    H117007   1.297   2.653   3.938  0.0285  0.9010  0.5069
 5667TIP3    H217008   1.253   2.513   3.976 -2.2995  0.4452 -3.3841
 5668TIP3   OH217009   3.178   4.716   4.869  0.2529  0.2729  0.4291
 5668TIP3    H117010   3.086   4.736   4.890  0.2310  0.6445 -0.0056
 5668TIP3    H217011   3.173   4.652   4.798  0.3321 -0.2853  0.9195
 5669TIP3   OH217012   3.872   5.710   1.887 -0.0090  0.1109 -0.1323
 5669TIP3    H117013   3.844   5.765   1.959 -0.1649 -0.2995  0.1219
 5669TIP3    H217014   3.957   5.675   1.914  0.4943  0.8956 -0.6551
 5670TIP3   OH217015   3.001   2.809   0.280 -0.1083  0.1030 -0.0005
 5670TIP3    H117016   2.908   2.825   0.263 -0.7624 -3.3566 -0.4580
 5670TIP3    H217017   3.006   2.798   0.375 -0.2636 -0.0322 -0.0059
 5671TIP3   OH217018   1.360   1.037   2.331  0.7274  0.3461  0.3714
 5671TIP3    H117019   1.308   0.958   2.319 -0.9896  1.5456 -0.4306
 5671TIP3    H217020   1.404   1.050   2.247  0.3360  0.7074  0.2226
 5672TIP3   OH217021   0.494   2.424   2.842  0.1584 -0.0601  0.5767
 5672TIP3    H117022   0.513   2.348   2.787  1.2594  0.2600  0.4827
 5672TIP3    H217023   0.399   2.429   2.844  0.0842 -0.6948 -0.4507
 5673TIP3   OH217024   1.211   0.049   2.726  0.1385  0.3138 -0.1310
 5673TIP3    H117025   1.136   0.052   2.784 -0.5366  0.8119 -1.0015
 5673TIP3    H217026   1.248   0.137   2.730 -1.3557  1.1334 -2.2439
 5674TIP3   OH217027   2.079   0.349   1.396  0.3275 -0.2213 -0.2957
 5674TIP3    H117028   2.001   0.320   1.349  0.1063  0.9923 -0.7015
 5674TIP3    H217029   2.100   0.434   1.358  1.8514 -0.5213 -0.1947
 5675TIP3   OH217030   3.856   1.871   2.166 -0.0342  0.2505 -0.0976
 5675TIP3    H117031   3.814   1.833   2.243 -0.4076 -0.9792 -0.8726
 5675TIP3    H217032   3.819   1.959   2.160 -2.2199 -0.6286 -0.4946
 5676TIP3   OH217033   5.649   3.791   0.723 -0.4824  0.0890  0.2731
 5676TIP3    H117034   5.564   3.748   0.711 -0.4774  0.1689 -0.0816
 5676TIP3    H217035   5.697   3.733   0.783  0.3045 -1.5608 -1.7993
 5677TIP3   OH217036   6.138   5.452   4.540  0.7278  0.4133  0.3584
 5677TIP3    H117037   6.121   5.371   4.588 -0.4515  1.6763  2.2565
 5677TIP3    H217038   6.057   5.469   4.492  0.3302  1.2139  1.2484
 5678TIP3   OH217039   1.876   4.250   4.698  0.3944  0.0587 -0.1872
 5678TIP3    H117040   1.814   4.275   4.629 -1.0072 -1.0896  0.6005
 5678TIP3    H217041   1.953   4.304   4.682 -1.6699  3.4259  0.2293
 5679TIP3   OH217042   0.320   3.904   4.187  0.0168  0.1675 -0.0508
 5679TIP3    H117043   0.227   3.918   4.202 -0.0880 -0.0264 -0.4913
 5679TIP3    H217044   0.337   3.817   4.223 -0.1932 -0.2173 -0.8551
 5680TIP3   OH217045   5.585   3.225   3.827 -0.1981 -0.1016  0.2197
 5680TIP3    H117046   5.590   3.273   3.744 -1.5720  2.0047  1.2869
 5680TIP3    H217047   5.675   3.228   3.861  0.3501 -0.8566 -1.0717
 5681TIP3   OH217048   4.085   5.792   3.280  0.3675 -0.3101 -0.1448
 5681TIP3    H117049   4.057   5.850   3.209 -0.7067 -0.5626  0.0517
 5681TIP3    H217050   4.125   5.718   3.236  0.5956 -0.0139 -0.4449
 5682TIP3   OH217051   4.614   4.816   1.380 -0.1372  0.2472 -0.3613
 5682TIP3    H117052   4.574   4.736   1.415  1.2947 -0.2759  0.1154
 5682TIP3    H217053   4.593   4.814   1.286  1.6043 -1.7806 -0.7721
 5683TIP3   OH217054   3.037   4.936   4.350  0.2197  0.0897  0.2592
 5683TIP3    H117055   3.078   4.952   4.265 -0.7327 -0.7298 -0.3825
 5683TIP3    H217056   3.061   4.845   4.371 -1.0949 -0.3447 -0.0495
 5684TIP3   OH217057   0.232   1.033   3.243  0.0424  0.5025 -0.1776
 5684TIP3    H117058   0.322   1.039   3.275 -0.2947 -1.7001  1.4258
 5684TIP3    H217059   0.235   0.965   3.175 -0.3810  0.4950 -0.1918
 5685TIP3   OH217060   0.717   4.917   5.151  0.5364 -0.1362  0.2517
 5685TIP3    H117061   0.802   4.913   5.107 -0.0670 -0.6885 -0.9040
 5685TIP3    H217062   0.728   4.864   5.230  0.6538 -2.0975 -1.0154
 5686TIP3   OH217063   0.139   1.985   3.263  0.4345  0.4381 -0.1124
 5686TIP3    H117064   0.155   1.962   3.172  0.3128 -1.9480  0.4036
 5686TIP3    H217065   0.047   1.966   3.278  0.2430  1.6237  0.3046
 5687TIP3   OH217066   5.149   4.908   3.311 -0.1251 -0.6563  0.8805
 5687TIP3    H117067   5.210   4.835   3.317  0.2325 -0.2745  2.2460
 5687TIP3    H217068   5.097   4.903   3.391 -1.4270 -0.5602  0.0711
 5688TIP3   OH217069   2.127   4.178   3.462 -0.7047  0.9209 -0.1270
 5688TIP3    H117070   2.168   4.221   3.387  2.2549 -0.1150  0.7487
 5688TIP3    H217071   2.045   4.142   3.427  0.3806  0.7773 -2.7748
 5689TIP3   OH217072   5.925   4.573   1.737  0.4399  0.3219  0.0983
 5689TIP3    H117073   5.892   4.530   1.658 -2.1430 -2.6670  2.5486
 5689TIP3    H217074   5.848   4.615   1.776  0.8604 -1.0344  2.5910
 5690TIP3   OH217075   2.343   0.507   0.754 -0.1216  0.1421 -0.0983
 5690TIP3    H117076   2.393   0.470   0.826 -0.7416 -1.6881 -0.5655
 5690TIP3    H217077   2.286   0.572   0.795 -0.8531 -1.2532  1.1648
 5691TIP3   OH217078   3.149   0.982   0.057 -0.0496  0.2912  0.7735
 5691TIP3    H117079   3.221   0.926   0.027 -0.8355 -0.5870  0.4622
 5691TIP3    H217080   3.092   0.923   0.107 -0.9604  0.7855  0.3392
 5692TIP3   OH217081   1.682   1.010   3.511  0.1284  0.7166  0.6103
 5692TIP3    H117082   1.604   0.957   3.497  0.2365  0.6251  0.3378
 5692TIP3    H217083   1.737   0.992   3.434  0.5610  0.5261  0.9611
 5693TIP3   OH217084   1.249   0.345   3.681 -0.0275 -0.0817  0.2572
 5693TIP3    H117085   1.301   0.308   3.610  0.2722  0.2777  0.2855
 5693TIP3    H217086   1.235   0.272   3.742 -0.1009 -0.3365 -0.0615
 5694TIP3   OH217087   3.708   1.585   1.642 -0.5513 -0.2604  0.2289
 5694TIP3    H117088   3.766   1.639   1.695 -0.5858 -1.1586  1.2370
 5694TIP3    H217089   3.753   1.573   1.559 -0.2512  0.7505  0.2378
 5695TIP3   OH217090   0.683   0.377   5.054  0.0007 -0.0279 -0.1956
 5695TIP3    H117091   0.695   0.302   4.995 -0.5804 -1.7193  1.7081
 5695TIP3    H217092   0.635   0.340   5.128  0.7082  2.0114  1.3343
 5696TIP3   OH217093   2.706   5.990   2.293 -0.3841  0.4381  0.2419
 5696TIP3    H117094   2.755   5.935   2.355 -0.1514 -1.1095 -1.2305
 5696TIP3    H217095   2.740   5.965   2.207 -0.7378  2.4940 -0.5422
 5697TIP3   OH217096   5.332   1.155   2.110  0.3023 -0.1834 -0.0672
 5697TIP3    H117097   5.401   1.209   2.070 -0.7294  0.5487 -0.9008
 5697TIP3    H217098   5.309   1.202   2.190 -0.8120  0.8397 -0.9449
 5698TIP3   OH217099   4.326   4.121   1.949 -0.5812 -0.1330  0.6424
 5698TIP3    H117100   4.389   4.171   1.898 -0.6142 -0.5236  0.2098
 5698TIP3    H217101   4.329   4.033   1.912 -0.4590 -0.4851  1.4483
 5699TIP3   OH217102   1.708   0.292   5.115 -0.3839 -0.2659 -0.5621
 5699TIP3    H117103   1.650   0.258   5.047  0.6646 -1.4258 -0.9159
 5699TIP3    H217104   1.775   0.340   5.068 -0.7109  0.5899 -0.1887
 5700TIP3   OH217105   4.914   0.094   3.628 -0.5372 -0.1458  0.1674
 5700TIP3    H117106   4.822   0.070   3.615 -0.5820  0.5326 -0.8760
 5700TIP3    H217107   4.958   0.060   3.551 -0.5213  2.5809 -1.1586
 5701TIP3   OH217108   0.900   3.116   2.414 -0.1312  0.5256 -0.4646
 5701TIP3    H117109   0.845   3.039   2.409 -1.1066  1.1892 -0.2479
 5701TIP3    H217110   0.979   3.093   2.365  0.5825 -1.3968  1.4409
 5702TIP3   OH217111   3.270   5.356   3.089  0.3438 -0.0326 -0.6112
 5702TIP3    H117112   3.226   5.441   3.088  0.0456  0.0036  3.2502
 5702TIP3    H217113   3.217   5.302   3.147  2.0743 -1.9605 -0.7127
 5703TIP3   OH217114   4.342   5.363   3.337 -0.9218 -0.3194  0.0306
 5703TIP3    H117115   4.429   5.384   3.302 -0.5108 -0.8664  0.7011
 5703TIP3    H217116   4.290   5.443   3.321  0.0315  0.4547  0.6839
 5704TIP3   OH217117   2.063   4.921   3.279  0.0112 -0.3001 -0.4480
 5704TIP3    H117118   1.988   4.878   3.239  0.5782 -2.6562  0.8049
 5704TIP3    H217119   2.102   4.853   3.334  1.7746  1.5011  0.6455
 5705TIP3   OH217120   3.920   2.702   3.751 -0.0089  0.0909 -0.1077
 5705TIP3    H117121   3.985   2.772   3.747 -1.1881  1.2173 -0.2618
 5705TIP3    H217122   3.837   2.745   3.732 -0.6239 -1.5840 -1.5844
 5706TIP3   OH217123   2.946   2.230   4.340 -0.0306 -0.1851  0.9072
 5706TIP3    H117124   2.869   2.173   4.337 -0.4055  0.2159  2.3795
 5706TIP3    H217125   2.914   2.315   4.311  0.5086 -0.6337 -1.1975
 5707TIP3   OH217126   3.701   4.412   0.125 -0.5309  0.6443 -0.3160
 5707TIP3    H117127   3.695   4.329   0.078 -0.0918 -0.2013  1.0446
 5707TIP3    H217128   3.740   4.473   0.062  1.2662 -0.7712 -0.6805
 5708TIP3   OH217129   5.090   0.381   1.162 -0.4643 -0.1535  0.0771
 5708TIP3    H117130   5.164   0.325   1.138  0.1310  0.8672 -0.5328
 5708TIP3    H217131   5.095   0.456   1.102 -3.0791 -0.9165 -1.2782
 5709TIP3   OH217132   0.314   1.499   1.642 -0.1375  0.4042  0.1403
 5709TIP3    H117133   0.340   1.414   1.607  1.5812  0.7120  0.5732
 5709TIP3    H217134   0.371   1.562   1.599 -1.7600  1.4560 -0.5937
 5710TIP3   OH217135   3.289   0.865   1.701 -0.2123  0.3424  0.8658
 5710TIP3    H117136   3.327   0.784   1.668  0.6225  1.1620 -0.3046
 5710TIP3    H217137   3.234   0.896   1.629 -1.5272  0.1946  1.7802
 5711TIP3   OH217138   4.649   5.229   1.781 -0.0653 -0.0990 -0.2668
 5711TIP3    H117139   4.577   5.217   1.720  0.2330 -0.6486 -0.5270
 5711TIP3    H217140   4.629   5.169   1.853 -0.5736  0.7742  0.3297
 5712TIP3   OH217141   1.354   5.371   2.703 -0.2334 -0.5552  0.0858
 5712TIP3    H117142   1.347   5.304   2.771  0.4819 -0.0490  0.6808
 5712TIP3    H217143   1.334   5.325   2.621 -0.5025 -1.3109  0.5643
 5713TIP3   OH217144   0.448   2.273   4.621  0.2158  0.1096 -0.0265
 5713TIP3    H117145   0.394   2.224   4.559 -1.1121  0.2115  1.0118
 5713TIP3    H217146   0.500   2.332   4.566 -0.0259 -0.6562 -1.1164
 5714TIP3   OH217147   2.808   5.733   3.902  0.6988  0.5467 -0.0519
 5714TIP3    H117148   2.840   5.815   3.864 -1.2642  1.2491 -0.2723
 5714TIP3    H217149   2.714   5.735   3.889  0.4243 -1.0627  1.3110
 5715TIP3   OH217150   3.149   1.759   4.091  0.4331  0.1528 -0.0210
 5715TIP3    H117151   3.223   1.728   4.144  0.2879  2.0113  1.3563
 5715TIP3    H217152   3.189   1.789   4.010  1.0467 -0.0369  0.2013
 5716TIP3   OH217153   0.775   5.503   2.263 -0.3021 -0.0022  0.3079
 5716TIP3    H117154   0.865   5.501   2.228 -1.5487  1.1401 -3.4382
 5716TIP3    H217155   0.762   5.415   2.298  1.9210 -0.5554 -0.0790
 5717TIP3   OH217156   5.998   1.396   2.050  0.2676 -0.1723  0.6781
 5717TIP3    H117157   5.903   1.406   2.054  0.2302 -0.4087  0.4298
 5717TIP3    H217158   6.011   1.306   2.020  0.5557  0.1476 -0.1804
 5718TIP3   OH217159   3.092   0.694   2.376  0.2200  0.3730  0.4490
 5718TIP3    H117160   3.008   0.670   2.416  1.1808  0.3835  2.5993
 5718TIP3    H217161   3.101   0.635   2.301 -2.9110  2.1278 -1.5440
 5719TIP3   OH217162   4.151   2.883   3.679 -0.7109 -0.3891 -0.3727
 5719TIP3    H117163   4.235   2.849   3.649  0.2271  1.1869  0.3609
 5719TIP3    H217164   4.117   2.933   3.605 -1.6815 -2.1017 -1.1440
 5720TIP3   OH217165   0.076   0.337   1.712 -0.1763  0.2267 -0.2562
 5720TIP3    H117166   0.056   0.429   1.698  0.2028  0.4629  0.7175
 5720TIP3    H217167   0.117   0.309   1.630  0.1741  1.0509 -0.3697
 5721TIP3   OH217168   3.008   5.234   4.183 -0.0431 -0.2623 -0.0969
 5721TIP3    H117169   3.054   5.163   4.139 -1.0695 -0.8206 -0.2896
 5721TIP3    H217170   3.025   5.311   4.128 -1.6564 -1.0205 -1.8014
 5722TIP3   OH217171   2.432   2.955   0.986 -0.4900  0.3756 -0.0124
 5722TIP3    H117172   2.521   2.951   1.020 -0.1622  0.6685 -0.8305
 5722TIP3    H217173   2.380   2.905   1.049  0.3681 -0.4198  0.0704
 5723TIP3   OH217174   2.948   2.503   0.718 -0.2507  0.3461  0.1235
 5723TIP3    H117175   2.978   2.576   0.773 -0.9768  0.9760 -0.2913
 5723TIP3    H217176   2.862   2.531   0.687  0.2681  0.1409 -1.5814
 5724TIP3   OH217177   2.747   3.422   1.605 -0.2583 -0.5933 -0.1871
 5724TIP3    H117178   2.815   3.381   1.551  0.7760 -0.2721  0.8426
 5724TIP3    H217179   2.762   3.387   1.693 -1.0218 -0.0191  0.1815
 5725TIP3   OH217180   1.867   5.980   1.921  0.1628  0.2561  0.5486
 5725TIP3    H117181   1.917   5.981   2.002  2.7157 -3.2563 -0.7315
 5725TIP3    H217182   1.793   5.921   1.940  2.2936 -2.9314 -0.2110
 5726TIP3   OH217183   3.422   4.795   3.353  0.5405  0.3567 -0.1584
 5726TIP3    H117184   3.410   4.701   3.362  0.6267  0.3896  0.3767
 5726TIP3    H217185   3.403   4.830   3.441 -2.1816  1.1408 -0.9605
 5727TIP3   OH217186   0.840   5.843   4.968 -0.0115  0.3004 -0.1186
 5727TIP3    H117187   0.925   5.798   4.968  0.3683  0.8049  2.7432
 5727TIP3    H217188   0.790   5.798   4.901  2.2925 -0.4417 -1.4790
 5728TIP3   OH217189   5.738   2.833   1.807 -0.1126  0.1686 -0.6593
 5728TIP3    H117190   5.768   2.922   1.826 -1.3721  0.5764 -0.4741
 5728TIP3    H217191   5.658   2.823   1.860 -0.9684 -0.4360 -2.0016
 5729TIP3   OH217192   5.613   2.801   3.002 -0.0364 -0.4207  0.4014
 5729TIP3    H117193   5.553   2.835   2.936 -0.4023 -0.9088  0.4761
 5729TIP3    H217194   5.584   2.841   3.084 -1.1320 -1.6775  0.6710
 5730TIP3   OH217195   2.027   0.863   0.259 -0.8147 -0.5136  0.0343
 5730TIP3    H117196   2.101   0.876   0.200 -1.6684  1.0144 -0.7573
 5730TIP3    H217197   2.062   0.810   0.330  1.0451  0.2017 -0.2980
 5731TIP3   OH217198   5.506   5.470   2.882  0.3057  0.1844  0.4525
 5731TIP3    H117199   5.444   5.419   2.934 -1.0972  2.6082  1.3281
 5731TIP3    H217200   5.555   5.522   2.946  2.2614 -0.6124 -0.3402
 5732TIP3   OH217201   1.602   3.945   4.592 -0.2725  0.0776  0.3634
 5732TIP3    H117202   1.573   4.023   4.545  0.2145  0.0103 -0.0499
 5732TIP3    H217203   1.526   3.887   4.592 -0.3351  0.1611 -0.1563
 5733TIP3   OH217204   6.173   4.187   0.144 -0.0211 -0.4340 -0.2092
 5733TIP3    H117205   6.145   4.116   0.201 -1.5254  1.3295  1.3530
 5733TIP3    H217206   6.253   4.220   0.185  0.0418 -0.4745 -0.2982
 5734TIP3   OH217207   5.736   2.171   4.344  0.0966  0.1892 -0.1299
 5734TIP3    H117208   5.817   2.121   4.330  1.2218  1.4925  1.3424
 5734TIP3    H217209   5.740   2.242   4.281  1.0759  1.3164  1.1354
 5735TIP3   OH217210   0.975   5.734   1.925  0.0917  0.9387 -0.2097
 5735TIP3    H117211   1.055   5.740   1.873  0.1232  1.7399 -0.0700
 5735TIP3    H217212   0.943   5.645   1.908  0.9679  0.6345 -0.3175
 5736TIP3   OH217213   2.398   1.968   1.820 -0.1225 -0.4447 -0.1524
 5736TIP3    H117214   2.389   1.873   1.821  0.5734 -0.5994  3.3216
 5736TIP3    H217215   2.329   1.998   1.762 -0.4120 -3.0397 -1.2885
 5737TIP3   OH217216   0.460   3.257   1.258 -0.3382  0.0385  0.2109
 5737TIP3    H117217   0.392   3.319   1.233 -0.6554  0.4609  2.0041
 5737TIP3    H217218   0.541   3.295   1.224 -0.6470  0.9697  0.4980
 5738TIP3   OH217219   1.503   0.642   5.051  0.1456  0.1192 -0.3533
 5738TIP3    H117220   1.414   0.638   5.015  0.9430  2.5977 -2.9129
 5738TIP3    H217221   1.504   0.720   5.106  0.8433  0.2820 -0.5908
 5739TIP3   OH217222   4.760   1.093   1.752 -0.4704 -0.2399  0.1037
 5739TIP3    H117223   4.713   1.038   1.690 -0.7063 -0.1317  0.1864
 5739TIP3    H217224   4.709   1.173   1.756 -1.0766 -0.6688  1.2810
 5740TIP3   OH217225   0.657   4.920   4.857 -0.4466  0.4751  0.4869
 5740TIP3    H117226   0.721   4.972   4.905 -0.4370 -1.5550  2.8791
 5740TIP3    H217227   0.688   4.830   4.867 -2.8034 -0.4188  0.3570
 5741TIP3   OH217228   2.107   3.724   1.359 -0.4408 -0.0128  0.0417
 5741TIP3    H117229   2.032   3.734   1.300 -0.9848  0.1056  0.7461
 5741TIP3    H217230   2.122   3.813   1.393  1.7867  0.5784 -2.1901
 5742TIP3   OH217231   5.209   2.756   3.991  0.5045 -0.2173  0.6658
 5742TIP3    H117232   5.204   2.726   3.900  0.2275 -1.5425  1.0987
 5742TIP3    H217233   5.139   2.822   3.998  0.0976 -0.5795  0.0965
 5743TIP3   OH217234   6.315   3.436   3.195  0.0438 -0.0867 -0.2857
 5743TIP3    H117235   6.337   3.515   3.146 -0.6184  0.0374 -0.3943
 5743TIP3    H217236   6.227   3.453   3.230  0.8152  0.1763  1.6507
 5744TIP3   OH217237   6.279   3.128   2.455  0.6045 -0.3775 -0.1554
 5744TIP3    H117238   6.307   3.175   2.533  0.9109 -2.1846  0.8634
 5744TIP3    H217239   6.235   3.194   2.402  0.7229  0.9719  1.3603
 5745TIP3   OH217240   6.108   3.294   4.191 -0.1257  0.4441  0.8863
 5745TIP3    H117241   6.133   3.202   4.183 -0.6913  0.4028 -0.7851
 5745TIP3    H217242   6.157   3.326   4.267  1.6550 -0.7076  0.2790
 5746TIP3   OH217243   5.435   3.566   1.871 -0.1525 -0.3610 -0.1500
 5746TIP3    H117244   5.514   3.548   1.923  1.0600  1.8661 -1.0598
 5746TIP3    H217245   5.389   3.635   1.921 -0.9491 -0.8591 -0.1860
 5747TIP3   OH217246   0.828   2.364   0.889  0.4879 -0.0339  0.0525
 5747TIP3    H117247   0.795   2.288   0.936 -1.3925  1.0726  0.6509
 5747TIP3    H217248   0.907   2.333   0.844 -0.8691 -2.6250 -0.7228
 5748TIP3   OH217249   5.676   5.322   1.468 -0.2888  0.1479 -0.1398
 5748TIP3    H117250   5.654   5.398   1.415  1.0571  0.1989 -0.6536
 5748TIP3    H217251   5.745   5.278   1.420  1.0422  0.2362  1.5827
 5749TIP3   OH217252   0.223   1.496   4.710  0.1845 -0.2579  0.2838
 5749TIP3    H117253   0.314   1.511   4.735  0.1089 -0.2974  0.5807
 5749TIP3    H217254   0.226   1.416   4.657  0.3820 -0.0196 -0.0712
 5750TIP3   OH217255   1.688   0.765   4.411 -0.1660  0.6320 -0.3253
 5750TIP3    H117256   1.771   0.730   4.378 -1.0692 -1.7020 -0.2974
 5750TIP3    H217257   1.640   0.791   4.333 -0.2027  0.0841 -0.4881
 5751TIP3   OH217258   0.358   1.791   3.952  0.4106 -0.1837 -0.0654
 5751TIP3    H117259   0.292   1.825   4.012  0.0022  1.0040 -1.1392
 5751TIP3    H217260   0.308   1.740   3.888  0.8796 -1.7353  0.7556
 5752TIP3   OH217261   0.818   2.184   4.941  0.0193  0.1153  0.3023
 5752TIP3    H117262   0.790   2.106   4.893  0.6343  0.6848 -1.0216
 5752TIP3    H217263   0.752   2.250   4.920  0.5630  0.5132 -0.1806
 5753TIP3   OH217264   4.640   5.416   1.101  0.0504  0.0740  0.0130
 5753TIP3    H117265   4.608   5.396   1.013  2.2996 -0.8971 -0.6524
 5753TIP3    H217266   4.576   5.376   1.160 -0.9997 -0.0605 -1.1937
 5754TIP3   OH217267   0.346   2.504   2.478 -0.6740 -0.1620 -0.2184
 5754TIP3    H117268   0.309   2.494   2.390  0.7289  0.5659 -0.9188
 5754TIP3    H217269   0.370   2.596   2.483  0.7759 -0.5473  0.2979
 5755TIP3   OH217270   3.394   4.396   2.584  0.2945  0.6048  0.4673
 5755TIP3    H117271   3.422   4.304   2.579  0.4614  0.6871 -0.1126
 5755TIP3    H217272   3.301   4.391   2.607  0.4770  0.3084  1.1834
 5756TIP3   OH217273   1.694   2.062   0.589 -0.5051 -0.1663  0.0885
 5756TIP3    H117274   1.696   2.040   0.495 -0.7451  1.4747 -0.3424
 5756TIP3    H217275   1.727   2.152   0.592 -0.4674 -0.2144  1.6017
 5757TIP3   OH217276   5.703   1.692   1.032  0.0322  0.1106 -0.0493
 5757TIP3    H117277   5.708   1.738   1.116 -3.8907  0.6544  0.1008
 5757TIP3    H217278   5.767   1.736   0.976  2.0214  0.4181  2.3089
 5758TIP3   OH217279   0.979   5.335   0.437  0.0536  0.2075  0.1889
 5758TIP3    H117280   0.952   5.426   0.424  1.5959  0.6937  0.0951
 5758TIP3    H217281   1.068   5.342   0.472 -0.2201 -1.2541  1.2603
 5759TIP3   OH217282   0.052   4.619   0.066 -0.2508  0.3247  0.4049
 5759TIP3    H117283   0.009   4.576   0.139  0.2939 -0.7008  0.1368
 5759TIP3    H217284   0.112   4.681   0.108 -0.9619  0.7614  0.7943
 5760TIP3   OH217285   0.607   2.515   1.265  0.0908 -0.4679  0.4689
 5760TIP3    H117286   0.619   2.529   1.172  1.2038 -1.2790  0.4816
 5760TIP3    H217287   0.593   2.603   1.301 -0.2368 -0.1463 -0.4334
 5761TIP3   OH217288   5.315   4.600   0.421 -0.4842 -0.3050 -0.5154
 5761TIP3    H117289   5.222   4.617   0.435 -0.6629 -0.6836 -1.1969
 5761TIP3    H217290   5.332   4.630   0.332 -0.0961 -0.7935 -0.6118
 5762TIP3   OH217291   2.723   1.959   2.360  0.0713  0.0678 -0.0101
 5762TIP3    H117292   2.631   1.961   2.338  0.0116  2.9911  0.0845
 5762TIP3    H217293   2.739   2.043   2.404  2.8414 -0.1794 -0.3541
 5763TIP3   OH217294   2.198   1.614   0.159  0.7991 -0.3140 -0.1665
 5763TIP3    H117295   2.277   1.658   0.128  0.5714 -0.0936 -0.4310
 5763TIP3    H217296   2.186   1.646   0.248  1.3424 -0.7984  0.0926
 5764TIP3   OH217297   4.368   2.920   3.956 -0.2490 -0.4460  0.0535
 5764TIP3    H117298   4.315   2.844   3.931 -0.4968 -0.5596  0.9197
 5764TIP3    H217299   4.446   2.882   3.996 -0.3623 -0.2519  0.4670
 5765TIP3   OH217300   2.698   2.775   4.072 -0.0285  0.1633 -0.2973
 5765TIP3    H117301   2.613   2.806   4.105  0.4891 -0.8821  2.2155
 5765TIP3    H217302   2.684   2.682   4.054  0.0360  0.4562 -2.0531
 5766TIP3   OH217303   3.482   2.947   4.216  0.1957 -0.0948 -0.7792
 5766TIP3    H117304   3.414   3.010   4.240 -1.3922 -1.5867 -1.1584
 5766TIP3    H217305   3.560   2.976   4.263 -0.8456  1.3380  0.1422
 5767TIP3   OH217306   3.909   0.308   4.290 -0.2263 -0.3553 -0.6520
 5767TIP3    H117307   3.938   0.218   4.304  2.6457  0.2821 -1.8968
 5767TIP3    H217308   3.888   0.312   4.197  2.8894  0.9712 -1.4185
 5768TIP3   OH217309   4.431   3.669   1.217 -0.0553  0.6532 -0.2940
 5768TIP3    H117310   4.388   3.697   1.297 -0.2901 -1.0614  0.2191
 5768TIP3    H217311   4.518   3.641   1.245 -0.2829 -0.3541 -0.5359
 5769TIP3   OH217312   5.875   3.574   3.552 -0.9521 -0.1306 -0.0889
 5769TIP3    H117313   5.943   3.512   3.579 -1.6384 -0.5584  0.6829
 5769TIP3    H217314   5.801   3.556   3.610 -2.6217 -1.2908 -2.4218
 5770TIP3   OH217315   5.758   0.310   2.552 -0.5454  0.0241 -0.3568
 5770TIP3    H117316   5.793   0.398   2.564 -0.4980 -0.1521  0.9912
 5770TIP3    H217317   5.673   0.323   2.512  0.1157  0.5771 -1.6466
 5771TIP3   OH217318   2.715   3.639   5.135 -0.5553  0.5875  0.4505
 5771TIP3    H117319   2.806   3.643   5.164  0.1636 -1.8321 -1.1581
 5771TIP3    H217320   2.717   3.673   5.046 -1.3648  1.0951  0.6175
 5772TIP3   OH217321   4.250   5.919   4.162  0.7524  0.2376  0.9431
 5772TIP3    H117322   4.261   5.954   4.073  1.0830 -1.2684  0.3406
 5772TIP3    H217323   4.213   5.831   4.148  0.3475  0.1673  2.3304
 5773TIP3   OH217324   2.703   2.863   0.417  0.4686  0.0235 -0.4344
 5773TIP3    H117325   2.715   2.924   0.490 -1.3066  1.6440 -1.4039
 5773TIP3    H217326   2.651   2.792   0.454  2.4611 -0.9566  0.6784
 5774TIP3   OH217327   4.166   3.954   4.004  0.6452  0.2698 -0.1189
 5774TIP3    H117328   4.153   4.024   3.940 -0.7554  0.3740  0.2560
 5774TIP3    H217329   4.103   3.886   3.979  0.5505  0.0291  0.7482
 5775TIP3   OH217330   4.272   2.143   0.564  0.5958  0.1884  0.0588
 5775TIP3    H117331   4.284   2.199   0.487  2.0922 -0.0098  0.1212
 5775TIP3    H217332   4.310   2.194   0.636  1.9469 -0.8657  0.1236
 5776TIP3   OH217333   5.506   3.709   2.510  0.7307  0.1704 -0.1706
 5776TIP3    H117334   5.561   3.661   2.571 -0.9082 -0.5640  0.8045
 5776TIP3    H217335   5.442   3.754   2.565  0.5864  1.3365 -1.2342
 5777TIP3   OH217336   4.981   4.010   4.020 -0.1094  0.3951 -0.1786
 5777TIP3    H117337   4.934   3.931   3.994  0.8533 -1.1873  2.4458
 5777TIP3    H217338   4.950   4.028   4.109  1.8997  1.1811  0.4166
 5778TIP3   OH217339   4.872   4.474   1.506  0.5419  0.4852  0.0875
 5778TIP3    H117340   4.879   4.533   1.431  0.4646  0.3246 -0.0459
 5778TIP3    H217341   4.962   4.465   1.538  0.6406  0.1948 -0.2636
 5779TIP3   OH217342   1.722   5.390   1.973  0.0363 -0.0271  0.2925
 5779TIP3    H117343   1.796   5.339   1.942 -0.5288 -0.7521  0.0991
 5779TIP3    H217344   1.694   5.441   1.897  2.3716  2.8345  1.1950
 5780TIP3   OH217345   4.621   4.045   3.220  0.0809 -0.5346  0.5799
 5780TIP3    H117346   4.576   3.964   3.195  0.0658 -0.5239  0.5721
 5780TIP3    H217347   4.551   4.111   3.222  0.0787 -0.5401  0.6718
 5781TIP3   OH217348   6.154   3.401   2.277 -0.0765  0.2194  0.1342
 5781TIP3    H117349   6.234   3.450   2.296  1.3235 -1.0030 -2.1788
 5781TIP3    H217350   6.095   3.467   2.239  0.3403  0.8524  0.5505
 5782TIP3   OH217351   4.353   0.933   1.130  0.4307  0.4693 -0.6413
 5782TIP3    H117352   4.370   1.021   1.162  1.0040 -0.6064  2.3771
 5782TIP3    H217353   4.264   0.913   1.158 -0.0613  0.3653 -2.1568
 5783TIP3   OH217354   3.904   2.841   1.019  0.1141 -0.6760 -0.4222
 5783TIP3    H117355   3.886   2.747   1.019 -0.4521 -0.5871  0.5881
 5783TIP3    H217356   3.915   2.863   1.112 -1.6150  0.5848 -0.4762
 5784TIP3   OH217357   0.598   4.049   1.067  0.0644 -0.2506 -0.4467
 5784TIP3    H117358   0.686   4.076   1.092 -0.3461 -0.6341  1.5634
 5784TIP3    H217359   0.546   4.129   1.068 -0.4174 -0.5079  2.2348
 5785TIP3   OH217360   1.659   3.391   1.355  0.4668  0.0186 -0.1237
 5785TIP3    H117361   1.675   3.376   1.448  2.7207  0.2753 -0.4153
 5785TIP3    H217362   1.628   3.481   1.349  1.4207  0.3849  0.2983
 5786TIP3   OH217363   5.405   3.511   0.920  0.0578  0.4439  0.0665
 5786TIP3    H117364   5.339   3.581   0.921 -0.3147  0.1052 -0.2531
 5786TIP3    H217365   5.373   3.449   0.854 -0.0540 -0.4424  0.9227
 5787TIP3   OH217366   2.950   4.433   2.246  0.6436  0.0826  0.6201
 5787TIP3    H117367   2.960   4.417   2.153  0.0292 -0.8147  0.7017
 5787TIP3    H217368   2.880   4.373   2.274 -1.2334  2.3221  1.0879
 5788TIP3   OH217369   2.697   5.613   3.428 -0.5357 -0.5728 -0.0899
 5788TIP3    H117370   2.677   5.539   3.371  0.5167 -0.9963  0.0495
 5788TIP3    H217371   2.774   5.584   3.477 -1.3406 -0.1819  1.4714
 5789TIP3   OH217372   5.407   1.186   4.152  0.1516  0.3081  0.2012
 5789TIP3    H117373   5.337   1.146   4.204  1.1748  0.8679  2.1196
 5789TIP3    H217374   5.482   1.128   4.165  0.8242  1.2468  0.5734
 5790TIP3   OH217375   5.003   1.434   0.294  0.0634 -0.4917 -0.0607
 5790TIP3    H117376   4.925   1.440   0.349  0.2699 -2.1490  0.4487
 5790TIP3    H217377   4.996   1.349   0.250 -0.6309  1.1336 -3.5078
 5791TIP3   OH217378   3.318   3.659   3.622  0.3630 -0.5448  0.2294
 5791TIP3    H117379   3.352   3.664   3.533  2.4721  3.3886  1.0318
 5791TIP3    H217380   3.236   3.709   3.620  0.4877 -0.3243  0.5326
 5792TIP3   OH217381   0.020   5.283   4.115 -0.1029 -0.1776  0.2044
 5792TIP3    H117382  -0.005   5.295   4.023 -0.5292 -0.8765  0.2193
 5792TIP3    H217383   0.089   5.347   4.130 -1.0471  0.9745 -0.1936
 5793TIP3   OH217384   3.792   1.302   2.200 -0.1523  0.6215 -0.1271
 5793TIP3    H117385   3.802   1.290   2.106 -2.6343  2.5947 -0.7292
 5793TIP3    H217386   3.698   1.303   2.215  0.1549 -0.7142  2.5938
 5794TIP3   OH217387   2.058   5.946   0.054  0.1874  0.5866 -0.1630
 5794TIP3    H117388   2.057   5.908  -0.034  1.1498 -1.7429  0.7610
 5794TIP3    H217389   1.970   5.980   0.068 -0.2239  0.1801 -1.6731
 5795TIP3   OH217390   3.573   4.534   1.321  0.0374 -0.6814  0.3655
 5795TIP3    H117391   3.513   4.608   1.318 -0.2928 -0.9006  1.2184
 5795TIP3    H217392   3.568   4.495   1.234 -0.9283 -0.5944  0.3749
 5796TIP3   OH217393   5.977   0.031   4.508  0.1689 -0.8300  0.0919
 5796TIP3    H117394   5.887   0.004   4.526  0.1241 -0.6557  0.1263
 5796TIP3    H217395   6.004   0.078   4.587  0.0462 -0.2502 -0.2100
 5797TIP3   OH217396   3.811   2.133   0.594 -0.1685 -0.2481  0.8034
 5797TIP3    H117397   3.758   2.061   0.629  0.2265 -1.3059 -0.6490
 5797TIP3    H217398   3.762   2.163   0.518 -0.5220  1.3337  1.6176
 5798TIP3   OH217399   5.935   2.412   2.902  0.0201 -0.3422 -0.0220
 5798TIP3    H117400   5.970   2.441   2.986 -0.3071  0.9589 -0.3212
 5798TIP3    H217401   5.845   2.445   2.899  0.2689  0.3129 -1.1964
 5799TIP3   OH217402   3.224   0.123   1.435 -0.3835  0.4807  0.2255
 5799TIP3    H117403   3.258   0.192   1.378  1.0504 -0.1866  0.2225
 5799TIP3    H217404   3.150   0.087   1.387 -0.6723  1.5057 -0.1236
 5800TIP3   OH217405   5.250   1.965   4.255  0.0897 -0.2024  0.0112
 5800TIP3    H117406   5.264   1.939   4.164 -0.6364  0.1659 -0.2171
 5800TIP3    H217407   5.263   2.060   4.256 -0.4303 -0.1263  0.1743
 5801TIP3   OH217408   5.562   3.962   2.401 -0.8511 -0.1226 -0.4183
 5801TIP3    H117409   5.552   3.894   2.334 -1.0234 -1.0737  0.5525
 5801TIP3    H217410   5.601   3.916   2.475 -0.2969  1.0050  0.0042
 5802TIP3   OH217411   1.736   0.732   0.220  0.3556  0.3379 -0.3226
 5802TIP3    H117412   1.771   0.817   0.192  2.9133 -0.0246  1.4440
 5802TIP3    H217413   1.808   0.671   0.207 -0.9063 -1.2996 -0.0319
 5803TIP3   OH217414   2.019   0.923   4.296  0.5202 -0.6771 -0.3745
 5803TIP3    H117415   2.037   0.924   4.390 -0.9375 -0.9584 -0.0581
 5803TIP3    H217416   2.051   0.838   4.266  1.5972 -0.3127 -0.2667
 5804TIP3   OH217417   6.357   5.001   0.527 -0.5001  0.6646  0.4098
 5804TIP3    H117418   6.368   4.979   0.435 -1.6415  1.2601  0.1133
 5804TIP3    H217419   6.307   4.929   0.564 -0.4854  0.6713  0.4429
 5805TIP3   OH217420   3.559   4.078   1.068 -0.2497 -0.1464  0.8487
 5805TIP3    H117421   3.637   4.118   1.108 -0.6885  1.2185  0.3958
 5805TIP3    H217422   3.590   4.043   0.985 -0.4786  2.3016 -0.3581
 5806TIP3   OH217423   1.819   2.701   3.706  0.2267  0.0086 -0.0741
 5806TIP3    H117424   1.887   2.722   3.770  0.9512  2.3677 -1.4886
 5806TIP3    H217425   1.742   2.679   3.758  1.1501  0.5226  1.5774
 5807TIP3   OH217426   4.245   1.777   4.783 -0.4731 -0.0305  0.2820
 5807TIP3    H117427   4.220   1.864   4.815  0.6167  0.3660  0.0724
 5807TIP3    H217428   4.221   1.718   4.855  1.6430  0.8162  1.7764
 5808TIP3   OH217429   1.535   2.855   2.608  0.0681 -0.4559 -0.2206
 5808TIP3    H117430   1.446   2.820   2.612 -0.0439 -0.2087 -0.5359
 5808TIP3    H217431   1.553   2.884   2.698 -0.2723 -0.2453 -0.2204
 5809TIP3   OH217432   2.601   0.008   2.758  0.1942 -0.3295 -0.2309
 5809TIP3    H117433   2.581  -0.039   2.677 -1.6814  2.6852 -1.7010
 5809TIP3    H217434   2.650   0.085   2.729  0.6448  0.1720  1.7062
 5810TIP3   OH217435   4.478   5.363   1.562 -0.6866 -0.6857  0.1432
 5810TIP3    H117436   4.402   5.407   1.600 -0.5629  0.4772 -0.8903
 5810TIP3    H217437   4.544   5.432   1.552  0.3032 -1.5556  0.4745
 5811TIP3   OH217438   1.334   3.816   0.491  0.1635 -0.1073  0.3411
 5811TIP3    H117439   1.378   3.900   0.502 -1.0022  0.4352  1.0274
 5811TIP3    H217440   1.354   3.790   0.402 -1.6370  2.2148 -0.8612
 5812TIP3   OH217441   0.766   5.751   1.670  0.0774 -0.0852  0.2567
 5812TIP3    H117442   0.709   5.710   1.606  0.6245  0.8045 -0.8452
 5812TIP3    H217443   0.843   5.694   1.676  0.3717  0.2235 -0.4845
 5813TIP3   OH217444   4.335   2.627   4.712  0.0607 -0.0035 -0.0296
 5813TIP3    H117445   4.285   2.577   4.648  0.3396 -0.4872  0.1188
 5813TIP3    H217446   4.311   2.588   4.797 -0.7007  0.9701  0.2160
 5814TIP3   OH217447   2.978   3.689   5.178  0.0492 -0.0091  0.0884
 5814TIP3    H117448   3.028   3.758   5.222  0.8702  1.0308 -2.3260
 5814TIP3    H217449   3.018   3.682   5.092 -2.6179 -0.6506 -1.1901
 5815TIP3   OH217450   1.362   4.933   4.553  0.4299  0.1727 -0.2408
 5815TIP3    H117451   1.422   5.008   4.553 -0.6221  1.0636 -1.2330
 5815TIP3    H217452   1.362   4.902   4.462  0.6458 -0.8816  0.1009
 5816TIP3   OH217453   2.511   5.258   2.096  0.8245  0.3518 -0.8718
 5816TIP3    H117454   2.416   5.267   2.104  0.8407 -0.5137  1.0248
 5816TIP3    H217455   2.527   5.246   2.003 -0.8138  1.5548 -1.3490
 5817TIP3   OH217456   0.056   0.437   1.285  0.0044 -0.0041 -0.4468
 5817TIP3    H117457   0.006   0.390   1.218 -0.5151 -0.2674  0.1090
 5817TIP3    H217458   0.055   0.528   1.257 -0.1845 -0.1154 -0.8075
 5818TIP3   OH217459   2.876   1.959   2.116  0.3243 -0.6346 -0.2988
 5818TIP3    H117460   2.970   1.945   2.127  0.4539 -0.8426 -1.5117
 5818TIP3    H217461   2.843   1.971   2.205  1.3167 -1.6873  0.2434
 5819TIP3   OH217462   5.137   1.698   2.477  0.1854 -0.1101 -0.3595
 5819TIP3    H117463   5.188   1.634   2.429  0.7852  0.8540 -1.0472
 5819TIP3    H217464   5.200   1.742   2.534 -0.4904 -1.1448  1.2758
 5820TIP3   OH217465   0.104   1.837   2.961 -0.4812 -0.2531  0.3996
 5820TIP3    H117466   0.091   1.932   2.950  1.3221  0.0752  0.8335
 5820TIP3    H217467   0.117   1.804   2.873  1.2953  0.3295  0.3963
 5821TIP3   OH217468   1.517   4.755   0.657 -0.3082  0.3335 -0.0481
 5821TIP3    H117469   1.541   4.675   0.610 -1.2823  0.4677 -0.7981
 5821TIP3    H217470   1.479   4.724   0.739  2.4659  0.1155  1.2778
 5822TIP3   OH217471   2.214   1.719   0.413 -1.0201 -0.2668  0.1303
 5822TIP3    H117472   2.293   1.713   0.467 -0.7219  1.9526  0.0389
 5822TIP3    H217473   2.160   1.646   0.442  0.2631 -0.7138  1.5534
 5823TIP3   OH217474   5.946   1.413   4.499  0.7798  0.2461 -0.7393
 5823TIP3    H117475   5.916   1.415   4.590  0.1639  1.1886 -0.9566
 5823TIP3    H217476   5.876   1.368   4.452  1.2196 -0.4776 -0.7099
 5824TIP3   OH217477   1.739   4.358   3.064 -1.1387 -0.1403  0.1319
 5824TIP3    H117478   1.653   4.398   3.075 -1.4798 -1.2446  1.7551
 5824TIP3    H217479   1.764   4.329   3.152  0.7656 -0.1201 -0.3473
 5825TIP3   OH217480   2.661   0.173   0.185 -0.0066 -0.1979  0.9678
 5825TIP3    H117481   2.753   0.161   0.208  0.0428 -0.7269  0.5051
 5825TIP3    H217482   2.656   0.151   0.092  0.1889  3.6926 -0.1386
 5826TIP3   OH217483   6.151   3.094   0.406 -0.5567 -0.3017  0.1171
 5826TIP3    H117484   6.222   3.139   0.359 -0.4366 -0.1935  0.4005
 5826TIP3    H217485   6.071   3.139   0.378 -0.5097 -0.3742 -0.1450
 5827TIP3   OH217486   1.906   1.785   5.062  0.6691  0.7279  0.2781
 5827TIP3    H117487   1.960   1.856   5.097  1.2826  0.5831 -0.3432
 5827TIP3    H217488   1.929   1.782   4.969  0.4084 -0.0650  0.2341
 5828TIP3   OH217489   1.445   3.226   1.847 -0.4691 -0.1768 -0.2655
 5828TIP3    H117490   1.414   3.189   1.764  0.1072 -1.6252  0.1392
 5828TIP3    H217491   1.541   3.225   1.839 -0.4317  0.4746  0.0825
 5829TIP3   OH217492   4.635   1.625   4.743 -0.4828  0.0667  0.3482
 5829TIP3    H117493   4.669   1.638   4.831 -1.2833 -1.2009  0.8572
 5829TIP3    H217494   4.692   1.558   4.705 -0.4976  0.1967  0.0940
 5830TIP3   OH217495   0.683   1.598   1.280 -0.2645 -0.9347  0.1211
 5830TIP3    H117496   0.724   1.540   1.216  0.7433 -1.2647  1.0455
 5830TIP3    H217497   0.756   1.638   1.327 -0.9801 -0.7729  1.1287
 5831TIP3   OH217498   2.068   4.245   2.208 -0.0347  0.1106 -0.8121
 5831TIP3    H117499   2.110   4.326   2.237  2.7512 -1.7250  0.8103
 5831TIP3    H217500   1.992   4.235   2.266 -0.1969  1.3309 -0.7839
 5832TIP3   OH217501   6.309   1.933   0.862 -0.3862  0.2191 -0.6330
 5832TIP3    H117502   6.249   1.905   0.792 -1.9402 -1.5577  1.2737
 5832TIP3    H217503   6.252   1.949   0.937  1.4171 -0.4924  0.9778
 5833TIP3   OH217504   0.123   5.671   2.142  0.2215 -0.1923  0.1481
 5833TIP3    H117505   0.107   5.756   2.182  0.6126  0.0822 -0.2663
 5833TIP3    H217506   0.058   5.613   2.182 -0.8817  0.5752 -0.4675
 5834TIP3   OH217507   5.437   4.350   4.090 -0.0738 -0.3373 -0.4226
 5834TIP3    H117508   5.443   4.324   3.998 -0.4094  0.9474 -0.8289
 5834TIP3    H217509   5.478   4.278   4.138  0.5218 -0.8198 -1.6118
 5835TIP3   OH217510   2.444   0.051   2.247 -0.3711  0.1654 -0.4002
 5835TIP3    H117511   2.517   0.035   2.187  0.7559 -2.0557  1.4340
 5835TIP3    H217512   2.484   0.089   2.325 -1.1925 -0.7678  0.5012
 5836TIP3   OH217513   0.671   0.576   2.874  0.4231  0.6284 -0.6730
 5836TIP3    H117514   0.756   0.545   2.844  0.3662 -2.8980  2.2172
 5836TIP3    H217515   0.609   0.540   2.810  0.8116 -0.3697 -0.5009
 5837TIP3   OH217516   5.674   2.510   1.590  0.1025  0.2475 -0.0269
 5837TIP3    H117517   5.659   2.491   1.497  2.0985 -0.7925 -0.1907
 5837TIP3    H217518   5.765   2.539   1.594 -0.0975  0.7577  1.5545
 5838TIP3   OH217519   4.885   1.569   3.683  0.5758 -0.6660 -0.0167
 5838TIP3    H117520   4.883   1.633   3.612  0.5666  0.3964  0.9154
 5838TIP3    H217521   4.971   1.528   3.677 -0.2633 -2.3491 -2.1047
 5839TIP3   OH217522   4.978   4.259   1.332 -0.4062 -0.3356  0.5562
 5839TIP3    H117523   5.046   4.324   1.319 -0.6758 -0.0017  0.7962
 5839TIP3    H217524   4.914   4.302   1.390  0.2233 -1.3913  2.0965
 5840TIP3   OH217525   5.445   2.486   3.855 -0.0209  0.5739  0.5509
 5840TIP3    H117526   5.480   2.511   3.941 -1.7987  0.9970  1.1833
 5840TIP3    H217527   5.352   2.474   3.869 -0.3499  0.5899 -1.3354
 5841TIP3   OH217528   5.188   3.097   3.841 -0.3263  0.0339  0.0820
 5841TIP3    H117529   5.152   3.013   3.867  1.8872 -0.9796  0.1078
 5841TIP3    H217530   5.118   3.140   3.792 -1.3163 -2.0562 -0.4113
 5842TIP3   OH217531   0.257   2.135   4.487 -0.2730 -0.4432  0.9784
 5842TIP3    H117532   0.198   2.200   4.525 -0.4690 -0.1001  0.1165
 5842TIP3    H217533   0.199   2.067   4.451 -0.0734 -1.0374  1.7561
 5843TIP3   OH217534   2.195   5.584   3.989 -0.0950 -0.1346  0.7338
 5843TIP3    H117535   2.248   5.512   4.024  0.1469 -0.4181 -0.1790
 5843TIP3    H217536   2.105   5.560   4.012 -0.1796 -1.5533 -0.8869
 5844TIP3   OH217537   4.633   2.799   1.495  0.9158 -0.0314  0.6349
 5844TIP3    H117538   4.597   2.875   1.540  1.7068  0.5183  0.3696
 5844TIP3    H217539   4.636   2.825   1.403 -0.0387 -0.8845  0.3498
 5845TIP3   OH217540   1.517   0.449   4.826 -0.0253  0.0436  0.4237
 5845TIP3    H117541   1.511   0.494   4.911  1.7222  0.0984  0.5535
 5845TIP3    H217542   1.489   0.515   4.763 -0.2271  0.3807  0.8570
 5846TIP3   OH217543   5.582   4.413   1.269 -0.0541  0.0782 -0.0665
 5846TIP3    H117544   5.518   4.382   1.205 -0.6565  1.4507 -0.1579
 5846TIP3    H217545   5.574   4.508   1.268 -0.1739  0.1609  2.1353
 5847TIP3   OH217546   4.514   2.467   2.588  0.1132  0.4016  0.5889
 5847TIP3    H117547   4.582   2.532   2.569 -0.2801  0.7785  0.4593
 5847TIP3    H217548   4.432   2.510   2.564 -0.1900  0.0153  0.9166
 5848TIP3   OH217549   3.389   3.668   0.071 -0.3303 -0.4852 -0.6362
 5848TIP3    H117550   3.389   3.699  -0.019  2.3894  1.6414 -0.0484
 5848TIP3    H217551   3.441   3.587   0.069  2.9535  1.4651 -0.5978
 5849TIP3   OH217552   2.276   4.954   1.224  0.4403 -0.1433 -0.1915
 5849TIP3    H117553   2.288   4.971   1.131 -0.9573 -0.2830 -0.4207
 5849TIP3    H217554   2.266   4.859   1.230  0.7777 -0.1634  0.1458
 5850TIP3   OH217555   3.809   3.616   1.750  0.0310 -0.2711  0.0247
 5850TIP3    H117556   3.778   3.538   1.705  1.0456 -0.8449  0.2983
 5850TIP3    H217557   3.768   3.689   1.702  0.2129 -0.9091 -1.1463
 5851TIP3   OH217558   3.616   3.897   4.094 -0.3807 -0.0168  0.0996
 5851TIP3    H117559   3.647   3.886   4.004 -1.6919  0.5206 -0.4325
 5851TIP3    H217560   3.655   3.979   4.123 -0.1562 -0.0662 -0.0580
 5852TIP3   OH217561   0.818   1.954   4.799 -0.4265  0.6664 -0.3497
 5852TIP3    H117562   0.737   1.904   4.796 -0.9390  1.4907 -0.7199
 5852TIP3    H217563   0.867   1.917   4.872 -0.8795 -0.2156 -0.4764
 5853TIP3   OH217564   2.163   5.959   4.704 -0.2722  0.1068  0.1156
 5853TIP3    H117565   2.237   5.918   4.660  0.3248  2.4376 -1.2307
 5853TIP3    H217566   2.088   5.942   4.647 -0.1931  0.2150 -0.0196
 5854TIP3   OH217567   2.971   0.302   4.385 -0.0848 -0.0748  0.1241
 5854TIP3    H117568   2.983   0.387   4.344 -2.8009 -0.1629 -1.0355
 5854TIP3    H217569   2.943   0.322   4.474  2.3057  0.1288  0.9153
 5855TIP3   OH217570   1.534   2.423   1.962  0.0998 -0.7848  0.1120
 5855TIP3    H117571   1.446   2.440   1.995  0.2198 -2.0578  1.1503
 5855TIP3    H217572   1.558   2.338   2.000  1.5420 -0.7321 -0.6286
 5856TIP3   OH217573   4.585   4.269   4.837 -0.6954 -0.0688  0.4134
 5856TIP3    H117574   4.533   4.340   4.875  2.0114  1.3252  1.8475
 5856TIP3    H217575   4.598   4.296   4.746 -0.5411  0.8012  0.6816
 5857TIP3   OH217576   4.893   2.160   3.557  0.3254 -0.0539  0.0588
 5857TIP3    H117577   4.912   2.254   3.558  1.9572 -0.3414 -0.6688
 5857TIP3    H217578   4.825   2.148   3.624 -0.7641  1.7935 -0.6654
 5858TIP3   OH217579   1.047   2.668   4.046 -0.4718  0.1532 -0.3579
 5858TIP3    H117580   1.032   2.644   3.955  0.2824  1.4547 -0.8527
 5858TIP3    H217581   1.070   2.586   4.090  0.5262 -0.2848 -1.6500
 5859TIP3   OH217582   2.388   3.766   4.604  0.1785  0.3713 -0.0256
 5859TIP3    H117583   2.374   3.691   4.547  0.9803  1.1341 -1.2656
 5859TIP3    H217584   2.302   3.783   4.643 -0.2985 -0.3907 -0.7292
 5860TIP3   OH217585   4.949   3.702   0.716 -0.2815 -0.6477  0.2262
 5860TIP3    H117586   4.928   3.636   0.650  1.5131  0.9215 -2.0572
 5860TIP3    H217587   4.863   3.736   0.744 -1.1337 -0.0750 -2.7273
 5861TIP3   OH217588   3.538   5.320   3.302 -0.0036  0.3348 -0.2351
 5861TIP3    H117589   3.482   5.258   3.256  1.6073 -0.2664 -1.4746
 5861TIP3    H217590   3.500   5.406   3.283 -0.9734 -0.1128 -0.3529
 5862TIP3   OH217591   1.678   5.036   1.647  0.7348 -0.0303  0.2490
 5862TIP3    H117592   1.702   5.125   1.670 -1.2690  0.5184  0.4391
 5862TIP3    H217593   1.631   5.003   1.723 -2.7281  0.5161 -1.4311
 5863TIP3   OH217594   2.863   4.031   4.111 -0.4889 -0.5192  0.1871
 5863TIP3    H117595   2.788   3.980   4.142  0.1398 -2.7617 -1.7139
 5863TIP3    H217596   2.826   4.094   4.049 -0.9393 -0.6492  0.3243
 5864TIP3   OH217597   2.052   1.895   4.082 -0.1724  0.6266  0.1669
 5864TIP3    H117598   2.098   1.886   4.166  0.6807  3.9615  0.2014
 5864TIP3    H217599   1.985   1.962   4.099 -2.3905 -1.1533 -0.9868
 5865TIP3   OH217600   6.208   5.000   2.382  0.2501 -0.0700  0.1186
 5865TIP3    H117601   6.152   5.010   2.459 -1.5970 -0.9641 -1.0506
 5865TIP3    H217602   6.288   4.958   2.416 -1.9678 -3.9851  1.0806
 5866TIP3   OH217603   3.833   1.935   0.275  0.2981  0.1438 -0.1227
 5866TIP3    H117604   3.922   1.944   0.242 -0.5396  1.2297 -2.2481
 5866TIP3    H217605   3.792   2.021   0.259 -1.2976 -0.4957  0.2877
 5867TIP3   OH217606   4.363   4.629   1.962 -0.2506 -0.9654 -0.5383
 5867TIP3    H117607   4.421   4.679   1.905  1.8573 -1.7166  0.8273
 5867TIP3    H217608   4.300   4.693   1.995 -0.2381 -0.1191 -2.0482
 5868TIP3   OH217609   4.569   1.388   0.172 -0.3215  0.3127  0.5839
 5868TIP3    H117610   4.596   1.451   0.106 -1.1682  0.6314  0.5281
 5868TIP3    H217611   4.632   1.398   0.243 -1.2183  2.2059  1.1720
 5869TIP3   OH217612   6.097   0.312   2.621  0.3774 -0.0486  0.4363
 5869TIP3    H117613   6.061   0.261   2.548 -0.0824 -0.3905  0.8905
 5869TIP3    H217614   6.069   0.402   2.603 -0.2899 -0.2294  0.5147
 5870TIP3   OH217615   4.204   5.198   3.723 -0.4104 -0.3175 -0.3065
 5870TIP3    H117616   4.203   5.109   3.689  1.5104 -0.5506  0.1284
 5870TIP3    H217617   4.164   5.251   3.654  1.2551 -1.1044 -1.9410
 5871TIP3   OH217618   2.425   0.225   4.913  0.6518 -0.2736 -0.6086
 5871TIP3    H117619   2.416   0.234   5.008 -1.3243 -1.5516 -0.6224
 5871TIP3    H217620   2.437   0.314   4.881  1.1823  0.1875  0.8119
 5872TIP3   OH217621   5.085   2.041   2.197 -0.4214 -0.1427 -0.1189
 5872TIP3    H117622   5.042   1.984   2.262 -0.0604  0.8576  1.0248
 5872TIP3    H217623   5.109   1.981   2.126 -1.2752 -1.1848  0.4242
 5873TIP3   OH217624   1.229   4.230   0.013  0.8328 -0.5395  0.4145
 5873TIP3    H117625   1.248   4.155   0.068 -0.8628 -1.6180 -0.3840
 5873TIP3    H217626   1.258   4.203  -0.075  0.1518 -0.3045  0.1095
 5874TIP3   OH217627   2.695   1.727   1.869 -0.4534  0.1757  0.4488
 5874TIP3    H117628   2.784   1.760   1.881  0.0677 -1.4493  1.3864
 5874TIP3    H217629   2.649   1.755   1.948 -0.7651  0.9216  0.0138
 5875TIP3   OH217630   1.055   3.003   2.734  0.0950  0.0431  0.2525
 5875TIP3    H117631   1.079   2.914   2.758  1.8995  0.0809 -1.1955
 5875TIP3    H217632   0.982   2.992   2.673  0.8081 -0.5115 -0.5170
 5876TIP3   OH217633   0.517   1.613   3.442 -0.6089  0.3171 -0.3939
 5876TIP3    H117634   0.574   1.607   3.519 -0.4591 -1.6657 -0.6060
 5876TIP3    H217635   0.440   1.660   3.473  0.1056  0.9205  0.5390
 5877TIP3   OH217636   2.654   1.688   0.652 -0.4321  0.2040 -0.3351
 5877TIP3    H117637   2.587   1.640   0.603  0.4055 -0.8449 -0.4748
 5877TIP3    H217638   2.721   1.709   0.588 -0.3488  0.7589 -0.0742
 5878TIP3   OH217639   3.949   1.797   3.450  0.1805  0.4685  0.5005
 5878TIP3    H117640   3.928   1.827   3.539 -0.5283  0.3624  0.3729
 5878TIP3    H217641   4.039   1.826   3.436  0.0123  1.2397  0.9403
 5879TIP3   OH217642   1.902   1.348   4.994  0.2155  0.0464 -0.7614
 5879TIP3    H117643   1.868   1.341   5.083 -0.0453 -0.1238 -0.8730
 5879TIP3    H217644   1.996   1.338   5.003  0.2489  0.6009 -0.4368
 5880TIP3   OH217645   6.316   4.943   4.902 -0.4131 -0.3243  0.0398
 5880TIP3    H117646   6.249   5.011   4.893 -0.4402  0.2223  3.2782
 5880TIP3    H217647   6.399   4.990   4.892 -0.3471 -0.9295 -3.5298
 5881TIP3   OH217648   1.282   4.941   0.254  0.0424  0.1268 -0.2227
 5881TIP3    H117649   1.295   4.921   0.347 -2.5479  0.9719  0.4029
 5881TIP3    H217650   1.317   5.030   0.243  0.4205 -0.0032 -0.0858
 5882TIP3   OH217651   1.009   5.772   0.081  0.2223 -0.1720  0.6896
 5882TIP3    H117652   0.959   5.809   0.008 -1.8663  0.4982  2.3627
 5882TIP3    H217653   1.048   5.848   0.124  0.0432 -0.3815  1.2331
 5883TIP3   OH217654   0.297   1.761   1.016 -0.2504 -0.1302  0.0315
 5883TIP3    H117655   0.278   1.855   1.022  1.8563  0.3841 -0.3337
 5883TIP3    H217656   0.321   1.736   1.106  1.4447  0.2890 -0.2561
 5884TIP3   OH217657   3.377   0.364   3.369 -0.1098  0.4336  0.1740
 5884TIP3    H117658   3.461   0.382   3.412 -1.0854  1.0816  1.8826
 5884TIP3    H217659   3.373   0.269   3.363  1.4060  0.4098 -1.3628
 5885TIP3   OH217660   0.519   0.169   0.099 -0.1371  0.8337 -0.3111
 5885TIP3    H117661   0.558   0.195   0.182  0.9585  0.4367 -0.6809
 5885TIP3    H217662   0.504   0.251   0.052 -0.8501  1.0661  0.2984
 5886TIP3   OH217663   2.718   5.296   4.478 -0.5033  0.0628  0.0885
 5886TIP3    H117664   2.767   5.235   4.532 -1.8524  0.4246  1.8357
 5886TIP3    H217665   2.661   5.240   4.425 -2.0140 -0.2854  1.9562
 5887TIP3   OH217666   4.797   2.228   2.114  0.3610 -0.1531 -0.3053
 5887TIP3    H117667   4.853   2.152   2.130  0.4385  0.3507  2.3835
 5887TIP3    H217668   4.709   2.198   2.136  0.7009  1.0662  3.3893
 5888TIP3   OH217669   1.049   4.449   2.287  0.2353  0.4140  0.1158
 5888TIP3    H117670   1.002   4.462   2.369 -0.7270  0.4740 -0.4270
 5888TIP3    H217671   0.996   4.495   2.221  0.8413  0.1373 -0.5822
 5889TIP3   OH217672   2.347   4.434   0.046  0.3755 -0.3829 -0.0330
 5889TIP3    H117673   2.398   4.394   0.116 -1.0467 -1.3186  0.5155
 5889TIP3    H217674   2.257   4.431   0.077  0.0539  2.4758 -0.3663
 5890TIP3   OH217675   2.756   2.401   2.851  0.0969  0.2661 -0.2043
 5890TIP3    H117676   2.800   2.320   2.876 -1.2190 -0.3337  0.2396
 5890TIP3    H217677   2.663   2.377   2.842 -0.1433  1.4544 -1.2759
 5891TIP3   OH217678   0.146   3.825   3.238  0.1753  0.0102 -0.4304
 5891TIP3    H117679   0.212   3.860   3.178 -0.2716  0.0764 -0.8912
 5891TIP3    H217680   0.141   3.889   3.309  1.4206 -0.5552  0.1991
 5892TIP3   OH217681   5.063   2.225   1.812  0.0935 -0.0403  0.4032
 5892TIP3    H117682   5.154   2.255   1.814  0.3071 -0.3982 -1.8304
 5892TIP3    H217683   5.069   2.130   1.820 -0.1813  0.0141  1.3713
 5893TIP3   OH217684   0.950   3.477   0.683 -0.3243 -0.3200 -0.0306
 5893TIP3    H117685   0.895   3.533   0.737 -1.1104  0.3882 -1.5082
 5893TIP3    H217686   1.030   3.529   0.669  0.2269 -0.8342  1.0727
 5894TIP3   OH217687   0.292   5.654   3.463 -0.2986  0.5168  0.3689
 5894TIP3    H117688   0.226   5.658   3.394 -0.8026  1.1265  0.8764
 5894TIP3    H217689   0.376   5.660   3.417 -0.5804 -0.4543 -0.3003
 5895TIP3   OH217690   5.901   1.507   2.449 -0.2341 -0.2383  0.5832
 5895TIP3    H117691   5.962   1.576   2.423  0.8679 -1.7064 -0.9226
 5895TIP3    H217692   5.921   1.491   2.541  0.7549  0.1906  0.4588
 5896TIP3   OH217693   2.079   2.708   3.567 -0.5127  0.3804 -0.1437
 5896TIP3    H117694   2.023   2.698   3.490 -0.1377  0.1690 -0.3945
 5896TIP3    H217695   2.040   2.781   3.616  0.7509  2.3111 -1.8680
 5897TIP3   OH217696   6.301   0.199   5.173  0.6491  0.5754 -0.4099
 5897TIP3    H117697   6.253   0.118   5.191  0.5689  1.0626  1.8512
 5897TIP3    H217698   6.329   0.190   5.082  0.3474 -1.8256 -0.3398
 5898TIP3   OH217699   4.664   0.722   0.723  0.1362 -0.1575  0.3336
 5898TIP3    H117700   4.743   0.673   0.700  0.9694  1.1448  0.2870
 5898TIP3    H217701   4.673   0.739   0.817  0.3651  0.7302  0.1626
 5899TIP3   OH217702   6.087   1.835   4.172  0.0463 -0.2093  0.3245
 5899TIP3    H117703   6.037   1.775   4.228  1.3114 -1.8537 -0.2357
 5899TIP3    H217704   6.177   1.802   4.176  0.5307  0.8468 -1.0743
 5900TIP3   OH217705   3.260   1.732   4.460 -0.5317 -0.6145  0.3853
 5900TIP3    H117706   3.285   1.730   4.552 -1.0241  0.2707  0.5495
 5900TIP3    H217707   3.193   1.800   4.454  0.5899  0.4286 -0.8950
 5901TIP3   OH217708   1.587   1.679   2.381  0.4795 -0.0763  0.2013
 5901TIP3    H117709   1.579   1.648   2.471  1.7218  0.4671  0.5260
 5901TIP3    H217710   1.517   1.743   2.371  0.0998 -0.4176  0.6577
 5902TIP3   OH217711   1.344   1.505   3.862  0.0102 -0.5855 -0.5539
 5902TIP3    H117712   1.260   1.547   3.841  0.1807  0.1530  0.1872
 5902TIP3    H217713   1.329   1.413   3.843 -0.0752 -0.1176 -3.1459
 5903TIP3   OH217714   5.799   3.158   3.405  0.2223  0.0422  0.0658
 5903TIP3    H117715   5.719   3.109   3.424 -0.6110  2.0044  1.9750
 5903TIP3    H217716   5.768   3.243   3.373  1.5136  0.8445  0.8603
 5904TIP3   OH217717   0.813   0.637   5.045  0.5566 -0.0696 -0.4274
 5904TIP3    H117718   0.745   0.701   5.023 -0.4384 -1.2170 -0.7727
 5904TIP3    H217719   0.779   0.554   5.011  1.2590 -1.0041  1.0980
 5905TIP3   OH217720   4.885   5.485   5.152 -0.0477  0.2012 -0.2010
 5905TIP3    H117721   4.837   5.543   5.210  0.6896  1.0457 -0.4076
 5905TIP3    H217722   4.850   5.397   5.171 -0.9731  0.6680  0.3172
 5906TIP3   OH217723   2.526   5.156   1.821  0.2089 -0.4778 -0.5339
 5906TIP3    H117724   2.570   5.152   1.736  0.0311  0.2081 -0.6621
 5906TIP3    H217725   2.436   5.128   1.804 -0.6745  2.4123 -1.1813
 5907TIP3   OH217726   0.687   2.598   4.295 -0.3684  0.1294  0.4585
 5907TIP3    H117727   0.728   2.516   4.268  0.0571  1.5902 -4.0631
 5907TIP3    H217728   0.737   2.626   4.372  0.7582 -2.7825  0.9131
 5908TIP3   OH217729   3.876   1.256   0.967  1.0631 -0.2025  0.3841
 5908TIP3    H117730   3.907   1.180   0.917  1.1360 -0.4746  0.8421
 5908TIP3    H217731   3.928   1.256   1.047  0.2800 -0.3453  0.9120
 5909TIP3   OH217732   6.307   0.506   2.401 -0.0031 -0.3622  0.2335
 5909TIP3    H117733   6.317   0.581   2.343 -0.4120  0.4194  1.1397
 5909TIP3    H217734   6.389   0.458   2.393 -0.5764 -1.0869 -2.0598
 5910TIP3   OH217735   2.496   3.635   4.144  0.1210 -0.0792  0.6765
 5910TIP3    H117736   2.549   3.562   4.112  0.2006 -0.5478  1.8315
 5910TIP3    H217737   2.468   3.681   4.065  2.0880  0.0843  0.0427
 5911TIP3   OH217738   4.524   3.722   4.332  0.7503  0.6318  0.4869
 5911TIP3    H117739   4.542   3.632   4.360  2.7895  1.1664  1.0059
 5911TIP3    H217740   4.562   3.777   4.400 -1.4590  1.9367  0.7508
 5912TIP3   OH217741   1.668   1.081   0.109  0.2510 -0.5778  0.2505
 5912TIP3    H117742   1.750   1.042   0.078 -0.1963  0.9938 -3.4688
 5912TIP3    H217743   1.600   1.031   0.064 -0.6012  0.6132  0.1745
 5913TIP3   OH217744   1.621   2.295   2.300 -0.2910 -0.3693  0.0047
 5913TIP3    H117745   1.608   2.385   2.268  0.6642  0.1133  0.8920
 5913TIP3    H217746   1.595   2.239   2.227  0.3336  0.6556 -1.0408
 5914TIP3   OH217747   2.581   4.234   0.838 -0.5971  0.2918 -0.1706
 5914TIP3    H117748   2.675   4.216   0.846 -0.5292  1.0407  0.9146
 5914TIP3    H217749   2.539   4.166   0.889 -0.7273 -0.6167 -1.4331
 5915TIP3   OH217750   0.137   5.317   2.535  0.0516 -0.3589 -0.3813
 5915TIP3    H117751   0.175   5.400   2.564  1.6082 -0.4806 -1.8918
 5915TIP3    H217752   0.210   5.270   2.495 -1.7212 -0.3601 -4.0809
 5916TIP3   OH217753   3.222   5.563   0.371 -0.3061  0.3382  0.1290
 5916TIP3    H117754   3.140   5.587   0.328  0.6678 -0.1969 -2.1770
 5916TIP3    H217755   3.200   5.486   0.424 -1.0306 -0.7051 -1.6013
 5917TIP3   OH217756   3.416   4.414   4.232 -0.0680  0.2340  0.3757
 5917TIP3    H117757   3.391   4.505   4.245  1.9873  0.6553  1.9074
 5917TIP3    H217758   3.381   4.368   4.308 -0.4065 -0.1224  0.0129
 5918TIP3   OH217759   4.120   5.500   2.659 -0.8518 -0.1957 -0.6070
 5918TIP3    H117760   4.117   5.522   2.566  0.7097  0.0703 -0.6259
 5918TIP3    H217761   4.167   5.416   2.662 -0.0037  0.2873 -0.0017
 5919TIP3   OH217762   5.476   3.975   2.093  0.0771 -0.0244  0.1734
 5919TIP3    H117763   5.454   3.881   2.096 -2.8269  0.5919  1.8861
 5919TIP3    H217764   5.455   4.002   2.004  0.4902 -0.8882 -0.1977
 5920TIP3   OH217765   3.093   1.458   1.924  0.7029 -0.7055 -0.4809
 5920TIP3    H117766   3.025   1.406   1.882 -0.3779  0.5008 -0.2687
 5920TIP3    H217767   3.055   1.485   2.008  1.8277 -0.8473  0.1084
 5921TIP3   OH217768   1.019   3.161   0.999  0.1835  0.0945  0.2722
 5921TIP3    H117769   1.055   3.216   1.069  0.1671 -0.6272  0.8569
 5921TIP3    H217770   1.026   3.072   1.032 -0.9632 -0.1619 -0.1293
 5922TIP3   OH217771   0.325   5.189   2.350  0.1295 -0.2764 -0.2281
 5922TIP3    H117772   0.312   5.101   2.314  1.5165 -0.4417 -0.3944
 5922TIP3    H217773   0.260   5.243   2.307 -1.0485 -1.3003  0.1986
 5923TIP3   OH217774   2.058   2.656   0.743  0.1388 -0.1027  0.1654
 5923TIP3    H117775   2.035   2.665   0.835  1.8878  1.6395  0.5080
 5923TIP3    H217776   2.103   2.572   0.737 -1.3377 -0.9584  0.5389
 5924TIP3   OH217777   3.039   0.964   2.397 -0.0629 -0.1652 -0.3559
 5924TIP3    H117778   3.067   1.001   2.314 -1.7168  0.6263 -0.5921
 5924TIP3    H217779   3.030   0.870   2.380 -0.1492 -0.0389 -1.0149
 5925TIP3   OH217780   4.927   3.984   2.090 -0.1813 -0.2512  0.1094
 5925TIP3    H117781   4.843   3.951   2.059 -0.9126  2.4415 -1.0924
 5925TIP3    H217782   4.989   3.961   2.021 -0.9196  1.7625 -1.3149
 5926TIP3   OH217783   0.791   1.431   2.778  0.3393  0.4920  0.3483
 5926TIP3    H117784   0.824   1.395   2.696  0.5296 -0.8632  0.9912
 5926TIP3    H217785   0.864   1.423   2.840  0.1711  1.4120  0.6876
 5927TIP3   OH217786   1.423   5.005   2.256  0.1680  0.0371 -0.5341
 5927TIP3    H117787   1.441   4.930   2.314  0.3687 -0.4205 -1.1841
 5927TIP3    H217788   1.503   5.057   2.259 -0.5884  1.2301  1.3587
 5928TIP3   OH217789   0.041   5.259   5.187  0.2692 -0.4436 -0.4376
 5928TIP3    H117790   0.041   5.335   5.130  0.1225  0.1591  0.3382
 5928TIP3    H217791   0.109   5.202   5.152  2.2454  1.2151  0.4783
 5929TIP3   OH217792   3.880   3.776   0.193 -0.3966 -0.1346 -0.5760
 5929TIP3    H117793   3.801   3.809   0.151 -1.0932 -2.1377 -0.9355
 5929TIP3    H217794   3.880   3.682   0.176  1.6054 -0.3412  0.1894
 5930TIP3   OH217795   5.502   5.663   4.596 -0.4729 -0.4603 -0.3085
 5930TIP3    H117796   5.578   5.625   4.640 -0.5339 -0.0982  0.1163
 5930TIP3    H217797   5.462   5.720   4.662 -0.5252  0.1470 -0.8484
 5931TIP3   OH217798   2.698   0.698   0.065  0.7451 -0.5349 -0.4256
 5931TIP3    H117799   2.626   0.721   0.124  0.5923  0.3591 -0.9488
 5931TIP3    H217800   2.750   0.635   0.115 -0.0377 -0.6987  0.2066
 5932TIP3   OH217801   3.116   1.950   3.840 -0.4023  0.0293 -0.5704
 5932TIP3    H117802   3.122   2.020   3.905  0.4176 -0.3900 -0.1692
 5932TIP3    H217803   3.033   1.906   3.859 -0.9399  0.8978 -0.8502
 5933TIP3   OH217804   5.281   3.552   2.459  0.6815 -0.4921  0.1644
 5933TIP3    H117805   5.351   3.614   2.481 -1.4918  1.3016  2.8386
 5933TIP3    H217806   5.320   3.466   2.474  2.7904  0.3490 -0.1344
 5934TIP3   OH217807   5.322   0.101   4.453 -0.1886  0.1989 -0.0770
 5934TIP3    H117808   5.308   0.194   4.434  0.3121  0.8509  2.4101
 5934TIP3    H217809   5.288   0.089   4.541  2.1003 -1.3458  0.6848
 5935TIP3   OH217810   1.723   1.254   2.096  0.0981 -0.5408 -0.4041
 5935TIP3    H117811   1.629   1.259   2.080 -0.0809 -0.9194  0.4465
 5935TIP3    H217812   1.731   1.255   2.192  0.8548 -1.8712 -0.4307
 5936TIP3   OH217813   0.679   4.864   4.433  0.0273 -0.1129  0.6629
 5936TIP3    H117814   0.727   4.947   4.428  0.8602 -0.5829  0.6026
 5936TIP3    H217815   0.634   4.868   4.517 -1.2039  1.0520 -0.0195
 5937TIP3   OH217816   5.234   5.336   0.601  0.1748 -0.5639 -0.0203
 5937TIP3    H117817   5.304   5.294   0.650 -0.0811 -1.6410 -0.5311
 5937TIP3    H217818   5.172   5.265   0.583 -0.4391  0.1074 -0.6367
 5938TIP3   OH217819   1.834   2.164   3.612  0.4129 -0.3117 -0.2407
 5938TIP3    H117820   1.832   2.142   3.705 -0.4270  0.3456 -0.0864
 5938TIP3    H217821   1.761   2.116   3.574 -0.5208  1.0004 -0.1658
 5939TIP3   OH217822   1.969   1.290   2.646  0.1908 -0.3663  0.3776
 5939TIP3    H117823   1.983   1.214   2.702  0.3554 -1.8259 -1.5556
 5939TIP3    H217824   2.046   1.294   2.590 -0.4635  0.3630 -0.5009
 5940TIP3   OH217825   3.943   0.010   0.899  0.8516 -0.1869 -0.5682
 5940TIP3    H117826   4.007   0.079   0.915  2.4233 -2.1438  2.2670
 5940TIP3    H217827   3.989  -0.054   0.845  0.5958 -0.6886 -0.1972
 5941TIP3   OH217828   4.359   5.129   4.639  0.1940 -0.4842  0.3774
 5941TIP3    H117829   4.342   5.182   4.561 -0.2174  0.6433  1.2030
 5941TIP3    H217830   4.272   5.108   4.673  0.3403  0.6211  1.5470
 5942TIP3   OH217831   0.284   4.687   4.399  0.3141  0.3553 -0.1612
 5942TIP3    H117832   0.369   4.669   4.360  0.6579  1.3835  0.0813
 5942TIP3    H217833   0.223   4.630   4.352  0.7715  1.2718 -1.9580
 5943TIP3   OH217834   4.565   3.549   2.213  0.1756  0.1926  0.0224
 5943TIP3    H117835   4.659   3.553   2.199  0.1337  0.7271 -0.1297
 5943TIP3    H217836   4.551   3.587   2.300 -0.1059  2.4195 -0.9137
 5944TIP3   OH217837   2.028   0.857   4.572  0.3678  0.9848 -0.1272
 5944TIP3    H117838   1.939   0.848   4.605  0.4155 -1.2866 -0.4059
 5944TIP3    H217839   2.076   0.897   4.644 -0.8695  2.4281 -0.0458
 5945TIP3   OH217840   2.405   5.395   1.042 -0.6971  0.3015  0.2118
 5945TIP3    H117841   2.409   5.474   1.096 -3.0423  0.1631  0.6898
 5945TIP3    H217842   2.327   5.349   1.073  1.4758 -3.1228  1.1158
 5946TIP3   OH217843   5.802   5.121   1.735 -0.0321 -0.2803 -0.4387
 5946TIP3    H117844   5.720   5.083   1.704  0.4116 -1.4090 -0.2880
 5946TIP3    H217845   5.862   5.046   1.743  1.6718  0.7675 -2.5345
 5947TIP3   OH217846   5.065   1.336   4.928  0.0760 -0.4759 -0.3445
 5947TIP3    H117847   5.094   1.416   4.972  0.1029 -0.8301  0.2907
 5947TIP3    H217848   4.971   1.332   4.944  0.6242 -2.7567  3.3529
 5948TIP3   OH217849   5.505   4.896   2.773 -0.0108 -0.4279 -0.1782
 5948TIP3    H117850   5.588   4.883   2.819 -0.1305  0.5135  0.3517
 5948TIP3    H217851   5.439   4.900   2.843 -0.5620 -1.5556 -0.6196
 5949TIP3   OH217852   4.228   2.050   3.877 -0.2648  0.7043  0.4711
 5949TIP3    H117853   4.281   2.069   3.955  1.1397 -0.5153 -0.1436
 5949TIP3    H217854   4.138   2.046   3.909  0.2355  0.7274  1.9373
 5950TIP3   OH217855   1.551   5.131   4.255  0.4374  0.2426  0.1698
 5950TIP3    H117856   1.504   5.096   4.179  1.1618 -2.7756  0.9926
 5950TIP3    H217857   1.511   5.217   4.269 -1.0747  0.0892 -2.3972
 5951TIP3   OH217858   1.273   0.593   2.723 -0.4528 -0.5491 -0.2207
 5951TIP3    H117859   1.293   0.614   2.814 -3.1427 -1.1968  0.6041
 5951TIP3    H217860   1.290   0.674   2.675 -1.0850  0.4801  1.2357
 5952TIP3   OH217861   6.087   1.144   2.229  0.2594 -0.2550 -0.6775
 5952TIP3    H117862   6.155   1.082   2.256  0.3424 -0.0190 -0.3399
 5952TIP3    H217863   6.075   1.127   2.136  1.0203 -0.0783 -0.8194
 5953TIP3   OH217864   4.003   2.875   2.284  0.2862 -0.0883  0.1180
 5953TIP3    H117865   4.072   2.812   2.306  0.7754  0.0362 -0.9815
 5953TIP3    H217866   4.027   2.907   2.197 -0.8503  0.4028 -0.0306
 5954TIP3   OH217867   4.855   2.560   0.012 -0.4216  0.3843  0.1122
 5954TIP3    H117868   4.810   2.608  -0.058 -1.0258 -1.5234 -0.8842
 5954TIP3    H217869   4.887   2.628   0.071  0.8160  2.1865 -2.4099
 5955TIP3   OH217870   0.140   4.910   1.821  0.6580  0.6014 -0.2821
 5955TIP3    H117871   0.158   4.994   1.780 -0.5619  0.3826 -1.3490
 5955TIP3    H217872   0.122   4.851   1.748  0.5305 -0.3344  0.4833
 5956TIP3   OH217873   0.196   0.668   3.884 -0.0829  0.6350 -0.2254
 5956TIP3    H117874   0.144   0.714   3.951 -0.2364  1.7150 -1.0508
 5956TIP3    H217875   0.238   0.739   3.835  0.7699 -0.1765 -0.6774
 5957TIP3   OH217876   5.346   0.131   5.025 -0.0947 -0.0550 -0.2977
 5957TIP3    H117877   5.287   0.058   5.044 -0.8699  0.3561 -1.0227
 5957TIP3    H217878   5.298   0.208   5.055 -0.2170  0.3438 -1.4557
 5958TIP3   OH217879   1.228   3.044   4.693 -0.0824 -0.3868 -0.0576
 5958TIP3    H117880   1.241   3.126   4.741 -0.3628 -0.8931  0.8826
 5958TIP3    H217881   1.242   3.069   4.601  2.1280  0.2430  0.3870
 5959TIP3   OH217882   5.345   4.460   4.876 -0.0459  0.5806 -0.5794
 5959TIP3    H117883   5.368   4.486   4.965 -0.0404 -1.3311  0.0053
 5959TIP3    H217884   5.428   4.458   4.829  0.0136  1.0543 -0.5082
 5960TIP3   OH217885   3.605   0.263   2.025  0.3821  0.0412 -0.4906
 5960TIP3    H117886   3.615   0.282   1.932 -2.0558 -0.8564 -1.0276
 5960TIP3    H217887   3.548   0.333   2.058  0.7761  0.0436  0.2020
 5961TIP3   OH217888   0.954   5.865   0.495 -0.0558  0.0310 -0.1075
 5961TIP3    H117889   0.974   5.773   0.513 -1.1921 -0.2300 -0.1192
 5961TIP3    H217890   0.861   5.866   0.472 -0.4459  1.3907  1.3860
 5962TIP3   OH217891   5.045   2.855   1.322 -0.2232 -0.5724 -0.2558
 5962TIP3    H117892   5.016   2.919   1.387 -0.5601 -1.4748  0.5067
 5962TIP3    H217893   5.101   2.795   1.370  0.1686 -0.8039 -0.9808
 5963TIP3   OH217894   1.464   2.343   0.898 -0.3023  0.4134 -0.4738
 5963TIP3    H117895   1.552   2.327   0.932 -0.5813 -1.2983 -0.4969
 5963TIP3    H217896   1.443   2.266   0.846 -1.7131  0.9180 -0.7036
 5964TIP3   OH217897   0.519   3.032   1.422 -0.1038 -0.2408  0.0308
 5964TIP3    H117898   0.598   3.083   1.440  0.6644 -1.3230 -0.2238
 5964TIP3    H217899   0.455   3.098   1.392  0.2088  0.8457  1.6323
 5965TIP3   OH217900   3.357   1.514   2.041  0.7333 -0.1924 -0.1051
 5965TIP3    H117901   3.266   1.516   2.013  0.5001  0.0098  0.6353
 5965TIP3    H217902   3.408   1.524   1.960  0.1062 -0.5353 -0.5439
 5966TIP3   OH217903   1.210   5.354   4.308 -0.6550 -0.4905  0.1715
 5966TIP3    H117904   1.137   5.415   4.294  0.4202  0.2294 -3.6041
 5966TIP3    H217905   1.185   5.275   4.259  0.8717 -0.3749 -0.8591
 5967TIP3   OH217906   3.771   3.640   4.115 -0.1245 -0.5608  0.4072
 5967TIP3    H117907   3.733   3.674   4.034 -0.4508 -1.8224 -0.0020
 5967TIP3    H217908   3.858   3.680   4.120 -1.0643  1.5655  0.8207
 5968TIP3   OH217909   1.708   1.423   4.552  0.2299  0.6372  0.3504
 5968TIP3    H117910   1.755   1.496   4.511  2.1885 -0.4646  0.5294
 5968TIP3    H217911   1.678   1.370   4.478  1.1809  0.2168  0.2490
 5969TIP3   OH217912   1.827   1.207   3.279  0.1030  0.0407  0.2701
 5969TIP3    H117913   1.759   1.252   3.329  1.5689  0.4878  1.9872
 5969TIP3    H217914   1.909   1.236   3.320  1.3500 -0.2733 -1.8699
 5970TIP3   OH217915   0.183   1.603   0.163 -0.1322  0.4527 -0.6021
 5970TIP3    H117916   0.095   1.589   0.198 -0.3583 -0.6665 -1.5833
 5970TIP3    H217917   0.203   1.524   0.113  2.2721 -0.2670  1.2896
 5971TIP3   OH217918   0.344   0.351   0.765 -0.1244  0.2174  0.2609
 5971TIP3    H117919   0.332   0.312   0.679  1.2887  1.4756 -0.5503
 5971TIP3    H217920   0.272   0.316   0.818 -1.5178  0.0937 -1.6432
 5972TIP3   OH217921   1.590   1.404   4.943 -0.8737  0.3108  0.1374
 5972TIP3    H117922   1.496   1.411   4.925 -0.8948 -0.1670  0.0524
 5972TIP3    H217923   1.595   1.348   5.020 -0.7554  1.9121  1.3541
 5973TIP3   OH217924   5.197   4.346   2.957  0.1453 -0.4311 -0.5347
 5973TIP3    H117925   5.239   4.383   2.879 -1.3848  0.3647 -1.0162
 5973TIP3    H217926   5.116   4.396   2.966 -0.8229 -2.0724  0.2232
 5974TIP3   OH217927   0.445   1.385   4.836 -0.1503 -0.1977  0.6444
 5974TIP3    H117928   0.498   1.445   4.888  0.0432  0.1851  0.0176
 5974TIP3    H217929   0.503   1.356   4.765 -1.0319  1.0027 -0.6331
 5975TIP3   OH217930   3.549   5.584   2.434 -0.1514  0.1498  0.5058
 5975TIP3    H117931   3.598   5.545   2.506 -1.3359  0.3895  1.4711
 5975TIP3    H217932   3.587   5.545   2.355  0.5093 -0.8776  1.3069
 5976TIP3   OH217933   0.632   1.151   1.456 -0.5276 -0.1185 -0.6863
 5976TIP3    H117934   0.706   1.105   1.494 -0.0638  0.4822 -0.8521
 5976TIP3    H217935   0.670   1.209   1.390 -1.3276 -1.2205 -2.1606
 5977TIP3   OH217936   5.975   3.948   4.030  0.1788 -0.8907  0.1626
 5977TIP3    H117937   6.009   4.030   4.067 -1.0910  0.4385 -1.4059
 5977TIP3    H217938   5.891   3.936   4.075 -1.0267  0.3412 -1.5994
 5978TIP3   OH217939   6.035   1.653   3.906  0.3477  0.2867  0.6739
 5978TIP3    H117940   6.129   1.659   3.922  0.3065 -1.3623  1.6917
 5978TIP3    H217941   5.995   1.706   3.975  0.4588 -0.9020  1.6746
 5979TIP3   OH217942   4.948   3.588   1.100 -0.4356 -0.0121 -0.4623
 5979TIP3    H117943   4.984   3.640   1.172  0.0216 -1.6680  0.5445
 5979TIP3    H217944   4.878   3.643   1.064  0.6642  1.7269 -0.1139
 5980TIP3   OH217945   0.254   4.972   4.473 -0.0237  0.1207 -0.2761
 5980TIP3    H117946   0.168   5.012   4.458 -0.4973 -0.6947  0.1766
 5980TIP3    H217947   0.255   4.897   4.413  1.2967  1.3911 -1.9338
 5981TIP3   OH217948   2.920   2.976   3.953  0.0598 -0.0759  0.4889
 5981TIP3    H117949   2.906   2.911   4.022  1.8940 -0.4993  0.5123
 5981TIP3    H217950   2.927   2.923   3.873 -0.0783  0.2408  0.2687
 5982TIP3   OH217951   1.231   1.412   0.068 -0.2247  0.0490  0.1289
 5982TIP3    H117952   1.259   1.328   0.105 -0.0272 -0.0476 -0.2336
 5982TIP3    H217953   1.249   1.404  -0.025  0.2350  0.6652  0.1559
 5983TIP3   OH217954   0.557   1.597   3.894 -0.4116  0.1853  0.1138
 5983TIP3    H117955   0.484   1.655   3.915 -1.1717 -1.6052  3.0513
 5983TIP3    H217956   0.516   1.521   3.853 -0.0347 -0.2632  0.5579
 5984TIP3   OH217957   3.152   0.024   3.072  0.6070  0.6840  0.8743
 5984TIP3    H117958   3.119   0.023   2.982 -1.0200 -1.3775  1.4038
 5984TIP3    H217959   3.238   0.065   3.066  0.0758  1.6102 -1.4246
 5985TIP3   OH217960   4.228   4.530   0.274 -0.3471  0.1028 -0.7804
 5985TIP3    H117961   4.196   4.593   0.210  0.2712  0.0611 -1.1373
 5985TIP3    H217962   4.301   4.576   0.318 -0.5987  0.0380 -0.2825
 5986TIP3   OH217963   5.970   3.512   0.287  0.1939  0.7979 -0.6723
 5986TIP3    H117964   6.055   3.471   0.274 -0.0772  0.2801 -0.8587
 5986TIP3    H217965   5.917   3.480   0.214 -0.9114 -0.9140  0.8134
 5987TIP3   OH217966   5.621   0.873   2.042  0.8066 -0.1232  0.1683
 5987TIP3    H117967   5.536   0.890   2.083 -1.3866 -0.3367 -3.7605
 5987TIP3    H217968   5.635   0.779   2.054 -0.3608 -0.4014 -0.4139
 5988TIP3   OH217969   4.736   0.149   0.881 -0.2651  0.4061 -0.0852
 5988TIP3    H117970   4.731   0.153   0.786  0.8690  0.7982 -0.1366
 5988TIP3    H217971   4.650   0.117   0.908 -0.2671 -0.6787 -1.2914
 5989TIP3   OH217972   4.328   1.434   1.817 -0.7175 -0.4001  0.4219
 5989TIP3    H117973   4.375   1.500   1.869 -0.7941  1.3762 -1.6354
 5989TIP3    H217974   4.252   1.481   1.782 -1.5568 -2.0008  0.0123
 5990TIP3   OH217975   5.731   0.750   3.619 -0.5273  0.5537 -0.6144
 5990TIP3    H117976   5.655   0.800   3.588 -1.1141 -0.7843 -1.4061
 5990TIP3    H217977   5.721   0.747   3.714  0.2107  2.9914 -0.3885
 5991TIP3   OH217978   0.265   3.662   1.437  0.0431  0.4800  0.0715
 5991TIP3    H117979   0.264   3.707   1.353  0.8073  1.7326  0.7016
 5991TIP3    H217980   0.339   3.701   1.484 -1.5726  1.2447  2.0837
 5992TIP3   OH217981   4.536   2.151   4.698 -0.0879  0.0842  0.3663
 5992TIP3    H117982   4.442   2.167   4.704 -0.0730 -0.1012  1.1591
 5992TIP3    H217983   4.547   2.111   4.612 -0.6964  0.3463  0.1581
 5993TIP3   OH217984   5.929   0.739   0.437 -0.0325 -0.1224  0.2417
 5993TIP3    H117985   5.952   0.792   0.361 -1.2223 -0.3029 -0.2742
 5993TIP3    H217986   5.854   0.687   0.408  0.4974 -1.3745  1.0382
 5994TIP3   OH217987   3.711   1.733   0.418 -0.4205 -0.6769 -0.2108
 5994TIP3    H117988   3.783   1.793   0.402  0.5511 -1.7774 -0.1024
 5994TIP3    H217989   3.666   1.769   0.495 -0.5132  0.4680 -0.7793
 5995TIP3   OH217990   1.181   1.585   4.366 -0.0628  0.0454  0.5634
 5995TIP3    H117991   1.179   1.494   4.396 -1.5374  0.3953  1.6648
 5995TIP3    H217992   1.128   1.633   4.430 -2.3551  1.0599 -1.8757
 5996TIP3   OH217993   0.551   3.619   1.337 -0.6893  0.0787  0.3385
 5996TIP3    H117994   0.531   3.709   1.311 -0.0254 -0.1136 -0.9047
 5996TIP3    H217995   0.644   3.621   1.359 -0.5869 -0.3634 -0.0389
 5997TIP3   OH217996   1.865   5.714   0.419  0.2879  0.1654 -0.1661
 5997TIP3    H117997   1.797   5.743   0.478 -1.4747 -1.6577 -1.1642
 5997TIP3    H217998   1.877   5.787   0.358 -1.3027  0.2791 -0.3891
 5998TIP3   OH217999   2.624   4.087   1.508 -0.1303 -0.0418  1.0421
 5998TIP3    H118000   2.649   4.179   1.521  1.4489 -0.0197 -1.4723
 5998TIP3    H218001   2.689   4.038   1.558  1.0428  0.1831 -0.2056
 5999TIP3   OH218002   2.336   3.031   4.976  0.0754 -0.0555  0.4510
 5999TIP3    H118003   2.423   3.056   4.946 -0.1954  1.4390  0.8078
 5999TIP3    H218004   2.276   3.081   4.919 -0.5625 -1.1207  0.1562
 6000TIP3   OH218005   0.729   5.694   4.764  0.0756  0.2290 -0.1317
 6000TIP3    H118006   0.808   5.641   4.754  2.1307  2.8452  0.9232
 6000TIP3    H218007   0.736   5.760   4.695 -0.1676  1.6176  1.1305
 6001TIP3   OH218008   4.861   4.079   3.717  0.0315  0.1775 -0.2162
 6001TIP3    H118009   4.783   4.041   3.757  0.5025  0.4544  1.0437
 6001TIP3    H218010   4.926   4.080   3.788  0.9379  0.6410 -1.0205
 6002TIP3   OH218011   0.243   0.950   1.859  0.5245 -0.1219  0.2418
 6002TIP3    H118012   0.151   0.936   1.836  0.4345  0.0383  0.5026
 6002TIP3    H218013   0.256   1.044   1.849 -0.1723  0.3796  3.1561
 6003TIP3   OH218014   2.318   5.101   2.703  0.3854  0.5185 -0.0783
 6003TIP3    H118015   2.352   5.027   2.753 -0.4170  0.9788  1.2279
 6003TIP3    H218016   2.393   5.136   2.655  0.7443 -1.1967 -0.8170
 6004TIP3   OH218017   3.989   5.159   0.222 -0.4752 -0.1427  0.9047
 6004TIP3    H118018   3.899   5.192   0.230 -1.4772 -2.2741 -0.6336
 6004TIP3    H218019   4.006   5.116   0.305 -1.2488 -0.5363  0.8677
 6005TIP3   OH218020   1.147   5.795   2.756 -0.2652  0.0367 -0.3207
 6005TIP3    H118021   1.157   5.712   2.804 -1.8213  0.6758  1.2181
 6005TIP3    H218022   1.053   5.813   2.760 -0.1689  1.0858 -2.0344
 6006TIP3   OH218023   0.749   2.407   3.685  0.1380  0.2054  0.3367
 6006TIP3    H118024   0.787   2.350   3.752 -1.2584  0.7398  1.6406
 6006TIP3    H218025   0.660   2.424   3.715 -0.1793  1.3637 -1.1088
 6007TIP3   OH218026   3.118   2.565   4.400 -0.2627  0.0293 -0.2328
 6007TIP3    H118027   3.029   2.554   4.368 -0.2717 -0.5564 -0.0103
 6007TIP3    H218028   3.172   2.573   4.321 -0.5586  0.8265 -0.3646
 6008TIP3   OH218029   0.782   1.247   1.912 -0.4515  0.4536  0.0505
 6008TIP3    H118030   0.856   1.263   1.853  0.1684  0.2012  0.7361
 6008TIP3    H218031   0.727   1.325   1.903 -0.8746  0.0011 -1.5604
 6009TIP3   OH218032   5.830   5.803   0.575 -0.4221 -0.0411  0.1248
 6009TIP3    H118033   5.798   5.749   0.648  1.0630 -0.9897  0.1042
 6009TIP3    H218034   5.811   5.750   0.497  0.3203 -0.1774  0.0367
 6010TIP3   OH218035   1.734   1.409   0.355  0.0490 -0.3497 -0.1279
 6010TIP3    H118036   1.797   1.478   0.333 -0.7152  0.2713 -0.4220
 6010TIP3    H218037   1.778   1.357   0.422  0.1772  1.1598  1.0281
 6011TIP3   OH218038   3.396   3.531   5.193 -0.6406  0.2436 -0.3444
 6011TIP3    H118039   3.454   3.455   5.184 -1.1925 -0.0999 -1.1056
 6011TIP3    H218040   3.360   3.545   5.105 -1.5649  0.5674  0.0708
 6012TIP3   OH218041   1.226   0.114   3.842  0.0923 -0.3772 -0.0239
 6012TIP3    H118042   1.296   0.054   3.816 -1.9551 -2.8089 -0.3839
 6012TIP3    H218043   1.205   0.089   3.932  1.1245  1.8735  0.9070
 6013TIP3   OH218044   2.898   5.113   0.226  0.5605 -0.2893 -0.6380
 6013TIP3    H118045   2.823   5.171   0.240 -0.5287 -1.2703 -2.1205
 6013TIP3    H218046   2.876   5.034   0.276  0.2273 -0.8507 -1.6330
 6014TIP3   OH218047   0.372   1.717  -0.014  0.6743 -0.6043 -0.2304
 6014TIP3    H118048   0.461   1.751  -0.016  0.3915  0.1443 -0.7080
 6014TIP3    H218049   0.357   1.693   0.077  1.5838 -1.3450 -0.2631
 6015TIP3   OH218050   1.214   5.436   3.837 -0.0847  0.3836  0.5843
 6015TIP3    H118051   1.294   5.489   3.839 -0.2801  0.7651 -0.7330
 6015TIP3    H218052   1.223   5.383   3.758 -1.4280  0.9229  0.0529
 6016TIP3   OH218053   6.284   5.109   3.222  0.2563  0.1590 -0.0112
 6016TIP3    H118054   6.297   5.032   3.166 -0.9317  0.4455 -0.7254
 6016TIP3    H218055   6.369   5.153   3.222 -0.0134  0.8539 -2.7052
 6017TIP3   OH218056   1.749   4.420   1.006 -0.3048 -0.0008 -0.3566
 6017TIP3    H118057   1.691   4.450   0.937 -2.2708 -0.3635  1.0401
 6017TIP3    H218058   1.698   4.429   1.087  1.6678 -0.1503  1.0012
 6018TIP3   OH218059   4.866   0.971   2.820 -0.5279 -0.0793  0.5281
 6018TIP3    H118060   4.814   1.038   2.775 -3.0747 -1.3726  1.3598
 6018TIP3    H218061   4.810   0.941   2.891 -0.8528 -5.0891 -1.4381
 6019TIP3   OH218062   5.132   0.154   0.136 -0.4956  0.1435  0.5318
 6019TIP3    H118063   5.166   0.111   0.058  2.3004  0.0111  1.7241
 6019TIP3    H218064   5.077   0.225   0.102  0.7793  0.2174 -1.5584
 6020TIP3   OH218065   6.041   0.731   2.656  0.0451  0.5468 -0.0185
 6020TIP3    H118066   6.075   0.690   2.736  2.5502  0.6088 -0.9591
 6020TIP3    H218067   5.994   0.660   2.611 -0.0363  0.0939  0.7545
 6021TIP3   OH218068   1.364   2.913   3.356  1.0838  0.2724 -0.0837
 6021TIP3    H118069   1.387   2.828   3.320  0.0891 -0.4846  1.0197
 6021TIP3    H218070   1.277   2.931   3.319  0.6036  0.0673  0.9322
 6022TIP3   OH218071   5.620   3.729   1.227 -0.6746  0.3438 -0.2318
 6022TIP3    H118072   5.668   3.700   1.304 -1.0725 -0.4397 -0.2765
 6022TIP3    H218073   5.625   3.655   1.166  1.0010  1.4973 -1.6081
 6023TIP3   OH218074   4.236   5.766   0.280 -0.1953  0.5264  0.3235
 6023TIP3    H118075   4.245   5.689   0.223 -1.4523  0.0577  0.7261
 6023TIP3    H218076   4.283   5.742   0.360  1.3811  1.0994 -0.3742
 6024TIP3   OH218077   3.556   3.208   1.292 -1.0848  0.1738 -0.8023
 6024TIP3    H118078   3.484   3.178   1.347 -0.8399 -0.4323 -0.8057
 6024TIP3    H218079   3.520   3.208   1.203 -1.2841  0.5257 -0.7209
 6025TIP3   OH218080   1.999   5.345   2.840  0.2830 -0.0177 -0.1845
 6025TIP3    H118081   2.052   5.418   2.870  0.2747  0.4371 -1.2217
 6025TIP3    H218082   1.919   5.349   2.892 -0.2056  1.4086 -1.0083
 6026TIP3   OH218083   1.404   5.736   2.041 -0.5150  0.2654 -0.3807
 6026TIP3    H118084   1.407   5.831   2.038  1.7904  0.3452  1.6209
 6026TIP3    H218085   1.340   5.715   2.109  0.4025  0.4958  0.5858
 6027TIP3   OH218086   2.063   3.913   1.112  0.2076  0.0987 -0.4385
 6027TIP3    H118087   2.110   3.982   1.065 -2.5823  0.6182 -2.7109
 6027TIP3    H218088   2.042   3.952   1.197  1.3971  0.8639 -0.4712
 6028TIP3   OH218089   0.371   3.556   4.621 -0.1612  0.6132  0.3042
 6028TIP3    H118090   0.329   3.513   4.696 -0.9791 -0.1422 -0.5673
 6028TIP3    H218091   0.463   3.532   4.627  0.2231  2.2659  2.2324
 6029TIP3   OH218092   4.483   2.964   1.648 -0.2194  0.5426  0.0839
 6029TIP3    H118093   4.390   2.942   1.648 -0.2046  0.2539 -1.8404
 6029TIP3    H218094   4.485   3.059   1.637 -0.3069  0.4612 -0.6994
 6030TIP3   OH218095   2.111   3.035   2.067 -0.4829 -0.5617  0.3028
 6030TIP3    H118096   2.059   2.958   2.042 -0.3266 -1.1747  1.7862
 6030TIP3    H218097   2.105   3.093   1.991 -3.1924 -0.6815  0.3202
 6031TIP3   OH218098   5.950   1.213   1.669  0.1449  0.0516 -0.2093
 6031TIP3    H118099   5.913   1.299   1.686  0.2755 -0.1089  0.9631
 6031TIP3    H218100   5.890   1.173   1.605 -1.4094  0.0197  1.1956
 6032TIP3   OH218101   3.848   0.213   1.782  0.6765 -0.1390 -0.3287
 6032TIP3    H118102   3.899   0.156   1.839 -1.6754 -2.6605 -0.5964
 6032TIP3    H218103   3.836   0.162   1.702  0.8032  1.8852 -1.7091
 6033TIP3   OH218104   5.468   2.509   1.947 -0.2772  0.2769 -0.5277
 6033TIP3    H118105   5.410   2.434   1.953 -0.9786  0.9225  1.7196
 6033TIP3    H218106   5.553   2.472   1.923 -0.5898 -1.2531  0.5945
 6034TIP3   OH218107   0.636   2.155   1.851  0.1234  0.6377 -0.0201
 6034TIP3    H118108   0.540   2.149   1.851  0.1259 -0.1841  1.6300
 6034TIP3    H218109   0.664   2.091   1.786 -0.4337 -0.3219  0.6617
 6035TIP3   OH218110   1.462   2.429   1.294  0.1006  0.2694 -0.4832
 6035TIP3    H118111   1.505   2.362   1.241 -0.2511  0.1925 -0.6788
 6035TIP3    H218112   1.387   2.383   1.333 -0.7641  0.8072 -1.4653
 6036TIP3   OH218113   3.994   3.146   1.401  0.6162 -0.3507 -0.0916
 6036TIP3    H118114   3.995   3.241   1.412 -0.1671 -0.1771 -1.3427
 6036TIP3    H218115   4.086   3.122   1.391  0.7356  0.4437 -0.9869
 6037TIP3   OH218116   5.416   2.437   1.665 -0.0800  0.1096 -0.0477
 6037TIP3    H118117   5.502   2.454   1.629  0.8809 -1.2181  1.4891
 6037TIP3    H218118   5.404   2.504   1.732 -0.4471  0.5488 -0.5405
 6038TIP3   OH218119   4.617   0.490   1.885 -0.1316  0.1590 -0.3990
 6038TIP3    H118120   4.543   0.548   1.900  0.6903  1.0404  0.3993
 6038TIP3    H218121   4.694   0.547   1.887  0.8564 -1.1076  2.0857
 6039TIP3   OH218122   3.954   4.408   4.372  0.4532  0.1359  0.5687
 6039TIP3    H118123   3.940   4.382   4.463 -0.6169  0.3396  0.4853
 6039TIP3    H218124   3.870   4.390   4.329  0.4090  1.5762  0.0032
 6040TIP3   OH218125   0.153   5.862   3.799 -0.0969 -0.2041  0.0884
 6040TIP3    H118126   0.136   5.768   3.796  2.1777 -0.7730  1.9383
 6040TIP3    H218127   0.177   5.886   3.709 -2.9659 -0.8053 -0.9402
 6041TIP3   OH218128   3.247   3.369   3.337 -0.0892 -0.4036 -0.4006
 6041TIP3    H118129   3.323   3.420   3.366  0.4787  1.0920 -3.9915
 6041TIP3    H218130   3.171   3.423   3.359 -0.2662 -1.8886  3.1758
 6042TIP3   OH218131   4.077   1.312   2.389 -0.1716  0.7671  0.3331
 6042TIP3    H118132   4.077   1.239   2.328 -1.5181 -1.7998  3.1657
 6042TIP3    H218133   4.116   1.276   2.469 -0.7936  3.2013  1.8257
 6043TIP3   OH218134   5.554   1.901   5.070 -0.2848 -0.1958  0.4635
 6043TIP3    H118135   5.593   1.853   5.143  0.0781 -0.2252  0.2545
 6043TIP3    H218136   5.498   1.966   5.112  1.3316  1.0295  0.8710
 6044TIP3   OH218137   0.258   0.321   4.348  0.2004 -0.3371  0.2946
 6044TIP3    H118138   0.347   0.331   4.383  1.1427 -0.6320 -1.8362
 6044TIP3    H218139   0.253   0.229   4.324  0.2251  0.1511 -1.7630
 6045TIP3   OH218140   2.530   4.221   3.531  0.1753 -0.0324  0.4915
 6045TIP3    H118141   2.570   4.307   3.549  0.1284 -0.2413  1.6981
 6045TIP3    H218142   2.587   4.158   3.575  0.1915 -0.6280 -0.3633
 6046TIP3   OH218143   3.299   0.804   0.268 -0.4788  0.4139  0.2647
 6046TIP3    H118144   3.361   0.752   0.319 -1.5674  0.7067  1.9961
 6046TIP3    H218145   3.346   0.827   0.188  0.7497 -1.4672  0.3759
 6047TIP3   OH218146   0.057   3.307   2.616 -0.5715 -0.4369 -0.2485
 6047TIP3    H118147   0.099   3.347   2.693 -0.8256 -0.9637  0.1737
 6047TIP3    H218148  -0.031   3.346   2.615 -1.0103 -1.3535  0.4818
 6048TIP3   OH218149   4.178   5.232   2.642  0.3975  0.7358  0.2328
 6048TIP3    H118150   4.231   5.169   2.593 -0.3794  0.8434 -0.7811
 6048TIP3    H218151   4.170   5.194   2.729 -0.0889 -0.6063 -0.3652
 6049TIP3   OH218152   3.835   2.798   0.714  0.2298  0.6682  0.0276
 6049TIP3    H118153   3.855   2.757   0.630 -0.4498 -1.0922  0.6972
 6049TIP3    H218154   3.901   2.765   0.774 -0.7800 -0.1041  0.7541
 6050TIP3   OH218155   1.036   2.386   1.260  0.2173  0.2906  0.0330
 6050TIP3    H118156   0.945   2.383   1.231 -0.0155  2.4241  0.3390
 6050TIP3    H218157   1.079   2.314   1.214 -1.9014 -1.7361  1.0067
 6051TIP3   OH218158   3.285   5.560   2.162  0.4968  0.5371  0.0468
 6051TIP3    H118159   3.311   5.471   2.184 -0.0496  0.2116 -0.6131
 6051TIP3    H218160   3.253   5.597   2.245  1.6514  0.4632  0.5429
 6052TIP3   OH218161   6.027   2.312   4.833 -0.1693  0.3758 -0.0768
 6052TIP3    H118162   6.000   2.309   4.741  0.9286  1.4867 -0.4740
 6052TIP3    H218163   6.121   2.331   4.829 -0.0335  0.0793  1.2741
 6053TIP3   OH218164   1.666   5.414   1.458  0.2876  0.0049  0.1794
 6053TIP3    H118165   1.635   5.470   1.387  1.4268  2.3265  1.4118
 6053TIP3    H218166   1.740   5.366   1.420 -2.4703 -3.1050 -1.7763
 6054TIP3   OH218167   4.334   1.971   0.327  0.1545 -0.5339  0.5178
 6054TIP3    H118168   4.295   2.014   0.402 -0.1488  1.8197 -0.8950
 6054TIP3    H218169   4.362   1.885   0.360 -0.5020  0.1734  3.1075
 6055TIP3   OH218170   4.696   2.647   2.433  0.7933  0.7627  0.4902
 6055TIP3    H118171   4.741   2.593   2.368 -0.0434 -0.2203  0.6991
 6055TIP3    H218172   4.643   2.707   2.381  0.6555  0.4424  0.2540
 6056TIP3   OH218173   4.693   4.104   4.112  0.2892 -0.3501  0.6963
 6056TIP3    H118174   4.692   4.199   4.122 -0.2240  0.0943 -2.5609
 6056TIP3    H218175   4.601   4.081   4.098  0.6785 -0.9172 -1.1812
 6057TIP3   OH218176   3.547   4.830   4.154 -0.8140 -0.0685  0.3423
 6057TIP3    H118177   3.582   4.751   4.196  0.1694  0.1307 -0.0864
 6057TIP3    H218178   3.454   4.812   4.144 -0.4379 -1.5968 -0.6728
 6058TIP3   OH218179   5.283   0.376   4.360 -0.2234  0.6048 -0.1466
 6058TIP3    H118180   5.217   0.424   4.409 -1.1641  0.3436 -1.1315
 6058TIP3    H218181   5.234   0.328   4.293  0.9341  0.2081 -0.7417
 6059TIP3   OH218182   2.350   1.967   4.880 -0.2416  0.2628  0.6361
 6059TIP3    H118183   2.296   1.929   4.950 -0.1088  0.3574  0.7898
 6059TIP3    H218184   2.409   1.896   4.854 -0.0545  0.3353  0.8610
 6060TIP3   OH218185   4.954   1.847   1.273  0.0846 -0.0059 -0.2123
 6060TIP3    H118186   4.931   1.940   1.261 -0.1747 -0.1984 -1.3904
 6060TIP3    H218187   4.873   1.806   1.303 -0.2396 -0.1012 -1.1690
 6061TIP3   OH218188   0.692   4.890   2.492 -0.1083  0.4370 -0.0674
 6061TIP3    H118189   0.787   4.888   2.503 -0.2400  1.6598  1.6562
 6061TIP3    H218190   0.679   4.936   2.409  0.8032  1.4994  0.3558
 6062TIP3   OH218191   2.355   0.083   4.441 -0.6081 -0.0482  0.8932
 6062TIP3    H118192   2.292   0.044   4.380 -1.7577  1.3721  1.1332
 6062TIP3    H218193   2.353   0.024   4.517 -2.0373  0.2058  1.0972
 6063TIP3   OH218194   3.429   2.840   1.118 -0.4506  0.5304  0.0138
 6063TIP3    H118195   3.509   2.830   1.170 -1.3418  0.8502  1.5102
 6063TIP3    H218196   3.359   2.844   1.183 -2.0258 -2.4602 -1.2937
 6064TIP3   OH218197   4.945   0.579   0.206  0.0848 -0.5987  0.0222
 6064TIP3    H118198   4.958   0.528   0.286 -0.3055 -3.0908 -1.4013
 6064TIP3    H218199   5.033   0.609   0.182  0.2039  0.1854  1.3269
 6065TIP3   OH218200   5.813   0.195   2.210  0.7149 -0.5419  0.0452
 6065TIP3    H118201   5.878   0.163   2.148  1.5884  0.6990  0.2874
 6065TIP3    H218202   5.835   0.151   2.292  0.5710 -0.9458 -0.1305
 6066TIP3   OH218203   0.252   5.985   1.164  0.0563  0.1587  0.0668
 6066TIP3    H118204   0.329   5.933   1.141  0.0864  0.1579  0.1715
 6066TIP3    H218205   0.180   5.941   1.119  0.5067  1.7947 -2.4834
 6067TIP3   OH218206   3.077   2.717   3.315 -0.4528 -0.4941 -0.5517
 6067TIP3    H118207   3.150   2.683   3.264  0.3762 -0.4618  0.5958
 6067TIP3    H218208   3.071   2.809   3.289 -0.4596 -0.6310 -1.0574
 6068TIP3   OH218209   5.056   2.504   3.851  0.1581  0.3760 -0.4912
 6068TIP3    H118210   4.995   2.527   3.921 -0.2737 -1.1055 -0.3353
 6068TIP3    H218211   5.109   2.433   3.887 -0.6971 -1.0770 -1.9351
 6069TIP3   OH218212   4.316   0.236   4.799 -0.1585  0.4230 -0.5848
 6069TIP3    H118213   4.309   0.301   4.729 -2.3295  1.4094  0.4530
 6069TIP3    H218214   4.301   0.152   4.755 -0.2154  0.8990 -1.5087
 6070TIP3   OH218215   3.853   4.982   2.585  0.3170  0.2217 -0.3929
 6070TIP3    H118216   3.819   4.974   2.675  1.0630 -0.0564 -0.1231
 6070TIP3    H218217   3.799   4.922   2.534  0.6494 -0.5196  0.1028
 6071TIP3   OH218218   0.329   3.126   3.332 -0.0193  0.0995 -0.2491
 6071TIP3    H118219   0.291   3.142   3.246 -0.5503  1.0513  0.1552
 6071TIP3    H218220   0.420   3.156   3.324 -0.2786  0.8742 -0.2580
 6072TIP3   OH218221   4.616   4.837   3.898  0.4070  0.0313  0.3970
 6072TIP3    H118222   4.646   4.921   3.863  0.2050  0.0912  0.3639
 6072TIP3    H218223   4.536   4.858   3.946  0.7456 -0.0307  1.0031
 6073TIP3   OH218224   4.740   3.068   3.088  0.4398 -0.0266 -0.2151
 6073TIP3    H118225   4.704   2.983   3.063 -0.6928  0.5668 -0.7219
 6073TIP3    H218226   4.687   3.095   3.163 -0.4620  1.0232 -1.1896
 6074TIP3   OH218227   1.160   2.079   2.700  0.5660  0.3450  0.2507
 6074TIP3    H118228   1.234   2.109   2.648 -0.4682  0.0709 -1.4511
 6074TIP3    H218229   1.193   2.079   2.790  2.3144  1.1504 -0.3362
 6075TIP3   OH218230   1.223   2.049   0.592  0.1409  0.1336 -0.1384
 6075TIP3    H118231   1.207   1.973   0.536 -0.4712 -0.0850  0.3269
 6075TIP3    H218232   1.250   2.118   0.531 -0.0309 -0.2403 -0.6472
 6076TIP3   OH218233   3.876   2.280   4.910  0.0603  0.0104  0.4065
 6076TIP3    H118234   3.939   2.351   4.926 -0.3732  0.1688  1.5060
 6076TIP3    H218235   3.792   2.316   4.938  0.0731 -1.4764  2.5929
 6077TIP3   OH218236   1.731   4.435   5.115  0.0977 -0.4153 -0.1848
 6077TIP3    H118237   1.741   4.490   5.192  2.6274 -0.3987 -0.4187
 6077TIP3    H218238   1.705   4.495   5.045 -0.5826 -0.1541  0.2856
 6078TIP3   OH218239   5.128   1.244   4.284  0.4206  0.2350  0.2226
 6078TIP3    H118240   5.145   1.170   4.342 -0.6626  1.1622  1.8190
 6078TIP3    H218241   5.032   1.251   4.282  0.5033  1.9748  0.6718
 6079TIP3   OH218242   4.472   1.826   4.615  0.1160  0.2294 -0.2094
 6079TIP3    H118243   4.384   1.800   4.644 -0.1832  1.1151 -0.3197
 6079TIP3    H218244   4.531   1.766   4.662 -0.3789  1.3489  1.9856
 6080TIP3   OH218245   0.226   2.328   1.080 -0.2073  0.2445  0.4497
 6080TIP3    H118246   0.279   2.249   1.070  0.3537  0.8000 -1.4059
 6080TIP3    H218247   0.284   2.400   1.054 -1.2934  1.0649  0.2112
 6081TIP3   OH218248   5.976   1.404   3.026 -0.1276 -0.1100  0.4654
 6081TIP3    H118249   6.034   1.408   2.950 -1.5790 -1.0931 -0.7554
 6081TIP3    H218250   6.023   1.351   3.090  0.6763 -0.1420 -0.1380
 6082TIP3   OH218251   1.530   4.189   3.307 -0.3930  0.3225  0.3363
 6082TIP3    H118252   1.542   4.108   3.258 -2.2069 -0.3213  0.8794
 6082TIP3    H218253   1.480   4.245   3.248 -1.3033  0.0944  0.8742
 6083TIP3   OH218254   2.796   0.977   2.741  0.5300  0.3938  0.0246
 6083TIP3    H118255   2.849   0.900   2.761  1.1676  0.2424 -1.9948
 6083TIP3    H218256   2.749   0.995   2.822  1.6957 -1.0447  1.0904
 6084TIP3   OH218257   4.896   0.096   1.135 -0.0132  0.7128  0.2405
 6084TIP3    H118258   4.868   0.015   1.093 -1.3094  1.4294 -0.3325
 6084TIP3    H218259   4.941   0.067   1.215 -0.2088 -0.5714 -0.0901
 6085TIP3   OH218260   4.749   1.398   2.519 -0.0827  0.8380  0.0818
 6085TIP3    H118261   4.762   1.423   2.428  0.1978  0.2017 -0.0628
 6085TIP3    H218262   4.660   1.426   2.540 -0.4990  0.1204 -0.6908
 6086TIP3   OH218263   5.160   1.015   3.505  0.8457  0.1359 -0.4277
 6086TIP3    H118264   5.216   0.952   3.460  0.0410 -0.1672 -1.0275
 6086TIP3    H218265   5.089   0.962   3.543  1.0845  0.4825  0.5353
 6087TIP3   OH218266   5.772   4.973   3.312  0.6437  0.0454 -0.4806
 6087TIP3    H118267   5.837   5.005   3.375 -0.1325  2.9194 -0.9765
 6087TIP3    H218268   5.693   4.959   3.365  0.7382 -0.1719 -0.3966
 6088TIP3   OH218269   1.584   3.489   2.122 -0.9900 -0.1153  0.1379
 6088TIP3    H118270   1.625   3.456   2.202 -0.2263  1.9087  0.6605
 6088TIP3    H218271   1.567   3.581   2.141 -1.1266  0.3248 -1.9009
 6089TIP3   OH218272   2.061   0.198   2.457  0.1740  0.2956 -0.2717
 6089TIP3    H118273   1.967   0.211   2.459 -0.1551 -1.7592  0.2759
 6089TIP3    H218274   2.096   0.263   2.517 -0.9130  0.8817 -0.2550
 6090TIP3   OH218275   1.461   3.535   2.675  0.2180 -0.1946  0.0474
 6090TIP3    H118276   1.410   3.501   2.748 -0.2582 -0.6422 -0.4755
 6090TIP3    H218277   1.396   3.549   2.605  0.6646  0.1938 -0.2959
 6091TIP3   OH218278   1.522   0.282   1.252 -1.1012 -0.3186  0.2914
 6091TIP3    H118279   1.440   0.329   1.266 -1.4953 -0.5742 -1.1191
 6091TIP3    H218280   1.497   0.192   1.233 -0.5588 -0.2043 -1.0588
 6092TIP3   OH218281   1.571   4.898   4.941 -0.6110 -0.3390  0.3824
 6092TIP3    H118282   1.604   4.962   4.877  2.2844 -0.8437  1.2343
 6092TIP3    H218283   1.526   4.952   5.007  2.1000  0.9775  1.2951
 6093TIP3   OH218284   5.208   0.687   2.872  0.1564  0.4320  0.5156
 6093TIP3    H118285   5.273   0.630   2.914  0.7640 -1.6474 -2.8498
 6093TIP3    H218286   5.124   0.651   2.900  0.4206  1.0075  2.2041
 6094TIP3   OH218287   5.514   1.021   4.495  0.3559 -0.0310  0.5265
 6094TIP3    H118288   5.556   1.026   4.409 -0.5786  1.1448  0.1247
 6094TIP3    H218289   5.479   1.109   4.510 -1.0052 -0.6879  1.3386
 6095TIP3   OH218290   2.579   5.850   4.506  0.2515 -0.6185  0.2769
 6095TIP3    H118291   2.634   5.926   4.525 -0.6655  0.1243  0.0400
 6095TIP3    H218292   2.495   5.871   4.546  0.1765 -1.8299  0.8239
 6096TIP3   OH218293   0.071   2.387   3.731  0.1298  0.9220 -0.1969
 6096TIP3    H118294   0.147   2.392   3.789  0.5486  3.0784 -0.8314
 6096TIP3    H218295   0.106   2.408   3.644 -1.1858  2.1252 -0.4748
 6097TIP3   OH218296   5.913   0.382   1.858 -0.2105  0.3947 -0.3308
 6097TIP3    H118297   5.935   0.403   1.767 -1.8710 -1.1346 -1.1701
 6097TIP3    H218298   5.935   0.289   1.867 -2.6769 -0.2638 -0.1556
 6098TIP3   OH218299   1.050   5.032   0.925 -0.2195  0.3052 -0.2619
 6098TIP3    H118300   1.037   5.099   0.992 -1.7354  0.8213 -1.0198
 6098TIP3    H218301   1.101   4.964   0.969  0.6667  1.5680  0.7654
 6099TIP3   OH218302   0.018   4.668   2.378 -0.1114 -0.1720  0.2292
 6099TIP3    H118303   0.098   4.616   2.379  1.0704  1.4463 -1.5350
 6099TIP3    H218304   0.039   4.745   2.431 -0.3481  0.4456 -0.5540
 6100TIP3   OH218305   0.892   0.132   2.884 -1.1008  0.0834  0.0800
 6100TIP3    H118306   0.908   0.169   2.970 -0.6028 -1.1093  0.5258
 6100TIP3    H218307   0.936   0.046   2.886 -1.9439 -0.4010 -1.0001
 6101TIP3   OH218308   6.056   5.295   1.922  0.0635 -0.0553 -0.5209
 6101TIP3    H118309   6.055   5.273   2.015  0.1944 -0.1374 -0.5394
 6101TIP3    H218310   5.985   5.358   1.912 -0.1356 -0.2602 -0.4168
 6102TIP3   OH218311   4.251   1.109   0.701 -0.0124 -0.3029  0.2785
 6102TIP3    H118312   4.302   1.054   0.760  0.6262 -0.8790 -0.7991
 6102TIP3    H218313   4.304   1.188   0.689  1.5448 -1.6166 -2.2236
 6103TIP3   OH218314   2.461   0.506   1.015  0.2958 -0.4157  0.2995
 6103TIP3    H118315   2.443   0.600   1.016 -1.3521 -0.6960 -0.0254
 6103TIP3    H218316   2.523   0.493   1.087  0.0965  0.8381  0.7304
 6104TIP3   OH218317   1.253   5.053   3.076  0.5184 -0.3966  0.0191
 6104TIP3    H118318   1.266   5.028   3.167 -0.9243 -0.8406  0.1270
 6104TIP3    H218319   1.207   4.979   3.037 -1.9957  1.1307 -0.1734
 6105TIP3   OH218320   5.829   5.860   2.156 -0.4094 -0.7523 -0.1804
 6105TIP3    H118321   5.792   5.862   2.068 -1.0072  0.4401  0.0809
 6105TIP3    H218322   5.755   5.835   2.212 -1.0623  2.1129  0.4069
 6106TIP3   OH218323   5.246   0.532   3.804 -0.3764  0.1735  0.0100
 6106TIP3    H118324   5.178   0.596   3.786  0.0800  0.0334 -2.7138
 6106TIP3    H218325   5.299   0.570   3.874 -0.6746  2.3400 -0.8859
 6107TIP3   OH218326   4.511   5.251   2.655  0.0459 -0.7088  0.2754
 6107TIP3    H118327   4.500   5.295   2.739 -1.2394 -0.0884 -0.1947
 6107TIP3    H218328   4.564   5.173   2.675 -1.9687 -1.7187  2.0643
 6108TIP3   OH218329   6.224   3.772   0.027  0.4126  0.0708  0.8509
 6108TIP3    H118330   6.250   3.862   0.047  0.6436  0.4616 -1.0688
 6108TIP3    H218331   6.301   3.734  -0.015 -1.3864  0.8125 -3.6085
 6109TIP3   OH218332   2.783   5.911   0.844 -0.8906  0.3559 -0.3710
 6109TIP3    H118333   2.741   5.994   0.864  0.6363  0.9290  0.6538
 6109TIP3    H218334   2.877   5.929   0.853 -0.5547 -1.6516  0.6806
 6110TIP3   OH218335   2.264   5.390   1.434 -0.2418 -0.1263  0.0486
 6110TIP3    H118336   2.195   5.365   1.495  0.1452 -1.7016 -0.1125
 6110TIP3    H218337   2.291   5.308   1.393 -0.0148  0.8010 -1.7504
 6111TIP3   OH218338   5.622   1.955   1.168 -0.2314 -0.4234 -0.4150
 6111TIP3    H118339   5.606   2.022   1.235 -0.3093 -1.6157  0.8068
 6111TIP3    H218340   5.688   1.994   1.111  0.0182  0.5524  0.4936
 6112TIP3   OH218341   5.196   5.588   4.829  0.2983  0.1782  0.6629
 6112TIP3    H118342   5.119   5.643   4.845  0.2595 -0.0909  1.4357
 6112TIP3    H218343   5.268   5.651   4.816 -0.0561  0.4321 -0.1577
 6113TIP3   OH218344   0.890   1.050   2.281 -0.2330 -0.4991  0.1107
 6113TIP3    H118345   0.939   1.130   2.300  0.0477 -0.5890 -0.2222
 6113TIP3    H218346   0.810   1.058   2.334 -0.5121  0.3014 -0.4105
 6114TIP3   OH218347   3.716   3.971   1.997 -0.3965 -0.2350  0.1890
 6114TIP3    H118348   3.736   3.894   2.050  1.0750 -0.5061 -0.7016
 6114TIP3    H218349   3.650   3.940   1.935  0.6817 -1.0181 -0.6164
 6115TIP3   OH218350   3.530   1.995   4.930  0.1524  0.3827 -0.0681
 6115TIP3    H118351   3.581   1.916   4.915 -0.6746 -0.0056 -0.9274
 6115TIP3    H218352   3.535   2.043   4.847 -1.0016  0.2556 -0.2323
 6116TIP3   OH218353   3.814   5.863   0.544 -0.1843 -0.7735  0.1065
 6116TIP3    H118354   3.746   5.821   0.597 -1.1465 -0.5403 -0.9109
 6116TIP3    H218355   3.812   5.955   0.572  1.0895 -1.1174  1.4664
 6117TIP3   OH218356   1.191   0.141   3.064  0.3942  0.0809  0.5316
 6117TIP3    H118357   1.252   0.196   3.014 -1.3227  0.1299 -1.6346
 6117TIP3    H218358   1.203   0.053   3.029 -0.4783  0.0186  0.3724
 6118TIP3   OH218359   2.507   1.447   1.366 -0.4442 -0.2631  0.0116
 6118TIP3    H118360   2.427   1.403   1.339 -1.3918  1.4488 -0.0835
 6118TIP3    H218361   2.490   1.475   1.456  0.0353  0.1332 -0.0191
 6119TIP3   OH218362   1.809   5.265   1.098  0.1906  0.2692  0.1624
 6119TIP3    H118363   1.726   5.274   1.051  0.0856  1.3725  0.5209
 6119TIP3    H218364   1.856   5.347   1.080  1.3652 -0.4829 -0.3268
 6120TIP3   OH218365   2.584   1.375   4.046  0.0084  0.2951 -0.1329
 6120TIP3    H118366   2.561   1.433   3.973  1.9062 -0.0419 -1.0510
 6120TIP3    H218367   2.505   1.322   4.060 -0.7899  1.1715 -1.1537
 6121TIP3   OH218368   5.725   4.087   2.133  0.0879  0.2706 -0.4059
 6121TIP3    H118369   5.683   4.138   2.202  0.3253 -0.8867  0.6234
 6121TIP3    H218370   5.657   4.026   2.104  0.4037 -0.1555 -0.2491
 6122TIP3   OH218371   0.424   5.501   1.276 -0.1885 -0.2385  0.0290
 6122TIP3    H118372   0.362   5.564   1.313 -0.5018 -0.9741  0.7821
 6122TIP3    H218373   0.389   5.416   1.300  0.8752 -0.6793  0.0604
 6123TIP3   OH218374   3.860   3.230   5.010  0.3458 -0.3989 -0.1707
 6123TIP3    H118375   3.799   3.304   5.007  0.4694 -0.3010 -0.2455
 6123TIP3    H218376   3.809   3.155   4.979  0.2448 -0.3291 -0.1718
 6124TIP3   OH218377   1.085   1.109   1.319 -0.4498  0.4720 -0.2876
 6124TIP3    H118378   1.143   1.100   1.244 -0.4775 -2.1716 -0.0828
 6124TIP3    H218379   0.999   1.126   1.281 -0.5037 -1.0555 -0.9177
 6125TIP3   OH218380   4.710   4.338   3.631 -0.0756 -0.4648  0.0760
 6125TIP3    H118381   4.679   4.401   3.697 -1.5347 -0.2596 -0.7652
 6125TIP3    H218382   4.764   4.276   3.681  0.0599  0.5174  1.2016
 6126TIP3   OH218383   2.676   0.092   4.063 -0.7127 -0.0113  0.0120
 6126TIP3    H118384   2.706   0.156   3.999 -1.6170  1.9579  1.4642
 6126TIP3    H218385   2.583   0.080   4.042 -0.2829 -1.8959 -1.0432
 6127TIP3   OH218386   2.828   3.311   4.910  0.4794  0.3460  0.0691
 6127TIP3    H118387   2.905   3.279   4.957  0.4450  0.5460  0.2609
 6127TIP3    H218388   2.758   3.310   4.975  0.0503 -0.8871 -0.3824
 6128TIP3   OH218389   5.077   1.173   3.130  0.9139 -0.2536 -0.1589
 6128TIP3    H118390   5.039   1.164   3.042  1.4902 -0.8585 -0.3493
 6128TIP3    H218391   5.001   1.181   3.188  0.5399  1.6879 -0.8578
 6129TIP3   OH218392   4.103   2.230   0.814 -0.1478 -0.1385  0.0928
 6129TIP3    H118393   4.018   2.228   0.770  0.0005  0.4025 -0.2306
 6129TIP3    H218394   4.105   2.150   0.866  0.0757 -1.3327 -1.6619
 6130TIP3   OH218395   1.808   0.105   4.371  0.1914 -0.5495 -0.5622
 6130TIP3    H118396   1.730   0.059   4.404  0.7879 -0.8264  0.5232
 6130TIP3    H218397   1.866   0.109   4.447 -0.8748  4.4603  0.3191
 6131TIP3   OH218398   5.370   1.414   3.961  0.4325 -0.8019 -0.0335
 6131TIP3    H118399   5.402   1.377   4.043 -0.2986 -1.0614  0.1466
 6131TIP3    H218400   5.369   1.340   3.900 -0.6437 -1.0113  0.2121
 6132TIP3   OH218401   2.407   0.961   3.448  0.6223  0.1051  0.3304
 6132TIP3    H118402   2.333   0.936   3.502  0.8945 -1.7565 -0.0642
 6132TIP3    H218403   2.474   0.990   3.510  0.4172 -0.5855  0.8899
 6133TIP3   OH218404   4.815   0.358   0.333  0.2648  0.6670 -0.2244
 6133TIP3    H118405   4.720   0.351   0.335  0.3817 -1.9071  0.5172
 6133TIP3    H218406   4.837   0.364   0.240 -0.5619 -2.5525 -0.7622
 6134TIP3   OH218407   4.061   0.746   1.826 -0.0822 -0.1321 -0.4535
 6134TIP3    H118408   4.149   0.709   1.824  0.9573  2.0830  0.9323
 6134TIP3    H218409   4.004   0.670   1.843  1.6446 -1.4507 -0.2472
 6135TIP3   OH218410   0.167   3.356   1.365 -0.2945 -0.1571  0.0567
 6135TIP3    H118411   0.188   3.448   1.348 -0.0913 -0.5761 -2.2769
 6135TIP3    H218412   0.152   3.318   1.279 -0.1489 -2.3909  0.9376
 6136TIP3   OH218413   1.778   1.202   2.965 -0.1415  0.1754  0.2083
 6136TIP3    H118414   1.802   1.292   2.942  2.2210 -0.3813  0.1652
 6136TIP3    H218415   1.799   1.195   3.058  0.7593 -0.6183 -0.0417
 6137TIP3   OH218416   5.402   0.504   3.426  0.1459  1.0201  0.2637
 6137TIP3    H118417   5.436   0.459   3.504 -0.5902 -1.2592 -0.6603
 6137TIP3    H218418   5.474   0.498   3.363  0.2838  1.7652  0.3443
 6138TIP3   OH218419   0.250   4.008   2.971 -0.1933 -0.6159 -0.5752
 6138TIP3    H118420   0.326   4.048   2.929  0.3214 -0.9165  0.0432
 6138TIP3    H218421   0.175   4.041   2.921  0.2907  0.2013 -0.7964
 6139TIP3   OH218422   3.450   1.843   1.486  0.0408 -0.1314  0.5806
 6139TIP3    H118423   3.356   1.821   1.484  0.4185 -1.8197 -0.7428
 6139TIP3    H218424   3.457   1.924   1.437 -0.7606  0.1521  0.9197
 6140TIP3   OH218425   5.099   3.826   3.021 -0.2349 -0.8436 -0.1252
 6140TIP3    H118426   5.141   3.743   2.997  0.2006 -0.3516 -1.1144
 6140TIP3    H218427   5.007   3.802   3.036 -0.2768 -1.3919 -1.1355
 6141TIP3   OH218428   5.707   2.603   4.585 -0.0049 -0.0889  0.5961
 6141TIP3    H118429   5.790   2.642   4.611 -1.0450  1.0245  2.4562
 6141TIP3    H218430   5.680   2.550   4.660 -0.8000 -0.7490 -0.1288
 6142TIP3   OH218431   5.400   4.783   1.582  0.1589  0.4377 -0.4978
 6142TIP3    H118432   5.440   4.839   1.515 -2.9009  2.1789 -1.1015
 6142TIP3    H218433   5.370   4.706   1.533  0.4983  0.3445 -0.5590
 6143TIP3   OH218434   4.313   2.993   2.314  0.0083  0.1146 -0.0896
 6143TIP3    H118435   4.372   2.921   2.290 -0.2404 -0.3536  0.6547
 6143TIP3    H218436   4.316   2.995   2.410 -0.6745  0.5225 -0.0728
 6144TIP3   OH218437   5.309   2.186   0.222 -0.3554 -0.8061  0.1309
 6144TIP3    H118438   5.214   2.171   0.216 -0.4158 -1.3144  1.8093
 6144TIP3    H218439   5.330   2.168   0.314  1.2692 -0.0601 -0.0686
 6145TIP3   OH218440   5.358   4.098   1.337 -0.1042 -0.3052 -0.6456
 6145TIP3    H118441   5.340   4.155   1.263  0.7680 -1.4033 -1.7360
 6145TIP3    H218442   5.342   4.010   1.304  3.2635 -1.0754 -0.5224
 6146TIP3   OH218443   4.981   4.962   5.066  0.6328  0.1885  0.7309
 6146TIP3    H118444   5.055   5.018   5.089 -0.5349  1.6908  1.0562
 6146TIP3    H218445   5.015   4.901   5.001  1.7068  2.0637 -0.5424
 6147TIP3   OH218446   4.342   5.391   4.867  0.5137  0.4797  0.2234
 6147TIP3    H118447   4.366   5.393   4.774  1.3627 -0.1992  0.4179
 6147TIP3    H218448   4.356   5.480   4.898 -2.7962  1.5862 -1.0053
 6148TIP3   OH218449   0.910   3.875   0.649 -0.5211  0.1113 -0.9914
 6148TIP3    H118450   0.985   3.861   0.707 -0.6758  0.1575 -0.7795
 6148TIP3    H218451   0.941   3.937   0.584 -0.1806 -0.3459 -1.2708
 6149TIP3   OH218452   1.274   0.270   2.034  0.1251  0.1223  0.0586
 6149TIP3    H118453   1.184   0.297   2.051 -0.0313 -0.8553  0.8980
 6149TIP3    H218454   1.325   0.351   2.042 -0.4087  0.3247  1.8411
 6150TIP3   OH218455   4.904   0.246   4.721 -0.1613  0.0953 -0.1484
 6150TIP3    H118456   4.895   0.166   4.669  1.5699  0.2141 -0.6804
 6150TIP3    H218457   4.975   0.227   4.783 -2.0256  0.0223  2.1311
 6151TIP3   OH218458   4.157   3.541   0.013  0.2590  0.4219 -0.3177
 6151TIP3    H118459   4.168   3.627   0.052 -0.6481  0.0910  0.7501
 6151TIP3    H218460   4.064   3.521   0.025  0.2752 -0.3570 -1.2997
 6152TIP3   OH218461   4.644   1.254   1.423 -0.2938  0.0594  0.1533
 6152TIP3    H118462   4.562   1.303   1.436 -0.3314  0.6502 -1.9204
 6152TIP3    H218463   4.713   1.317   1.442 -0.3455  0.4527 -0.8911
 6153TIP3   OH218464   0.337   5.720   0.800  0.1814  0.3141  0.5613
 6153TIP3    H118465   0.248   5.722   0.765 -0.9249  0.1829  3.1324
 6153TIP3    H218466   0.390   5.685   0.729 -1.8341  0.2882 -1.0170
 6154TIP3   OH218467   1.673   4.213   3.783  0.0725 -0.3181  0.1134
 6154TIP3    H118468   1.719   4.137   3.818  0.7087  0.0423  0.0985
 6154TIP3    H218469   1.679   4.279   3.852 -0.6851 -0.3575  0.2229
 6155TIP3   OH218470   5.346   0.877   2.211 -0.2868  0.0599  0.2759
 6155TIP3    H118471   5.278   0.870   2.277  0.7756 -0.8835  1.2913
 6155TIP3    H218472   5.338   0.967   2.179 -0.8191  0.5344  1.6753
 6156TIP3   OH218473   2.051   4.455   4.768  0.1007 -0.4111 -0.3258
 6156TIP3    H118474   2.030   4.488   4.856 -1.4597  0.2021 -0.8879
 6156TIP3    H218475   2.099   4.527   4.726 -0.2720 -0.2031 -0.3978
 6157TIP3   OH218476   3.156   2.848   5.114  0.1636 -0.2712 -0.0722
 6157TIP3    H118477   3.175   2.777   5.175  1.1585 -0.9747 -1.1899
 6157TIP3    H218478   3.118   2.917   5.170  0.1736 -1.2504  1.1837
 6158TIP3   OH218479   4.908   3.146   1.178  0.4469 -0.2613  0.3084
 6158TIP3    H118480   4.917   3.125   1.271 -0.5683  1.0006  0.7240
 6158TIP3    H218481   4.822   3.111   1.154  0.0195  0.7633  0.2721
 6159TIP3   OH218482   1.656   5.785   1.908  0.0435 -0.5014 -0.4123
 6159TIP3    H118483   1.693   5.727   1.841 -0.0224 -1.3251  0.2503
 6159TIP3    H218484   1.607   5.727   1.966  1.6920 -0.0823  1.4840
 6160TIP3   OH218485   1.644   0.428   0.225  0.2083 -0.5597  0.8079
 6160TIP3    H118486   1.617   0.513   0.259  0.2599 -0.1694 -0.0854
 6160TIP3    H218487   1.738   0.439   0.207 -0.2650  0.0185 -1.6001
 6161TIP3   OH218488   1.581   1.640   3.798  0.4850  0.4900 -0.4818
 6161TIP3    H118489   1.513   1.573   3.810 -0.5889  1.4946 -0.8083
 6161TIP3    H218490   1.663   1.592   3.808 -0.2381 -0.3860  2.0534
 6162TIP3   OH218491   2.790   3.273   2.224 -0.4929 -0.0624 -0.0823
 6162TIP3    H118492   2.765   3.366   2.219 -0.6308  0.1071  2.5511
 6162TIP3    H218493   2.709   3.225   2.208 -0.6298  0.2909 -0.4556
 6163TIP3   OH218494   1.218   2.444   4.715  0.6840 -0.4909 -0.3538
 6163TIP3    H118495   1.151   2.376   4.715  0.3992 -0.2236 -0.9305
 6163TIP3    H218496   1.256   2.441   4.803 -1.6115  0.8085  0.8110
 6164TIP3   OH218497   5.290   5.317   4.309 -0.4557  0.2721 -0.1032
 6164TIP3    H118498   5.212   5.314   4.254 -1.0396  1.8078  0.5628
 6164TIP3    H218499   5.262   5.365   4.387  0.6702 -0.7613  0.9852
 6165TIP3   OH218500   1.691   5.549   1.718 -0.2493  0.0877 -0.8411
 6165TIP3    H118501   1.636   5.506   1.653 -1.2624 -1.7668  1.0974
 6165TIP3    H218502   1.773   5.499   1.717  0.1754  0.7908 -1.4834
 6166TIP3   OH218503   3.022   5.538   0.862 -0.0745  0.0250  0.1750
 6166TIP3    H118504   3.089   5.536   0.794 -0.3864 -1.9190 -0.1431
 6166TIP3    H218505   3.052   5.474   0.927 -0.5247  0.7599  1.1263
 6167TIP3   OH218506   0.350   4.908   2.498 -0.7522 -0.4414 -0.6460
 6167TIP3    H118507   0.380   4.940   2.413 -1.1212 -0.7955 -0.9101
 6167TIP3    H218508   0.410   4.837   2.519  0.3011  0.6288  0.1128
 6168TIP3   OH218509   1.777   0.653   4.913 -0.0945 -0.0454 -0.0849
 6168TIP3    H118510   1.805   0.564   4.895 -0.2993 -0.0144 -0.5719
 6168TIP3    H218511   1.686   0.645   4.941 -0.2034  0.0324 -0.4076
 6169TIP3   OH218512   3.376   2.106   2.831 -0.4695  0.7894  0.2627
 6169TIP3    H118513   3.396   2.181   2.775  1.1038 -1.6669 -2.7669
 6169TIP3    H218514   3.282   2.093   2.822 -0.2701  0.4964 -1.9113
 6170TIP3   OH218515   3.351   3.872   3.903 -0.0366 -0.1374 -0.6895
 6170TIP3    H118516   3.398   3.844   3.824 -0.8352 -0.0827 -1.1922
 6170TIP3    H218517   3.379   3.810   3.970  0.5250 -0.2856 -1.0480
 6171TIP3   OH218518   5.329   4.453   1.758 -0.8214 -0.9061 -0.0644
 6171TIP3    H118519   5.344   4.424   1.668  2.5760  0.0100  0.0787
 6171TIP3    H218520   5.298   4.375   1.804  1.4732 -2.5536 -1.1540
 6172TIP3   OH218521   5.489   5.156   3.997  0.3629  0.1599  0.2070
 6172TIP3    H118522   5.412   5.175   3.944  0.5014 -0.1357 -0.1086
 6172TIP3    H218523   5.542   5.097   3.942  0.4970 -0.1738  0.6838
 6173TIP3   OH218524   0.731   4.429   4.425 -0.0899  0.2503  0.0754
 6173TIP3    H118525   0.695   4.341   4.431 -0.0143  0.3189  4.2089
 6173TIP3    H218526   0.656   4.484   4.404 -0.4974 -0.5863 -0.7129
 6174TIP3   OH218527   3.750   0.667   4.368 -0.1919  0.2729 -0.1081
 6174TIP3    H118528   3.706   0.743   4.407  1.6265  1.6696 -0.6539
 6174TIP3    H218529   3.684   0.629   4.309 -1.3474  1.0369  0.6573
 6175TIP3   OH218530   4.406   0.897   0.341 -0.0423 -0.3383  0.5778
 6175TIP3    H118531   4.312   0.899   0.363 -0.4662  0.5753 -1.1160
 6175TIP3    H218532   4.423   0.983   0.302  1.4377 -0.6056  0.5764
 6176TIP3   OH218533   5.001   1.631   0.511 -0.3084  0.1067  1.0025
 6176TIP3    H118534   4.983   1.569   0.581  0.7127 -0.3505  0.8732
 6176TIP3    H218535   5.027   1.576   0.437 -0.9517  0.6051  0.3916
 6177TIP3   OH218536   2.646   2.665   0.123 -0.4227 -0.3203 -0.1125
 6177TIP3    H118537   2.608   2.646   0.209 -0.1846 -0.4502 -0.0368
 6177TIP3    H218538   2.589   2.733   0.087 -0.5599 -0.3094  0.1215
 6178TIP3   OH218539   2.627   1.062   4.475 -0.0454 -0.0420 -0.2949
 6178TIP3    H118540   2.602   1.030   4.388 -0.4812 -0.5853  0.0146
 6178TIP3    H218541   2.690   0.997   4.507 -1.5847 -1.1514  0.6901
 6179TIP3   OH218542   5.341   1.958   4.513 -0.3118 -0.3654 -0.0378
 6179TIP3    H118543   5.339   1.948   4.418  1.7021  0.6029 -0.2481
 6179TIP3    H218544   5.270   2.019   4.533 -0.5447 -0.3164 -0.9839
 6180TIP3   OH218545   5.336   4.909   1.102 -0.1149  0.4667 -0.4172
 6180TIP3    H118546   5.294   4.874   1.181  0.1769  0.1423 -0.4041
 6180TIP3    H218547   5.323   4.842   1.035  0.8511  0.1103 -0.2665
 6181TIP3   OH218548   4.304   3.783   3.738  0.1087 -0.5111  0.0474
 6181TIP3    H118549   4.265   3.762   3.654  0.6716 -0.5868 -0.1952
 6181TIP3    H218550   4.231   3.780   3.800 -0.6043  1.0637 -0.6711
 6182TIP3   OH218551   1.962   4.276   3.875  0.1732 -0.6336  0.3756
 6182TIP3    H118552   1.961   4.322   3.791 -0.1994 -0.9573  0.1972
 6182TIP3    H218553   2.054   4.270   3.899  0.2398 -0.0064  0.2822
 6183TIP3   OH218554   0.366   2.587   1.076  0.2103  0.1560 -0.6017
 6183TIP3    H118555   0.426   2.658   1.102 -0.0315  0.2840 -0.3875
 6183TIP3    H218556   0.312   2.625   1.007  1.6327 -0.5446 -2.1574
 6184TIP3   OH218557   5.643   4.074   2.948 -0.1909 -0.2408  0.6059
 6184TIP3    H118558   5.581   4.098   2.880  1.6901  0.5000 -0.9439
 6184TIP3    H218559   5.605   3.996   2.989 -2.0918  0.1674 -0.2683
 6185TIP3   OH218560   3.702   0.881   3.874  0.6678 -0.0334 -0.6757
 6185TIP3    H118561   3.750   0.944   3.928  0.0095  2.1004 -2.4268
 6185TIP3    H218562   3.752   0.800   3.882  1.7895  0.7700  1.3712
 6186TIP3   OH218563   5.343   4.758   0.194  0.3577 -0.6178  0.3605
 6186TIP3    H118564   5.326   4.743   0.102 -0.7158  2.1262  0.0207
 6186TIP3    H218565   5.435   4.786   0.197 -0.2373  1.6155 -0.2888
 6187TIP3   OH218566   5.382   3.145   1.094 -0.3965  0.3122  0.7197
 6187TIP3    H118567   5.371   3.236   1.124  0.5126  0.3462  0.9733
 6187TIP3    H218568   5.452   3.150   1.030 -0.1520 -0.2561  0.9406
 6188TIP3   OH218569   6.074   1.418   0.330  0.2447  0.4435  0.2494
 6188TIP3    H118570   6.109   1.338   0.291 -0.4940 -0.0702  0.6033
 6188TIP3    H218571   6.151   1.471   0.350  0.6733  0.5813 -1.5731
 6189TIP3   OH218572   4.683   5.580   2.039  0.2261  0.0730 -0.0200
 6189TIP3    H118573   4.715   5.540   2.120 -1.9982  0.2636  1.0294
 6189TIP3    H218574   4.692   5.674   2.055 -1.0530  0.1358  0.4065
 6190TIP3   OH218575   3.501   0.725   2.326 -0.0222 -0.6052 -0.5372
 6190TIP3    H118576   3.572   0.673   2.289  0.3916 -0.6344  0.2751
 6190TIP3    H218577   3.440   0.739   2.253  1.0413 -0.1806 -1.3652
 6191TIP3   OH218578   1.362   3.677   4.134  0.3883  0.2091 -0.0542
 6191TIP3    H118579   1.433   3.616   4.116  1.0450  0.8515  0.3361
 6191TIP3    H218580   1.399   3.741   4.195 -0.5587  0.4819  0.2554
 6192TIP3   OH218581   1.044   5.237   1.456 -0.0046 -0.5895  0.2879
 6192TIP3    H118582   1.039   5.237   1.361 -1.2069  1.1849  0.3107
 6192TIP3    H218583   1.133   5.208   1.476  0.5996  0.0230 -1.4034
 6193TIP3   OH218584   1.715   4.867   3.823 -0.2422 -0.0871 -0.9693
 6193TIP3    H118585   1.742   4.915   3.901  0.8171 -2.0903 -0.0433
 6193TIP3    H218586   1.666   4.792   3.856 -0.3695 -0.6109 -2.2840
 6194TIP3   OH218587   1.868   2.404   2.580  0.3772 -0.3381  0.5808
 6194TIP3    H118588   1.868   2.429   2.488  1.2039 -1.1671  0.3319
 6194TIP3    H218589   1.776   2.393   2.603  0.0771  1.2563  0.2637
 6195TIP3   OH218590   6.233   5.869   3.504 -0.1567  0.4160  0.0211
 6195TIP3    H118591   6.280   5.839   3.426  1.2951  0.6175  0.7743
 6195TIP3    H218592   6.245   5.798   3.568  0.5352  1.1519  0.7481
 6196TIP3   OH218593   6.262   0.341   3.117  0.5233 -0.1061  0.0728
 6196TIP3    H118594   6.318   0.289   3.175 -0.7614 -0.2173  1.2795
 6196TIP3    H218595   6.213   0.276   3.067 -0.6492 -0.0964  1.1555
 6197TIP3   OH218596   0.876   1.358   2.265 -0.3692  0.1440  0.2722
 6197TIP3    H118597   0.798   1.316   2.230  0.3398 -0.2993 -0.8079
 6197TIP3    H218598   0.850   1.450   2.278 -0.8392  0.1850 -0.8416
 6198TIP3   OH218599   5.044   1.708   5.038  0.6651  0.0419 -0.2003
 6198TIP3    H118600   5.105   1.661   5.094 -0.1517 -0.4538  0.2920
 6198TIP3    H218601   5.061   1.801   5.056  0.0330 -0.1172  1.3019
 6199TIP3   OH218602   3.209   5.528   0.664  0.6799 -0.0379  0.0506
 6199TIP3    H118603   3.254   5.562   0.587  1.4106  1.5341  1.1224
 6199TIP3    H218604   3.277   5.520   0.731 -0.0640 -0.7117  0.7560
 6200TIP3   OH218605   4.081   1.759   0.962 -0.3396  0.0934  0.2702
 6200TIP3    H118606   4.000   1.788   0.920 -0.2355  0.0681  0.0482
 6200TIP3    H218607   4.071   1.783   1.054 -0.9106 -0.5665  0.3883
 6201TIP3   OH218608   2.236   4.907   0.470  0.4932  0.0715 -0.3731
 6201TIP3    H118609   2.284   4.979   0.511 -2.1905  1.2455  0.9729
 6201TIP3    H218610   2.197   4.859   0.543 -0.1805 -0.9542 -1.3684
 6202TIP3   OH218611   6.004   1.686   0.597 -0.1058  0.4664 -0.7857
 6202TIP3    H118612   6.083   1.633   0.604  0.0793  0.8003 -0.2349
 6202TIP3    H218613   5.953   1.664   0.676  1.1878  3.0135  0.9064
 6203TIP3   OH218614   4.469   4.861   1.781 -0.6748 -0.7157  0.2614
 6203TIP3    H118615   4.555   4.895   1.757  0.2190 -2.2040  1.2221
 6203TIP3    H218616   4.435   4.924   1.845 -0.5076  0.0986 -0.4342
 6204TIP3   OH218617   1.919   4.532   0.072  0.1568 -0.3848  0.5666
 6204TIP3    H118618   1.953   4.444   0.052 -1.0644 -0.7073 -0.2116
 6204TIP3    H218619   1.843   4.515   0.129  0.3263  0.2185  0.9778
 6205TIP3   OH218620   2.051   1.731   3.212 -0.6136 -0.6995  0.0150
 6205TIP3    H118621   1.981   1.672   3.241 -0.0402 -0.3850  2.2901
 6205TIP3    H218622   2.050   1.801   3.277  0.4688  0.3981 -1.1179
 6206TIP3   OH218623   4.360   4.368   4.974  0.0699 -0.1926 -0.0991
 6206TIP3    H118624   4.293   4.354   5.041  0.6204 -1.2508  0.2496
 6206TIP3    H218625   4.393   4.280   4.954 -0.1544  0.0725 -1.8420
 6207TIP3   OH218626   0.479   0.524   4.978  0.0353 -0.3789 -0.2506
 6207TIP3    H118627   0.440   0.554   5.060  0.3332 -0.2900 -0.1420
 6207TIP3    H218628   0.558   0.477   5.004  1.8146  2.1946 -0.6001
 6208TIP3   OH218629   1.932   3.369   0.147 -0.9701  0.0741  0.1431
 6208TIP3    H118630   1.955   3.289   0.099 -0.9059 -0.0304  0.3475
 6208TIP3    H218631   1.852   3.346   0.194  0.0174 -0.4633  1.6470
 6209TIP3   OH218632   0.755  -0.021   0.985 -0.2502  0.0366 -0.9980
 6209TIP3    H118633   0.699   0.040   0.937 -1.1051  1.0215  1.1213
 6209TIP3    H218634   0.821   0.035   1.025  0.1215 -0.6937 -0.5799
 6210TIP3   OH218635   1.386   4.268   1.651 -0.1376 -0.1415  0.3893
 6210TIP3    H118636   1.353   4.246   1.564 -1.2931 -0.6700  0.9373
 6210TIP3    H218637   1.332   4.341   1.680  1.5309  1.3594 -0.0926
 6211TIP3   OH218638   5.911   5.699   1.253  0.2174 -0.1541 -0.2452
 6211TIP3    H118639   5.847   5.652   1.200  1.2557 -1.3426 -0.4669
 6211TIP3    H218640   5.857   5.751   1.313 -0.9864 -1.8004  0.1849
 6212TIP3   OH218641   0.916   4.119   0.498  0.3461 -0.4771  0.1592
 6212TIP3    H118642   0.922   4.195   0.439  0.8922 -0.5917  0.0605
 6212TIP3    H218643   0.922   4.157   0.586 -2.0572 -0.1268  0.2590
 6213TIP3   OH218644   4.718   2.062   4.215 -0.9746 -0.1117 -0.0276
 6213TIP3    H118645   4.653   2.047   4.283 -1.2772  0.9248 -0.0710
 6213TIP3    H218646   4.726   2.157   4.210 -0.7969 -0.1805 -1.2898
 6214TIP3   OH218647   0.016   1.558   2.514  0.1994  0.0100  0.0659
 6214TIP3    H118648   0.072   1.528   2.443 -0.2354 -2.3303  0.6046
 6214TIP3    H218649  -0.045   1.485   2.528 -0.2530  0.7365  2.2669
 6215TIP3   OH218650   1.869   5.776   1.103 -0.1384 -0.0864  0.4391
 6215TIP3    H118651   1.956   5.810   1.082  0.0991 -0.0671  1.4099
 6215TIP3    H218652   1.809   5.839   1.062  0.3044  0.9497  1.3280
 6216TIP3   OH218653   1.438   5.735   1.497 -0.3041  0.3514 -0.1663
 6216TIP3    H118654   1.355   5.764   1.459 -1.1452  0.0807  1.3875
 6216TIP3    H218655   1.447   5.785   1.577 -1.4480 -2.9537  2.2376
 6217TIP3   OH218656   0.642   3.831   2.840 -0.4185 -0.2583 -0.2417
 6217TIP3    H118657   0.703   3.900   2.815 -1.4213  0.1535 -1.7205
 6217TIP3    H218658   0.636   3.775   2.762  0.5303 -2.1789  0.9853
 6218TIP3   OH218659   1.248   0.788   4.529  0.3310 -0.0542 -0.1909
 6218TIP3    H118660   1.246   0.861   4.467  1.4661 -0.5856 -0.8879
 6218TIP3    H218661   1.253   0.829   4.615  0.5284  0.6877 -0.5541
 6219TIP3   OH218662   2.137   5.464   4.823  0.3897 -0.1678  0.5210
 6219TIP3    H118663   2.196   5.536   4.804  0.3389 -0.5475 -1.3466
 6219TIP3    H218664   2.177   5.417   4.896  1.8516  0.1901 -0.0274
 6220TIP3   OH218665   1.195   5.781   1.382  0.0406  0.2865  0.5957
 6220TIP3    H118666   1.127   5.720   1.354 -0.0629  0.7627 -0.2141
 6220TIP3    H218667   1.147   5.858   1.413  0.2043  0.7104 -0.1830
 6221TIP3   OH218668   6.244   2.252   1.508  0.6597  0.5032  0.3199
 6221TIP3    H118669   6.215   2.284   1.423  1.3263  0.1491 -0.0562
 6221TIP3    H218670   6.311   2.186   1.487 -1.1788 -1.7378  1.0090
 6222TIP3   OH218671   0.487   4.643   2.464  0.5923 -0.0280  0.1719
 6222TIP3    H118672   0.501   4.555   2.501 -0.2412  0.9691  3.0787
 6222TIP3    H218673   0.575   4.672   2.439  1.5666 -0.1624  3.0393
 6223TIP3   OH218674   0.645   2.505   4.040  0.7635  0.4192  0.4455
 6223TIP3    H118675   0.673   2.414   4.050  1.6967  0.5402 -0.7951
 6223TIP3    H218676   0.666   2.546   4.124  2.6395  0.0313  0.2170
 6224TIP3   OH218677   2.089   4.743   0.628 -0.8229  0.6247  0.5744
 6224TIP3    H118678   2.000   4.754   0.662 -0.6272 -0.9972  1.7018
 6224TIP3    H218679   2.080   4.676   0.560 -0.4181  0.2072  0.9284
 6225TIP3   OH218680   4.357   2.877   0.325  0.5638 -1.3595  0.1659
 6225TIP3    H118681   4.345   2.971   0.324  1.1670 -1.2650  0.8032
 6225TIP3    H218682   4.361   2.852   0.233  0.8382 -0.7039 -0.0046
 6226TIP3   OH218683   5.170   4.121   0.177 -0.3782  0.0651  0.2702
 6226TIP3    H118684   5.265   4.132   0.169 -0.5985  2.5274  0.2897
 6226TIP3    H218685   5.153   4.121   0.271 -0.4130 -0.5907  0.2736
 6227TIP3   OH218686   4.457   2.448   4.052  0.2391 -0.3966  0.1536
 6227TIP3    H118687   4.529   2.499   4.016 -0.0775 -0.0946 -0.0612
 6227TIP3    H218688   4.443   2.483   4.140  1.4960 -1.6257  0.8750
 6228TIP3   OH218689   2.190   1.027   4.721  1.0496 -0.2906 -0.2333
 6228TIP3    H118690   2.187   1.113   4.678  0.3149 -0.0249  0.3354
 6228TIP3    H218691   2.151   1.041   4.807  0.0037 -1.4066 -0.5000
 6229TIP3   OH218692   3.078   4.729   5.186 -0.0278 -0.0001 -0.3236
 6229TIP3    H118693   3.026   4.679   5.124  0.1806 -0.4688 -0.1203
 6229TIP3    H218694   3.168   4.720   5.155  0.0029  0.3053 -0.3265
 6230TIP3   OH218695   1.448   0.232   0.306 -0.6772  0.2521 -0.3704
 6230TIP3    H118696   1.475   0.141   0.321 -0.6967 -0.0465 -1.9967
 6230TIP3    H218697   1.519   0.270   0.254 -0.9518  0.9953 -0.2102
 6231TIP3   OH218698   2.388   4.798   1.470  0.0592 -0.5093 -0.0292
 6231TIP3    H118699   2.326   4.731   1.498 -0.8605 -0.0370 -0.8783
 6231TIP3    H218700   2.336   4.878   1.462  1.1356  0.3247  0.9273
 6232TIP3   OH218701   4.811   4.448   1.168 -0.3184 -0.3860  0.0004
 6232TIP3    H118702   4.810   4.449   1.073 -1.4692  0.6361 -0.0037
 6232TIP3    H218703   4.787   4.358   1.192  0.7966 -0.8739 -0.6497
 6233TIP3   OH218704   3.468   0.504   2.734  0.0967  0.2033 -0.2778
 6233TIP3    H118705   3.413   0.457   2.797  0.4248  0.6271  0.3397
 6233TIP3    H218706   3.486   0.588   2.776 -0.0898  0.7008 -1.1657
 6234TIP3   OH218707   5.075   3.255   2.532 -0.3532  0.3192  0.6998
 6234TIP3    H118708   5.139   3.210   2.588 -1.6307  0.3198  2.2507
 6234TIP3    H218709   5.117   3.339   2.511  0.7668 -0.2948  0.4103
 6235TIP3   OH218710   0.290   0.247   3.642  0.0027 -0.0380 -0.5976
 6235TIP3    H118711   0.258   0.323   3.593  0.0938 -0.4293 -1.2780
 6235TIP3    H218712   0.236   0.175   3.611 -0.0914 -0.2476  0.0596
 6236TIP3   OH218713   0.935   1.563   1.477  0.8601  0.2525 -0.1357
 6236TIP3    H118714   1.017   1.600   1.511  1.9519 -1.3502 -0.8907
 6236TIP3    H218715   0.963   1.488   1.424 -1.2123 -1.6081  1.2370
 6237TIP3   OH218716   0.551   4.591   4.740 -0.1470  0.4284 -0.0352
 6237TIP3    H118717   0.635   4.631   4.762 -0.7929  0.7474  2.0530
 6237TIP3    H218718   0.499   4.662   4.703  0.1817  0.4374 -0.4950
 6238TIP3   OH218719   0.145   4.819   1.325  0.3712  0.2968  0.2844
 6238TIP3    H118720   0.225   4.837   1.276  1.4467  0.2119  1.9339
 6238TIP3    H218721   0.134   4.724   1.318  0.2023  0.3525 -0.2422
 6239TIP3   OH218722   2.656   5.572   2.125  0.3724  0.0952 -0.0416
 6239TIP3    H118723   2.734   5.556   2.073  0.8630  0.0264  0.7106
 6239TIP3    H218724   2.610   5.488   2.127  0.4006  0.0750 -0.2824
 6240TIP3   OH218725   2.509   2.106   1.097  0.3903 -0.1913 -0.0981
 6240TIP3    H118726   2.569   2.180   1.094 -1.7005  1.6396  0.4983
 6240TIP3    H218727   2.511   2.070   1.009 -1.3637  3.0677 -1.6484
 6241TIP3   OH218728   1.750   2.677   3.421  0.0589 -0.0873 -0.7546
 6241TIP3    H118729   1.806   2.602   3.402  1.1817  0.7796 -0.9240
 6241TIP3    H218730   1.766   2.697   3.513  1.6771  1.4657 -1.3226
 6242TIP3   OH218731   0.960   4.500   1.283 -0.1054  0.3296 -0.3964
 6242TIP3    H118732   0.892   4.520   1.219 -1.1901 -0.3795  0.4899
 6242TIP3    H218733   0.982   4.585   1.322  0.9342  0.8391 -2.0137
 6243TIP3   OH218734   5.985   0.142   3.613 -0.0647 -0.3549 -0.3508
 6243TIP3    H118735   5.955   0.066   3.564 -0.1274 -0.7298  0.2568
 6243TIP3    H218736   6.079   0.126   3.628  0.0205 -0.1006 -0.6005
 6244TIP3   OH218737   0.971   2.428   3.204 -0.3880  0.0489 -0.1000
 6244TIP3    H118738   0.946   2.454   3.115  1.8721  0.9712 -0.5219
 6244TIP3    H218739   0.888   2.417   3.250 -1.5888  2.8499 -1.3979
 6245TIP3   OH218740   2.664   4.625   2.932  0.2426  0.1506  0.4928
 6245TIP3    H118741   2.600   4.584   2.874 -0.1591 -0.9868  1.6764
 6245TIP3    H218742   2.705   4.552   2.978 -0.5654  1.0246  2.7662
 6246TIP3   OH218743   3.626   1.560   2.942  0.2079  0.2646 -0.3966
 6246TIP3    H118744   3.599   1.651   2.944  1.0302  0.4998  0.6590
 6246TIP3    H218745   3.545   1.512   2.921 -0.6121  1.0894  0.7627
 6247TIP3   OH218746   0.054   2.966   2.303  0.1527  0.2582 -0.3764
 6247TIP3    H118747  -0.004   3.008   2.366  0.5619 -0.2125  0.3196
 6247TIP3    H218748   0.110   3.036   2.271  1.1276  0.1934  1.1029
 6248TIP3   OH218749   2.567   5.279   0.077 -0.7802  0.2090 -0.2928
 6248TIP3    H118750   2.595   5.370   0.066  1.5125 -0.2812  0.7405
 6248TIP3    H218751   2.497   5.284   0.143 -1.3452  1.2823 -0.9361
 6249TIP3   OH218752   4.743   0.541   2.756 -0.1763  0.8436 -0.6944
 6249TIP3    H118753   4.708   0.454   2.775  0.1468  0.7000 -0.7410
 6249TIP3    H218754   4.714   0.559   2.666 -0.0800  0.6996 -0.7552
 6250TIP3   OH218755   4.818   5.130   3.429  0.3801  0.2451  0.0863
 6250TIP3    H118756   4.792   5.177   3.507  0.7721  1.9384 -0.7549
 6250TIP3    H218757   4.891   5.181   3.393  0.9486 -1.1040 -0.7949
 6251TIP3   OH218758   5.998   4.001   1.668  0.0883 -0.4487 -0.1253
 6251TIP3    H118759   5.950   4.064   1.614  1.6120  0.1782 -0.7954
 6251TIP3    H218760   6.028   3.934   1.607 -0.8186 -1.4075  0.4589
 6252TIP3   OH218761   2.529   0.686   1.643 -0.3086  0.6827 -0.1011
 6252TIP3    H118762   2.585   0.608   1.640 -1.2638 -0.1332  1.8320
 6252TIP3    H218763   2.441   0.653   1.625 -0.7975  1.2259  1.2283
 6253TIP3   OH218764   1.476   4.221   3.576  0.3548  0.2062 -0.8721
 6253TIP3    H118765   1.500   4.221   3.484  0.5461  2.6827 -0.8916
 6253TIP3    H218766   1.556   4.196   3.622  0.9196  1.1595 -1.3036
 6254TIP3   OH218767   2.082   1.894   2.320 -0.0297  0.0254 -0.5588
 6254TIP3    H118768   2.091   1.866   2.229 -0.2662 -0.2698 -0.4931
 6254TIP3    H218769   1.988   1.899   2.334 -0.0056  1.4326 -0.7406
 6255TIP3   OH218770   3.355   5.927   1.814 -0.3052  0.0024  0.3202
 6255TIP3    H118771   3.410   5.851   1.833  0.8883  0.9387  0.7077
 6255TIP3    H218772   3.338   5.921   1.720  2.5692  0.9977 -0.3738
 6256TIP3   OH218773   5.655   2.440   4.069 -0.5194  0.6334 -0.1509
 6256TIP3    H118774   5.646   2.508   4.136  0.2658  1.8281 -1.2174
 6256TIP3    H218775   5.749   2.426   4.062 -0.6428 -0.0779 -0.4297
 6257TIP3   OH218776   5.392   1.407   1.974 -0.6135 -0.6707  0.3888
 6257TIP3    H118777   5.420   1.491   1.937 -0.7485 -0.2757  1.1724
 6257TIP3    H218778   5.399   1.345   1.901 -1.6160  0.2456 -0.5109
 6258TIP3   OH218779   1.164   3.670   3.281 -0.3462 -0.0351  0.3042
 6258TIP3    H118780   1.138   3.675   3.373  0.7527 -0.4936  0.6611
 6258TIP3    H218781   1.122   3.590   3.249 -1.2835  0.4865  0.2128
 6259TIP3   OH218782   5.365   0.080   0.320 -0.6459 -0.2439 -0.1526
 6259TIP3    H118783   5.357   0.166   0.362  0.2582  0.0198 -0.4754
 6259TIP3    H218784   5.336   0.096   0.230  1.8071  0.3725 -0.9248
 6260TIP3   OH218785   0.906   4.347   4.226  0.1564  0.4808 -0.3088
 6260TIP3    H118786   0.996   4.379   4.232  0.7525 -1.2791  0.6657
 6260TIP3    H218787   0.857   4.402   4.287  1.4820 -1.3227  2.6180
 6261TIP3   OH218788   0.083   2.144   2.942  0.1633 -0.1182  0.1961
 6261TIP3    H118789  -0.006   2.141   2.907  0.7531 -0.5426 -1.3442
 6261TIP3    H218790   0.083   2.219   3.001 -0.5047  1.6127 -1.8571
 6262TIP3   OH218791   1.841   0.756   1.615 -0.0695 -0.2797  0.3601
 6262TIP3    H118792   1.870   0.771   1.705 -0.1354 -0.6860  0.4501
 6262TIP3    H218793   1.747   0.738   1.623 -0.8260  2.7998 -0.0914
 6263TIP3   OH218794   3.140   0.647   3.122  0.2094 -0.4927 -0.4075
 6263TIP3    H118795   3.196   0.570   3.114 -0.0963 -0.5361 -2.6606
 6263TIP3    H218796   3.198   0.714   3.159  2.1347 -0.3101 -3.3422
 6264TIP3   OH218797   0.337   5.275   1.486 -0.1048 -0.4867 -0.0059
 6264TIP3    H118798   0.418   5.281   1.536  0.6391  0.5107 -1.2447
 6264TIP3    H218799   0.295   5.360   1.498 -1.0202 -1.0189  0.6737
 6265TIP3   OH218800   3.435   0.329   0.095 -0.4975 -0.1231 -0.6296
 6265TIP3    H118801   3.418   0.288   0.010  0.2197 -1.5228 -0.1172
 6265TIP3    H218802   3.390   0.273   0.158 -1.1516  0.9899 -0.0725
 6266TIP3   OH218803   5.826   5.146   0.543  0.2048  0.3247  0.0262
 6266TIP3    H118804   5.902   5.091   0.524 -0.4358  0.1687 -2.4300
 6266TIP3    H218805   5.795   5.174   0.457 -2.0182  1.0879  1.0138
 6267TIP3   OH218806   4.652   0.208   2.425 -0.1395 -0.4075 -0.4239
 6267TIP3    H118807   4.691   0.121   2.429 -0.4143 -0.4872  1.2003
 6267TIP3    H218808   4.559   0.193   2.412 -0.0669 -0.3056 -1.1301
 6268TIP3   OH218809   1.773   3.554   4.257  0.3721  0.3209 -0.3130
 6268TIP3    H118810   1.826   3.476   4.242  0.7879  0.0913  2.0272
 6268TIP3    H218811   1.813   3.620   4.200  0.2600 -1.0200 -2.0362
 6269TIP3   OH218812   2.156   4.708   1.585 -0.2002 -0.3007 -0.5351
 6269TIP3    H118813   2.109   4.695   1.667 -1.0918 -0.0694 -0.9914
 6269TIP3    H218814   2.173   4.619   1.553 -0.8266 -0.3879 -0.6368
 6270TIP3   OH218815   2.227   5.134   1.843  0.1706  0.0080 -0.3586
 6270TIP3    H118816   2.220   5.073   1.916  0.1104  0.6002  0.1387
 6270TIP3    H218817   2.243   5.219   1.885 -0.6974  0.4956 -0.9947
 6271TIP3   OH218818   0.398   3.155   2.748  0.0606  0.5645  0.0154
 6271TIP3    H118819   0.408   3.250   2.744  0.2834  0.5697  0.6415
 6271TIP3    H218820   0.485   3.120   2.729 -0.0707  0.4701 -0.4510
 6272TIP3   OH218821   4.197   4.950   3.610 -0.1738 -0.2915  0.6952
 6272TIP3    H118822   4.145   4.890   3.556 -0.0818  1.2107 -1.1395
 6272TIP3    H218823   4.286   4.939   3.578 -0.1448  0.7385  0.3847
 6273TIP3   OH218824   0.652   3.757   5.160 -0.2133 -0.0576  0.0278
 6273TIP3    H118825   0.635   3.694   5.230  1.7338 -2.3309 -1.3731
 6273TIP3    H218826   0.645   3.706   5.080 -0.6298  2.0586 -1.3659
 6274TIP3   OH218827   6.227   3.181   5.015 -0.8362 -0.4325  0.1556
 6274TIP3    H118828   6.287   3.223   4.954  0.2923 -0.1128  1.4448
 6274TIP3    H218829   6.220   3.091   4.983 -0.1455 -0.3140 -0.3492
 6275TIP3   OH218830   5.018   3.444   3.439 -0.4793  0.3678 -0.3951
 6275TIP3    H118831   4.973   3.420   3.520  0.4256  1.1740  0.3747
 6275TIP3    H218832   5.075   3.517   3.464  0.3454  0.1652 -1.6002
 6276TIP3   OH218833   1.742   4.363   3.565 -0.4416  0.0115  0.0200
 6276TIP3    H118834   1.670   4.425   3.559  1.5203  2.5278  0.6846
 6276TIP3    H218835   1.718   4.305   3.637 -1.4144  1.3697  0.8451
 6277TIP3   OH218836   1.913   0.947   1.438  0.0881 -0.0215 -0.0394
 6277TIP3    H118837   1.887   1.008   1.506  4.1493  0.7255  1.1125
 6277TIP3    H218838   1.890   0.860   1.473  0.5648  0.4622  1.5469
 6278TIP3   OH218839   4.835   0.397   0.966 -0.3897  0.3244 -0.1574
 6278TIP3    H118840   4.904   0.429   0.908 -1.2858  0.7978 -0.9943
 6278TIP3    H218841   4.791   0.328   0.916 -1.9334  1.5476 -0.5613
 6279TIP3   OH218842   1.203   1.894   3.913 -0.2640  0.7410 -0.3717
 6279TIP3    H118843   1.230   1.901   3.821 -0.8314  0.3432 -0.5786
 6279TIP3    H218844   1.271   1.840   3.954 -0.2949  0.4556 -0.6889
 6280TIP3   OH218845   5.163   1.855   2.027  0.0943 -0.6532 -0.1693
 6280TIP3    H118846   5.139   1.764   2.044 -0.3924 -0.6685 -0.9055
 6280TIP3    H218847   5.135   1.871   1.937 -3.0161  1.2092  0.9401
 6281TIP3   OH218848   4.277   2.010   1.081  0.0285  0.0824 -0.6076
 6281TIP3    H118849   4.307   2.008   1.172  1.3593  0.1580 -1.0192
 6281TIP3    H218850   4.196   1.958   1.081  0.0693 -0.0030  0.5939
 6282TIP3   OH218851   4.852   4.366   5.121  0.0374  0.6392 -0.0311
 6282TIP3    H118852   4.898   4.347   5.038 -1.1403  0.3693 -0.6389
 6282TIP3    H218853   4.773   4.412   5.094 -0.0085  1.1888  1.0204
 6283TIP3   OH218854   4.922   0.422   4.421 -0.1338 -0.0034  0.0166
 6283TIP3    H118855   4.874   0.462   4.494  0.4987  0.1783  0.3324
 6283TIP3    H218856   5.005   0.395   4.459  0.0654 -0.2079 -0.5637
 6284TIP3   OH218857   5.597   5.442   3.950  0.1406  0.3948 -0.0361
 6284TIP3    H118858   5.502   5.440   3.936 -0.0658 -2.0853  1.2606
 6284TIP3    H218859   5.610   5.402   4.036  2.4916 -2.0194 -1.3606
 6285TIP3   OH218860   1.792   0.292   2.477 -0.4235 -0.5066 -0.1429
 6285TIP3    H118861   1.762   0.231   2.410 -0.2713 -1.0929  0.3074
 6285TIP3    H218862   1.753   0.260   2.558 -2.0504  1.2251 -0.1901
 6286TIP3   OH218863   4.638   0.856   0.474 -0.0984 -0.0776  0.3276
 6286TIP3    H118864   4.645   0.789   0.542 -1.4407 -0.6185 -0.0299
 6286TIP3    H218865   4.544   0.873   0.467  0.2108  1.8332  0.3766
 6287TIP3   OH218866   2.961   1.809   1.876 -1.4095 -0.4092 -0.4198
 6287TIP3    H118867   3.003   1.762   1.948 -0.5291  0.9703  0.0183
 6287TIP3    H218868   2.930   1.891   1.915 -0.7295  0.4637 -1.6317
 6288TIP3   OH218869   0.807   2.359   1.725  0.1322 -0.4255  0.1251
 6288TIP3    H118870   0.724   2.404   1.706 -0.2350 -0.6950  1.0456
 6288TIP3    H218871   0.782   2.282   1.775  0.8123 -1.3729 -0.9322
 6289TIP3   OH218872   6.355   5.983   4.337  0.1484 -0.7303  0.3098
 6289TIP3    H118873   6.311   6.032   4.407 -0.8548  1.0351 -1.4796
 6289TIP3    H218874   6.334   5.891   4.356 -1.4150 -0.1836  1.4566
 6290TIP3   OH218875   2.585   0.128   2.467  0.4233  0.0204  0.2905
 6290TIP3    H118876   2.648   0.059   2.487  0.5263 -0.2260 -0.8381
 6290TIP3    H218877   2.513   0.112   2.528  0.5880 -0.8931  0.2620
 6291TIP3   OH218878   5.703   2.153   5.148 -0.2197 -0.0962 -0.2124
 6291TIP3    H118879   5.794   2.154   5.120 -0.5279 -3.0992 -1.7504
 6291TIP3    H218880   5.703   2.101   5.228 -0.6147 -0.4361 -0.4282
 6292TIP3   OH218881   5.435   1.565   3.429  0.2215 -0.2456 -0.0047
 6292TIP3    H118882   5.449   1.478   3.466 -1.9030 -0.9685 -0.7747
 6292TIP3    H218883   5.481   1.564   3.346  0.9894 -0.2745  0.4080
 6293TIP3   OH218884   0.964   1.854   5.006  0.1354  0.1558  0.8534
 6293TIP3    H118885   0.946   1.932   5.059  0.1005  0.2163  0.7529
 6293TIP3    H218886   1.059   1.854   4.995 -0.0006  1.1474 -0.6005
 6294TIP3   OH218887   3.035   3.825   1.830  0.2172  0.4872  0.0950
 6294TIP3    H118888   2.968   3.772   1.873  0.3625 -1.8750 -2.3610
 6294TIP3    H218889   3.111   3.820   1.888 -0.0966 -1.2375  0.3948
 6295TIP3   OH218890   1.438   2.295   1.663  0.3882 -0.1503  0.0614
 6295TIP3    H118891   1.429   2.389   1.646  0.3569  0.1950  1.7219
 6295TIP3    H218892   1.350   2.265   1.682  0.5544 -0.2249  0.7593
 6296TIP3   OH218893   2.138   5.165   2.108  0.2120  0.3736  0.2545
 6296TIP3    H118894   2.130   5.171   2.203  1.7694  1.1110  0.3660
 6296TIP3    H218895   2.196   5.238   2.084 -1.1076  0.9509 -1.4042
 6297TIP3   OH218896   3.912   3.143   2.951  0.1760 -0.0035  0.3686
 6297TIP3    H118897   3.897   3.049   2.943 -1.3452  0.2559 -0.2376
 6297TIP3    H218898   3.861   3.169   3.027 -2.3600  0.8405 -1.4737
 6298TIP3   OH218899   3.078   0.937   3.684 -0.5162  0.2214 -0.2618
 6298TIP3    H118900   3.148   0.876   3.662 -1.1887 -0.4840 -0.5019
 6298TIP3    H218901   3.059   0.918   3.776 -0.3121  0.4996 -0.1605
 6299TIP3   OH218902   2.674   0.785   3.559 -0.4415 -0.2954 -0.1162
 6299TIP3    H118903   2.742   0.843   3.525 -0.0805  0.0184  1.0919
 6299TIP3    H218904   2.644   0.828   3.640  0.5627 -2.2643  1.3927
 6300TIP3   OH218905   3.186   2.782   1.287 -0.0061  0.3080  0.4565
 6300TIP3    H118906   3.119   2.850   1.288 -0.3010  0.0273 -0.0905
 6300TIP3    H218907   3.147   2.709   1.239  1.1258  0.6013 -0.9877
 6301TIP3   OH218908   5.238   0.337   2.452 -0.1141  0.1298  0.3345
 6301TIP3    H118909   5.196   0.262   2.496 -0.1913 -0.7319 -1.1196
 6301TIP3    H218910   5.165   0.397   2.434 -0.5536 -0.7241 -0.9248
 6302TIP3   OH218911   5.448   4.022   2.782  0.8266 -0.1388  0.5743
 6302TIP3    H118912   5.394   4.057   2.712  0.2408  0.1642  1.1683
 6302TIP3    H218913   5.393   3.958   2.826  1.6394 -1.3078 -0.0377
 6303TIP3   OH218914   2.711   2.594   3.378  0.1678 -0.0239 -0.1572
 6303TIP3    H118915   2.716   2.524   3.313  0.3830  0.0637 -0.2352
 6303TIP3    H218916   2.628   2.637   3.359  0.6033  0.5145 -0.9056
 6304TIP3   OH218917   5.303   3.214   1.367 -0.5140  0.1771 -0.2240
 6304TIP3    H118918   5.353   3.148   1.320 -0.2641  0.6046 -0.5715
 6304TIP3    H218919   5.303   3.290   1.309  1.1429  1.2657  1.0745
 6305TIP3   OH218920   5.091   5.082   2.899  1.0655 -0.3632  0.1889
 6305TIP3    H118921   5.063   5.091   2.808  0.8441  1.2106  0.3931
 6305TIP3    H218922   5.010   5.072   2.949  0.9941  1.3592  0.4691
 6306TIP3   OH218923   4.653   1.534   3.438 -0.0745  0.1753 -0.5353
 6306TIP3    H118924   4.673   1.451   3.481 -1.5883  0.9591  1.8751
 6306TIP3    H218925   4.738   1.578   3.429  0.4608 -0.6597  0.2836
 6307TIP3   OH218926   2.625   3.322   0.605 -0.2397  0.5057 -0.4697
 6307TIP3    H118927   2.550   3.264   0.596 -0.5917  0.5591  1.5249
 6307TIP3    H218928   2.652   3.342   0.515 -0.1349 -2.6412 -1.2283
 6308TIP3   OH218929   5.725   1.822   1.522  0.3506 -0.4281  0.2889
 6308TIP3    H118930   5.649   1.873   1.549 -0.7126 -0.7203 -1.9429
 6308TIP3    H218931   5.695   1.731   1.522  0.5384 -0.5122 -0.9946
 6309TIP3   OH218932   5.174   1.938   5.097  0.3267 -0.1115  0.4222
 6309TIP3    H118933   5.138   1.997   5.030  1.9411  1.2297  0.6617
 6309TIP3    H218934   5.237   1.993   5.144  1.8337 -2.0241  0.7261
 6310TIP3   OH218935   4.067   2.608   1.906 -0.7998  0.6539 -0.2557
 6310TIP3    H118936   4.019   2.646   1.833  0.3844  1.8660 -0.4333
 6310TIP3    H218937   4.153   2.587   1.871 -0.5837  0.2082  0.5090
 6311TIP3   OH218938   5.839   1.030   1.179  0.6429  0.0632 -0.3481
 6311TIP3    H118939   5.825   1.116   1.139 -0.1140  0.9797  1.7772
 6311TIP3    H218940   5.774   0.973   1.137  0.6450  0.7019 -1.2394
 6312TIP3   OH218941   1.106   1.391   1.339  0.1630 -0.4085  0.0227
 6312TIP3    H118942   1.178   1.399   1.277  0.8927  0.8103  0.9859
 6312TIP3    H218943   1.111   1.300   1.370 -0.7740 -1.3269 -2.2894
 6313TIP3   OH218944   4.124   4.677   2.640  0.2275  0.2033  0.5938
 6313TIP3    H118945   4.036   4.713   2.655 -0.2743  0.4779 -2.3651
 6313TIP3    H218946   4.109   4.601   2.583  1.9438  0.7746 -0.6907
 6314TIP3   OH218947   6.254   5.642   3.638 -0.5594  0.7229  0.3259
 6314TIP3    H118948   6.160   5.658   3.649 -0.9058 -0.7336 -0.3073
 6314TIP3    H218949   6.264   5.547   3.646  0.5474  0.6039 -1.7636
 6315TIP3   OH218950   0.597   5.844   0.662  0.3451 -0.1454 -1.1157
 6315TIP3    H118951   0.507   5.867   0.639  0.0902 -2.5673 -2.9922
 6315TIP3    H218952   0.639   5.823   0.578  2.0096 -1.1657 -0.1020
 6316TIP3   OH218953   6.304   5.056   2.828 -0.2990 -0.2291 -0.0914
 6316TIP3    H118954   6.214   5.065   2.797 -0.4639  0.9626  0.6949
 6316TIP3    H218955   6.336   5.145   2.837 -0.1036 -0.4917  2.6514
 6317TIP3   OH218956   4.709   4.914   1.658 -0.6192 -0.1221 -0.4516
 6317TIP3    H118957   4.729   4.844   1.596  0.4258  0.2332 -0.5251
 6317TIP3    H218958   4.713   4.994   1.606  0.2662  0.1805  0.0675
 6318TIP3   OH218959   6.215   2.852   0.067 -0.2297 -0.5696 -0.5116
 6318TIP3    H118960   6.137   2.901   0.042 -0.7317 -1.7737 -1.4189
 6318TIP3    H218961   6.288   2.901   0.028 -0.7288 -0.5911 -1.5163
 6319TIP3   OH218962   3.685   1.264   1.583  0.4809 -0.6069 -0.4629
 6319TIP3    H118963   3.738   1.302   1.513 -0.9921  0.8268 -0.8571
 6319TIP3    H218964   3.729   1.292   1.664  1.2525 -0.8550 -0.7895
 6320TIP3   OH218965   3.816   1.306   5.060 -0.0197 -0.4364  0.2026
 6320TIP3    H118966   3.726   1.287   5.033 -0.3521  1.8517 -0.5265
 6320TIP3    H218967   3.812   1.311   5.155 -1.0407  1.1095  0.1109
 6321TIP3   OH218968   4.621   4.790   2.504  0.3446  0.1359  0.1077
 6321TIP3    H118969   4.540   4.741   2.520  0.9836 -0.5028  1.5246
 6321TIP3    H218970   4.665   4.793   2.589  1.5640  0.9501 -0.5198
 6322TIP3   OH218971   0.151   0.606   4.743  0.2684  0.3979 -0.8307
 6322TIP3    H118972   0.114   0.568   4.664 -1.6341  0.5017 -0.0443
 6322TIP3    H218973   0.165   0.698   4.722  4.0641 -0.3699 -2.4552
 6323TIP3   OH218974   1.497   1.483   4.077  0.1392  0.2237 -0.5200
 6323TIP3    H118975   1.430   1.506   4.013 -3.0378 -2.3190  1.6068
 6323TIP3    H218976   1.559   1.429   4.027  0.1286  1.7032 -2.2754
 6324TIP3   OH218977   4.750   5.386   2.236 -0.6086  0.1364 -0.4131
 6324TIP3    H118978   4.768   5.413   2.326 -0.9645  3.9231 -1.2668
 6324TIP3    H218979   4.822   5.327   2.213 -0.1017 -0.3291  2.0752
 6325TIP3   OH218980   1.049   0.168   0.670 -0.3424  0.8570 -0.1090
 6325TIP3    H118981   0.986   0.173   0.742  1.2855  1.3045  1.3560
 6325TIP3    H218982   1.092   0.254   0.669  2.1583 -0.2780  0.8179
 6326TIP3   OH218983   2.239   0.378   2.612 -0.2460 -0.4766  0.1526
 6326TIP3    H118984   2.228   0.439   2.685  0.2066  0.2796 -0.3970
 6326TIP3    H218985   2.332   0.380   2.593 -0.5064  0.3148 -1.2490
 6327TIP3   OH218986   5.453   4.637   2.002  0.2251  0.2443  0.0050
 6327TIP3    H118987   5.425   4.559   2.050  2.4756 -0.8425 -0.3146
 6327TIP3    H218988   5.496   4.603   1.924 -1.5864  1.9339 -1.8617
 6328TIP3   OH218989   4.233   0.379   4.583  0.0549 -0.7065 -0.6774
 6328TIP3    H118990   4.279   0.460   4.558  0.4560 -0.9234 -0.6582
 6328TIP3    H218991   4.145   0.408   4.607  0.3634 -0.1988 -0.1315
 6329TIP3   OH218992   3.714   0.910   2.800 -0.9343 -0.0944 -0.0806
 6329TIP3    H118993   3.638   0.895   2.856 -2.0469  1.5706 -1.0568
 6329TIP3    H218994   3.681   0.901   2.710  0.1747  0.0112 -0.5266
 6330TIP3   OH218995   5.660   0.348   2.071  0.2343 -0.7227 -0.7141
 6330TIP3    H118996   5.628   0.287   2.005 -0.6367 -0.7008 -0.3208
 6330TIP3    H218997   5.724   0.298   2.121 -1.1467 -1.6317  0.2089
 6331TIP3   OH218998   5.843   2.930   0.554  0.9162 -0.3908 -0.0754
 6331TIP3    H118999   5.860   2.888   0.638  0.7073 -0.4442 -0.0605
 6331TIP3    H219000   5.930   2.957   0.523  1.2803 -2.3131 -0.8607
 6332TIP3   OH219001   6.301   5.623   4.623 -0.4927 -0.1457 -0.8189
 6332TIP3    H119002   6.246   5.553   4.587 -0.3642 -2.5063  3.0356
 6332TIP3    H219003   6.377   5.578   4.659  0.0508  2.0685  1.0483
 6333TIP3   OH219004   3.643   5.312   1.246  0.2985 -0.3140  0.2946
 6333TIP3    H119005   3.726   5.285   1.206  0.0103 -1.8890  0.6839
 6333TIP3    H219006   3.657   5.300   1.340 -0.3233 -0.4985  0.3704
 6334TIP3   OH219007   4.408   2.876   0.847  0.4655 -0.2090 -0.0955
 6334TIP3    H119008   4.492   2.830   0.852  0.6894  0.0447 -1.2702
 6334TIP3    H219009   4.397   2.897   0.754  0.5215  2.3820  0.4147
 6335TIP3   OH219010   2.762   4.855   3.113 -0.4191  0.1460 -0.2380
 6335TIP3    H119011   2.717   4.807   3.043 -0.7120  0.7792 -0.4948
 6335TIP3    H219012   2.847   4.878   3.075 -0.8307  1.0607 -0.6361
 6336TIP3   OH219013   2.086   1.154   4.120  0.2515 -0.1309  0.3449
 6336TIP3    H119014   2.065   1.095   4.193 -1.1452  1.0580  0.9441
 6336TIP3    H219015   2.082   1.098   4.042  2.7952 -1.6608  1.2052
 6337TIP3   OH219016   2.510   1.562   0.473  0.0910 -0.3132 -0.2649
 6337TIP3    H119017   2.493   1.577   0.380 -0.6932 -2.1779 -0.4804
 6337TIP3    H219018   2.450   1.492   0.497 -0.0814  0.4777  1.8005
 6338TIP3   OH219019   0.611   0.731   2.042  0.3763  0.2106 -0.5701
 6338TIP3    H119020   0.517   0.740   2.026  0.0438  0.6294  1.3295
 6338TIP3    H219021   0.621   0.642   2.075  0.1386  1.0618  1.9918
 6339TIP3   OH219022   6.331   5.567   2.763 -0.3198  0.0860 -0.4083
 6339TIP3    H119023   6.341   5.641   2.702  3.3950  0.5361  0.4545
 6339TIP3    H219024   6.335   5.608   2.850 -0.8970 -0.9300  0.1122
 6340TIP3   OH219025   1.613   3.629   5.041 -0.1671  0.2429 -0.5927
 6340TIP3    H119026   1.615   3.670   5.128 -3.3791  0.7573 -0.6337
 6340TIP3    H219027   1.705   3.611   5.021  0.7924  1.1894  2.3796
 6341TIP3   OH219028   0.057   4.622   3.970  0.2618 -0.4452  0.4198
 6341TIP3    H119029   0.152   4.624   3.962  0.1916 -2.0820 -1.5835
 6341TIP3    H219030   0.029   4.706   3.935  0.9269 -0.1575  0.5563
 6342TIP3   OH219031   0.804   2.781   0.065 -0.4156 -0.1135  0.5750
 6342TIP3    H119032   0.768   2.854   0.115 -2.0927  0.8804 -1.8741
 6342TIP3    H219033   0.738   2.712   0.071  0.3260 -0.7811  1.3721
 6343TIP3   OH219034   1.593   5.786   3.286 -0.0297  0.6377  0.9083
 6343TIP3    H119035   1.536   5.728   3.236 -1.8113  0.5700  2.8772
 6343TIP3    H219036   1.665   5.730   3.316  1.2866  0.7641 -1.7511
 6344TIP3   OH219037   4.061   2.466   3.798  0.3072  0.0580  0.3101
 6344TIP3    H119038   4.044   2.435   3.887  1.5017  0.4689  0.7141
 6344TIP3    H219039   4.006   2.543   3.788 -0.3678 -0.4058  0.4326
 6345TIP3   OH219040   0.758   5.794   1.345  0.1814  0.0026  0.7316
 6345TIP3    H119041   0.711   5.800   1.262  1.8387  0.1956 -0.2425
 6345TIP3    H219042   0.703   5.740   1.400 -0.9275 -0.1998 -0.5196
 6346TIP3   OH219043   4.101   3.018   4.011 -0.1923 -0.7374  0.0731
 6346TIP3    H119044   4.184   2.994   3.970 -0.3762 -3.3956  1.0404
 6346TIP3    H219045   4.053   3.067   3.944  2.0553  0.7312 -0.5534
 6347TIP3   OH219046   0.461   5.143   4.506  0.6236  0.2395 -0.2013
 6347TIP3    H119047   0.397   5.073   4.496 -0.5940  1.1472  0.9579
 6347TIP3    H219048   0.442   5.204   4.435  1.6760 -0.5569 -1.2037
 6348TIP3   OH219049   4.389   1.445   0.695  0.0337 -0.2110 -0.4899
 6348TIP3    H119050   4.456   1.380   0.717 -0.5860 -0.6101  0.2110
 6348TIP3    H219051   4.397   1.454   0.600  1.0354 -0.3051 -0.4318
 6349TIP3   OH219052   0.847   4.144   3.117  0.3198 -0.5468 -0.1907
 6349TIP3    H119053   0.890   4.069   3.077 -0.8305 -0.6654 -1.2851
 6349TIP3    H219054   0.796   4.183   3.046 -0.2242  0.4324  0.7008
 6350TIP3   OH219055   3.723   1.017   0.306 -0.2159 -0.2616  0.5593
 6350TIP3    H119056   3.662   0.948   0.279 -1.4481  0.2571  1.9069
 6350TIP3    H219057   3.667   1.092   0.327  1.0320  0.8731 -0.0125
 6351TIP3   OH219058   0.068   0.693   1.220 -0.0034 -0.1192  0.3463
 6351TIP3    H119059   0.062   0.770   1.276  0.5910  0.1570  0.0481
 6351TIP3    H219060  -0.013   0.695   1.168 -0.5409 -0.3623  1.1567
 6352TIP3   OH219061   6.054   5.035   1.833  0.0892 -0.4670 -0.7345
 6352TIP3    H119062   6.067   5.129   1.850 -1.9644 -0.1857 -0.4792
 6352TIP3    H219063   6.006   5.004   1.910 -0.0291 -1.5404 -1.2390
 6353TIP3   OH219064   4.526   1.223   0.783  0.0432  0.3437 -0.1493
 6353TIP3    H119065   4.616   1.230   0.816 -0.0130 -0.1784  0.1341
 6353TIP3    H219066   4.495   1.139   0.817 -1.1343  1.2676  1.1791
 6354TIP3   OH219067   1.043   2.310   3.513  0.2218  0.0186  0.8147
 6354TIP3    H119068   0.948   2.303   3.503  0.3371 -2.2361  0.9451
 6354TIP3    H219069   1.074   2.342   3.428 -0.4419 -1.8327 -0.1763
 6355TIP3   OH219070   2.355   0.366   0.523  0.3029  0.1347 -0.4237
 6355TIP3    H119071   2.384   0.409   0.603  0.9246  2.7916 -1.9447
 6355TIP3    H219072   2.274   0.322   0.546  2.6996 -3.2307  2.7550
 6356TIP3   OH219073   2.671   1.822   0.033  0.0075 -0.3979 -0.4625
 6356TIP3    H119074   2.725   1.868  -0.032 -0.8808  1.5425  0.0929
 6356TIP3    H219075   2.714   1.737   0.044  0.7058 -0.4408 -2.8959
 6357TIP3   OH219076   5.118   4.948   0.762 -0.0333  0.4247  0.0692
 6357TIP3    H119077   5.128   5.015   0.695  1.2417 -0.6065 -0.8159
 6357TIP3    H219078   5.051   4.889   0.726 -0.2067  0.5037  0.2572
 6358TIP3   OH219079   2.181   5.135   3.003 -0.1514  0.1718 -0.1116
 6358TIP3    H119080   2.209   5.182   2.924  0.0186  1.7620  0.8554
 6358TIP3    H219081   2.093   5.105   2.983  0.3786 -0.6357 -1.3882
 6359TIP3   OH219082   2.691   5.792   0.614 -0.7575  0.3117  0.3633
 6359TIP3    H119083   2.704   5.839   0.696 -1.0786  0.6360  0.2349
 6359TIP3    H219084   2.766   5.816   0.560  0.0352 -0.7907  0.9618
 6360TIP3   OH219085   1.711   5.531   0.549  0.3446  0.0215 -0.1575
 6360TIP3    H119086   1.789   5.580   0.520  0.8601 -0.3147  0.6232
 6360TIP3    H219087   1.733   5.440   0.529  0.4419 -0.1445  0.6934
 6361TIP3   OH219088   5.804   5.322   2.269 -0.1115  0.4975  0.4525
 6361TIP3    H119089   5.871   5.256   2.250 -0.4926 -0.0806  1.0786
 6361TIP3    H219090   5.842   5.376   2.337  0.3884  1.2291 -0.3883
 6362TIP3   OH219091   1.823   1.751   2.911 -0.3516  0.1808 -0.0710
 6362TIP3    H119092   1.898   1.802   2.881 -0.6135 -0.3383 -1.7477
 6362TIP3    H219093   1.838   1.663   2.875 -1.6454  0.0132 -0.2578
 6363TIP3   OH219094   0.193   1.484   1.056 -0.0763  0.2866 -0.2665
 6363TIP3    H119095   0.257   1.418   1.080 -1.4248 -0.6649  0.8732
 6363TIP3    H219096   0.241   1.545   1.001  1.7399 -0.4898  0.3858
 6364TIP3   OH219097   4.624   0.869   4.800  0.0665 -0.3251  0.6179
 6364TIP3    H119098   4.654   0.960   4.805 -0.1506 -0.2137  0.0499
 6364TIP3    H219099   4.677   0.822   4.864  0.6825  0.0652  0.4021
 6365TIP3   OH219100   5.509   2.330   1.139  0.7574  0.0673  0.1339
 6365TIP3    H119101   5.446   2.261   1.160 -0.2542  0.1206 -2.4042
 6365TIP3    H219102   5.588   2.284   1.113  0.8459 -0.0566  0.6076
 6366TIP3   OH219103   5.762   0.186   1.518 -0.0862 -0.1930  0.3005
 6366TIP3    H119104   5.828   0.253   1.502  0.6481 -0.9943 -0.1240
 6366TIP3    H219105   5.800   0.106   1.481 -1.4224 -0.6128 -0.2187
 6367TIP3   OH219106   5.529   5.838   3.922  0.2377 -0.0900 -0.5865
 6367TIP3    H119107   5.576   5.896   3.982  0.3509 -1.2773  0.5182
 6367TIP3    H219108   5.450   5.814   3.969  0.1043 -0.6772 -1.0965
 6368TIP3   OH219109   2.900   4.817   0.375 -0.2247 -0.3427  0.6340
 6368TIP3    H119110   2.922   4.762   0.450 -1.3697 -1.8690 -0.0910
 6368TIP3    H219111   2.957   4.786   0.305 -0.8079 -0.5851  0.2497
 6369TIP3   OH219112   4.128   3.653   1.638  0.1042 -0.4000  0.1472
 6369TIP3    H119113   4.130   3.557   1.639 -0.9377 -0.4285  0.5688
 6369TIP3    H219114   4.051   3.676   1.690 -0.4578  0.6308 -1.0976
 6370TIP3   OH219115   4.474   4.055   2.363  0.2654 -0.2658  0.3543
 6370TIP3    H119116   4.451   3.982   2.421  0.1762 -0.1791  0.4270
 6370TIP3    H219117   4.532   4.015   2.298 -0.1303 -0.4980  0.1366
 6371TIP3   OH219118   5.226   4.919   4.510  0.0862 -0.0714  0.2340
 6371TIP3    H119119   5.242   4.831   4.475  1.7445 -1.0336  3.0087
 6371TIP3    H219120   5.283   4.976   4.460 -0.4474 -0.6896 -1.1167
 6372TIP3   OH219121   1.328   3.451   0.535  0.4935 -0.2330  0.2474
 6372TIP3    H119122   1.394   3.402   0.584 -0.0964 -0.4429  0.8577
 6372TIP3    H219123   1.287   3.508   0.601 -1.5952 -1.8483  0.4783
 6373TIP3   OH219124   2.820   4.092   0.348 -0.0961 -0.2675  0.2318
 6373TIP3    H119125   2.726   4.089   0.368  0.1380  0.4067  1.5866
 6373TIP3    H219126   2.862   4.087   0.434  1.2405 -3.5124 -0.4877
 6374TIP3   OH219127   2.367   0.854   4.620  0.2630  0.1770 -0.1467
 6374TIP3    H119128   2.334   0.772   4.656  1.5602 -0.7411 -0.9531
 6374TIP3    H219129   2.313   0.922   4.660 -1.0123 -1.0829  0.3398
 6375TIP3   OH219130   2.017   0.395   1.916  0.1077  0.5182  0.0200
 6375TIP3    H119131   1.997   0.307   1.884  2.4501  0.1623 -0.5967
 6375TIP3    H219132   1.995   0.452   1.843 -0.7348  0.3958  0.1648
 6376TIP3   OH219133   2.139   2.840   3.218  0.0626  0.0056  0.2465
 6376TIP3    H119134   2.055   2.882   3.196  0.3165  0.6308  0.4371
 6376TIP3    H219135   2.185   2.834   3.134  0.9096  2.1166  0.5035
 6377TIP3   OH219136   3.750   5.036   1.099  0.0241 -0.1763  0.0298
 6377TIP3    H119137   3.681   4.985   1.057  0.0080 -0.7024  0.6728
 6377TIP3    H219138   3.738   5.019   1.193  0.8652 -0.0741  0.1606
 6378TIP3   OH219139   5.362   5.471   2.025  0.0637 -0.3237 -0.0655
 6378TIP3    H119140   5.301   5.492   1.955 -0.5172 -0.7012  0.3218
 6378TIP3    H219141   5.416   5.550   2.034 -0.5531  0.1188 -0.2096
 6379TIP3   OH219142   3.725   5.243   0.211  0.3598 -0.3669  0.2907
 6379TIP3    H119143   3.668   5.318   0.194 -1.5980 -1.8341  0.0176
 6379TIP3    H219144   3.728   5.237   0.307  0.1013 -0.2356  0.3095
 6380TIP3   OH219145   5.488   2.156   3.566  0.1615  0.0631  0.4159
 6380TIP3    H119146   5.517   2.240   3.530 -0.0765  0.0604  0.2168
 6380TIP3    H219147   5.409   2.135   3.516  1.1924 -1.1418 -0.8139
 6381TIP3   OH219148   2.663   2.350   1.366 -0.3149 -0.4217 -0.3131
 6381TIP3    H119149   2.686   2.359   1.273  0.6694 -0.5775 -0.0968
 6381TIP3    H219150   2.585   2.294   1.366 -0.6559  0.0427 -1.0747
 6382TIP3   OH219151   1.627   2.893   2.872  0.4538  0.4595 -0.0817
 6382TIP3    H119152   1.547   2.863   2.915  0.8193  0.1146  0.3740
 6382TIP3    H219153   1.674   2.941   2.940  0.4626  0.9836 -0.4530
 6383TIP3   OH219154   3.358   0.430   3.096  0.4074 -0.3199 -0.1737
 6383TIP3    H119155   3.355   0.413   3.190  2.0213 -1.6839 -0.3235
 6383TIP3    H219156   3.340   0.344   3.056 -3.6431  0.8121 -1.2364
 6384TIP3   OH219157   4.045   0.957   1.614 -0.1850 -0.0295  0.1839
 6384TIP3    H119158   3.968   0.913   1.651  0.1316  0.4714  1.4908
 6384TIP3    H219159   4.009   1.015   1.547 -1.0626  0.7382  1.2721
 6385TIP3   OH219160   3.468   0.511   4.445  0.3339 -0.5588  0.4779
 6385TIP3    H119161   3.538   0.448   4.461  0.9594 -0.1781 -0.6352
 6385TIP3    H219162   3.468   0.523   4.350 -1.2620 -0.5636  0.4555
 6386TIP3   OH219163   1.351   5.131   2.817  0.4662  0.1341 -0.3514
 6386TIP3    H119164   1.326   5.121   2.908  0.0544  1.5967 -0.2708
 6386TIP3    H219165   1.300   5.065   2.770  0.4126 -0.3863  0.4358
 6387TIP3   OH219166   0.162   5.816   0.261  0.1674 -0.5472 -0.3030
 6387TIP3    H119167   0.097   5.865   0.311  0.4421  0.6068 -1.0222
 6387TIP3    H219168   0.120   5.733   0.241 -0.9659  0.0533 -0.4772
 6388TIP3   OH219169   0.677   2.354   4.521 -0.8401 -0.1534  0.3456
 6388TIP3    H119170   0.758   2.382   4.478  0.2430  0.2320  2.5146
 6388TIP3    H219171   0.693   2.262   4.544 -2.1125 -0.9178 -1.5465
 6389TIP3   OH219172   2.088   1.927   2.023 -0.2417 -0.1429  0.6624
 6389TIP3    H119173   2.033   1.909   1.947 -0.0317  0.1054  0.4478
 6389TIP3    H219174   2.156   1.987   1.990  1.2416 -1.8441  0.4895
 6390TIP3   OH219175   2.419   1.836   1.471 -0.6273 -0.1833 -0.0080
 6390TIP3    H119176   2.345   1.783   1.500 -1.6382  0.6171 -1.0274
 6390TIP3    H219177   2.409   1.841   1.376  0.6832  0.0349 -0.1532
 6391TIP3   OH219178   4.327   5.674   1.626  0.0964  0.2933 -0.2413
 6391TIP3    H119179   4.405   5.658   1.573  2.2711  0.3656  2.6466
 6391TIP3    H219180   4.320   5.595   1.681 -1.1960  0.7784  0.3115
 6392TIP3   OH219181   2.347   4.625   3.958  0.0342 -0.5845 -0.3214
 6392TIP3    H119182   2.406   4.699   3.969  1.3379 -1.6198 -0.0062
 6392TIP3    H219183   2.279   4.657   3.899 -0.8699  1.6085  1.7420
 6393TIP3   OH219184   4.369   4.360   0.124  0.2370  0.0922  0.4995
 6393TIP3    H119185   4.312   4.406   0.185 -0.4782  0.3091 -0.3297
 6393TIP3    H219186   4.399   4.283   0.174 -0.3764  0.2322  1.1045
 6394TIP3   OH219187   3.863   5.730   4.576 -0.0142  0.2031  0.8024
 6394TIP3    H119188   3.927   5.669   4.611 -0.7913 -0.6511  0.7437
 6394TIP3    H219189   3.916   5.801   4.538  0.8901 -0.4645  0.8022
 6395TIP3   OH219190   3.019   2.579   0.095  0.0544 -0.1559  0.3936
 6395TIP3    H119191   3.012   2.656   0.152  0.2807 -0.7518  1.2382
 6395TIP3    H219192   2.932   2.572   0.055  0.2132  0.9001 -0.1855
 6396TIP3   OH219193   4.410   4.111   0.245  0.9388  0.2062  0.0103
 6396TIP3    H119194   4.408   4.031   0.297 -0.6753 -0.9250 -1.6668
 6396TIP3    H219195   4.474   4.093   0.176  1.1265  0.6710  0.0591
 6397TIP3   OH219196   2.145   0.169   0.364  0.8274 -0.1699 -0.4708
 6397TIP3    H119197   2.232   0.167   0.324  1.3000  0.1230  0.5308
 6397TIP3    H219198   2.152   0.234   0.434  0.0889 -0.8706  0.2744
 6398TIP3   OH219199   4.271   3.817   1.845  0.0002  0.0207  0.2846
 6398TIP3    H119200   4.239   3.771   1.767 -0.3024 -0.1310  0.4968
 6398TIP3    H219201   4.351   3.770   1.868  0.4676  0.4943 -0.3343
 6399TIP3   OH219202   1.214   0.916   2.953  0.2843 -0.2169 -0.0941
 6399TIP3    H119203   1.139   0.918   3.012 -0.8935  1.5182 -1.5312
 6399TIP3    H219204   1.253   0.830   2.965 -1.6960 -1.0125  1.0004
 6400TIP3   OH219205   4.699   4.580   4.507 -0.5722  0.3948  0.1355
 6400TIP3    H119206   4.623   4.567   4.451  1.1980  0.2318 -2.3855
 6400TIP3    H219207   4.730   4.668   4.487  0.7501 -0.0765 -0.0344
 6401TIP3   OH219208   6.302   3.916   2.720 -0.2848 -0.0723  0.4020
 6401TIP3    H119209   6.386   3.951   2.751 -0.2263 -0.0095  0.1781
 6401TIP3    H219210   6.325   3.864   2.643 -0.5501  0.6823 -0.2001
 6402TIP3   OH219211   4.922   2.992   2.356  0.3297  0.0159  0.1477
 6402TIP3    H119212   4.963   3.078   2.359 -0.2093  0.3082 -0.5251
 6402TIP3    H219213   4.921   2.963   2.447  1.9484  0.0223  0.1963
 6403TIP3   OH219214   0.863   5.465   4.619 -0.1470  0.8215  0.1417
 6403TIP3    H119215   0.930   5.426   4.676  0.5488  1.0426 -0.5243
 6403TIP3    H219216   0.796   5.396   4.612  0.2242  0.4216  0.4267
 6404TIP3   OH219217   6.154   1.796   2.771  0.1720  0.1097  0.0336
 6404TIP3    H119218   6.157   1.785   2.866 -0.9571 -1.2194 -0.0509
 6404TIP3    H219219   6.245   1.807   2.745  0.5371  0.0043  1.2199
 6405TIP3   OH219220   2.137   0.373   4.458  0.1540 -0.0590  0.1343
 6405TIP3    H119221   2.136   0.468   4.451 -1.6763  0.1608  2.1871
 6405TIP3    H219222   2.165   0.355   4.548  0.1101 -1.4455 -0.1008
 6406TIP3   OH219223   2.858   3.156   4.417  0.2621  0.1524  0.2378
 6406TIP3    H119224   2.779   3.108   4.442 -0.5787  0.2169 -2.0343
 6406TIP3    H219225   2.826   3.232   4.370  1.6725  0.6494  0.0323
 6407TIP3   OH219226   0.951   5.056   3.305  0.1053  0.3676  0.0314
 6407TIP3    H119227   0.883   4.989   3.306 -0.8204  1.2713 -0.1528
 6407TIP3    H219228   0.986   5.056   3.394 -1.1939  0.9053  0.5752
 6408TIP3   OH219229   0.298   5.538   1.016  0.3537  0.2037 -0.4882
 6408TIP3    H119230   0.322   5.617   0.968  2.6284 -0.2332 -0.1870
 6408TIP3    H219231   0.358   5.536   1.091  0.1670 -1.6289 -0.3410
 6409TIP3   OH219232   3.702   3.826   0.627 -0.7230  0.0005 -0.0293
 6409TIP3    H119233   3.727   3.772   0.701 -2.1405 -0.3454  0.2350
 6409TIP3    H219234   3.621   3.787   0.595 -0.2717  0.2821 -1.6247
 6410TIP3   OH219235   3.005   2.340   3.380  0.1178  0.1275 -0.0386
 6410TIP3    H119236   2.928   2.297   3.417 -0.0483  1.0616  0.7790
 6410TIP3    H219237   3.023   2.413   3.441 -0.1745  1.7751 -1.8254
 6411TIP3   OH219238   6.295   5.943   0.005 -0.3115 -0.6257  0.1079
 6411TIP3    H119239   6.376   5.981   0.039 -0.2592  0.0324 -0.7184
 6411TIP3    H219240   6.228   6.009   0.023 -0.9480 -1.6760  1.9131
 6412TIP3   OH219241   4.514   3.755   4.046  0.0985  0.2672 -0.4465
 6412TIP3    H119242   4.478   3.843   4.046  0.5502  0.4494 -0.3662
 6412TIP3    H219243   4.515   3.729   4.138  1.4688  0.7909 -0.2975
 6413TIP3   OH219244   0.485   2.109   2.203  0.1219  0.5470 -0.2788
 6413TIP3    H119245   0.538   2.151   2.271 -1.7517  0.8494  1.0687
 6413TIP3    H219246   0.477   2.175   2.135  1.0684  0.6608 -0.2959
 6414TIP3   OH219247   0.080   3.812   2.483 -0.3578 -0.3329  0.2592
 6414TIP3    H119248   0.113   3.747   2.420 -0.2887  0.0788 -0.1343
 6414TIP3    H219249   0.122   3.893   2.457 -0.5259 -0.1092  0.6886
 6415TIP3   OH219250   1.240   5.507   1.947 -0.0944  0.1256  0.4945
 6415TIP3    H119251   1.230   5.428   1.893  1.8297  0.6959 -0.8133
 6415TIP3    H219252   1.248   5.578   1.883  0.6341  1.0567  1.5854
 6416TIP3   OH219253   1.797   4.793   4.301 -0.4623  0.3072  0.1669
 6416TIP3    H119254   1.720   4.818   4.351  0.0363  0.4598  0.8892
 6416TIP3    H219255   1.846   4.875   4.290 -0.8658  0.3935 -1.1345
 6417TIP3   OH219256   3.372   4.766   0.310 -0.0791 -0.2037  0.0535
 6417TIP3    H119257   3.291   4.771   0.359 -1.4021 -0.1203 -2.0296
 6417TIP3    H219258   3.396   4.857   0.293 -0.2417 -0.2413 -0.3946
 6418TIP3   OH219259   1.800   2.056   5.149  0.1478  0.1240  0.0116
 6418TIP3    H119260   1.844   2.085   5.229  0.0395  0.5640 -0.0835
 6418TIP3    H219261   1.714   2.027   5.178  0.0202  0.5117  0.0248
 6419TIP3   OH219262   0.864   0.493   4.008  0.4358 -0.3382 -0.4529
 6419TIP3    H119263   0.855   0.398   4.004 -0.7523 -0.2391 -0.6417
 6419TIP3    H219264   0.882   0.512   4.100 -0.6796 -0.6709 -0.1468
 6420TIP3   OH219265   6.291   3.055   2.778 -0.1092 -0.1907  0.4275
 6420TIP3    H119266   6.374   3.094   2.805 -0.3489 -1.0879  2.6134
 6420TIP3    H219267   6.308   2.961   2.774 -1.3784 -0.5644  2.5391
 6421TIP3   OH219268   1.733   1.772   4.165 -0.1281 -0.2438  0.2929
 6421TIP3    H119269   1.806   1.812   4.213 -0.1764 -0.4239  0.5178
 6421TIP3    H219270   1.775   1.708   4.107 -0.1257 -0.5447  0.6207
 6422TIP3   OH219271   5.332   2.890   1.268  0.5056 -0.3126 -0.1826
 6422TIP3    H119272   5.262   2.893   1.203 -0.1643 -1.3433  0.4611
 6422TIP3    H219273   5.369   2.803   1.260 -1.0115 -1.2884  2.2188
 6423TIP3   OH219274   3.139   2.651   3.844  0.0859  0.6368 -0.2807
 6423TIP3    H119275   3.110   2.728   3.797  3.2289  1.2628 -1.4430
 6423TIP3    H219276   3.099   2.577   3.798 -0.2836  1.4296 -1.2487
 6424TIP3   OH219277   1.493   2.672   0.712  0.2459 -0.2125  0.2362
 6424TIP3    H119278   1.514   2.743   0.773  0.9508  0.9330 -1.2777
 6424TIP3    H219279   1.481   2.596   0.768  2.1769  0.4869  1.7368
 6425TIP3   OH219280   3.013   5.126   2.851  0.0448  0.4532 -0.1614
 6425TIP3    H119281   3.106   5.145   2.857 -0.0923  1.1742 -0.2369
 6425TIP3    H219282   2.983   5.126   2.942  0.0204  0.7583 -0.1671
 6426TIP3   OH219283   3.334   3.114   2.353  0.1174 -0.1155 -0.4904
 6426TIP3    H119284   3.280   3.035   2.344 -0.2606  0.0214  0.4885
 6426TIP3    H219285   3.418   3.090   2.315 -1.1615  0.2839 -4.0118
 6427TIP3   OH219286   3.402   1.534   3.386  0.3007  0.1332  0.4333
 6427TIP3    H119287   3.483   1.522   3.337  0.5237 -0.5840  0.9548
 6427TIP3    H219288   3.375   1.445   3.410 -0.2298  0.4173  0.9149
 6428TIP3   OH219289   3.260   1.993   1.202 -0.4046 -0.5013  0.4064
 6428TIP3    H119290   3.350   1.965   1.219 -0.6330 -0.7248  1.2773
 6428TIP3    H219291   3.218   1.992   1.287 -0.8540  0.9965  0.2279
 6429TIP3   OH219292   2.445   2.621   3.270  0.1329  0.3646 -0.1641
 6429TIP3    H119293   2.402   2.548   3.313  3.2890 -0.5167  1.7879
 6429TIP3    H219294   2.412   2.699   3.316  0.9091 -0.3293  1.6715
 6430TIP3   OH219295   4.392   0.989   2.657  0.1734 -0.2369  0.1834
 6430TIP3    H119296   4.384   0.917   2.595  0.3489  1.1135 -1.4773
 6430TIP3    H219297   4.340   0.961   2.733 -0.8956 -1.5066 -0.9580
 6431TIP3   OH219298   1.814   0.264   0.779 -0.0073 -0.5931  0.6646
 6431TIP3    H119299   1.831   0.247   0.872  0.6196 -0.3420  0.5994
 6431TIP3    H219300   1.801   0.177   0.741  2.2894 -0.9207  0.5028
 6432TIP3   OH219301   4.641   1.908   1.279  0.1296 -0.0491 -0.2237
 6432TIP3    H119302   4.603   1.991   1.307 -1.5498 -0.6017 -0.7553
 6432TIP3    H219303   4.581   1.841   1.314  0.9060 -0.9972 -0.6433
 6433TIP3   OH219304   5.164   1.460   3.383  0.7512 -0.3654 -0.2140
 6433TIP3    H119305   5.255   1.451   3.411  0.6898 -0.7818 -0.1302
 6433TIP3    H219306   5.169   1.484   3.290  0.9518 -1.3071 -0.4612
 6434TIP3   OH219307   2.652   1.718   1.590 -0.2906  0.2824 -0.4209
 6434TIP3    H119308   2.568   1.760   1.576  0.3632  1.4252 -1.0951
 6434TIP3    H219309   2.656   1.702   1.684 -0.5773  1.7173 -0.1445
 6435TIP3   OH219310   1.896   3.747   2.433  0.6204 -0.1019 -0.0104
 6435TIP3    H119311   1.957   3.808   2.391  0.9320 -0.6955 -0.4346
 6435TIP3    H219312   1.929   3.660   2.409 -1.2256 -0.4525 -1.5374
 6436TIP3   OH219313   4.535   2.558   0.038  0.0312 -0.0913  0.0663
 6436TIP3    H119314   4.534   2.477  -0.012  2.4542 -0.9571  1.2729
 6436TIP3    H219315   4.603   2.611  -0.003 -0.0852  0.4632  0.5636
 6437TIP3   OH219316   4.274   2.781   4.434 -0.6686  0.4702 -0.0690
 6437TIP3    H119317   4.199   2.753   4.485  1.8076 -2.3773  2.4103
 6437TIP3    H219318   4.333   2.822   4.497  1.1095 -0.1062 -1.2645
 6438TIP3   OH219319   5.827   4.292   1.271  0.2523  0.3077  0.0146
 6438TIP3    H119320   5.739   4.327   1.254  0.0298  0.1524  0.7988
 6438TIP3    H219321   5.820   4.199   1.247 -0.5707 -0.3393  2.5065
 6439TIP3   OH219322   0.972   0.145   4.306  0.2900 -0.6301  0.0561
 6439TIP3    H119323   0.982   0.232   4.343 -0.6694  0.0932 -1.3048
 6439TIP3    H219324   0.941   0.091   4.379 -2.8366  1.0339  0.1282
 6440TIP3   OH219325   3.909   0.548   3.058 -0.7714 -0.7674  0.6650
 6440TIP3    H119326   3.844   0.478   3.066 -0.9441 -0.7304 -0.2757
 6440TIP3    H219327   3.884   0.611   3.125 -0.1290 -1.9688  2.0657
 6441TIP3   OH219328   6.196   3.531   1.008  0.3738  0.2160  0.8836
 6441TIP3    H119329   6.236   3.468   0.948 -2.1172 -0.8100  0.1990
 6441TIP3    H219330   6.205   3.615   0.964 -1.2401 -0.4859 -0.9630
 6442TIP3   OH219331   6.367   5.327   4.434 -0.1606 -0.2073 -0.2122
 6442TIP3    H119332   6.326   5.243   4.415 -0.6682  0.6697 -3.6221
 6442TIP3    H219333   6.296   5.391   4.428  0.6476  0.7230 -0.2417
 6443TIP3   OH219334   3.736   4.882   0.391  0.7459  0.0221  0.6115
 6443TIP3    H119335   3.727   4.963   0.441 -0.7069  1.2271 -1.4691
 6443TIP3    H219336   3.673   4.822   0.432 -0.8647  1.1829 -0.0621
 6444TIP3   OH219337   5.833   5.228   3.190 -0.1217 -0.5410  0.4622
 6444TIP3    H119338   5.921   5.243   3.224  0.3277 -0.7359 -0.5610
 6444TIP3    H219339   5.805   5.146   3.229 -1.1737  1.0336  3.3170
 6445TIP3   OH219340   0.827   1.055   3.202 -0.8664 -0.5443  0.9642
 6445TIP3    H119341   0.784   1.046   3.287 -0.8108 -2.2642  0.8413
 6445TIP3    H219342   0.817   1.148   3.180 -1.9444 -0.3156  2.2801
 6446TIP3   OH219343   5.065   4.453   3.612  0.1741  0.5689  0.0253
 6446TIP3    H119344   5.049   4.383   3.549  0.0597  0.0348  0.6426
 6446TIP3    H219345   5.117   4.413   3.681 -1.4258  0.5716  1.3158
 6447TIP3   OH219346   2.917   4.148   0.597 -0.5051 -0.2426  0.1266
 6447TIP3    H119347   2.866   4.101   0.662 -2.2865  0.7556 -0.4928
 6447TIP3    H219348   2.982   4.197   0.647  0.4315 -2.1564  0.8721
 6448TIP3   OH219349   2.905   5.976   1.360  0.2022  0.1099 -0.0676
 6448TIP3    H119350   2.978   6.037   1.370  0.6606 -0.1015 -1.7369
 6448TIP3    H219351   2.926   5.903   1.417 -0.2047  1.3325  1.7312
 6449TIP3   OH219352   2.558   4.219   4.708 -0.0315  0.6455 -0.7230
 6449TIP3    H119353   2.626   4.263   4.656 -0.2511  0.2803 -1.3347
 6449TIP3    H219354   2.588   4.228   4.798 -0.2743  2.4239 -0.7761
 6450TIP3   OH219355   2.475   2.532   4.754 -0.5789 -0.0001  0.1228
 6450TIP3    H119356   2.429   2.613   4.779  1.5831  1.3957 -0.2160
 6450TIP3    H219357   2.506   2.496   4.838 -0.0936  0.4421  0.1368
 6451TIP3   OH219358   3.219   1.318   4.581  0.4521  0.3752 -0.0494
 6451TIP3    H119359   3.288   1.306   4.515  0.9763 -2.3740  0.8781
 6451TIP3    H219360   3.140   1.335   4.530  0.8544 -1.6019 -1.4370
 6452TIP3   OH219361   0.049   2.858   3.376  0.1793 -0.0617  0.4913
 6452TIP3    H119362   0.068   2.802   3.451  0.2831 -0.9108 -0.1537
 6452TIP3    H219363   0.132   2.864   3.329 -0.2181 -0.7236 -0.3237
 6453TIP3   OH219364   5.790   1.622   3.094 -0.3128  0.3067  0.6372
 6453TIP3    H119365   5.841   1.541   3.084  0.1402  0.4301  1.8290
 6453TIP3    H219366   5.742   1.610   3.176 -1.4570  0.6158  0.0392
 6454TIP3   OH219367   3.198   5.591   4.359 -0.3429  0.0202 -0.3262
 6454TIP3    H119368   3.194   5.643   4.439 -0.5437  1.6285 -1.3468
 6454TIP3    H219369   3.132   5.523   4.372  0.5183 -0.5524  1.3919
 6455TIP3   OH219370   4.650   3.856   3.555  0.7494 -0.3694  0.8670
 6455TIP3    H119371   4.600   3.907   3.619  1.1119 -1.4180  2.0142
 6455TIP3    H219372   4.585   3.797   3.515  0.6493 -0.1657  0.7265
 6456TIP3   OH219373   6.111   0.581   2.854  0.3031 -0.1877  0.1777
 6456TIP3    H119374   6.098   0.622   2.939  0.1713 -1.7992  0.9841
 6456TIP3    H219375   6.077   0.492   2.865  0.1045 -0.3827 -1.6243
 6457TIP3   OH219376   2.989   5.630   0.249  0.5251  0.3165  0.9398
 6457TIP3    H119377   2.913   5.573   0.257  0.9909 -0.5313 -0.4517
 6457TIP3    H219378   2.956   5.717   0.270 -0.9535  0.0486 -0.1815
 6458TIP3   OH219379   1.568   3.523   4.479  0.2875 -0.0392 -0.3184
 6458TIP3    H119380   1.633   3.541   4.411 -0.0029 -1.1249 -0.9013
 6458TIP3    H219381   1.608   3.456   4.534  0.5700  0.9220  0.6740
 6459TIP3   OH219382   0.973   0.390   4.778 -0.2211  0.3898 -0.0777
 6459TIP3    H119383   1.006   0.469   4.733  0.1581 -0.5892 -1.5998
 6459TIP3    H219384   1.017   0.391   4.863  0.4292  1.3743 -0.4053
 6460TIP3   OH219385   6.338   3.436   0.768 -0.0028 -0.2270 -0.0692
 6460TIP3    H119386   6.285   3.467   0.695  0.7891  1.6906  0.0956
 6460TIP3    H219387   6.389   3.364   0.732 -1.4428 -0.9692 -0.6868
 6461TIP3   OH219388   0.610   0.448   0.688  0.0794  0.0377 -0.4828
 6461TIP3    H119389   0.654   0.372   0.649 -0.8009 -1.3338  1.0265
 6461TIP3    H219390   0.518   0.421   0.695 -0.1214  0.9536  0.7258
 6462TIP3   OH219391   3.825   4.588   2.627  0.4973 -0.1772  0.3379
 6462TIP3    H119392   3.890   4.526   2.595 -0.1814 -0.1659 -1.1674
 6462TIP3    H219393   3.775   4.539   2.693  0.3023 -1.0830 -0.4630
 6463TIP3   OH219394   5.381   1.328   0.529 -0.6564 -0.3337 -0.2407
 6463TIP3    H119395   5.355   1.362   0.444  0.1028  1.2611  0.1235
 6463TIP3    H219396   5.427   1.246   0.510  1.7749  1.2312 -1.6612
 6464TIP3   OH219397   2.344   2.813   3.419 -0.1073  0.0150  0.7892
 6464TIP3    H119398   2.339   2.845   3.329  0.9383 -0.1707  0.6480
 6464TIP3    H219399   2.253   2.800   3.445 -0.4138 -0.4366 -0.4223
 6465TIP3   OH219400   5.155   0.372   3.622 -0.4137  0.4552 -0.0784
 6465TIP3    H119401   5.194   0.425   3.691 -0.3039  1.6005 -0.9896
 6465TIP3    H219402   5.079   0.423   3.592 -0.3179  0.1050 -0.9637
 6466TIP3   OH219403   2.169   5.607   2.572  0.2833  0.3300  0.0697
 6466TIP3    H119404   2.083   5.576   2.600  0.6785  1.0684  2.2681
 6466TIP3    H219405   2.153   5.647   2.486 -1.1693 -1.2508 -0.4536
 6467TIP3   OH219406   0.971   1.810   3.326  0.2627  0.4381  0.5106
 6467TIP3    H119407   0.950   1.903   3.333  0.2538  0.7816 -2.4727
 6467TIP3    H219408   1.064   1.809   3.303 -0.1512 -0.0897 -1.3593
 6468TIP3   OH219409   5.132   0.772   4.496 -0.0141 -0.7017  0.1887
 6468TIP3    H119410   5.161   0.856   4.532 -1.4257 -0.5694  1.0912
 6468TIP3    H219411   5.040   0.787   4.474 -0.2744 -1.9990  0.3558
 6469TIP3   OH219412   3.919   5.602   1.396  0.0609 -0.4577 -0.4318
 6469TIP3    H119413   3.926   5.651   1.478  0.1581  0.7950 -1.1535
 6469TIP3    H219414   3.827   5.611   1.371 -0.0640 -1.1977 -0.2572
 6470TIP3   OH219415   5.129   5.280   3.607  0.2101  1.2268  0.0934
 6470TIP3    H119416   5.090   5.280   3.520  0.3607  0.2217  0.0201
 6470TIP3    H219417   5.190   5.355   3.605  0.2292  1.2015 -0.6701
 6471TIP3   OH219418   3.595   0.576   1.340 -0.1373  0.4280  0.7770
 6471TIP3    H119419   3.569   0.603   1.252 -0.9166  0.7875  1.1040
 6471TIP3    H219420   3.647   0.497   1.327  1.6095  1.6877 -0.1435
 6472TIP3   OH219421   3.614   5.169   3.536  0.1804 -0.3036  0.1663
 6472TIP3    H119422   3.618   5.244   3.594 -0.4545 -0.3751  0.3053
 6472TIP3    H219423   3.614   5.207   3.448 -0.5495 -0.1234  0.2434
 6473TIP3   OH219424   2.671   5.539   4.614 -0.3354  0.0004  0.0638
 6473TIP3    H119425   2.688   5.458   4.566  0.2253  0.7983 -1.1431
 6473TIP3    H219426   2.748   5.593   4.597  0.0477  0.1904  2.2030
 6474TIP3   OH219427   2.963   1.530   2.135  0.0163  0.3929  0.0757
 6474TIP3    H119428   2.950   1.498   2.224  0.8290  2.4461  0.9955
 6474TIP3    H219429   2.876   1.562   2.109 -0.1640  0.0293  0.2125
 6475TIP3   OH219430   6.316   4.456   4.186  0.6573  0.5389  0.3480
 6475TIP3    H119431   6.407   4.476   4.165  0.9189 -0.7062  0.2300
 6475TIP3    H219432   6.268   4.476   4.105  0.9135  0.5969  0.2080
 6476TIP3   OH219433   5.897   2.579   4.035  0.3085 -0.4486 -0.0994
 6476TIP3    H119434   5.843   2.644   3.991  0.3723 -1.0890 -1.1711
 6476TIP3    H219435   5.946   2.537   3.964 -0.3659 -2.2349  0.4396
 6477TIP3   OH219436   2.934   0.163   1.915  0.3974 -0.3139 -0.4527
 6477TIP3    H119437   2.922   0.189   2.007  0.8327  0.3385 -0.5722
 6477TIP3    H219438   3.025   0.132   1.912  0.2417 -0.7556 -0.5667
 6478TIP3   OH219439   1.745   0.950   3.245 -0.4192  0.0863  0.3380
 6478TIP3    H119440   1.763   1.044   3.258  1.5550  0.1063 -1.9520
 6478TIP3    H219441   1.664   0.948   3.196  0.2099  0.6994 -0.7639
 6479TIP3   OH219442   3.257   0.454   0.690 -0.6754 -0.3657 -0.0397
 6479TIP3    H119443   3.350   0.477   0.688 -0.5598 -0.7785  0.3860
 6479TIP3    H219444   3.243   0.418   0.777 -1.4312  0.4798  0.2013
 6480TIP3   OH219445   0.088   3.662   3.685  0.3956  0.0624 -0.2421
 6480TIP3    H119446   0.164   3.685   3.630  0.6137 -2.1813 -0.9915
 6480TIP3    H219447   0.056   3.580   3.647 -3.0435  1.4006 -0.5417
 6481TIP3   OH219448   3.169   1.441   3.120  0.0231 -0.0875 -0.0936
 6481TIP3    H119449   3.193   1.422   3.211 -1.1742  0.4509  0.3427
 6481TIP3    H219450   3.225   1.515   3.096 -1.3801  1.4021  1.0421
 6482TIP3   OH219451   5.484   5.597   3.402 -0.0288  0.0656 -0.1917
 6482TIP3    H119452   5.538   5.618   3.478  0.8320  0.5844 -0.9289
 6482TIP3    H219453   5.524   5.519   3.364 -1.1292 -0.8595  0.5242
 6483TIP3   OH219454   1.354   4.652   4.760 -0.3049  0.7965 -0.0195
 6483TIP3    H119455   1.369   4.580   4.698 -0.8149  2.1254 -1.7720
 6483TIP3    H219456   1.407   4.630   4.837 -1.9825 -2.4700  0.3904
 6484TIP3   OH219457   4.571   4.420   0.871  0.4048  0.2761 -0.0552
 6484TIP3    H119458   4.662   4.392   0.880  0.7829  1.4587 -0.0381
 6484TIP3    H219459   4.523   4.367   0.935  0.8959 -1.1231 -0.8136
 6485TIP3   OH219460   0.965   5.614   2.519  0.0031  0.0821  0.1893
 6485TIP3    H119461   1.005   5.527   2.512  0.1594  0.1494  0.2356
 6485TIP3    H219462   0.874   5.597   2.541  0.2313 -0.0519  1.0514
 6486TIP3   OH219463   3.501   1.984   1.837 -0.2953  0.3009  0.1457
 6486TIP3    H119464   3.518   1.904   1.887 -0.5495  0.3816  0.3655
 6486TIP3    H219465   3.427   1.961   1.781 -0.2369  0.3171  0.0637
 6487TIP3   OH219466   4.300   4.702   4.221  0.0394 -0.3494  0.4869
 6487TIP3    H119467   4.237   4.640   4.185 -2.0014  0.7591  2.0134
 6487TIP3    H219468   4.249   4.759   4.278  2.0743  1.8557  0.2743
 6488TIP3   OH219469   1.691   2.573   0.942  0.6977 -0.3998  0.5771
 6488TIP3    H119470   1.730   2.659   0.930  0.3069 -0.4716 -1.7602
 6488TIP3    H219471   1.627   2.585   1.012 -1.4569  2.0621 -1.5622
 6489TIP3   OH219472   5.634   4.900   4.441 -0.1135 -0.3922 -0.2340
 6489TIP3    H119473   5.571   4.972   4.447 -0.1320 -0.1978 -2.1819
 6489TIP3    H219474   5.585   4.829   4.399 -0.0326 -1.5146  1.4665
 6490TIP3   OH219475   0.082   2.055   1.492 -0.4096  0.1575 -0.6488
 6490TIP3    H119476   0.093   1.987   1.426  1.4889  0.1432 -0.3642
 6490TIP3    H219477   0.045   2.010   1.567 -0.0663 -0.3678 -0.7916
 6491TIP3   OH219478   1.321   2.853   3.616  0.1797  0.0347  0.4683
 6491TIP3    H119479   1.236   2.818   3.591  0.1643  0.2322  0.2441
 6491TIP3    H219480   1.366   2.868   3.533  0.2892  0.2886  0.5743
 6492TIP3   OH219481   4.121   2.894   2.041 -0.1030  0.3268 -0.0422
 6492TIP3    H119482   4.131   2.799   2.045 -2.1454  0.0696 -0.0469
 6492TIP3    H219483   4.072   2.910   1.960  2.3624  1.6459 -1.3755
 6493TIP3   OH219484   1.476   5.895   1.745 -0.5403  0.7450 -0.2318
 6493TIP3    H119485   1.523   5.833   1.800 -1.3848 -0.0899 -0.4440
 6493TIP3    H219486   1.546   5.949   1.706  0.1432  0.4633  0.5731
 6494TIP3   OH219487   5.618   4.128   3.247  0.0599 -0.2231 -0.7222
 6494TIP3    H119488   5.569   4.057   3.289 -0.0228  0.1057 -0.2545
 6494TIP3    H219489   5.623   4.103   3.155 -0.6567 -0.4453 -0.7047
 6495TIP3   OH219490   4.594   0.780   3.986  0.2551  0.0319  0.1870
 6495TIP3    H119491   4.680   0.752   4.017  0.4666 -0.8067 -1.0926
 6495TIP3    H219492   4.536   0.708   4.012  0.5188 -0.9213 -1.6939
 6496TIP3   OH219493   5.886   5.977   3.019  0.2385  0.5068 -0.7395
 6496TIP3    H119494   5.964   5.982   3.074  1.0893  0.5649 -1.9116
 6496TIP3    H219495   5.919   5.952   2.933 -1.2606 -1.4616 -0.8194
 6497TIP3   OH219496   3.910   1.388   3.403 -0.6231  0.1323 -0.6555
 6497TIP3    H119497   3.913   1.466   3.348 -1.9332  0.3515 -0.4486
 6497TIP3    H219498   3.923   1.421   3.492 -0.6233  0.0444 -0.6230
 6498TIP3   OH219499   0.313   4.668   3.909 -0.0298  0.2419  0.8075
 6498TIP3    H119500   0.327   4.592   3.853 -1.1608  1.0672 -0.6567
 6498TIP3    H219501   0.378   4.732   3.880 -0.6797  0.7066  0.3527
 6499TIP3   OH219502   1.878   3.697   4.750  0.3787  0.6134  0.1383
 6499TIP3    H119503   1.854   3.787   4.726 -1.1922  0.5359  1.2565
 6499TIP3    H219504   1.864   3.693   4.844 -1.2988 -1.2799 -0.1341
 6500TIP3   OH219505   1.345   5.531   3.199  0.0419 -0.4154 -0.2626
 6500TIP3    H119506   1.275   5.563   3.256  0.7838 -0.5127  0.7297
 6500TIP3    H219507   1.327   5.570   3.113  0.1652  1.5918  0.5786
 6501TIP3   OH219508   3.193   0.470   0.355 -0.0620 -0.1374  0.4081
 6501TIP3    H119509   3.147   0.508   0.280  0.5205 -0.6964 -0.2481
 6501TIP3    H219510   3.248   0.541   0.388  2.0775 -0.7295 -1.6683
 6502TIP3   OH219511   6.090   2.620   0.113 -0.4336  0.4285 -0.0967
 6502TIP3    H119512   6.138   2.585   0.038  1.3919  2.5693 -0.0434
 6502TIP3    H219513   6.124   2.709   0.123 -1.3250  0.5433  2.6853
 6503TIP3   OH219514   5.885   0.728   5.035 -0.1157  0.2321 -0.2667
 6503TIP3    H119515   5.808   0.685   4.999 -0.6276 -0.0030  1.0855
 6503TIP3    H219516   5.926   0.663   5.092  0.7173  0.5813 -0.4389
 6504TIP3   OH219517   4.019   2.158   1.894 -0.1845 -0.0370 -0.4440
 6504TIP3    H119518   4.018   2.205   1.978 -0.0658  2.4004 -1.7048
 6504TIP3    H219519   4.111   2.137   1.878  0.0050  0.8868 -0.6419
 6505TIP3   OH219520   4.906   3.723   2.556 -0.2635 -0.0663  0.0197
 6505TIP3    H119521   4.913   3.796   2.495  1.6680 -0.6875 -0.5764
 6505TIP3    H219522   4.952   3.753   2.635 -1.0486  0.0175  0.4521
 6506TIP3   OH219523   2.658   4.023   3.710 -0.4636  0.1206  0.7037
 6506TIP3    H119524   2.607   3.943   3.717  1.0317 -0.7536  2.4345
 6506TIP3    H219525   2.724   4.004   3.643 -0.5602  0.1951  0.5854
 6507TIP3   OH219526   4.084   4.788   2.990  0.3133 -0.2624 -0.1274
 6507TIP3    H119527   4.107   4.703   2.951  0.9872 -0.3281  0.3883
 6507TIP3    H219528   4.167   4.821   3.026 -0.0402  0.3909  0.1007
 6508TIP3   OH219529   3.005   5.805   2.147 -0.4205 -0.1656 -0.1088
 6508TIP3    H119530   3.073   5.868   2.124 -1.4678  1.2731  0.5247
 6508TIP3    H219531   3.039   5.758   2.223  1.1792 -1.7933 -1.7394
 6509TIP3   OH219532   1.502   5.797   2.676  0.2986  0.4056  0.0227
 6509TIP3    H119533   1.562   5.851   2.625  1.4287 -1.1314 -0.3580
 6509TIP3    H219534   1.529   5.809   2.767  1.3933 -0.4684 -0.1668
 6510TIP3   OH219535   4.429   0.171   1.431 -0.3100  0.1446  0.1010
 6510TIP3    H119536   4.341   0.138   1.447 -0.5274  0.1100 -1.0443
 6510TIP3    H219537   4.448   0.228   1.505 -0.5516 -1.2990  1.3064
 6511TIP3   OH219538   4.330   0.642   4.523 -0.2874  0.2162  0.5311
 6511TIP3    H119539   4.255   0.698   4.541 -1.0872 -0.3896 -0.7381
 6511TIP3    H219540   4.405   0.689   4.560 -0.7601  2.6553 -1.3326
 6512TIP3   OH219541   2.542   0.641   1.996 -0.0731  0.4336  0.3462
 6512TIP3    H119542   2.521   0.603   2.081  2.0503 -2.1277 -0.1472
 6512TIP3    H219543   2.459   0.642   1.949 -1.0210  0.6502  1.9495
 6513TIP3   OH219544   1.157   3.740   0.196  0.4040 -0.1591 -0.0092
 6513TIP3    H119545   1.077   3.712   0.241  1.0724 -1.1472  0.6113
 6513TIP3    H219546   1.158   3.836   0.206  0.8003 -0.3594  2.6320
 6514TIP3   OH219547   5.091   2.831   5.045  0.2820  0.5826  0.4135
 6514TIP3    H119548   5.070   2.917   5.006  1.0706  0.0934 -1.1834
 6514TIP3    H219549   5.013   2.778   5.028 -0.4541  1.1008  1.9337
 6515TIP3   OH219550   4.783   2.320   4.176 -0.3267 -0.2510  0.7228
 6515TIP3    H119551   4.863   2.323   4.228  0.0136 -0.5380  0.2219
 6515TIP3    H219552   4.788   2.396   4.118 -1.2116  0.6884  1.8163
 6516TIP3   OH219553   1.870   2.967   4.557 -0.1370  0.4730  0.0988
 6516TIP3    H119554   1.828   3.050   4.534  0.9025  0.9711 -0.0781
 6516TIP3    H219555   1.810   2.926   4.619 -0.7548  1.2719  0.0518
 6517TIP3   OH219556   1.578   3.267   1.109 -0.1397 -0.0251  0.2652
 6517TIP3    H119557   1.608   3.302   1.193  0.6389 -0.6874  0.2764
 6517TIP3    H219558   1.570   3.344   1.053  1.8625  0.1841  0.1845
 6518TIP3   OH219559   0.162   5.498   1.455 -0.7794 -0.3035 -0.1096
 6518TIP3    H119560   0.175   5.583   1.412  0.0610 -0.5904 -0.4458
 6518TIP3    H219561   0.119   5.519   1.538  0.7482  0.6160  0.4958
 6519TIP3   OH219562   2.710   4.644   4.784  0.8868  0.0516  0.4428
 6519TIP3    H119563   2.655   4.707   4.738  0.4249 -0.9518 -0.4152
 6519TIP3    H219564   2.648   4.582   4.823  1.3828 -0.9688 -0.3468
 6520TIP3   OH219565   2.515   5.953   0.379 -0.2204 -0.6393  0.5722
 6520TIP3    H119566   2.456   5.919   0.312  0.5742 -0.4644 -0.2413
 6520TIP3    H219567   2.563   5.876   0.410  0.3600 -0.5344 -0.0373
 6521TIP3   OH219568   0.034   2.345   2.523 -0.1331 -0.6124 -0.1917
 6521TIP3    H119569   0.092   2.366   2.450 -1.5977 -0.4610 -1.3573
 6521TIP3    H219570  -0.029   2.417   2.525 -1.7700 -1.9662 -0.5941
 6522TIP3   OH219571   5.124   2.145   3.728  0.0014 -0.3366  0.0916
 6522TIP3    H119572   5.178   2.068   3.711 -0.4832 -1.2303  2.2782
 6522TIP3    H219573   5.055   2.141   3.662  0.7747 -0.9636 -0.7020
 6523TIP3   OH219574   4.020   2.197   1.455  0.4847 -0.0204 -0.6369
 6523TIP3    H119575   4.060   2.248   1.525 -0.4365  0.2719 -0.3091
 6523TIP3    H219576   4.066   2.113   1.457 -0.3184 -0.4680  1.1110
 6524TIP3   OH219577   3.283   5.930   4.256 -0.5548  0.0384  0.3439
 6524TIP3    H119578   3.372   5.965   4.262 -0.1113 -0.5798 -1.8158
 6524TIP3    H219579   3.246   5.945   4.343  0.4080  3.6364  0.3191
 6525TIP3   OH219580   3.849   0.418   3.350  0.3041  0.5270 -0.0937
 6525TIP3    H119581   3.790   0.422   3.275 -0.2610  0.0606  0.3243
 6525TIP3    H219582   3.922   0.363   3.321 -0.1788 -0.1030 -0.1209
 6526TIP3   OH219583   5.455   2.912   3.987  0.3863 -0.0422 -0.4065
 6526TIP3    H119584   5.424   3.002   4.001  0.8276  0.0920 -0.2919
 6526TIP3    H219585   5.379   2.858   4.008 -0.5028  0.3752 -2.3535
 6527TIP3   OH219586   0.159   0.365   2.913 -0.4336  0.4025  0.3093
 6527TIP3    H119587   0.159   0.421   2.991 -1.6128  0.7471  0.0773
 6527TIP3    H219588   0.066   0.354   2.892 -0.1277  1.8578 -2.1288
 6528TIP3   OH219589   2.509   2.295   2.825  0.3883 -0.0228 -0.0749
 6528TIP3    H119590   2.437   2.351   2.853  0.7161  0.2497  0.2215
 6528TIP3    H219591   2.470   2.237   2.759 -0.1191  0.0646  0.1486
 6529TIP3   OH219592   6.048   5.419   1.549  0.2615  0.3694 -0.0205
 6529TIP3    H119593   6.066   5.425   1.642  0.0211  0.3647  0.0284
 6529TIP3    H219594   6.124   5.374   1.512  0.1331 -0.0774  0.2517
 6530TIP3   OH219595   0.439   2.343   3.422  0.0235  0.4035  0.5000
 6530TIP3    H119596   0.466   2.268   3.474  1.0421  0.6895  0.4101
 6530TIP3    H219597   0.362   2.313   3.374  0.1815 -0.4472  0.7662
 6531TIP3   OH219598   0.959   1.708   2.097 -0.0082 -0.1526  0.2517
 6531TIP3    H119599   0.934   1.777   2.036 -2.5276 -0.1641  1.1425
 6531TIP3    H219600   1.055   1.708   2.096  0.0413  1.8870 -1.3690
 6532TIP3   OH219601   4.982   4.331   4.867  0.7053 -0.5421 -0.0648
 6532TIP3    H119602   5.064   4.294   4.833  1.1150  0.0292  0.2981
 6532TIP3    H219603   4.955   4.394   4.800  1.2760  0.2537  0.4423
 6533TIP3   OH219604   4.354   4.911   2.130  0.4740  0.3689 -0.2408
 6533TIP3    H119605   4.354   5.007   2.134  0.6161  0.3891 -0.6595
 6533TIP3    H219606   4.283   4.890   2.070 -0.1497  0.1736  0.5541
 6534TIP3   OH219607   0.452   5.299   4.843 -0.2708  0.0995 -0.0883
 6534TIP3    H119608   0.408   5.349   4.912  1.1120  0.5383  0.5183
 6534TIP3    H219609   0.438   5.351   4.763  0.8129  1.2832  0.4618
 6535TIP3   OH219610   2.821   1.306   4.160 -0.2003  0.0720 -0.2455
 6535TIP3    H119611   2.812   1.241   4.090 -0.1424 -0.3008  0.0884
 6535TIP3    H219612   2.755   1.372   4.140  2.5372  2.2375 -3.0767
 6536TIP3   OH219613   5.632   2.913   0.397 -0.5378  0.1477  0.3184
 6536TIP3    H119614   5.602   2.866   0.475  1.0095  0.7863  1.3469
 6536TIP3    H219615   5.717   2.949   0.422  0.5209 -0.5241 -2.0204
 6537TIP3   OH219616   3.242   2.693   3.102 -0.2554  0.6689  0.1714
 6537TIP3    H119617   3.335   2.700   3.121 -0.4186  1.6580  0.6984
 6537TIP3    H219618   3.238   2.648   3.017  0.6659  0.1057  0.4155
 6538TIP3   OH219619   4.835   2.218   3.039 -0.0756 -0.0122  0.3100
 6538TIP3    H119620   4.866   2.306   3.060 -0.5290 -0.1295  1.5901
 6538TIP3    H219621   4.786   2.229   2.957 -1.3356  1.2223  1.1632
 6539TIP3   OH219622   1.241   1.286   3.027  0.3947  0.6666  0.5842
 6539TIP3    H119623   1.210   1.295   3.117  1.6289  0.0369  1.0825
 6539TIP3    H219624   1.177   1.336   2.975 -0.5989  0.6382  1.7379
 6540TIP3   OH219625   3.510   0.683   1.062 -0.6224  0.4934 -0.2185
 6540TIP3    H119626   3.426   0.699   1.019  0.0941  1.7982 -1.2438
 6540TIP3    H219627   3.575   0.704   0.995  0.5319 -0.9428  0.3980
 6541TIP3   OH219628   4.962   0.798   1.154  0.3786  0.2307 -0.2383
 6541TIP3    H119629   5.055   0.797   1.178  0.4351 -0.6214 -0.4505
 6541TIP3    H219630   4.919   0.845   1.225  0.6116 -1.8144  1.3500
 6542TIP3   OH219631   0.325   2.947   1.696  0.5159 -0.2128 -0.0978
 6542TIP3    H119632   0.269   2.910   1.628  1.4877 -1.7776 -0.0935
 6542TIP3    H219633   0.357   3.029   1.658 -0.5022 -0.0789 -0.7153
 6543TIP3   OH219634   3.628   1.489   3.211  0.6603 -0.0175  0.0848
 6543TIP3    H119635   3.629   1.478   3.116 -1.4296  0.4638 -0.0280
 6543TIP3    H219636   3.677   1.570   3.226  1.2582 -0.2559 -0.5440
 6544TIP3   OH219637   5.392   5.862   2.082 -0.2411  0.3531 -0.0695
 6544TIP3    H119638   5.327   5.905   2.027  0.4430  1.2004 -0.2413
 6544TIP3    H219639   5.440   5.805   2.023  0.2219  0.9514 -0.2865
 6545TIP3   OH219640   3.451   0.779   4.384  0.1823  0.2655 -0.6199
 6545TIP3    H119641   3.388   0.707   4.376 -0.8339  1.2987 -2.8872
 6545TIP3    H219642   3.409   0.842   4.443 -0.5731  0.5723 -1.4644
 6546TIP3   OH219643   2.931   0.125   3.261 -0.3163 -0.1891  0.5144
 6546TIP3    H119644   2.980   0.082   3.190 -1.8361  0.5466 -1.0309
 6546TIP3    H219645   2.868   0.059   3.290  0.5238 -0.6103  1.4847
 6547TIP3   OH219646   1.689   3.077   4.767 -0.1094  0.4419  0.4216
 6547TIP3    H119647   1.767   3.081   4.823 -0.2019 -0.3078  0.6120
 6547TIP3    H219648   1.616   3.090   4.828 -0.1821  0.1770  0.3901
 6548TIP3   OH219649   5.680   1.156   3.639 -0.3424 -0.1841 -0.2769
 6548TIP3    H119650   5.700   1.222   3.572 -1.2801 -1.0879 -1.5081
 6548TIP3    H219651   5.662   1.206   3.718 -0.9440  1.0442 -1.1618
 6549TIP3   OH219652   0.250   0.805   5.042  0.2616 -0.0402  0.1451
 6549TIP3    H119653   0.300   0.884   5.021  2.4956 -1.5014 -0.2819
 6549TIP3    H219654   0.297   0.765   5.114  0.1520 -1.8516 -0.7444
 6550TIP3   OH219655   2.496   1.707   5.008 -0.1890 -0.9882  0.0092
 6550TIP3    H119656   2.535   1.625   5.039  0.3180  0.3004  3.0085
 6550TIP3    H219657   2.443   1.738   5.081 -0.9009  1.0676 -1.2946
 6551TIP3   OH219658   2.035   3.034   2.688  0.1467  0.2864  0.1742
 6551TIP3    H119659   2.075   3.079   2.762 -3.2250  0.7495  1.9051
 6551TIP3    H219660   1.998   2.954   2.724  0.8559 -0.9399 -1.6596
 6552TIP3   OH219661   0.628   3.859   0.684 -0.4022 -0.1984 -0.3079
 6552TIP3    H119662   0.621   3.855   0.780  1.4657 -2.4620 -0.1598
 6552TIP3    H219663   0.721   3.871   0.667 -0.7280  0.3305 -1.8620
 6553TIP3   OH219664   1.213   1.345   0.814  0.0367 -0.4728 -0.2899
 6553TIP3    H119665   1.170   1.274   0.767  0.0414 -0.4938 -0.2626
 6553TIP3    H219666   1.223   1.414   0.749  0.0094 -0.4877 -0.3101
 6554TIP3   OH219667   1.207   4.191   0.624  0.0567 -0.3127  0.0923
 6554TIP3    H119668   1.197   4.165   0.716 -0.4614  0.4465  0.2607
 6554TIP3    H219669   1.264   4.124   0.586  1.2460 -0.0057  1.2483
 6555TIP3   OH219670   0.206   1.966   4.155 -0.2927 -0.1244  0.0981
 6555TIP3    H119671   0.150   2.044   4.155  0.3689  0.3677  0.7890
 6555TIP3    H219672   0.175   1.915   4.230  1.2487  0.9808  1.5800
 6556TIP3   OH219673   1.230   1.004   1.081 -0.0628 -0.3741 -0.0034
 6556TIP3    H119674   1.314   0.985   1.039 -0.0881  0.0020 -0.2287
 6556TIP3    H219675   1.169   1.018   1.008 -0.1264  0.1981  0.1589
 6557TIP3   OH219676   2.562   5.177   0.981  0.3284  0.1835 -0.4305
 6557TIP3    H119677   2.517   5.262   0.984 -0.6635 -0.3474  1.3218
 6557TIP3    H219678   2.622   5.180   1.056 -2.2933 -1.9455  1.9396
 6558TIP3   OH219679   1.348   4.386   2.405  0.1389 -0.0554 -0.4447
 6558TIP3    H119680   1.265   4.404   2.359 -1.2720 -1.2361  1.4935
 6558TIP3    H219681   1.325   4.320   2.471  2.9204 -1.4229 -0.6884
 6559TIP3   OH219682   6.068   0.136   1.605  0.3201 -0.2423  0.6112
 6559TIP3    H119683   6.010   0.213   1.604  0.6253 -0.0167  0.2518
 6559TIP3    H219684   6.022   0.071   1.551  0.6549  0.1240 -0.1207
 6560TIP3   OH219685   0.527   0.059   0.559 -0.5429  0.1700 -0.2680
 6560TIP3    H119686   0.542   0.019   0.473 -0.3928 -0.6679  0.1309
 6560TIP3    H219687   0.439   0.029   0.583 -0.6792  0.6011 -0.2335
 6561TIP3   OH219688   0.158   5.661   4.899 -0.2045 -0.2871 -0.0075
 6561TIP3    H119689   0.250   5.638   4.889 -0.0712  0.0713  0.3867
 6561TIP3    H219690   0.157   5.756   4.907 -0.6441 -0.2551 -0.3653
 6562TIP3   OH219691   3.317   4.430   1.424 -0.0110 -0.1839 -0.1507
 6562TIP3    H119692   3.368   4.470   1.353 -0.4954 -0.2122 -0.5207
 6562TIP3    H219693   3.366   4.351   1.447  0.2963 -0.0282 -0.2636
 6563TIP3   OH219694   1.932   0.028   2.029  0.3921 -0.3588  0.7856
 6563TIP3    H119695   1.878   0.100   2.060  0.1730 -0.6339  1.0495
 6563TIP3    H219696   1.975   0.062   1.950  0.0349 -0.0528  0.7196
 6564TIP3   OH219697   1.013   4.825   3.681 -0.2524 -0.0312 -0.7334
 6564TIP3    H119698   0.931   4.873   3.674  0.1543  0.7100 -0.5943
 6564TIP3    H219699   0.988   4.736   3.706 -1.0807 -0.1060 -1.7581
 6565TIP3   OH219700   0.914   4.472   0.919 -0.0907  0.1613  0.0880
 6565TIP3    H119701   0.856   4.488   0.993 -1.7365  1.3206 -1.3817
 6565TIP3    H219702   0.857   4.437   0.851  1.1794  0.0905 -0.9732
 6566TIP3   OH219703   1.017   2.936   4.117 -0.0130  0.3922  0.1772
 6566TIP3    H119704   1.021   2.847   4.081 -0.3925 -0.0938  1.2922
 6566TIP3    H219705   1.059   2.990   4.051 -3.3495  0.0494 -2.5074
 6567TIP3   OH219706   5.649   4.583   3.736 -0.1459  0.0093 -0.5217
 6567TIP3    H119707   5.655   4.523   3.810  0.9169  0.8516  0.1003
 6567TIP3    H219708   5.557   4.609   3.734 -0.3716 -0.7173 -0.0742
 6568TIP3   OH219709   1.375   5.612   2.941 -0.7662  0.7906  0.0446
 6568TIP3    H119710   1.470   5.626   2.945 -0.3782 -1.4288  0.1566
 6568TIP3    H219711   1.362   5.558   2.864 -1.4471 -1.8018  1.8366
 6569TIP3   OH219712   4.159   4.807   0.232 -0.0684  0.8100 -0.6138
 6569TIP3    H119713   4.069   4.775   0.239 -0.5985  2.2228 -0.7716
 6569TIP3    H219714   4.162   4.852   0.148  1.2470 -0.5418 -1.3493
 6570TIP3   OH219715   4.570   4.841   4.771 -0.3128  0.0061 -0.5726
 6570TIP3    H119716   4.530   4.789   4.701  0.4224 -0.4613 -0.6580
 6570TIP3    H219717   4.503   4.845   4.839 -1.8749  2.2887 -2.1243
 6571TIP3   OH219718   3.709   2.548   2.222  0.0894  0.0071  0.2270
 6571TIP3    H119719   3.786   2.603   2.239  1.7198 -1.9440 -0.3921
 6571TIP3    H219720   3.736   2.491   2.150 -1.4034 -1.7866  1.0199
 6572TIP3   OH219721   5.532   4.673   4.833 -0.7587 -0.1781 -0.0395
 6572TIP3    H119722   5.599   4.665   4.902  0.1557  0.8316 -0.7745
 6572TIP3    H219723   5.463   4.725   4.873  0.0998  1.0397 -0.0845
 6573TIP3   OH219724   1.763   3.095   2.564  0.1560  0.2308 -0.3299
 6573TIP3    H119725   1.682   3.060   2.599 -0.7448  1.1849 -1.4042
 6573TIP3    H219726   1.832   3.043   2.606 -0.9314  0.2471  1.5746
 6574TIP3   OH219727   5.012   1.624   4.803 -0.4438  0.2289 -0.3343
 6574TIP3    H119728   5.018   1.650   4.894  1.5363 -0.2107 -0.3018
 6574TIP3    H219729   5.092   1.657   4.762 -0.1564 -1.5734 -1.3635
 6575TIP3   OH219730   0.365   2.747   0.050  0.8449  0.1710  0.0831
 6575TIP3    H119731   0.332   2.678  -0.007  0.4867  0.1243  0.3380
 6575TIP3    H219732   0.431   2.704   0.105 -1.1281 -0.6347  1.9888
 6576TIP3   OH219733   6.078   4.257   4.393  0.1343 -0.2382 -0.7571
 6576TIP3    H119734   6.042   4.316   4.459  0.5832  1.6252 -2.0938
 6576TIP3    H219735   6.024   4.178   4.399  0.3850 -0.3066  2.0321
 6577TIP3   OH219736   5.043   1.398   1.196 -0.7218 -0.0500  0.0735
 6577TIP3    H119737   5.041   1.384   1.102 -1.0511  1.6235 -0.1887
 6577TIP3    H219738   4.961   1.443   1.216  0.4273  1.8348  0.7500
 6578TIP3   OH219739   3.244   0.061   3.869  0.1335 -0.0314 -0.4885
 6578TIP3    H119740   3.319   0.086   3.816  0.8378  0.3586  0.6609
 6578TIP3    H219741   3.179   0.031   3.805  1.2688 -0.4402 -1.4981
 6579TIP3   OH219742   5.437   0.112   1.152 -0.0058  0.1607 -0.1078
 6579TIP3    H119743   5.449   0.056   1.076 -0.7331 -0.1995  0.0291
 6579TIP3    H219744   5.375   0.064   1.207 -1.0275  1.3037 -0.2052
 6580TIP3   OH219745   5.712   0.593   0.303 -0.0535  0.2604 -0.0880
 6580TIP3    H119746   5.645   0.590   0.371 -1.2012 -0.8283 -1.2172
 6580TIP3    H219747   5.674   0.546   0.229  2.5067 -1.7091 -0.2895
 6581TIP3   OH219748   5.380   1.354   2.776  0.6904  0.0338  0.4159
 6581TIP3    H119749   5.388   1.278   2.718 -2.0910 -0.5561  0.6779
 6581TIP3    H219750   5.367   1.317   2.863 -0.3905  0.7986  0.5966
 6582TIP3   OH219751   2.899   1.731   3.262  0.6819 -0.4620  0.1264
 6582TIP3    H119752   2.879   1.682   3.182 -1.1681  0.2491  0.1086
 6582TIP3    H219753   2.940   1.812   3.230  1.5484 -0.9348  0.0182
 6583TIP3   OH219754   4.179   1.960   3.449 -0.1335 -0.2356  0.3286
 6583TIP3    H119755   4.266   1.956   3.488 -0.1447  0.9584  0.5012
 6583TIP3    H219756   4.194   1.971   3.356 -0.0535  1.9460  0.5552
 6584TIP3   OH219757   2.822   4.176   3.866 -0.3770  0.2160 -0.3687
 6584TIP3    H119758   2.903   4.157   3.817  0.3563 -0.0117  0.8941
 6584TIP3    H219759   2.754   4.127   3.820  0.2581  0.1268 -1.2478
 6585TIP3   OH219760   5.412   3.542   0.043 -0.9219  0.2113 -0.0214
 6585TIP3    H119761   5.423   3.601  -0.031 -0.2224  0.2823  0.1330
 6585TIP3    H219762   5.400   3.600   0.118 -1.4527  0.1400 -0.0435
 6586TIP3   OH219763   1.154   5.331   3.275 -0.1355 -0.2669  0.2154
 6586TIP3    H119764   1.179   5.240   3.292 -1.7280 -1.0053 -1.0499
 6586TIP3    H219765   1.235   5.374   3.249  0.3884 -1.7597 -0.7357
 6587TIP3   OH219766   0.613   2.379   2.277 -0.0565  0.6210  0.1663
 6587TIP3    H119767   0.632   2.439   2.204  0.9820  1.4261  1.0657
 6587TIP3    H219768   0.566   2.432   2.341 -0.3164  0.1108  0.4070
 6588TIP3   OH219769   2.628   5.206   1.526 -0.0072  0.1139  0.2948
 6588TIP3    H119770   2.715   5.199   1.487 -0.2163  0.4100 -0.2362
 6588TIP3    H219771   2.570   5.165   1.462 -0.0988 -1.3908  1.2898
 6589TIP3   OH219772   1.721   1.569   5.125 -0.4295  0.7881  0.5382
 6589TIP3    H119773   1.677   1.510   5.065  0.7728 -1.0438  1.3665
 6589TIP3    H219774   1.764   1.634   5.069  0.5686 -0.8037 -0.6037
 6590TIP3   OH219775   5.092   2.962   1.580 -0.2053 -0.3579 -0.6043
 6590TIP3    H119776   5.087   3.058   1.582  1.7779 -0.1936 -1.1211
 6590TIP3    H219777   5.186   2.943   1.572 -0.4270 -2.3838  0.8984
 6591TIP3   OH219778   4.388   4.623   2.564 -0.4702  0.2645 -0.1465
 6591TIP3    H119779   4.300   4.661   2.572 -1.1950 -0.8282 -2.1915
 6591TIP3    H219780   4.392   4.558   2.634 -1.7935 -0.4944 -0.7355
 6592TIP3   OH219781   3.101   1.207   3.632  0.1235 -0.0669  0.2187
 6592TIP3    H119782   3.069   1.249   3.712  0.5144 -0.1204  0.4044
 6592TIP3    H219783   3.099   1.113   3.651 -1.9926 -0.2598 -0.6471
 6593TIP3   OH219784   2.663   4.322   1.298 -0.5691 -0.4164  0.0213
 6593TIP3    H119785   2.637   4.332   1.389  1.0808  2.1118  0.3054
 6593TIP3    H219786   2.614   4.390   1.251  0.6697  0.1297 -0.5048
 6594TIP3   OH219787   0.027   4.164   2.854  0.0123  0.5652 -0.3310
 6594TIP3    H119788   0.006   4.187   2.764  1.5369 -0.3906 -0.9577
 6594TIP3    H219789  -0.001   4.241   2.905 -0.2653  1.3947 -1.6886
 6595TIP3   OH219790   0.428   3.059   4.522 -0.0247  0.2260  1.0287
 6595TIP3    H119791   0.489   3.123   4.558  1.0809  0.4894 -1.1055
 6595TIP3    H219792   0.346   3.076   4.567  1.3570  0.0733  3.7752
 6596TIP3   OH219793   3.710   2.066   3.463 -0.5725 -0.2663 -0.0524
 6596TIP3    H119794   3.646   2.090   3.530  1.0848  1.7011  0.9421
 6596TIP3    H219795   3.716   1.970   3.469 -0.4932 -0.1673  2.6391
 6597TIP3   OH219796   5.607   0.333   3.014 -0.2985  0.4076  0.1629
 6597TIP3    H119797   5.589   0.240   3.005  0.6277  0.3842 -1.7147
 6597TIP3    H219798   5.612   0.366   2.925 -0.6298  2.2829  0.7850
 6598TIP3   OH219799   5.281   2.538  -0.013  0.0986  0.3668 -0.5351
 6598TIP3    H119800   5.219   2.465  -0.017  0.3929  0.0758  0.1378
 6598TIP3    H219801   5.265   2.578   0.072  1.3790 -0.1927 -0.0184
 6599TIP3   OH219802   5.407   4.284   2.317 -0.2101 -0.3692  0.7510
 6599TIP3    H119803   5.357   4.235   2.382  0.9896  0.4530  2.3559
 6599TIP3    H219804   5.498   4.275   2.345  0.0858  2.7473  1.1604
 6600TIP3   OH219805   5.819  -0.018   1.767  0.1238 -0.0210 -0.0259
 6600TIP3    H119806   5.822   0.034   1.686 -2.4141  0.2760 -0.0197
 6600TIP3    H219807   5.877   0.028   1.827  1.1628  0.4085 -1.3014
 6601TIP3   OH219808   3.773   5.959   1.448  0.0073 -0.1700  0.3422
 6601TIP3    H119809   3.766   5.942   1.354 -1.6736  1.9342  0.0253
 6601TIP3    H219810   3.830   5.888   1.481 -2.0887 -3.0166 -1.6670
 6602TIP3   OH219811   0.165   2.147   2.037 -0.2105 -0.0170 -0.4444
 6602TIP3    H119812   0.137   2.223   1.986  3.7095  0.8443 -1.6585
 6602TIP3    H219813   0.183   2.181   2.124 -1.4413 -0.2807 -0.0687
 6603TIP3   OH219814   3.098   2.971   3.226 -0.1794  0.0978  0.0287
 6603TIP3    H119815   3.188   3.003   3.224  0.5591 -1.8576 -0.6838
 6603TIP3    H219816   3.054   3.017   3.155  0.5668  0.2699 -0.3309
 6604TIP3   OH219817   3.984   5.607   2.885  0.2339 -0.2370 -0.2607
 6604TIP3    H119818   4.041   5.563   2.822 -1.8153 -2.3714 -0.7762
 6604TIP3    H219819   4.033   5.603   2.968  0.9763 -1.7137 -0.7325
 6605TIP3   OH219820   3.346   2.050   0.908  0.2890  0.0315 -0.2121
 6605TIP3    H119821   3.293   2.041   0.987  0.0291  0.6117 -0.3160
 6605TIP3    H219822   3.347   1.962   0.870  1.8685 -0.6881  1.3308
 6606TIP3   OH219823   2.168   0.200   0.890  0.0504 -0.6727 -0.1196
 6606TIP3    H119824   2.076   0.188   0.914  0.4764 -3.3195  0.5054
 6606TIP3    H219825   2.211   0.224   0.971 -0.0848  0.7100 -0.4417
 6607TIP3   OH219826   4.405   0.157   4.138 -0.2243 -0.0547 -0.4178
 6607TIP3    H119827   4.360   0.190   4.216 -1.3592 -1.4256 -0.4530
 6607TIP3    H219828   4.336   0.150   4.072  0.3887 -0.5623 -1.0194
 6608TIP3   OH219829   6.193   2.202   1.759  0.2055  0.1724  0.4768
 6608TIP3    H119830   6.098   2.214   1.758  0.2784  0.8512  0.8303
 6608TIP3    H219831   6.220   2.211   1.668 -0.1786 -1.0122  0.2362
 6609TIP3   OH219832   5.499   0.491   3.704  0.2701  0.0619  0.1287
 6609TIP3    H119833   5.523   0.399   3.713  0.2790  0.1420  1.0045
 6609TIP3    H219834   5.405   0.493   3.720 -0.0321 -0.0033 -1.4995
 6610TIP3   OH219835   0.698   5.030   1.618  0.4250 -0.3466 -0.0060
 6610TIP3    H119836   0.689   5.124   1.598  0.5765 -0.7401 -2.1619
 6610TIP3    H219837   0.772   5.026   1.679  0.4526  0.9344  0.0752
 6611TIP3   OH219838   2.103   5.203   1.620 -0.4428  0.3063 -0.2022
 6611TIP3    H119839   2.149   5.170   1.697  1.4876 -0.4156 -1.5749
 6611TIP3    H219840   2.059   5.126   1.583  0.3403  0.1887 -0.9239
 6612TIP3   OH219841   2.807   0.464   0.181  0.3082 -0.1511  0.3224
 6612TIP3    H119842   2.735   0.443   0.240  0.0659 -0.4728 -0.0805
 6612TIP3    H219843   2.804   0.395   0.114  2.4195 -1.5282  1.5295
 6613TIP3   OH219844   3.616   4.443   2.748  0.2475 -0.3302 -0.1944
 6613TIP3    H119845   3.534   4.422   2.702  1.3037  0.4432 -2.5739
 6613TIP3    H219846   3.653   4.357   2.768  0.1383 -0.7367 -1.5829
 6614TIP3   OH219847   4.535   4.442   2.071 -0.3146 -0.7556  0.0052
 6614TIP3    H119848   4.477   4.500   2.022 -1.3136 -1.1587  0.6779
 6614TIP3    H219849   4.507   4.453   2.162  0.8036 -0.8148  0.3661
 6615TIP3   OH219850   6.225   5.252   0.605  0.3923 -0.0119 -0.0214
 6615TIP3    H119851   6.249   5.169   0.563 -1.2613 -0.2929 -0.4745
 6615TIP3    H219852   6.191   5.226   0.691 -1.5026  0.0194 -0.7211
 6616TIP3   OH219853   4.802   5.664   1.567  0.3557 -0.5544 -0.3830
 6616TIP3    H119854   4.798   5.570   1.585 -0.5956 -0.2983  0.8928
 6616TIP3    H219855   4.777   5.705   1.650  1.8734  0.8548 -0.5720
 6617TIP3   OH219856   4.632   1.434   3.150  0.2014 -0.3750 -0.4099
 6617TIP3    H119857   4.657   1.430   3.243 -1.2534  0.4380  0.0479
 6617TIP3    H219858   4.654   1.347   3.116 -1.4390 -1.5372  1.2981
 6618TIP3   OH219859   4.175   0.861   4.633  0.2881  0.4397 -0.0942
 6618TIP3    H119860   4.134   0.944   4.655  0.0823 -0.2072  2.2213
 6618TIP3    H219861   4.102   0.800   4.625  0.3411  0.6308 -2.8956
 6619TIP3   OH219862   5.913   4.333   2.322  0.1222 -0.4355  0.2342
 6619TIP3    H119863   5.882   4.399   2.259  1.9672 -0.7254 -1.0582
 6619TIP3    H219864   5.953   4.383   2.392  1.6944 -0.1054 -0.8369
 6620TIP3   OH219865   4.359   2.157   1.878  0.2611 -0.1681 -0.0351
 6620TIP3    H119866   4.429   2.111   1.832  0.0925  0.5642 -1.0635
 6620TIP3    H219867   4.360   2.121   1.966 -0.0431 -2.3214 -0.8699
 6621TIP3   OH219868   2.805   5.495   1.323  0.0421 -0.2184 -0.2787
 6621TIP3    H119869   2.756   5.539   1.393 -0.7985  0.5321 -1.2973
 6621TIP3    H219870   2.830   5.566   1.264 -2.6596 -1.1778 -2.7773
 6622TIP3   OH219871   0.359   3.905   0.931  0.0323  0.0621 -0.4477
 6622TIP3    H119872   0.303   3.959   0.875 -0.9736 -0.7144 -0.2234
 6622TIP3    H219873   0.299   3.866   0.995  0.4838 -2.2334 -1.3080
 6623TIP3   OH219874   6.321   4.859   4.402 -0.2199 -0.1960  0.2698
 6623TIP3    H119875   6.285   4.939   4.439  0.9241  0.5771 -0.2532
 6623TIP3    H219876   6.366   4.887   4.322 -1.2707 -1.5933 -0.8740
 6624TIP3   OH219877   1.545   1.851   3.972  0.1413  0.1013 -0.6377
 6624TIP3    H119878   1.544   1.792   3.897 -2.2384  0.3037 -0.8521
 6624TIP3    H219879   1.608   1.812   4.032  0.2772 -1.4298 -1.7052
 6625TIP3   OH219880   0.972   0.098   1.166 -0.3554  0.0795 -0.4429
 6625TIP3    H119881   0.905   0.079   1.231 -0.5251  0.2386 -0.5708
 6625TIP3    H219882   0.967   0.193   1.153  0.8002  0.3000  0.5385
 6626TIP3   OH219883   0.948   3.919   2.383  0.1444 -0.1339  0.4081
 6626TIP3    H119884   0.905   3.960   2.308 -0.2271 -0.2270  0.5677
 6626TIP3    H219885   0.947   3.826   2.364 -0.6366 -0.2320  0.8706
 6627TIP3   OH219886   1.635   5.608   5.007  0.0954  0.1205 -0.0458
 6627TIP3    H119887   1.710   5.569   5.053 -0.4023 -0.3336  0.4029
 6627TIP3    H219888   1.565   5.543   5.016  0.1135 -0.2213 -1.8883
 6628TIP3   OH219889   3.255   0.634   1.016  0.1668  0.4003  0.7826
 6628TIP3    H119890   3.228   0.638   1.107  1.2955  2.2778  1.0800
 6628TIP3    H219891   3.177   0.602   0.969 -0.1389 -1.5087  2.4598
 6629TIP3   OH219892   2.619   1.844   1.135  0.2210 -0.3212  0.1403
 6629TIP3    H119893   2.580   1.929   1.153 -0.5001  0.0749 -2.7686
 6629TIP3    H219894   2.545   1.788   1.111  0.5735 -2.0944  2.7557
 6630TIP3   OH219895   3.827   0.745   3.216 -0.3940 -0.2297 -0.3790
 6630TIP3    H119896   3.735   0.759   3.242 -0.2413 -0.1827  0.1409
 6630TIP3    H219897   3.844   0.815   3.154 -0.5969  0.0025 -0.1812
 6631TIP3   OH219898   5.080   4.948   3.863  0.5788  0.6360  0.2098
 6631TIP3    H119899   5.089   4.855   3.884  0.1195  1.0221  2.3445
 6631TIP3    H219900   5.157   4.968   3.810  0.0759 -1.2007 -1.3331
 6632TIP3   OH219901   0.990   1.107   4.808 -0.2337 -0.2601  0.5146
 6632TIP3    H119902   1.067   1.163   4.816 -0.9644  0.8355  0.0785
 6632TIP3    H219903   1.011   1.030   4.861  1.0665  0.1164  0.5778
 6633TIP3   OH219904   3.758   3.360   1.260 -0.0916 -0.2781 -0.2633
 6633TIP3    H119905   3.673   3.323   1.285 -1.1893  1.1905 -1.6373
 6633TIP3    H219906   3.736   3.439   1.211  2.0949  0.1735 -0.5969
 6634TIP3   OH219907   5.917   5.527   4.298 -0.0950 -0.2168  0.2911
 6634TIP3    H119908   5.880   5.458   4.243  1.6766  0.6004 -2.0886
 6634TIP3    H219909   5.909   5.607   4.246  1.2501  0.6974  1.3883
 6635TIP3   OH219910   2.975   4.417   1.177 -0.5784  0.7087 -0.7366
 6635TIP3    H119911   2.929   4.495   1.145 -0.9043  0.8478  0.0355
 6635TIP3    H219912   2.980   4.430   1.272 -2.0460 -0.9552 -0.3926
 6636TIP3   OH219913   5.574   5.684   0.024 -0.3202  0.4256  0.1527
 6636TIP3    H119914   5.593   5.775   0.048 -0.8546  0.7103 -0.4558
 6636TIP3    H219915   5.481   5.673   0.046 -0.2631  0.0307  0.2025
 6637TIP3   OH219916   3.646   2.033   2.660 -0.1093  0.1632  0.1520
 6637TIP3    H119917   3.589   1.977   2.607  1.7332  0.6006 -2.4638
 6637TIP3    H219918   3.716   1.974   2.691 -0.4963  0.1763  1.1042
 6638TIP3   OH219919   3.444   4.077   4.266  0.1251  0.4602 -0.8927
 6638TIP3    H119920   3.388   4.002   4.285  0.8424  0.1761  0.1846
 6638TIP3    H219921   3.514   4.072   4.332 -0.2060  2.4856 -0.3522
 6639TIP3   OH219922   3.313   2.042   0.281 -0.2102  0.0961 -0.0663
 6639TIP3    H119923   3.319   2.033   0.186 -2.1926 -0.9612 -0.1358
 6639TIP3    H219924   3.353   1.963   0.316  3.2850  1.7783  0.1888
 6640TIP3   OH219925   3.975   2.860   4.216 -0.4365  0.1619  0.0067
 6640TIP3    H119926   4.014   2.919   4.152  0.1675  0.2428  0.4349
 6640TIP3    H219927   4.050   2.819   4.260 -0.8109  0.5521  1.0574
   6.35130   5.98805   5.18581   0.00000   0.00000  -2.11710   0.00000  -2.11710  -2.99404
