Title
29212
    1ASP      N    1   4.361   3.130   2.388 -0.2170  0.0757  0.5872
    1ASP    HT1    2   4.436   3.201   2.379  1.2120 -1.4792 -0.3196
    1ASP    HT2    3   4.266   3.165   2.363 -0.4330 -0.4745  0.6152
    1ASP    HT3    4   4.400   3.064   2.317 -0.8851  2.3782 -2.0821
    1ASP     CA    5   4.370   3.061   2.517  0.2191 -0.8781  0.2089
    1ASP     HA    6   4.468   3.015   2.522  1.3064  1.2791 -0.1724
    1ASP     CB    7   4.353   3.162   2.641 -0.5715  0.6221  0.3146
    1ASP    HB1    8   4.405   3.110   2.725  0.5230  0.0256 -0.7056
    1ASP    HB2    9   4.243   3.166   2.659 -0.9370 -2.8214 -0.3905
    1ASP     CG   10   4.414   3.302   2.634  0.0914  0.3259  0.2137
    1ASP    OD1   11   4.389   3.386   2.721 -0.3266 -0.4907 -0.0663
    1ASP    OD2   12   4.488   3.331   2.538 -0.5136 -0.8496  0.2617
    1ASP      C   13   4.287   2.943   2.526  0.2761  0.0655 -0.3327
    1ASP      O   14   4.209   2.902   2.438  0.2351  0.3770 -0.0538
    2GLY      N   15   4.300   2.876   2.642 -0.1078 -0.2229  0.3031
    2GLY     HN   16   4.348   2.919   2.718  0.5034  0.0396 -0.2292
    2GLY     CA   17   4.240   2.746   2.672 -0.2766 -0.5375  0.7790
    2GLY    HA1   18   4.149   2.732   2.616  0.2907 -5.0824  0.6309
    2GLY    HA2   19   4.224   2.739   2.779  0.3985 -0.0280  0.9253
    2GLY      C   20   4.337   2.638   2.627  0.3780  0.2896 -0.0990
    2GLY      O   21   4.459   2.649   2.634  0.5552  0.2582 -0.6608
    3ASP      N   22   4.281   2.525   2.575 -0.6665 -0.1059  0.8413
    3ASP     HN   23   4.182   2.514   2.579 -0.5225 -3.8690 -1.3018
    3ASP     CA   24   4.354   2.414   2.523  0.1568  0.1349  0.3701
    3ASP     HA   25   4.460   2.435   2.521  0.5236 -1.4179  1.3411
    3ASP     CB   26   4.334   2.286   2.615 -0.3320  0.1959  0.6422
    3ASP    HB1   27   4.388   2.198   2.573  0.1511  1.5405 -1.7658
    3ASP    HB2   28   4.224   2.272   2.620 -0.6655  2.1283 -0.4178
    3ASP     CG   29   4.386   2.311   2.752  0.5819  0.3990  0.5057
    3ASP    OD1   30   4.333   2.244   2.841  0.3931 -0.2327 -0.2979
    3ASP    OD2   31   4.491   2.374   2.775  0.2041  0.2875 -0.3202
    3ASP      C   32   4.319   2.367   2.383 -0.7785  0.1468  0.4551
    3ASP      O   33   4.206   2.373   2.339 -0.3500  0.0417 -0.4008
    4GLY      N   34   4.421   2.315   2.310  0.4893  0.1453  0.1925
    4GLY     HN   35   4.509   2.320   2.357 -0.3561  0.1173  1.8340
    4GLY     CA   36   4.409   2.247   2.183  0.5756  0.4291  0.3040
    4GLY    HA1   37   4.505   2.205   2.159 -0.3442 -2.0202  0.6015
    4GLY    HA2   38   4.378   2.314   2.104 -1.2033 -0.6854 -0.0123
    4GLY      C   39   4.314   2.123   2.176 -0.3133 -0.2995  0.0679
    4GLY      O   40   4.263   2.085   2.283 -0.4612 -0.2475 -0.2912
    5PRO      N   41   4.294   2.071   2.062 -0.3742 -0.3587 -0.1590
    5PRO     CD   42   4.326   2.135   1.930 -0.2254  0.6447 -0.6268
    5PRO    HD1   43   4.437   2.130   1.924 -0.2151 -0.8464  0.2311
    5PRO    HD2   44   4.290   2.240   1.928 -1.3291  0.3145  0.6684
    5PRO     CA   45   4.197   1.963   2.042  0.2894 -0.3314 -0.0868
    5PRO     HA   46   4.097   2.002   2.055  0.6349  1.6360 -2.5980
    5PRO     CB   47   4.217   1.921   1.898  0.1719  0.1209 -0.7517
    5PRO    HB1   48   4.119   1.889   1.857 -1.5457  1.8055  1.7361
    5PRO    HB2   49   4.289   1.838   1.882  1.1670  1.1619 -1.9111
    5PRO     CG   50   4.270   2.043   1.820 -0.8433 -0.7321  0.0717
    5PRO    HG1   51   4.350   2.024   1.745 -0.2399 -1.0548  0.7905
    5PRO    HG2   52   4.197   2.112   1.772  1.7630  1.4049 -1.1086
    5PRO      C   53   4.202   1.843   2.136 -0.3611  0.3144  0.1275
    5PRO      O   54   4.313   1.796   2.167 -0.3381  0.1904  0.7628
    6GLY      N   55   4.091   1.797   2.189 -0.2346 -0.1323  0.0056
    6GLY     HN   56   4.007   1.842   2.161 -0.0780  0.2795  0.1817
    6GLY     CA   57   4.076   1.691   2.287 -0.1426  0.1752  0.5926
    6GLY    HA1   58   3.978   1.700   2.332  0.0653  0.4652  0.9972
    6GLY    HA2   59   4.149   1.696   2.367 -1.7637 -0.2099  2.1695
    6GLY      C   60   4.079   1.551   2.218 -0.2168 -0.8936 -0.1174
    6GLY      O   61   4.084   1.535   2.100 -0.6402  0.0987  0.0476
    7ASP      N   62   4.056   1.451   2.302  0.1821  0.0308 -0.2741
    7ASP     HN   63   4.032   1.471   2.397 -3.1781  0.9272 -1.1675
    7ASP     CA   64   4.059   1.309   2.266 -0.0641  0.1501 -0.2324
    7ASP     HA   65   4.146   1.302   2.203  2.2830  1.6862  2.5850
    7ASP     CB   66   4.075   1.220   2.391  0.4825  0.7089 -0.0811
    7ASP    HB1   67   4.095   1.114   2.369  2.1612  1.2827 -1.5476
    7ASP    HB2   68   3.982   1.232   2.451  0.1321  2.4976 -0.9003
    7ASP     CG   69   4.193   1.261   2.486  0.2325  0.3465  0.6049
    7ASP    OD1   70   4.169   1.249   2.607  0.1948  0.4701  0.5504
    7ASP    OD2   71   4.301   1.292   2.429 -0.2937 -0.2435 -0.9828
    7ASP      C   72   3.946   1.261   2.183  0.2389 -0.1538  0.4040
    7ASP      O   73   3.830   1.295   2.216  0.0628 -0.5162  0.0812
    8PRO      N   74   3.962   1.182   2.078 -0.3837  0.1239  0.8096
    8PRO     CD   75   4.089   1.161   2.006 -0.2194 -0.7730 -0.4700
    8PRO    HD1   76   4.152   1.089   2.064  3.0100  1.5803 -0.7513
    8PRO    HD2   77   4.153   1.250   1.989  2.1335 -1.8600  1.9282
    8PRO     CA   78   3.847   1.105   2.029 -0.2063  0.2731  0.2205
    8PRO     HA   79   3.786   1.177   1.974  1.6746  1.2536 -0.6745
    8PRO     CB   80   3.918   1.011   1.931  0.4036 -0.7483  0.1991
    8PRO    HB1   81   3.857   0.976   1.845  0.4338 -0.9114  0.2424
    8PRO    HB2   82   3.950   0.918   1.984 -2.9432 -1.3038  1.5111
    8PRO     CG   83   4.039   1.092   1.882  0.9849  0.3623 -0.8932
    8PRO    HG1   84   4.121   1.025   1.851  2.7130  1.5262  0.9194
    8PRO    HG2   85   4.011   1.163   1.801  0.8104 -0.8613 -1.9336
    8PRO      C   86   3.753   1.028   2.125 -0.7984 -0.5089 -0.5243
    8PRO      O   87   3.801   0.973   2.223  0.3629  0.2549  0.7013
    9GLY      N   88   3.617   1.034   2.090  0.1699 -0.3650  0.4260
    9GLY     HN   89   3.582   1.090   2.015 -0.1773  0.0807  0.9107
    9GLY     CA   90   3.513   0.965   2.169 -0.1145  0.1453  0.4077
    9GLY    HA1   91   3.544   0.862   2.183 -0.7918 -0.2483 -0.8516
    9GLY    HA2   92   3.422   0.977   2.112  1.3999  0.1874 -2.1554
    9GLY      C   93   3.488   1.017   2.300 -0.6611  0.3236  0.1500
    9GLY      O   94   3.420   0.951   2.381  0.0955  0.7997 -0.2554
   10ASP      N   95   3.536   1.142   2.331  0.5659  0.6737 -0.4992
   10ASP     HN   96   3.591   1.195   2.267 -1.6344  1.0592 -2.1911
   10ASP     CA   97   3.500   1.228   2.444  0.0473  0.2345 -0.4711
   10ASP     HA   98   3.534   1.177   2.533 -1.1871  0.6852  0.2725
   10ASP     CB   99   3.587   1.359   2.439  0.3280  0.9354  0.2759
   10ASP    HB1  100   3.550   1.434   2.366 -0.5149  2.2222  1.9508
   10ASP    HB2  101   3.689   1.339   2.399  0.6456  1.6722  0.6968
   10ASP     CG  102   3.598   1.427   2.573 -0.4677 -0.3640 -0.1257
   10ASP    OD1  103   3.617   1.555   2.567  0.0579 -0.3985  0.1010
   10ASP    OD2  104   3.592   1.366   2.682  0.9575  0.2374 -0.0391
   10ASP      C  105   3.353   1.264   2.454  0.2711 -0.0086  0.0624
   10ASP      O  106   3.298   1.314   2.355 -0.1385 -0.3888  0.3784
   11GLY      N  107   3.281   1.225   2.562  0.8398  0.5735 -0.0281
   11GLY     HN  108   3.328   1.179   2.636 -0.8851  0.3553  0.9955
   11GLY     CA  109   3.142   1.253   2.598  0.4652  0.0058 -0.1122
   11GLY    HA1  110   3.118   1.337   2.534  2.0879  0.9246  0.4116
   11GLY    HA2  111   3.135   1.265   2.705 -1.6510 -0.5321 -0.1523
   11GLY      C  112   3.035   1.158   2.560 -0.1740  1.0285 -0.3375
   11GLY    OT1  113   2.915   1.195   2.579  0.4979  0.6387  0.6945
   11GLY    OT2  114   3.063   1.042   2.521  0.1011  0.1753  0.1374
   12SOD    SOD  115   3.607   1.426   0.312  0.0191 -0.1622 -0.4994
   13SOD    SOD  116   0.451   3.695   1.310 -0.0450  0.0620 -0.0298
   14SOD    SOD  117   2.522   4.082   3.691  0.6503 -0.1715 -0.2784
   15SOD    SOD  118   7.137   2.110   2.632  0.2904  0.2601  0.3923
   16SOD    SOD  119   3.981   2.852   2.347  0.4120 -0.0333  0.0807
   17SOD    SOD  120   2.666   1.042   2.860  0.1054 -0.2066 -0.3960
   18SOD    SOD  121   2.555   5.938   1.464 -0.5559 -0.4204  0.5230
   19SOD    SOD  122   5.558   5.597   0.252 -0.0380  0.0133  0.3546
   20SOD    SOD  123   1.204   3.136   0.458  0.3862 -0.1427 -0.0476
   21SOD    SOD  124   2.316   6.730   0.567  0.0621  0.0796 -0.0571
   22SOD    SOD  125   4.622   2.593   3.072  0.0487  0.5925 -0.2596
   23SOD    SOD  126   4.012   2.611   0.309 -0.1527 -0.0104 -0.0158
   24SOD    SOD  127   7.050   1.118   0.728 -0.3203 -0.1697 -0.4461
   25SOD    SOD  128   5.861   3.450   0.334  0.9296  0.5818  0.1694
   26SOD    SOD  129   3.725   6.451   4.511  0.1868 -0.2965 -0.5265
   27SOD    SOD  130   1.329   1.181   3.287  0.2839 -0.2264  0.1061
   28SOD    SOD  131   2.314   2.100   4.763 -0.3930 -0.0029  0.3101
   29SOD    SOD  132   4.936   5.774   3.501  0.4566  0.0028 -0.0514
   30SOD    SOD  133   3.140   1.922   4.812  0.4489 -0.0355 -0.0504
   31SOD    SOD  134   3.811   4.523   3.160 -0.1460 -0.4953  0.2866
   32SOD    SOD  135   0.753   2.738   4.972 -0.0617 -0.7060 -0.0172
   33SOD    SOD  136   1.801   0.133   0.226 -0.1176  0.1672 -0.2352
   34SOD    SOD  137   5.615   2.860   3.394  0.3008 -0.5353  0.1013
   35SOD    SOD  138   5.624   2.579   4.659  0.2662  0.0230  0.3570
   36SOD    SOD  139   3.593   1.562   3.567  0.1282 -0.2270 -0.0951
   37SOD    SOD  140   3.401   4.991   1.405  0.2495  0.1419 -0.8341
   38SOD    SOD  141   6.815   5.177   3.679 -0.0495 -0.1254 -0.4371
   39SOD    SOD  142   3.713   4.550   5.156 -0.1957  0.1088  0.3074
   40SOD    SOD  143   2.680   0.882   2.469 -0.3140 -0.3717 -0.2581
   41SOD    SOD  144   0.061   4.115   2.565 -0.4875 -0.1968 -0.3868
   42SOD    SOD  145   0.222   1.039   4.344 -0.2207  0.2056  0.0680
   43CLA    CLA  146   0.768   2.542   4.556 -0.2986 -0.2255 -0.2221
   44CLA    CLA  147   3.839   4.341   5.608 -0.1324 -0.4593  0.1371
   45CLA    CLA  148   0.900   0.362   1.037 -0.1159 -0.1804  0.0520
   46CLA    CLA  149   6.966   3.939   2.198  0.2397  0.5384 -0.3335
   47CLA    CLA  150   6.467   1.149   4.369  0.1966  0.3239 -0.5189
   48CLA    CLA  151   6.364   3.640   4.203  0.1949 -0.0563 -0.4031
   49CLA    CLA  152   2.000   6.549   1.991  0.3187  0.0826  0.3257
   50CLA    CLA  153   5.974   0.339   2.136  0.1389 -0.0561 -0.1065
   51CLA    CLA  154   2.035   3.163   4.270 -0.0585 -0.2885 -0.1136
   52CLA    CLA  155   4.776   5.312   0.300 -0.4320  0.4194  0.1597
   53CLA    CLA  156   4.420   1.118   0.883  0.1821  0.0790 -0.5108
   54CLA    CLA  157   3.236   2.581   0.760  0.4471 -0.1254  0.0343
   55CLA    CLA  158   6.347   4.841   0.196 -0.6420 -0.2504  0.0488
   56CLA    CLA  159   0.588   3.443   3.366 -0.0458  0.0257 -0.1411
   57CLA    CLA  160   3.422   0.589   3.646  0.2247 -0.0840 -0.3257
   58CLA    CLA  161   4.128   4.948   5.696 -0.3404 -0.1064 -0.2581
   59CLA    CLA  162   1.564   6.556   0.814  0.3087 -0.0215  0.1918
   60CLA    CLA  163   2.646   0.600   3.459  0.2743  0.1723 -0.0267
   61CLA    CLA  164   0.816   5.999   4.713 -0.0662 -0.1580 -0.2248
   62CLA    CLA  165   4.240   6.078   2.212 -0.2072  0.0449 -0.0204
   63CLA    CLA  166   6.808   6.090   3.085 -0.3483 -0.6825  0.2878
   64CLA    CLA  167   0.573   0.650   4.323 -0.2898  0.0898 -0.1739
   65CLA    CLA  168   3.608   4.989   3.258  0.0522  0.3257  0.2542
   66CLA    CLA  169   5.337   1.535   2.175 -0.0752  0.4361 -0.0747
   67CLA    CLA  170   6.910   5.494   1.418 -0.0519  0.3267 -0.1365
   68CLA    CLA  171   0.412   3.375   0.614 -0.0469 -0.1272  0.0152
   69CLA    CLA  172   5.699   1.584   5.675  0.2665  0.3605 -0.0518
   70TIP3   OH2  173   5.239   5.249   1.662 -0.0574  0.0026  0.0340
   70TIP3    H1  174   5.262   5.323   1.718 -1.9912  0.4413  0.3196
   70TIP3    H2  175   5.258   5.279   1.573  0.6402  0.2472  0.2618
   71TIP3   OH2  176   6.279   6.636   2.605 -0.3899 -0.3392  0.8199
   71TIP3    H1  177   6.357   6.691   2.612 -0.3125 -0.5124  1.3469
   71TIP3    H2  178   6.207   6.698   2.593 -0.3199 -0.1104  1.5411
   72TIP3   OH2  179   2.043   3.570   5.348  0.0540 -0.0061  0.0122
   72TIP3    H1  180   1.974   3.503   5.345 -0.3920  0.4761 -0.6660
   72TIP3    H2  181   2.123   3.520   5.364 -0.0132 -0.9177 -2.1863
   73TIP3   OH2  182   6.618   1.534   5.355 -0.0224  0.1471  0.0581
   73TIP3    H1  183   6.628   1.445   5.387  2.3186  0.5564  0.6561
   73TIP3    H2  184   6.575   1.581   5.427  2.6370  0.4082  1.6148
   74TIP3   OH2  185   6.814   2.718   5.552  0.2289  0.4321 -0.0464
   74TIP3    H1  186   6.897   2.751   5.588  0.8316  0.4665 -1.4246
   74TIP3    H2  187   6.839   2.673   5.471 -1.0093 -0.3075 -0.0369
   75TIP3   OH2  188   0.391   1.162   5.044 -0.1250 -0.5077 -0.0637
   75TIP3    H1  189   0.411   1.236   4.986  2.0349 -1.5771 -0.8278
   75TIP3    H2  190   0.299   1.172   5.067 -0.2401  1.6332 -1.2589
   76TIP3   OH2  191   5.706   6.735   0.746  0.3626 -0.0730 -0.2247
   76TIP3    H1  192   5.680   6.786   0.823  1.7102  0.0310  0.1841
   76TIP3    H2  193   5.768   6.670   0.780  0.8330 -0.1460 -1.2003
   77TIP3   OH2  194   2.758   4.436   5.147 -0.0545  0.9166 -0.3351
   77TIP3    H1  195   2.749   4.357   5.095  0.3479 -0.3233  1.4012
   77TIP3    H2  196   2.812   4.494   5.093 -1.2038  0.4615 -2.0733
   78TIP3   OH2  197   0.452   6.726   4.615  0.0592  0.5137 -0.2198
   78TIP3    H1  198   0.538   6.729   4.572 -0.6030  1.0892 -1.5488
   78TIP3    H2  199   0.394   6.773   4.555 -0.8498  1.6109  1.4700
   79TIP3   OH2  200   4.794   0.610   5.645  0.5424 -0.6140  0.5222
   79TIP3    H1  201   4.829   0.637   5.730 -1.4155  1.4505  0.7638
   79TIP3    H2  202   4.854   0.649   5.581  0.9777 -0.5822  0.9441
   80TIP3   OH2  203   4.698   2.983   1.058 -1.0811 -0.0952 -0.0810
   80TIP3    H1  204   4.745   2.902   1.078 -0.0126  0.7909  1.1147
   80TIP3    H2  205   4.740   3.050   1.112 -1.8354  1.3059 -1.1532
   81TIP3   OH2  206   6.372   5.024   1.121 -0.1350  0.3264 -0.0015
   81TIP3    H1  207   6.380   5.116   1.146  1.6671  1.1707 -3.1915
   81TIP3    H2  208   6.455   5.003   1.079 -0.0820 -3.1442  1.4676
   82TIP3   OH2  209   6.768   3.575   5.293 -0.9619  0.6023  0.5022
   82TIP3    H1  210   6.772   3.540   5.382 -0.9224  1.4871  0.8497
   82TIP3    H2  211   6.766   3.497   5.237  0.7269  0.0218  1.1971
   83TIP3   OH2  212   1.245   4.850   3.633 -0.6049  0.3093  0.2778
   83TIP3    H1  213   1.266   4.842   3.726 -1.9253  0.6126  0.6179
   83TIP3    H2  214   1.312   4.798   3.589 -0.0453  0.0464  1.4016
   84TIP3   OH2  215   0.340   6.645   4.864 -0.0409 -0.0884 -0.0811
   84TIP3    H1  216   0.271   6.711   4.870  0.6085  0.6992 -1.0339
   84TIP3    H2  217   0.391   6.670   4.787 -1.3266 -3.1704 -2.1392
   85TIP3   OH2  218   0.270   6.056   0.902  0.6072  0.3575 -0.3676
   85TIP3    H1  219   0.327   6.109   0.846  1.4296 -0.7973 -0.6702
   85TIP3    H2  220   0.229   5.993   0.842 -0.3632  0.6392 -0.0206
   86TIP3   OH2  221   3.796   6.671   4.936  0.3365  0.5161  0.3967
   86TIP3    H1  222   3.743   6.616   4.993 -0.0837 -0.3468 -0.7904
   86TIP3    H2  223   3.733   6.729   4.892  0.5292  0.4411  0.0154
   87TIP3   OH2  224   6.680   0.032   5.554  0.1896  0.1772  0.2632
   87TIP3    H1  225   6.593   0.040   5.594  0.2768  1.3659  0.2542
   87TIP3    H2  226   6.741   0.029   5.628  0.1308 -1.2295  0.2894
   88TIP3   OH2  227   1.199   5.687   5.397  0.2703  0.1841  0.3053
   88TIP3    H1  228   1.117   5.650   5.429 -1.7300  1.6411 -2.6829
   88TIP3    H2  229   1.234   5.620   5.338 -0.1267  0.5701 -0.3758
   89TIP3   OH2  230   0.614   2.646   2.873 -0.3159  0.5583  0.5698
   89TIP3    H1  231   0.623   2.557   2.839  2.3543  0.6790  0.7927
   89TIP3    H2  232   0.662   2.646   2.955 -0.6128  2.1154  0.7813
   90TIP3   OH2  233   5.531   5.729   2.938  0.0125  0.6258  0.2827
   90TIP3    H1  234   5.597   5.742   2.870  0.4939 -1.0325  0.3843
   90TIP3    H2  235   5.579   5.686   3.010 -0.7019  1.4445  1.2881
   91TIP3   OH2  236   2.199   3.100   5.791 -0.9225  0.3420 -0.1235
   91TIP3    H1  237   2.272   3.042   5.772 -1.5859 -1.0486  1.3578
   91TIP3    H2  238   2.227   3.186   5.758  0.3070 -0.6703 -1.8592
   92TIP3   OH2  239   4.631   1.156   5.763  0.6556  0.4216 -0.3850
   92TIP3    H1  240   4.687   1.080   5.753  0.6902  0.0613  1.8833
   92TIP3    H2  241   4.594   1.172   5.676  0.5272 -2.2704 -0.8939
   93TIP3   OH2  242   3.300   3.263   2.774  0.6622 -0.3753 -0.4619
   93TIP3    H1  243   3.244   3.340   2.766 -0.2520 -1.0231 -0.4089
   93TIP3    H2  244   3.368   3.290   2.836  0.1399  0.2671 -0.1514
   94TIP3   OH2  245   5.959   1.281   1.811  0.3746 -0.2450  0.4038
   94TIP3    H1  246   5.974   1.342   1.884  1.7730 -0.0049 -0.0448
   94TIP3    H2  247   5.995   1.326   1.735  0.0064 -0.9931 -0.2268
   95TIP3   OH2  248   2.676   4.055   5.458  0.1443 -0.4263  0.0780
   95TIP3    H1  249   2.690   4.115   5.385 -0.2879  0.0436  0.3718
   95TIP3    H2  250   2.760   4.055   5.505 -0.5708  2.0370  1.5889
   96TIP3   OH2  251   2.148   2.205   1.315  0.4045  0.0624 -0.1509
   96TIP3    H1  252   2.125   2.166   1.230  1.0207 -0.8638  0.1005
   96TIP3    H2  253   2.200   2.283   1.293 -0.0967  0.2676 -0.6332
   97TIP3   OH2  254   3.585   5.192   0.647  0.1035 -0.5075  0.5018
   97TIP3    H1  255   3.580   5.280   0.610  1.2621 -0.7088 -0.1997
   97TIP3    H2  256   3.612   5.205   0.738 -0.4874 -0.1128  0.6247
   98TIP3   OH2  257   0.595   0.380   1.866 -0.9939  0.7042  0.5220
   98TIP3    H1  258   0.643   0.415   1.941 -0.8410  2.2754 -0.2667
   98TIP3    H2  259   0.635   0.294   1.850 -2.3249 -0.5735  3.3984
   99TIP3   OH2  260   6.339   2.514   3.579  0.1882  0.3938  0.1640
   99TIP3    H1  261   6.267   2.567   3.547  1.3783  1.3725 -1.0142
   99TIP3    H2  262   6.337   2.435   3.526  0.2835  0.6479 -0.2195
  100TIP3   OH2  263   1.849   1.793   1.643  1.0544  0.1940 -0.2010
  100TIP3    H1  264   1.886   1.871   1.685  0.0215  2.6089 -3.3936
  100TIP3    H2  265   1.754   1.801   1.654  0.9495 -1.1970  0.2322
  101TIP3   OH2  266   5.085   6.012   4.860 -0.1384  0.4746 -0.1106
  101TIP3    H1  267   5.098   5.923   4.829  0.2367  0.7997 -0.9171
  101TIP3    H2  268   5.041   6.002   4.944 -0.7600 -0.4546 -0.5295
  102TIP3   OH2  269   2.385   4.604   4.540 -0.2663  0.1956 -0.1813
  102TIP3    H1  270   2.408   4.532   4.599  0.2537 -0.2455 -0.8981
  102TIP3    H2  271   2.464   4.617   4.487 -0.8012  0.4143 -0.9387
  103TIP3   OH2  272   3.669   0.935   1.037  0.3926 -0.1135  0.6578
  103TIP3    H1  273   3.615   0.856   1.037 -1.4490  1.0354 -1.3083
  103TIP3    H2  274   3.703   0.941   0.948 -0.1560  1.6795  0.5163
  104TIP3   OH2  275   1.772   1.562   3.465 -0.6292 -0.0394 -0.1505
  104TIP3    H1  276   1.804   1.638   3.515 -0.9380  0.5281 -0.7975
  104TIP3    H2  277   1.687   1.542   3.504 -0.4278 -0.2288  0.1981
  105TIP3   OH2  278   2.952   4.522   2.295  0.4029 -0.2081  0.7027
  105TIP3    H1  279   2.977   4.518   2.203  0.7519  0.2250  0.7750
  105TIP3    H2  280   3.031   4.497   2.342  0.4875  0.4063  0.9062
  106TIP3   OH2  281   4.462   5.567   3.640 -0.1134  0.1095 -0.2288
  106TIP3    H1  282   4.473   5.530   3.728 -2.2319  0.3008  0.1771
  106TIP3    H2  283   4.387   5.627   3.650 -0.3150  0.2122 -2.1438
  107TIP3   OH2  284   4.804   0.899   3.076  0.3105  0.0808  0.5785
  107TIP3    H1  285   4.754   0.979   3.058 -0.6418 -0.0856  2.2738
  107TIP3    H2  286   4.784   0.841   3.002  0.6409  1.2173 -0.4264
  108TIP3   OH2  287   0.356   0.498   4.154 -0.2505  0.2278 -0.6219
  108TIP3    H1  288   0.406   0.554   4.212 -0.2840 -2.1851  1.9415
  108TIP3    H2  289   0.266   0.531   4.159  0.0389  1.0071 -0.5659
  109TIP3   OH2  290   5.499   0.274   5.356 -0.0723  0.1217 -0.2062
  109TIP3    H1  291   5.512   0.185   5.323  0.3703 -0.2237  0.8263
  109TIP3    H2  292   5.413   0.272   5.397  0.0524  0.0884  0.0561
  110TIP3   OH2  293   6.402   3.648   0.466 -0.1341  0.0788  0.2850
  110TIP3    H1  294   6.470   3.692   0.415  0.4182 -0.4267  0.5714
  110TIP3    H2  295   6.410   3.685   0.554 -0.2141  0.0064  0.3232
  111TIP3   OH2  296   0.103   2.967   3.437 -0.0187  0.7007  0.1706
  111TIP3    H1  297   0.196   2.980   3.459  0.1693 -0.1009 -0.1240
  111TIP3    H2  298   0.056   3.004   3.512  0.5796 -0.8105  1.3456
  112TIP3   OH2  299   6.458   1.777   3.661  0.6088 -0.2542 -0.7035
  112TIP3    H1  300   6.514   1.854   3.675 -0.4638  0.1786  1.8119
  112TIP3    H2  301   6.473   1.723   3.738 -0.7121 -1.2363 -1.1044
  113TIP3   OH2  302   3.899   1.510   2.534 -0.0921 -0.8775 -0.2511
  113TIP3    H1  303   3.804   1.514   2.539 -0.0455 -0.6347  0.4676
  113TIP3    H2  304   3.928   1.601   2.545  0.2456 -1.0216  0.0657
  114TIP3   OH2  305   3.269   3.834   4.079 -0.0024 -0.0076  0.0192
  114TIP3    H1  306   3.279   3.760   4.019 -2.3635 -0.2587 -0.1910
  114TIP3    H2  307   3.351   3.881   4.073  0.9739 -1.7227 -1.0724
  115TIP3   OH2  308   0.939   0.707   5.537 -0.0214 -0.0451  0.2035
  115TIP3    H1  309   1.009   0.642   5.546  1.6224  1.8688  2.7605
  115TIP3    H2  310   0.980   0.781   5.491 -1.5338 -0.2987 -1.6747
  116TIP3   OH2  311   3.208   4.931   2.179 -0.5340  0.5971  0.4493
  116TIP3    H1  312   3.126   4.980   2.181 -0.5936  0.4906  0.7766
  116TIP3    H2  313   3.243   4.944   2.091  0.7669  3.3813  1.2775
  117TIP3   OH2  314   2.543   5.644   1.200 -0.3454  0.5971  0.0820
  117TIP3    H1  315   2.475   5.618   1.138 -0.1323  0.5624 -0.1414
  117TIP3    H2  316   2.501   5.707   1.257 -0.9098 -0.3057  0.6977
  118TIP3   OH2  317   3.438   3.705   2.084 -0.0576  0.2446  0.3242
  118TIP3    H1  318   3.349   3.675   2.103  0.2540  0.0894  1.6060
  118TIP3    H2  319   3.466   3.750   2.164  0.4538  1.6542 -0.6235
  119TIP3   OH2  320   3.251   5.559   2.284  0.1368 -0.5551  0.2770
  119TIP3    H1  321   3.332   5.609   2.295  1.1551 -2.1635  0.3512
  119TIP3    H2  322   3.256   5.524   2.196 -0.4380 -0.7646  0.3258
  120TIP3   OH2  323   1.907   2.861   3.756  0.0661  0.4851  0.6697
  120TIP3    H1  324   1.860   2.942   3.772 -0.0378  0.8509 -1.1987
  120TIP3    H2  325   1.839   2.798   3.732  0.3431  0.5344 -0.2879
  121TIP3   OH2  326   4.141   0.207   1.497 -0.1652 -0.3874  0.1269
  121TIP3    H1  327   4.177   0.220   1.585  1.1249  0.7112 -0.5210
  121TIP3    H2  328   4.218   0.206   1.440 -0.9782 -1.1237 -0.9927
  122TIP3   OH2  329   4.879   2.677   4.831 -0.4016  0.3791 -0.6025
  122TIP3    H1  330   4.927   2.674   4.748  1.9660  0.3010  0.6668
  122TIP3    H2  331   4.806   2.617   4.819 -0.6015  1.0007 -2.8838
  123TIP3   OH2  332   0.310   6.156   4.540  0.2168  0.7146  0.0233
  123TIP3    H1  333   0.383   6.164   4.602 -0.8061 -0.3819  1.4287
  123TIP3    H2  334   0.267   6.242   4.544  1.2900  1.3070 -0.6758
  124TIP3   OH2  335   6.373   5.341   5.124  0.5117 -0.1392 -0.3819
  124TIP3    H1  336   6.398   5.266   5.070  1.2809  0.4809 -0.9110
  124TIP3    H2  337   6.278   5.331   5.135  0.1195  0.2158 -2.7217
  125TIP3   OH2  338   1.325   1.474   4.265 -0.6302  0.4082 -0.1928
  125TIP3    H1  339   1.321   1.560   4.224  0.1308  0.7176  0.3559
  125TIP3    H2  340   1.394   1.428   4.217  0.5659  0.9220  0.9831
  126TIP3   OH2  341   4.266   0.363   4.998 -0.6279  0.3784  0.4845
  126TIP3    H1  342   4.344   0.417   4.983  0.7467 -1.0865  2.0693
  126TIP3    H2  343   4.200   0.425   5.028  0.3826  1.4292  0.6119
  127TIP3   OH2  344   2.212   3.782   3.515 -0.1981 -0.4080  0.3276
  127TIP3    H1  345   2.292   3.754   3.470  0.1727  0.1984  0.5987
  127TIP3    H2  346   2.158   3.703   3.518 -1.1236 -0.0483 -2.9643
  128TIP3   OH2  347   3.520   1.472   3.775  0.0699 -0.2389 -0.7062
  128TIP3    H1  348   3.568   1.487   3.857 -1.5911 -0.3924  0.3223
  128TIP3    H2  349   3.478   1.387   3.787 -0.1729 -0.2791 -1.7465
  129TIP3   OH2  350   2.314   5.477   0.784 -0.2378  0.0208 -0.0896
  129TIP3    H1  351   2.335   5.395   0.738 -0.8982 -0.0662 -0.2483
  129TIP3    H2  352   2.249   5.520   0.728  0.2293  0.7370 -0.0919
  130TIP3   OH2  353   4.942   1.699   3.013  0.1395  0.1354 -0.5511
  130TIP3    H1  354   5.014   1.702   2.949 -0.2053 -1.4029 -1.0499
  130TIP3    H2  355   4.986   1.687   3.097  0.5049  0.2162 -0.7252
  131TIP3   OH2  356   0.667   3.613   3.018 -0.3780 -0.2592  0.2238
  131TIP3    H1  357   0.656   3.538   2.961 -1.7514 -1.7455  2.2959
  131TIP3    H2  358   0.583   3.660   3.013 -0.0496  0.3292  0.0717
  132TIP3   OH2  359   1.020   5.565   2.662  0.1161 -0.8994  0.1745
  132TIP3    H1  360   0.955   5.591   2.596  0.9290 -1.1257 -0.7392
  132TIP3    H2  361   1.087   5.519   2.612  1.9008  0.8878  0.8076
  133TIP3   OH2  362   5.751   2.561   3.602  0.3995  0.1142  0.4118
  133TIP3    H1  363   5.741   2.565   3.507 -0.8751 -1.1245  0.4604
  133TIP3    H2  364   5.840   2.530   3.616  0.5331  0.1260 -0.3851
  134TIP3   OH2  365   7.061   4.521   0.499  0.1831 -0.3411  0.7863
  134TIP3    H1  366   7.146   4.534   0.456  0.3758  1.2288  1.5860
  134TIP3    H2  367   7.000   4.506   0.426  0.8458  0.3019  0.0788
  135TIP3   OH2  368   5.586   4.521   0.494 -0.3637 -0.1707  0.6881
  135TIP3    H1  369   5.507   4.534   0.442  0.0630  0.0038  0.0635
  135TIP3    H2  370   5.558   4.529   0.585 -0.6352  2.3633  0.4400
  136TIP3   OH2  371   2.223   5.132   3.492  0.5874  0.1103 -0.1470
  136TIP3    H1  372   2.153   5.184   3.454 -0.5239 -1.6713 -0.6539
  136TIP3    H2  373   2.222   5.155   3.585 -2.4285 -1.6367  0.3904
  137TIP3   OH2  374   5.966   0.023   4.896  0.6733  0.6655 -0.0580
  137TIP3    H1  375   5.900   0.026   4.965  1.3379  0.1396  0.6229
  137TIP3    H2  376   5.918   0.001   4.817 -0.0348  0.7876  0.3357
  138TIP3   OH2  377   0.735   3.364   4.980  0.3043 -0.7395 -0.1748
  138TIP3    H1  378   0.678   3.441   4.979 -0.5945 -1.3229  1.4026
  138TIP3    H2  379   0.811   3.392   5.032  0.0806 -0.8436  0.2115
  139TIP3   OH2  380   5.543   0.300   3.082  0.0999  0.3087 -0.2943
  139TIP3    H1  381   5.538   0.312   3.177 -0.4636  0.2623 -0.3175
  139TIP3    H2  382   5.566   0.208   3.071 -1.6920 -0.1667 -0.2310
  140TIP3   OH2  383   4.279   2.226   1.420 -0.0237 -0.5038  0.5548
  140TIP3    H1  384   4.220   2.182   1.359  1.0061  1.2728 -1.8894
  140TIP3    H2  385   4.350   2.164   1.434 -0.7640 -1.3184  0.7556
  141TIP3   OH2  386   6.377   5.027   4.321  0.0952  0.3388  0.2254
  141TIP3    H1  387   6.470   5.046   4.333 -0.1397  0.5621  1.8741
  141TIP3    H2  388   6.357   5.063   4.234  1.2033  1.6268  0.4706
  142TIP3   OH2  389   0.339   0.612   5.572 -0.4352  0.4710 -0.1199
  142TIP3    H1  390   0.282   0.627   5.497  0.8606  3.1011 -0.7302
  142TIP3    H2  391   0.424   0.592   5.534  0.7829  3.9053  0.3692
  143TIP3   OH2  392   6.264   5.624   4.325  0.0174  0.5922  0.2068
  143TIP3    H1  393   6.171   5.607   4.311  0.1732  1.0089 -1.5891
  143TIP3    H2  394   6.282   5.588   4.412 -1.4285 -1.1104 -0.1356
  144TIP3   OH2  395   5.393   2.611   3.599  0.2526 -0.1777 -0.2351
  144TIP3    H1  396   5.317   2.611   3.656  0.4589  0.9097  0.0595
  144TIP3    H2  397   5.438   2.528   3.618 -0.1019 -0.1825  0.5950
  145TIP3   OH2  398   6.565   1.233   0.488  0.1312 -0.6336  0.1210
  145TIP3    H1  399   6.600   1.149   0.459  1.0739 -1.2734  2.8305
  145TIP3    H2  400   6.522   1.214   0.571  0.5012  1.5607  0.8934
  146TIP3   OH2  401   0.388   6.115   1.557  0.2833  0.1593 -0.2400
  146TIP3    H1  402   0.430   6.180   1.613  2.3490  0.4316 -1.9826
  146TIP3    H2  403   0.409   6.031   1.599  0.9890  0.4137 -0.0572
  147TIP3   OH2  404   2.629   6.305   4.709  0.0731  0.4891 -0.0430
  147TIP3    H1  405   2.548   6.287   4.756 -0.5535  2.5921 -0.1969
  147TIP3    H2  406   2.632   6.401   4.703  1.9592  0.4138 -1.1205
  148TIP3   OH2  407   4.081   5.299   5.791  0.1779  0.0893 -0.2611
  148TIP3    H1  408   3.993   5.335   5.808  0.9762  1.8194  0.4005
  148TIP3    H2  409   4.064   5.223   5.735 -1.8725 -0.6819  1.2705
  149TIP3   OH2  410   1.960   5.695   0.319 -0.1126  0.5808 -0.1626
  149TIP3    H1  411   1.955   5.640   0.398  0.4208  0.9875  0.1588
  149TIP3    H2  412   2.053   5.705   0.303 -0.2206  0.6766 -0.7328
  150TIP3   OH2  413   6.763   3.176   1.148  0.7330 -0.7785  0.1903
  150TIP3    H1  414   6.838   3.125   1.115  1.1685 -0.4320  0.6223
  150TIP3    H2  415   6.784   3.191   1.240  0.4479 -0.1058  0.1487
  151TIP3   OH2  416   3.120   0.527   1.934 -0.6539 -0.0374 -0.0855
  151TIP3    H1  417   3.097   0.599   1.992  0.9963  0.9498 -0.6060
  151TIP3    H2  418   3.157   0.460   1.993  0.6778  0.8136  0.0930
  152TIP3   OH2  419   4.983   3.296   3.322 -0.3451  0.1184 -0.3514
  152TIP3    H1  420   4.926   3.343   3.261 -1.0650 -0.4942 -0.1655
  152TIP3    H2  421   4.922   3.250   3.380  0.3413 -0.1384  0.1709
  153TIP3   OH2  422   2.588   0.768   0.041 -1.1822 -0.6891 -0.3653
  153TIP3    H1  423   2.608   0.674   0.048  0.1417 -0.4885 -1.1162
  153TIP3    H2  424   2.601   0.788  -0.052 -1.3947  0.2497 -0.1992
  154TIP3   OH2  425   2.425   2.199   2.392  0.4048  0.0995  0.4186
  154TIP3    H1  426   2.419   2.112   2.353 -1.8816 -0.0596  0.9523
  154TIP3    H2  427   2.513   2.229   2.371  0.4572 -1.3717 -1.8220
  155TIP3   OH2  428   5.383   5.318   0.641  0.0845 -0.4164 -0.8379
  155TIP3    H1  429   5.431   5.241   0.673 -0.2963 -0.6518 -0.8298
  155TIP3    H2  430   5.380   5.307   0.546  0.0714 -0.3834 -0.8414
  156TIP3   OH2  431   2.453   5.054   4.073 -0.0374 -0.3583 -0.3740
  156TIP3    H1  432   2.378   5.112   4.059 -0.1173 -0.0965  0.9636
  156TIP3    H2  433   2.435   4.977   4.019 -1.9646 -0.9006  0.9518
  157TIP3   OH2  434   4.239   4.145   3.178 -0.2794 -0.3847  0.1785
  157TIP3    H1  435   4.246   4.053   3.153  0.3583 -0.7074  1.4459
  157TIP3    H2  436   4.240   4.193   3.096  0.4682 -1.4492 -0.4492
  158TIP3   OH2  437   3.371   5.764   4.702  0.2672  0.4564  0.0659
  158TIP3    H1  438   3.427   5.753   4.624  0.7407 -1.3464  0.5950
  158TIP3    H2  439   3.326   5.680   4.710 -1.2543  1.2973  0.6533
  159TIP3   OH2  440   5.029   3.873   4.332 -1.1982 -0.7076 -0.0600
  159TIP3    H1  441   4.979   3.908   4.258 -2.9068 -0.7438  1.0254
  159TIP3    H2  442   5.078   3.948   4.366 -1.0019 -0.5202 -0.7371
  160TIP3   OH2  443   2.314   5.391   3.016  0.5455  0.5939 -0.4313
  160TIP3    H1  444   2.401   5.362   2.989  1.3310  2.3792  0.0545
  160TIP3    H2  445   2.321   5.487   3.022 -0.2001  0.5546  3.7490
  161TIP3   OH2  446   3.186   3.817   3.501  0.0860 -0.0089  0.5766
  161TIP3    H1  447   3.251   3.795   3.568  0.6386  0.8075  0.3236
  161TIP3    H2  448   3.113   3.757   3.518 -0.2211  0.8213  2.5287
  162TIP3   OH2  449   7.142   3.856   1.907 -0.1850  0.0744  0.1634
  162TIP3    H1  450   7.230   3.835   1.938  0.3693  2.1160  0.1168
  162TIP3    H2  451   7.104   3.910   1.977 -0.6569  0.8073 -0.6280
  163TIP3   OH2  452   5.699   5.521   1.215 -0.1889  0.3042 -0.1795
  163TIP3    H1  453   5.695   5.437   1.261  1.1933 -0.5255 -1.4836
  163TIP3    H2  454   5.716   5.585   1.283  1.7090 -0.8690  0.5223
  164TIP3   OH2  455   0.266   3.435   4.117 -0.3323  0.4676  0.4450
  164TIP3    H1  456   0.293   3.526   4.128  0.1209  0.1836  1.9230
  164TIP3    H2  457   0.347   3.385   4.119 -0.5337  0.0608 -0.9310
  165TIP3   OH2  458   5.571   0.614   1.253 -0.5166  0.3542  0.5935
  165TIP3    H1  459   5.573   0.634   1.160 -2.1135 -0.2804  0.3876
  165TIP3    H2  460   5.524   0.688   1.292  0.8605  1.0255  1.0412
  166TIP3   OH2  461   2.617   0.644   1.064  0.4999  0.4641 -0.3172
  166TIP3    H1  462   2.700   0.606   1.096 -0.2220 -0.9169 -0.0172
  166TIP3    H2  463   2.550   0.606   1.121 -0.3395  1.7299 -0.4254
  167TIP3   OH2  464   2.697   3.651   5.726 -0.3905  0.2956 -0.1952
  167TIP3    H1  465   2.670   3.604   5.647 -0.2774  0.8277 -0.5550
  167TIP3    H2  466   2.757   3.719   5.694 -0.7391  0.8382  0.2830
  168TIP3   OH2  467   3.929   6.041   5.161  0.2405 -0.0332 -0.2483
  168TIP3    H1  468   3.967   6.123   5.194  1.1468 -0.0266 -1.2281
  168TIP3    H2  469   3.836   6.048   5.179  0.5470  0.3994  1.3492
  169TIP3   OH2  470   0.697   6.395   4.938 -0.3620  0.2541  0.0240
  169TIP3    H1  471   0.723   6.477   4.895  0.7647  0.4039  0.9595
  169TIP3    H2  472   0.622   6.364   4.887  0.0508  1.1616 -1.1698
  170TIP3   OH2  473   0.125   0.231   2.001 -0.1471  0.4226 -0.4904
  170TIP3    H1  474   0.168   0.187   1.927 -2.7427 -0.1673 -1.7805
  170TIP3    H2  475   0.190   0.230   2.071  1.2495 -2.1231 -1.6777
  171TIP3   OH2  476   3.684   3.984   3.843 -0.0428  0.0838 -0.3957
  171TIP3    H1  477   3.619   3.994   3.773 -0.8060 -0.4872  0.2149
  171TIP3    H2  478   3.720   3.896   3.829 -1.0018 -0.4909  0.5679
  172TIP3   OH2  479   1.057   5.334   5.031  0.1922  0.2138  0.3722
  172TIP3    H1  480   0.973   5.296   5.004 -0.8317  1.6992  1.3405
  172TIP3    H2  481   1.042   5.365   5.120  2.0134 -0.1265  0.8531
  173TIP3   OH2  482   4.394   2.066   5.607 -0.9368  0.6452  0.4863
  173TIP3    H1  483   4.322   2.016   5.645 -0.5891  0.4676  0.9195
  173TIP3    H2  484   4.467   2.051   5.667 -0.5180  0.7566  0.0034
  174TIP3   OH2  485   3.311   6.056   3.120 -0.4076  0.7342  0.2091
  174TIP3    H1  486   3.295   6.143   3.082 -0.7830  0.5664 -0.0266
  174TIP3    H2  487   3.342   6.003   3.046  0.2534  0.7799  0.4458
  175TIP3   OH2  488   3.840   1.022   3.000 -0.3984 -0.3687  0.2438
  175TIP3    H1  489   3.815   0.984   3.084  0.1191 -0.1891  0.4875
  175TIP3    H2  490   3.870   0.948   2.948 -0.3838 -0.4346  0.3458
  176TIP3   OH2  491   2.809   4.509   4.857  0.0316  0.0843  0.2667
  176TIP3    H1  492   2.801   4.452   4.780 -0.0176  1.6038 -0.9123
  176TIP3    H2  493   2.742   4.576   4.843  0.1484  0.4864  1.5576
  177TIP3   OH2  494   1.389   1.224   0.512  0.3237 -0.1972  0.2796
  177TIP3    H1  495   1.384   1.316   0.536  1.2320 -0.1543  0.3226
  177TIP3    H2  496   1.316   1.211   0.451  0.1491  0.5263  0.3281
  178TIP3   OH2  497   6.245   2.392   0.743  0.3802 -0.1165 -0.1150
  178TIP3    H1  498   6.218   2.379   0.835 -0.4256 -0.6907 -0.4170
  178TIP3    H2  499   6.223   2.309   0.701 -0.9577  0.7594 -1.2243
  179TIP3   OH2  500   6.832   4.843   5.611  0.0274  0.4568  0.4420
  179TIP3    H1  501   6.827   4.891   5.529 -0.9236  0.2603  0.3762
  179TIP3    H2  502   6.843   4.751   5.585 -2.6750  0.0609  0.4353
  180TIP3   OH2  503   4.343   2.505   0.917  0.5812 -0.3003  0.1573
  180TIP3    H1  504   4.361   2.598   0.935  1.5432 -0.5675  0.6175
  180TIP3    H2  505   4.403   2.482   0.846 -1.0386 -0.0745 -1.3709
  181TIP3   OH2  506   6.235   1.230   4.577 -0.2846  0.1177  0.4366
  181TIP3    H1  507   6.291   1.197   4.506 -1.3665  2.7993 -1.8714
  181TIP3    H2  508   6.147   1.204   4.551 -0.6153  0.3104  1.3488
  182TIP3   OH2  509   4.685   4.839   0.287 -0.4174 -0.2520 -0.0435
  182TIP3    H1  510   4.728   4.889   0.356  1.7058 -1.0589 -0.6991
  182TIP3    H2  511   4.630   4.903   0.241 -0.8005  0.5750  1.5172
  183TIP3   OH2  512   1.061   3.644   5.280  0.0948  0.2099 -0.0320
  183TIP3    H1  513   1.125   3.609   5.342  0.8154  0.3844 -0.6654
  183TIP3    H2  514   1.113   3.669   5.204 -0.3671  2.7797  0.4289
  184TIP3   OH2  515   6.630   4.975   4.827  0.8004 -0.4431 -0.3553
  184TIP3    H1  516   6.551   4.932   4.794  0.5380  0.1171 -0.4807
  184TIP3    H2  517   6.676   5.003   4.748 -0.7362  2.5454 -0.3293
  185TIP3   OH2  518   5.951   3.805   4.436 -0.3031  0.5257  0.1306
  185TIP3    H1  519   5.938   3.747   4.510 -1.3169  2.4132  1.5229
  185TIP3    H2  520   6.046   3.818   4.432  0.0860 -2.1353 -1.0370
  186TIP3   OH2  521   1.103   2.264   2.360  0.6462 -0.1869  0.0214
  186TIP3    H1  522   1.131   2.173   2.348  0.6649 -0.5873  2.5627
  186TIP3    H2  523   1.020   2.258   2.408  0.8053  1.1402  0.5140
  187TIP3   OH2  524   6.454   4.657   4.228  0.2498 -0.0192 -0.1045
  187TIP3    H1  525   6.378   4.665   4.286 -1.3322 -0.1110 -2.0499
  187TIP3    H2  526   6.440   4.575   4.181  2.1564 -0.6012  0.2604
  188TIP3   OH2  527   0.845   5.114   1.011  0.6112 -0.0417  0.1592
  188TIP3    H1  528   0.905   5.174   0.967 -1.9885  3.2407  0.7667
  188TIP3    H2  529   0.874   5.113   1.102  1.0991 -0.3273  0.0051
  189TIP3   OH2  530   0.570   4.029   1.753  0.2169 -0.4525  0.6080
  189TIP3    H1  531   0.554   4.123   1.743  0.6031 -0.4641 -0.1954
  189TIP3    H2  532   0.489   3.995   1.791 -0.7322 -0.1046 -0.9720
  190TIP3   OH2  533   2.716   2.070   0.929  0.3395  0.6517  0.8536
  190TIP3    H1  534   2.692   2.151   0.975 -3.0926 -0.1315  0.6801
  190TIP3    H2  535   2.713   2.094   0.836  0.4072  0.5739  0.8312
  191TIP3   OH2  536   2.779   2.624   5.352 -0.0382 -0.8479 -0.1936
  191TIP3    H1  537   2.734   2.683   5.291  0.8957 -0.6475 -0.7009
  191TIP3    H2  538   2.715   2.554   5.370 -0.6313 -0.4418 -0.7089
  192TIP3   OH2  539   4.741   5.023   2.727  0.6650  0.5576 -0.2289
  192TIP3    H1  540   4.796   5.046   2.802 -0.7838  0.0482  1.0446
  192TIP3    H2  541   4.682   5.098   2.718  0.5944  0.4513 -0.6310
  193TIP3   OH2  542   0.165   3.754   2.853 -0.0596  0.4489  0.4945
  193TIP3    H1  543   0.176   3.753   2.948 -0.4935  1.1258  0.5596
  193TIP3    H2  544   0.239   3.807   2.821 -1.2641  2.3290  0.6753
  194TIP3   OH2  545   4.688   2.272   1.962 -0.2616 -0.6075  0.4323
  194TIP3    H1  546   4.653   2.329   1.895 -0.0552  0.6533  1.3668
  194TIP3    H2  547   4.738   2.206   1.914 -3.2441 -2.0967 -0.9055
  195TIP3   OH2  548   2.903   1.151   2.846 -0.1096 -0.5778  0.2239
  195TIP3    H1  549   2.925   1.184   2.759 -0.1852  2.0766  1.0940
  195TIP3    H2  550   2.947   1.066   2.852 -2.3024 -2.1934 -3.3115
  196TIP3   OH2  551   6.932   5.373   3.312 -0.3971  0.1071  0.2110
  196TIP3    H1  552   6.924   5.278   3.305 -1.4516  0.1807  0.2063
  196TIP3    H2  553   6.959   5.388   3.403 -2.3572 -0.1270  0.8899
  197TIP3   OH2  554   6.163   5.087   2.712 -0.0761 -0.6436 -0.3188
  197TIP3    H1  555   6.144   5.177   2.740  0.7223  0.0483 -1.8512
  197TIP3    H2  556   6.228   5.097   2.642 -1.5962 -2.2621 -2.0670
  198TIP3   OH2  557   0.463   2.484   1.528 -0.2532 -0.1009 -0.7059
  198TIP3    H1  558   0.503   2.405   1.564  1.6283  1.2418  0.3430
  198TIP3    H2  559   0.478   2.551   1.595 -0.7059  1.4290 -2.0640
  199TIP3   OH2  560   5.271   5.620   2.901  0.2776  0.9957  0.5248
  199TIP3    H1  561   5.228   5.680   2.840 -0.0067 -0.7572 -1.0968
  199TIP3    H2  562   5.361   5.653   2.908  0.1886  1.4946 -0.5118
  200TIP3   OH2  563   4.165   0.254   0.003  0.5066 -0.1612  0.0529
  200TIP3    H1  564   4.175   0.340  -0.037 -1.7423 -0.2356 -0.8112
  200TIP3    H2  565   4.089   0.263   0.061  0.8297 -1.3069  0.6982
  201TIP3   OH2  566   0.902   3.074   2.704  0.0602 -0.3856  0.1676
  201TIP3    H1  567   0.877   3.087   2.796 -0.9487  0.8385 -0.2614
  201TIP3    H2  568   0.822   3.089   2.655  1.2095  2.0323 -1.1543
  202TIP3   OH2  569   4.956   6.338   3.226 -0.3410  0.2357  0.4640
  202TIP3    H1  570   4.942   6.243   3.225 -0.0425  0.1893  0.6913
  202TIP3    H2  571   5.049   6.348   3.245 -0.3498  0.5726  0.3217
  203TIP3   OH2  572   3.671   3.876   5.228 -0.0891  0.3185  0.5776
  203TIP3    H1  573   3.645   3.908   5.141  0.3823  0.5140  0.5004
  203TIP3    H2  574   3.714   3.792   5.211 -0.7913 -0.0690  0.7171
  204TIP3   OH2  575   0.679   4.046   2.027  0.2009 -0.1605  0.4816
  204TIP3    H1  576   0.664   4.017   1.937  2.5432 -0.0195 -0.0130
  204TIP3    H2  577   0.637   3.979   2.081 -0.3368 -0.8151 -0.7069
  205TIP3   OH2  578   0.985   5.448   2.283 -0.0842  0.0739 -0.1417
  205TIP3    H1  579   0.957   5.447   2.191 -0.1961  0.2185 -0.1092
  205TIP3    H2  580   0.939   5.523   2.321 -0.7108 -0.5023  0.2450
  206TIP3   OH2  581   5.143   1.202   2.246 -0.5555  0.0871 -0.1749
  206TIP3    H1  582   5.157   1.188   2.340 -0.1718 -1.8754 -0.4725
  206TIP3    H2  583   5.075   1.270   2.242 -0.0302  0.7620  1.4909
  207TIP3   OH2  584   2.124   0.420   0.596  0.2719  0.4007 -0.1361
  207TIP3    H1  585   2.206   0.371   0.597  0.0890  0.0914 -0.2385
  207TIP3    H2  586   2.140   0.493   0.535  0.4414  0.2960 -0.2169
  208TIP3   OH2  587   6.406   4.269   4.297  0.8256 -0.2278 -0.1015
  208TIP3    H1  588   6.398   4.220   4.379 -0.5185  1.2955  0.7467
  208TIP3    H2  589   6.435   4.356   4.324 -0.8290  0.6787 -1.0532
  209TIP3   OH2  590   2.678   3.463   1.658  0.3242  0.3247 -0.1633
  209TIP3    H1  591   2.653   3.402   1.727  0.2857  0.6990  0.1577
  209TIP3    H2  592   2.618   3.537   1.669 -0.8698 -0.3468 -1.6985
  210TIP3   OH2  593   4.543   4.789   5.671 -0.3761 -0.1278  0.4080
  210TIP3    H1  594   4.605   4.733   5.717  0.8240  0.1618 -0.7889
  210TIP3    H2  595   4.495   4.834   5.741  1.6984  0.6498  1.4090
  211TIP3   OH2  596   0.900   5.543   4.808  0.4440  0.1188  0.0691
  211TIP3    H1  597   0.893   5.623   4.756  0.9930 -0.2476 -0.5845
  211TIP3    H2  598   0.950   5.569   4.885  2.5218 -0.0357 -1.1512
  212TIP3   OH2  599   5.140   4.797   0.069  0.3029 -0.0114  0.9423
  212TIP3    H1  600   5.210   4.784   0.006 -0.0646  1.0893  0.2743
  212TIP3    H2  601   5.121   4.890   0.065 -1.7702 -0.4008  0.4701
  213TIP3   OH2  602   2.795   0.855   1.331  0.0370  0.4649 -0.0836
  213TIP3    H1  603   2.873   0.892   1.291  0.2094  0.2422  0.0467
  213TIP3    H2  604   2.827   0.790   1.393 -0.1998  1.2997  0.9468
  214TIP3   OH2  605   2.549   2.585   1.104  0.0077  0.1592  0.4626
  214TIP3    H1  606   2.612   2.623   1.044 -0.2661 -0.6054 -0.3349
  214TIP3    H2  607   2.464   2.613   1.071 -0.1008  0.7743  1.2382
  215TIP3   OH2  608   4.266   3.538   3.947 -0.6538  0.4362  0.1176
  215TIP3    H1  609   4.267   3.465   3.886 -0.6039  1.1837 -0.8063
  215TIP3    H2  610   4.340   3.523   4.005 -0.2103  0.1320 -0.5201
  216TIP3   OH2  611   0.294   1.767   3.862  0.0582 -0.5426  0.7418
  216TIP3    H1  612   0.360   1.835   3.875 -0.7303  0.1127  1.4630
  216TIP3    H2  613   0.344   1.688   3.844  1.1944 -0.6516  3.7349
  217TIP3   OH2  614   3.750   5.654   3.174  0.4470 -0.4099  0.2841
  217TIP3    H1  615   3.775   5.578   3.122  1.6078 -0.8820  1.4750
  217TIP3    H2  616   3.789   5.638   3.260  2.1090  2.2410  0.1362
  218TIP3   OH2  617   7.221   5.493   2.798  0.2317 -0.0870  0.8882
  218TIP3    H1  618   7.142   5.503   2.851 -0.0257 -2.4029  1.0158
  218TIP3    H2  619   7.193   5.512   2.709 -0.8444 -2.2085  0.7283
  219TIP3   OH2  620   3.357   5.018   0.635  0.4974 -0.6789  0.0837
  219TIP3    H1  621   3.429   5.078   0.649  0.6724 -0.6836 -0.7592
  219TIP3    H2  622   3.392   4.932   0.660  0.5457 -0.5770  0.3728
  220TIP3   OH2  623   2.614   1.925   4.619  0.2772  0.0899  0.2312
  220TIP3    H1  624   2.651   1.848   4.662 -0.1308 -0.2170  0.0413
  220TIP3    H2  625   2.632   1.910   4.526  0.9228  0.6211  0.2657
  221TIP3   OH2  626   5.935   1.532   5.908  0.2068 -0.3276 -0.3295
  221TIP3    H1  627   5.874   1.550   5.836  0.4698  0.2958 -0.4048
  221TIP3    H2  628   6.017   1.509   5.866  0.2553 -0.3461 -0.2267
  222TIP3   OH2  629   4.981   0.318   1.201  0.5604  0.4785  0.2213
  222TIP3    H1  630   5.070   0.285   1.206 -0.2057 -1.6675  1.0181
  222TIP3    H2  631   4.928   0.241   1.180 -1.0510  1.8221 -1.0036
  223TIP3   OH2  632   6.207   6.090   0.741  0.1020  0.4265  0.0469
  223TIP3    H1  633   6.265   6.016   0.726 -1.4802 -0.9321  0.3491
  223TIP3    H2  634   6.153   6.095   0.662  0.7221  1.8129 -0.3324
  224TIP3   OH2  635   5.912   1.122   2.467  0.2067  0.3283 -0.2893
  224TIP3    H1  636   5.841   1.101   2.406 -1.2134 -0.1436  1.4582
  224TIP3    H2  637   5.987   1.072   2.434 -0.0226  1.3739 -2.5702
  225TIP3   OH2  638   3.416   0.104   0.524 -0.2080 -0.3250 -0.2496
  225TIP3    H1  639   3.495   0.061   0.490 -0.3734 -0.7796 -0.0701
  225TIP3    H2  640   3.367   0.129   0.445 -0.2908 -0.8171 -0.3615
  226TIP3   OH2  641   1.263   6.505   0.305 -0.0341  0.1245 -0.2573
  226TIP3    H1  642   1.314   6.451   0.366  2.6045  1.3354 -1.2123
  226TIP3    H2  643   1.274   6.462   0.220  0.5596  1.1321 -0.7042
  227TIP3   OH2  644   4.341   3.217   2.089 -0.2695 -0.2797  0.0492
  227TIP3    H1  645   4.435   3.215   2.105 -0.3903 -1.4494  0.7431
  227TIP3    H2  646   4.320   3.309   2.076  0.6804  0.1858  1.6555
  228TIP3   OH2  647   0.994   3.348   0.968 -0.0134  0.0044  0.4430
  228TIP3    H1  648   1.002   3.442   0.980  0.9260 -0.1250  0.9756
  228TIP3    H2  649   1.075   3.312   1.006 -0.8180 -1.0959  1.1814
  229TIP3   OH2  650   5.698   5.899   3.459 -0.1669 -0.0271  0.3552
  229TIP3    H1  651   5.724   5.952   3.535 -0.3586 -1.4111  1.4436
  229TIP3    H2  652   5.754   5.928   3.388  0.8779  0.4789  1.3621
  230TIP3   OH2  653   6.990   5.463   5.856  0.3548 -0.8180  0.1877
  230TIP3    H1  654   6.926   5.393   5.869 -0.7593 -0.0891 -1.0876
  230TIP3    H2  655   7.067   5.435   5.905 -0.9946 -1.6472  1.9524
  231TIP3   OH2  656   6.031   1.088   1.562  0.5941  0.0133 -0.9012
  231TIP3    H1  657   5.985   1.090   1.646  0.7297 -0.6091 -0.8125
  231TIP3    H2  658   6.011   1.002   1.525  0.5779  0.2586 -1.4851
  232TIP3   OH2  659   2.496   5.601   3.648 -1.0520 -0.6688  0.1148
  232TIP3    H1  660   2.445   5.535   3.601 -0.9705 -0.6264 -0.0341
  232TIP3    H2  661   2.565   5.552   3.691 -0.9461 -0.6717 -0.0583
  233TIP3   OH2  662   0.962   4.816   3.669  0.4839  0.1108 -0.2674
  233TIP3    H1  663   0.934   4.898   3.710  0.2728 -0.4229  0.6840
  233TIP3    H2  664   1.050   4.834   3.637 -0.3424  1.3746 -2.0406
  234TIP3   OH2  665   2.670   6.779   2.207  0.0696  0.3874 -0.2103
  234TIP3    H1  666   2.628   6.719   2.145  0.5640 -0.7661  0.5188
  234TIP3    H2  667   2.672   6.863   2.163 -0.6552 -0.1348 -1.2774
  235TIP3   OH2  668   0.449   1.549   3.863 -0.2863 -0.5486 -0.0128
  235TIP3    H1  669   0.492   1.527   3.780 -1.3434 -1.2268 -0.3913
  235TIP3    H2  670   0.520   1.550   3.927  0.0632 -3.7909 -0.2072
  236TIP3   OH2  671   5.282   3.004   3.047 -0.4455 -0.4261 -0.1383
  236TIP3    H1  672   5.326   3.079   3.007  2.1771 -2.3804 -1.1917
  236TIP3    H2  673   5.229   3.042   3.117 -1.1386  2.6041 -2.1145
  237TIP3   OH2  674   2.876   1.765   3.856 -0.1418 -0.1094  0.1792
  237TIP3    H1  675   2.953   1.817   3.877 -0.6819  0.2382  1.3448
  237TIP3    H2  676   2.810   1.829   3.829 -0.4438 -0.2854  0.4950
  238TIP3   OH2  677   1.527   0.537   0.645 -0.5040 -0.7572  0.7910
  238TIP3    H1  678   1.585   0.613   0.655  1.7945 -2.2174 -0.5473
  238TIP3    H2  679   1.454   0.569   0.592  1.0072  0.2935 -0.7729
  239TIP3   OH2  680   6.942   4.198   5.241  0.4102  0.1059 -0.1936
  239TIP3    H1  681   6.873   4.260   5.267  0.2782 -0.1669  0.1091
  239TIP3    H2  682   6.977   4.235   5.160  0.0522  0.3598 -0.2387
  240TIP3   OH2  683   4.007   3.484   3.005  0.6730 -0.4243  0.5091
  240TIP3    H1  684   4.004   3.438   2.921  0.2658  0.3083  0.1111
  240TIP3    H2  685   4.018   3.415   3.070  0.2696 -1.0669 -0.0915
  241TIP3   OH2  686   2.364   6.248   5.320 -0.1090 -0.2394  0.2691
  241TIP3    H1  687   2.425   6.284   5.383  0.7087 -0.9988 -0.0673
  241TIP3    H2  688   2.419   6.218   5.247 -0.8568 -1.0781  0.0292
  242TIP3   OH2  689   2.269   4.761   5.517  0.0291 -0.2659  0.0391
  242TIP3    H1  690   2.300   4.769   5.427 -0.1423  1.4466  0.1114
  242TIP3    H2  691   2.348   4.742   5.567  0.9128  2.9555  0.0650
  243TIP3   OH2  692   3.909   4.422   2.749 -0.1976 -0.2042 -0.2070
  243TIP3    H1  693   3.885   4.333   2.722  1.0725 -0.6154 -0.0472
  243TIP3    H2  694   3.995   4.437   2.711  0.1747  0.4605  0.8409
  244TIP3   OH2  695   1.177   2.346   1.331  0.3968  0.7460 -0.3915
  244TIP3    H1  696   1.208   2.255   1.334  1.2625  1.0161 -0.7820
  244TIP3    H2  697   1.156   2.360   1.238 -1.9639  0.2469  0.0058
  245TIP3   OH2  698   4.505   2.551   2.026  0.2076  0.2563 -0.3008
  245TIP3    H1  699   4.540   2.614   1.963 -0.0534  1.7454  0.9741
  245TIP3    H2  700   4.460   2.485   1.972  1.5558  0.4543 -1.7412
  246TIP3   OH2  701   0.950   3.402   4.413  0.1108 -0.0773 -0.3102
  246TIP3    H1  702   1.023   3.361   4.458  0.0717 -0.2488 -0.4030
  246TIP3    H2  703   0.978   3.406   4.321  0.0458 -0.0498 -0.3283
  247TIP3   OH2  704   2.064   2.662   4.893 -0.4408 -0.0810 -0.3779
  247TIP3    H1  705   2.089   2.680   4.803 -0.6791  0.6996 -0.3017
  247TIP3    H2  706   1.968   2.671   4.893 -0.3630  0.9385  0.1467
  248TIP3   OH2  707   0.715   2.246   0.220  0.1458  0.2133 -0.2855
  248TIP3    H1  708   0.662   2.185   0.272 -1.3930  1.2482 -0.5664
  248TIP3    H2  709   0.652   2.289   0.162  1.2530  1.6581 -0.4874
  249TIP3   OH2  710   4.399   1.534   4.551  0.2357  0.2767 -0.2533
  249TIP3    H1  711   4.405   1.553   4.645  1.1907  0.1742 -0.2800
  249TIP3    H2  712   4.488   1.547   4.518  0.5038 -2.1983 -0.6697
  250TIP3   OH2  713   1.458   1.498   0.584 -0.0240  0.3367 -0.4323
  250TIP3    H1  714   1.370   1.531   0.569 -1.3780 -2.4610  0.5855
  250TIP3    H2  715   1.466   1.493   0.679  0.9941  0.0173 -0.5236
  251TIP3   OH2  716   5.982   1.653   4.258 -0.9279 -0.0227 -0.0441
  251TIP3    H1  717   5.905   1.668   4.203  0.1031 -0.1125 -1.6060
  251TIP3    H2  718   6.026   1.578   4.217  0.6789  0.8540 -0.0124
  252TIP3   OH2  719   3.940   4.145   1.402  0.2249  0.1294 -0.3524
  252TIP3    H1  720   3.895   4.191   1.472 -0.9897  1.3727 -1.8738
  252TIP3    H2  721   3.898   4.059   1.398  0.2655  0.0694  0.3734
  253TIP3   OH2  722   4.813   5.887   3.341 -0.0316  0.1783  0.3740
  253TIP3    H1  723   4.852   5.973   3.323  1.9918 -0.6631  0.4712
  253TIP3    H2  724   4.758   5.869   3.264  0.2319  1.1562 -0.0633
  254TIP3   OH2  725   4.795   3.559   3.919  0.3674  0.0435 -0.7210
  254TIP3    H1  726   4.870   3.567   3.860 -0.3900 -1.9797 -2.0528
  254TIP3    H2  727   4.805   3.471   3.957 -1.9138 -0.7634 -1.8402
  255TIP3   OH2  728   7.028   2.436   5.174 -0.7174 -0.2816 -0.6942
  255TIP3    H1  729   6.971   2.395   5.108  0.1938  0.4226 -1.9750
  255TIP3    H2  730   7.116   2.405   5.152 -0.4989 -0.8269  0.8472
  256TIP3   OH2  731   2.376   1.908   2.287 -0.3731  0.0354 -0.5956
  256TIP3    H1  732   2.436   1.853   2.237  0.0719 -0.0661  0.0327
  256TIP3    H2  733   2.358   1.859   2.367 -0.8389  0.3212 -0.5179
  257TIP3   OH2  734   5.939   5.139   5.526  1.0447  0.0308 -0.2318
  257TIP3    H1  735   5.887   5.180   5.595  0.5940 -0.1595 -0.4533
  257TIP3    H2  736   6.021   5.189   5.525  0.7462  0.5357 -0.0885
  258TIP3   OH2  737   1.196   0.095   4.682 -0.2770 -0.2057  0.2354
  258TIP3    H1  738   1.181   0.151   4.758  1.5855 -1.1226  1.3645
  258TIP3    H2  739   1.126   0.118   4.621 -1.3901  1.1125  1.9023
  259TIP3   OH2  740   6.974   5.232   3.058  0.1679 -0.6673  0.5070
  259TIP3    H1  741   6.926   5.248   2.976  0.5963  0.6239  0.4972
  259TIP3    H2  742   6.909   5.192   3.116 -1.1614  1.6067  0.7044
  260TIP3   OH2  743   4.379   3.251   5.423  0.1097 -0.5699 -0.0086
  260TIP3    H1  744   4.471   3.261   5.397  0.7254 -1.6028  1.6034
  260TIP3    H2  745   4.383   3.209   5.509 -1.8376  1.2757  1.0794
  261TIP3   OH2  746   4.107   5.220   3.244 -0.1236  0.0315  0.2658
  261TIP3    H1  747   4.028   5.223   3.189  0.4689  1.3027 -0.5670
  261TIP3    H2  748   4.077   5.244   3.331 -0.6723  0.4035 -0.0227
  262TIP3   OH2  749   5.758   4.300   5.485  0.0288  0.1414  0.0243
  262TIP3    H1  750   5.682   4.243   5.498 -0.0871 -0.3443 -2.3866
  262TIP3    H2  751   5.827   4.242   5.453  1.5660  0.5407  2.3634
  263TIP3   OH2  752   4.865   1.738   4.795  0.4787 -0.1749 -0.0858
  263TIP3    H1  753   4.954   1.765   4.774  0.1849  0.1200 -1.0023
  263TIP3    H2  754   4.810   1.812   4.770 -0.1528 -0.8754 -0.8373
  264TIP3   OH2  755   1.598   6.062   2.143  0.1757 -0.1786  0.3966
  264TIP3    H1  756   1.625   6.113   2.219 -0.8921  0.9835  0.0370
  264TIP3    H2  757   1.518   6.017   2.172 -0.9714  1.2736 -0.3770
  265TIP3   OH2  758   1.264   6.508   4.545  0.4571  0.2175 -0.3986
  265TIP3    H1  759   1.301   6.513   4.633 -1.1623  3.2028  0.2345
  265TIP3    H2  760   1.191   6.446   4.554 -0.0466  0.9127  0.5415
  266TIP3   OH2  761   1.574   6.524   0.481 -0.3474  0.5283  0.5516
  266TIP3    H1  762   1.531   6.451   0.436  1.5684 -0.5703  0.3795
  266TIP3    H2  763   1.536   6.524   0.569 -1.6774  0.5099 -0.0029
  267TIP3   OH2  764   2.531   4.749   0.837 -0.1662  0.4412  0.0469
  267TIP3    H1  765   2.443   4.737   0.872 -0.8143  2.4229 -0.7862
  267TIP3    H2  766   2.556   4.837   0.862  0.5868  0.8094 -1.7893
  268TIP3   OH2  767   0.207   6.672   1.075 -0.2991 -0.5874 -0.0049
  268TIP3    H1  768   0.244   6.741   1.020  0.2590  1.0242  2.2234
  268TIP3    H2  769   0.196   6.597   1.017  1.5432  0.5564 -1.9530
  269TIP3   OH2  770   1.486   5.177   2.597 -0.1898 -0.2246  0.5669
  269TIP3    H1  771   1.540   5.105   2.628 -0.0905 -0.5298 -0.2915
  269TIP3    H2  772   1.396   5.149   2.613 -0.1385 -0.3736  0.5968
  270TIP3   OH2  773   6.534   1.323  -0.026  0.0862  0.1669 -0.1259
  270TIP3    H1  774   6.502   1.286   0.057  1.7980  0.8046  0.8639
  270TIP3    H2  775   6.626   1.297  -0.030  0.1199  0.4595 -1.6666
  271TIP3   OH2  776   6.553   0.442   5.560  0.0504 -0.2844 -0.4452
  271TIP3    H1  777   6.518   0.410   5.476 -0.7708  0.2093 -0.3027
  271TIP3    H2  778   6.609   0.515   5.535  0.8880 -0.9829 -0.6636
  272TIP3   OH2  779   5.010   0.365   2.808 -0.5889 -0.2504 -0.2060
  272TIP3    H1  780   4.918   0.363   2.835 -0.0447  0.8109  1.9495
  272TIP3    H2  781   5.022   0.453   2.772  0.2147  0.7575  2.2981
  273TIP3   OH2  782   5.515   5.666   0.460 -0.1621 -0.9190 -0.1280
  273TIP3    H1  783   5.477   5.626   0.538  2.4894 -1.6944  0.8703
  273TIP3    H2  784   5.514   5.760   0.479 -2.2578 -0.8171 -0.5160
  274TIP3   OH2  785   4.551   6.081   2.780 -0.3387 -0.1292 -0.4029
  274TIP3    H1  786   4.498   6.151   2.741 -0.7130  0.0420  0.3985
  274TIP3    H2  787   4.487   6.016   2.808 -0.2520  0.5322  1.5065
  275TIP3   OH2  788   0.547   0.880   5.095  0.0065 -0.0701 -0.2225
  275TIP3    H1  789   0.634   0.911   5.070 -0.7065  1.1326 -1.3627
  275TIP3    H2  790   0.491   0.958   5.089 -1.0918 -0.7463  0.8034
  276TIP3   OH2  791   6.461   2.760   3.818 -0.1145 -0.2018 -0.1587
  276TIP3    H1  792   6.551   2.776   3.848  0.2744  0.6919 -1.7061
  276TIP3    H2  793   6.463   2.778   3.724 -1.6735 -1.2624 -0.4325
  277TIP3   OH2  794   4.300   0.019   5.718 -0.1496 -0.2521 -0.1006
  277TIP3    H1  795   4.386   0.060   5.710 -0.2916  0.1774  0.5052
  277TIP3    H2  796   4.241   0.076   5.669  0.2951 -1.9261 -2.8385
  278TIP3   OH2  797   2.975   4.693   2.639  0.1060  0.0745 -0.1092
  278TIP3    H1  798   2.967   4.598   2.634  0.2823  0.0802 -0.5371
  278TIP3    H2  799   3.012   4.710   2.725  0.1097 -0.2463 -0.0483
  279TIP3   OH2  800   0.688   5.199   5.089 -0.2786 -0.7329  0.2922
  279TIP3    H1  801   0.708   5.273   5.146  0.6363 -1.4341  0.9057
  279TIP3    H2  802   0.694   5.235   5.000 -0.9573  0.1806  0.5975
  280TIP3   OH2  803   2.090   5.758   2.169  0.4693  0.2819  0.0527
  280TIP3    H1  804   2.000   5.782   2.192 -0.4857  0.8313 -3.6271
  280TIP3    H2  805   2.080   5.689   2.103  2.8370 -0.6159  0.5231
  281TIP3   OH2  806   5.105   4.526   1.397 -0.2827  0.6202 -0.0929
  281TIP3    H1  807   5.155   4.584   1.455  1.0884 -0.6444  0.0298
  281TIP3    H2  808   5.097   4.444   1.446 -0.8743  0.1907 -0.8830
  282TIP3   OH2  809   0.834   2.135   3.332 -0.1197 -0.0494 -0.1026
  282TIP3    H1  810   0.795   2.070   3.274 -1.0799  0.6667 -0.2868
  282TIP3    H2  811   0.922   2.102   3.349 -0.7407 -1.6214  0.1863
  283TIP3   OH2  812   7.144   3.293   0.915  0.2548  0.1387 -0.0982
  283TIP3    H1  813   7.096   3.214   0.893  1.3741 -0.3886 -0.7553
  283TIP3    H2  814   7.085   3.342   0.973 -0.4601 -1.1543  0.3109
  284TIP3   OH2  815   6.456   3.550   5.339  0.3386  0.9885  0.1599
  284TIP3    H1  816   6.529   3.488   5.343  0.2340  0.8658  0.1384
  284TIP3    H2  817   6.389   3.512   5.395 -1.6300 -1.3524 -3.3821
  285TIP3   OH2  818   5.605   6.455   1.633  0.3035 -0.0525 -0.0669
  285TIP3    H1  819   5.654   6.442   1.552 -0.1591  0.0917 -0.3723
  285TIP3    H2  820   5.519   6.416   1.616 -0.1775  0.9558 -0.0317
  286TIP3   OH2  821   3.109   6.336   5.523 -0.2051 -1.0814 -0.2063
  286TIP3    H1  822   3.148   6.284   5.593  0.3232 -1.4133 -0.7314
  286TIP3    H2  823   3.047   6.277   5.480 -1.2145 -0.5959  0.5433
  287TIP3   OH2  824   1.153   2.197   5.734 -0.1958  0.0883 -0.1814
  287TIP3    H1  825   1.240   2.236   5.733  0.1376 -0.6561 -0.8366
  287TIP3    H2  826   1.118   2.219   5.821 -0.0115  1.7764 -0.5003
  288TIP3   OH2  827   1.400   2.333   5.728 -0.0601 -0.3467  0.0367
  288TIP3    H1  828   1.446   2.262   5.774  0.3855  0.0539  0.2181
  288TIP3    H2  829   1.470   2.385   5.688 -0.4616 -1.0006 -1.5962
  289TIP3   OH2  830   7.196   3.466   3.932  0.2046 -0.5771 -0.0511
  289TIP3    H1  831   7.250   3.392   3.960  0.1964 -0.3433  0.5907
  289TIP3    H2  832   7.167   3.507   4.013 -0.7192 -0.5344 -0.3850
  290TIP3   OH2  833   5.695   1.097   1.830 -0.3454  0.0781 -0.4751
  290TIP3    H1  834   5.662   1.104   1.740  1.5172  0.5928 -1.1628
  290TIP3    H2  835   5.770   1.157   1.833  1.5182 -2.1395  0.5288
  291TIP3   OH2  836   5.028   4.060   3.711  0.0432 -0.0733 -0.3063
  291TIP3    H1  837   4.971   4.136   3.703 -0.0967 -0.2799 -1.4184
  291TIP3    H2  838   4.988   4.007   3.780 -0.2529  0.5222 -0.0193
  292TIP3   OH2  839   4.715   0.189   2.894  0.5103  0.0918  0.1236
  292TIP3    H1  840   4.757   0.273   2.911 -0.0833  0.8377 -1.8116
  292TIP3    H2  841   4.630   0.195   2.938  1.8469 -1.0110  3.1373
  293TIP3   OH2  842   3.957   1.268   2.976 -0.5882 -0.0420 -0.3246
  293TIP3    H1  843   3.927   1.186   3.014  0.3953 -0.8148 -1.1852
  293TIP3    H2  844   3.960   1.252   2.882  0.5988  0.6434 -0.4234
  294TIP3   OH2  845   4.751   1.617   0.378  0.1556 -0.0636 -0.8644
  294TIP3    H1  846   4.662   1.581   0.384 -0.4445  1.4954  0.4024
  294TIP3    H2  847   4.782   1.617   0.469  0.9080  0.7006 -1.1143
  295TIP3   OH2  848   5.272   1.088   1.112  0.3331  0.5833 -0.3223
  295TIP3    H1  849   5.227   1.133   1.041 -0.1938 -0.4949 -0.7032
  295TIP3    H2  850   5.222   1.110   1.190 -0.3339  0.1174 -0.6094
  296TIP3   OH2  851   0.437   6.248   5.135  0.1475  0.4474 -0.1565
  296TIP3    H1  852   0.519   6.278   5.174  0.3888  0.0460 -0.3536
  296TIP3    H2  853   0.370   6.270   5.200  0.6481 -1.0447  0.9058
  297TIP3   OH2  854   5.006   2.956   1.741 -0.3378 -0.1481  0.0009
  297TIP3    H1  855   4.919   2.994   1.757 -0.5612 -0.4547 -0.4671
  297TIP3    H2  856   4.995   2.863   1.760 -0.4367 -0.4071 -1.2280
  298TIP3   OH2  857   0.686   3.619   5.462  0.3638  0.1596 -0.4459
  298TIP3    H1  858   0.596   3.599   5.435 -0.3904  3.7137 -1.0181
  298TIP3    H2  859   0.741   3.572   5.399 -1.1703  0.2691 -1.9441
  299TIP3   OH2  860   1.646   6.813   0.971  0.0270  0.6771 -0.2778
  299TIP3    H1  861   1.622   6.726   0.937  2.6247 -1.0026  1.8035
  299TIP3    H2  862   1.562   6.853   0.993 -1.2420 -1.8816 -0.0527
  300TIP3   OH2  863   1.785   3.599   0.916 -0.0689  0.2358  0.2584
  300TIP3    H1  864   1.762   3.544   0.841 -0.4226  0.4569  0.1986
  300TIP3    H2  865   1.764   3.545   0.993 -0.5746  0.3405  0.2021
  301TIP3   OH2  866   5.180   4.647   4.929 -0.2725  0.7905 -0.3897
  301TIP3    H1  867   5.145   4.681   4.847  1.5848 -0.2332 -1.6666
  301TIP3    H2  868   5.251   4.707   4.952 -0.3644  0.7086  0.1367
  302TIP3   OH2  869   3.878   2.937   5.828 -0.2898 -0.0483  0.0229
  302TIP3    H1  870   3.826   2.864   5.862 -0.1105  0.6934  1.9810
  302TIP3    H2  871   3.908   2.984   5.905 -0.8285  2.4179 -1.1755
  303TIP3   OH2  872   4.003   2.340   3.294 -0.2704  0.1691  0.7504
  303TIP3    H1  873   4.084   2.354   3.245 -0.7690  1.2626  0.1987
  303TIP3    H2  874   4.029   2.343   3.386  0.4112 -0.1959  0.5782
  304TIP3   OH2  875   6.686   4.057   2.239  0.3291  0.3465 -0.5102
  304TIP3    H1  876   6.639   3.991   2.188 -0.4922 -0.0090  0.6786
  304TIP3    H2  877   6.777   4.027   2.237 -0.0583 -0.9700  0.1886
  305TIP3   OH2  878   2.418   1.324   1.088 -0.1231 -0.0645 -1.1014
  305TIP3    H1  879   2.332   1.340   1.051 -1.3156 -2.9519  0.1358
  305TIP3    H2  880   2.475   1.310   1.012 -1.3542 -0.7696 -1.9296
  306TIP3   OH2  881   1.641   4.968   4.587  0.2085  0.0781 -0.0638
  306TIP3    H1  882   1.591   5.018   4.652  0.8397  0.4586  0.1364
  306TIP3    H2  883   1.608   4.998   4.503  0.8569  1.1538  0.0382
  307TIP3   OH2  884   1.122   5.901   1.341  0.4861 -0.1273 -0.1335
  307TIP3    H1  885   1.082   5.873   1.259 -0.6619 -1.3436  0.8041
  307TIP3    H2  886   1.067   5.974   1.371  1.3300  0.7953 -0.7742
  308TIP3   OH2  887   2.323   4.796   0.034  0.1373 -0.0903  0.5976
  308TIP3    H1  888   2.410   4.817   0.067  1.7625 -1.0817 -2.6303
  308TIP3    H2  889   2.337   4.719  -0.022 -2.1836  1.5846 -2.5727
  309TIP3   OH2  890   5.389   5.620   3.297 -0.1926  0.1671  0.0218
  309TIP3    H1  891   5.468   5.632   3.349  0.1650 -1.4512 -0.1038
  309TIP3    H2  892   5.399   5.680   3.223  1.2271 -0.4712 -0.3268
  310TIP3   OH2  893   0.113   6.422   0.140  0.2575  1.0286 -0.1527
  310TIP3    H1  894   0.083   6.335   0.168  0.3437  0.9229 -0.3879
  310TIP3    H2  895   0.065   6.438   0.059  0.3602  1.1335 -0.1920
  311TIP3   OH2  896   2.082   3.346   2.124  0.2890 -0.5253  0.3014
  311TIP3    H1  897   2.098   3.431   2.083  1.0741 -0.9556 -0.3150
  311TIP3    H2  898   2.043   3.367   2.209  0.7595  0.4561  0.2852
  312TIP3   OH2  899   3.870   3.945   3.204 -0.1443  0.3224 -0.2810
  312TIP3    H1  900   3.918   3.968   3.125 -0.8045  1.9931 -0.2515
  312TIP3    H2  901   3.903   4.005   3.271 -0.8583  0.1569  0.2449
  313TIP3   OH2  902   1.741   0.582   2.677 -0.1892 -0.3305 -0.1417
  313TIP3    H1  903   1.707   0.613   2.761  0.4391 -1.3563  0.5047
  313TIP3    H2  904   1.671   0.603   2.615 -0.9351 -0.1165  0.7390
  314TIP3   OH2  905   0.136   1.328   1.549  0.2022  0.2938  0.5332
  314TIP3    H1  906   0.151   1.246   1.596  1.1790  0.4143  0.4581
  314TIP3    H2  907   0.185   1.318   1.467  0.6146  1.0735  0.6744
  315TIP3   OH2  908   0.175   3.401   5.691  0.4994  0.0827 -0.2686
  315TIP3    H1  909   0.256   3.450   5.702 -0.0755  1.0070 -0.0791
  315TIP3    H2  910   0.106   3.461   5.718 -0.2906 -0.5306 -0.8550
  316TIP3   OH2  911   1.367   0.788   3.013  0.0294  0.3716  0.3800
  316TIP3    H1  912   1.326   0.731   2.948 -0.8809  0.6730  0.6890
  316TIP3    H2  913   1.324   0.768   3.095  2.0889 -0.9723  1.2201
  317TIP3   OH2  914   3.400   2.057   2.102 -0.4202 -0.0805  0.0652
  317TIP3    H1  915   3.370   2.132   2.153  1.1019 -0.6315  1.8542
  317TIP3    H2  916   3.416   1.989   2.167 -0.1747 -1.4316 -1.3562
  318TIP3   OH2  917   5.553   1.515   3.756  0.4119  0.1011 -0.5381
  318TIP3    H1  918   5.503   1.441   3.789 -1.5066  0.8467 -1.5980
  318TIP3    H2  919   5.645   1.488   3.763 -0.2008 -2.0570 -0.2502
  319TIP3   OH2  920   3.240   2.371   5.671  0.8994 -0.3701  0.6951
  319TIP3    H1  921   3.180   2.297   5.683  1.5324 -1.3334 -1.4112
  319TIP3    H2  922   3.277   2.357   5.583 -0.5041  3.5833 -0.7438
  320TIP3   OH2  923   6.388   5.959   2.469 -0.0265 -0.7104  0.0211
  320TIP3    H1  924   6.378   5.866   2.448  1.0095 -1.1540  1.3500
  320TIP3    H2  925   6.439   5.960   2.550  0.5230  1.0415 -0.3059
  321TIP3   OH2  926   5.877   2.392   2.609 -0.3441 -0.1422 -0.1525
  321TIP3    H1  927   5.834   2.321   2.656  2.2136 -1.5722  0.2041
  321TIP3    H2  928   5.890   2.358   2.521 -0.9891  0.7613 -0.6232
  322TIP3   OH2  929   6.680   5.259   2.621 -0.1890  0.8731 -1.0175
  322TIP3    H1  930   6.604   5.313   2.597 -0.6395  0.5019 -0.4659
  322TIP3    H2  931   6.671   5.180   2.568 -0.1470  0.8612 -1.0071
  323TIP3   OH2  932   2.881   4.167   4.030  0.4359  0.0507  0.0526
  323TIP3    H1  933   2.918   4.162   4.118  0.3303 -0.3494  0.0772
  323TIP3    H2  934   2.915   4.249   3.994 -1.2683  1.3837  1.2823
  324TIP3   OH2  935   4.426   2.389   4.748 -0.3215  0.1657 -0.0422
  324TIP3    H1  936   4.374   2.313   4.723 -0.0641  0.5639 -2.0005
  324TIP3    H2  937   4.402   2.456   4.683 -2.0931  2.5156  2.7916
  325TIP3   OH2  938   3.900   5.652   2.794 -0.0959 -0.2423  0.2747
  325TIP3    H1  939   3.939   5.565   2.787  1.6647  0.6188 -1.3844
  325TIP3    H2  940   3.834   5.654   2.725  0.1551 -0.1425  0.0333
  326TIP3   OH2  941   6.967   1.140   4.324 -0.6490 -0.0792  0.0578
  326TIP3    H1  942   7.034   1.189   4.277 -0.8405  0.1955  0.0682
  326TIP3    H2  943   6.884   1.166   4.283 -0.6408 -1.5960 -1.0235
  327TIP3   OH2  944   5.068   4.738   1.222 -0.8889  0.1690  0.6512
  327TIP3    H1  945   5.078   4.655   1.269 -0.0890 -0.3581 -0.4059
  327TIP3    H2  946   5.110   4.803   1.278 -0.4516 -0.3495  0.9324
  328TIP3   OH2  947   6.809   3.511   1.223  0.6579 -0.3130  0.2520
  328TIP3    H1  948   6.864   3.541   1.295  0.0148  0.0094  0.6190
  328TIP3    H2  949   6.746   3.451   1.265  1.1654 -1.2327 -0.2750
  329TIP3   OH2  950   3.211   0.390   3.769 -0.7407  0.0397 -0.1752
  329TIP3    H1  951   3.269   0.315   3.779 -0.0171  0.7849  1.6719
  329TIP3    H2  952   3.268   0.460   3.736 -1.0470  0.2199 -0.3306
  330TIP3   OH2  953   1.611   4.732   0.690  0.1898  0.5291  0.2898
  330TIP3    H1  954   1.666   4.810   0.685 -1.4107  1.6532 -0.2405
  330TIP3    H2  955   1.539   4.756   0.747 -0.9056 -0.1941 -0.7504
  331TIP3   OH2  956   1.279   1.358   5.520 -0.6841 -0.3033 -0.5665
  331TIP3    H1  957   1.334   1.409   5.461 -0.4928 -1.9727 -1.9083
  331TIP3    H2  958   1.193   1.357   5.477 -1.3462  0.8335  0.6519
  332TIP3   OH2  959   0.656   4.672   2.871 -0.3312 -0.4735  0.4622
  332TIP3    H1  960   0.708   4.732   2.818 -1.7550  0.5655  0.2042
  332TIP3    H2  961   0.699   4.673   2.957  0.9565 -0.8225 -0.1609
  333TIP3   OH2  962   1.075   5.000   5.165 -0.4728  0.4488  0.2755
  333TIP3    H1  963   1.061   5.062   5.237  2.5264  0.6153  0.8886
  333TIP3    H2  964   1.064   5.051   5.086 -1.1961  0.9415  0.6853
  334TIP3   OH2  965   1.269   6.652   2.712 -0.1321  0.2139 -0.2736
  334TIP3    H1  966   1.340   6.711   2.686  0.9650 -1.3789 -1.0877
  334TIP3    H2  967   1.217   6.641   2.632  1.2232 -1.9301 -0.9744
  335TIP3   OH2  968   2.830   0.989   4.098 -0.4869 -0.3463 -0.7339
  335TIP3    H1  969   2.804   0.897   4.113 -0.8769 -0.3203 -1.2145
  335TIP3    H2  970   2.844   0.994   4.003 -0.5631  0.1142 -0.7198
  336TIP3   OH2  971   2.898   4.986   4.017  0.5176 -0.5960  0.5782
  336TIP3    H1  972   2.924   5.014   4.105  1.8968  0.6778 -0.1959
  336TIP3    H2  973   2.859   5.064   3.977  0.4262 -1.0005 -0.1400
  337TIP3   OH2  974   4.101   4.153   5.231 -0.2522  0.3461 -0.0910
  337TIP3    H1  975   4.008   4.146   5.208 -0.4023  0.8464  0.3147
  337TIP3    H2  976   4.102   4.145   5.327  0.3611 -1.8127 -0.2258
  338TIP3   OH2  977   0.734   2.689   4.098 -0.1878 -0.5018  0.0179
  338TIP3    H1  978   0.701   2.721   4.182 -0.5488 -0.4955 -0.1265
  338TIP3    H2  979   0.784   2.763   4.063  0.8091 -0.8376  0.6788
  339TIP3   OH2  980   1.029   4.264   3.684  0.0383  0.2957 -0.5589
  339TIP3    H1  981   1.045   4.355   3.662  0.2872  0.2559 -0.5568
  339TIP3    H2  982   0.939   4.261   3.715  0.5466  0.8571  1.0932
  340TIP3   OH2  983   1.411   4.766   2.927 -0.7091  0.2320 -0.2666
  340TIP3    H1  984   1.482   4.714   2.965  0.2025  1.8060  0.3079
  340TIP3    H2  985   1.332   4.714   2.941  0.0264 -0.5562  1.1384
  341TIP3   OH2  986   0.009   6.353   3.973 -0.7076 -0.1733  0.1982
  341TIP3    H1  987   0.003   6.296   4.050 -1.0417 -0.8596 -0.3280
  341TIP3    H2  988   0.097   6.338   3.939 -1.0668 -1.0079 -0.4063
  342TIP3   OH2  989   2.197   3.900   1.290 -0.4030  0.7326 -0.6278
  342TIP3    H1  990   2.277   3.935   1.329  1.0863 -1.5133 -1.4504
  342TIP3    H2  991   2.126   3.942   1.339  1.2762  1.6706  1.1611
  343TIP3   OH2  992   3.277   6.443   4.375 -0.0578  0.3209 -0.8531
  343TIP3    H1  993   3.227   6.377   4.328  0.5462 -0.2211 -0.7460
  343TIP3    H2  994   3.211   6.493   4.424 -0.4952 -0.3412 -0.7586
  344TIP3   OH2  995   1.598   4.873   2.472  0.0083  0.2311 -0.5094
  344TIP3    H1  996   1.667   4.824   2.517 -1.3395  0.2370  1.7167
  344TIP3    H2  997   1.522   4.867   2.530 -2.6169 -1.5174 -3.7452
  345TIP3   OH2  998   0.721   2.699   2.071  0.0346 -0.0202  0.7517
  345TIP3    H1  999   0.732   2.776   2.127 -0.2398  0.3577  0.2891
  345TIP3    H2 1000   0.637   2.662   2.099 -0.6373  0.7928 -0.1471
  346TIP3   OH2 1001   4.422   2.718   0.487  0.1463  0.8508 -0.1705
  346TIP3    H1 1002   4.498   2.742   0.539  0.5123  1.2256 -0.8703
  346TIP3    H2 1003   4.445   2.634   0.448 -0.6477 -0.0983  1.2880
  347TIP3   OH2 1004   2.733   3.780   3.102  0.2366 -0.0177  0.0820
  347TIP3    H1 1005   2.770   3.704   3.148  1.0082  0.0646 -0.3942
  347TIP3    H2 1006   2.777   3.856   3.141 -0.0064  0.1391  0.0553
  348TIP3   OH2 1007   1.377   6.452   1.957 -0.3476  0.0717 -0.5603
  348TIP3    H1 1008   1.465   6.448   1.918 -0.4523  0.6340 -0.8576
  348TIP3    H2 1009   1.319   6.421   1.887 -0.2213 -2.2064  0.2558
  349TIP3   OH2 1010   1.342   5.778   5.714  0.1642 -0.5323 -0.5038
  349TIP3    H1 1011   1.344   5.807   5.623 -0.4712  0.4195 -0.2285
  349TIP3    H2 1012   1.251   5.788   5.740  0.3304 -0.8616  0.2152
  350TIP3   OH2 1013   7.130   3.923   0.132  0.0173 -0.1713  0.4450
  350TIP3    H1 1014   7.183   3.845   0.120 -1.8768 -1.4382 -0.1938
  350TIP3    H2 1015   7.040   3.894   0.118 -0.8801  1.8723  1.4195
  351TIP3   OH2 1016   2.439   2.280   2.896  0.2320 -0.6377 -0.1424
  351TIP3    H1 1017   2.418   2.294   2.803 -0.0667  0.4759  0.0758
  351TIP3    H2 1018   2.422   2.365   2.937  1.0260 -0.9283  0.8165
  352TIP3   OH2 1019   0.907   4.165   2.116 -0.4070 -0.6562  0.5605
  352TIP3    H1 1020   0.835   4.102   2.105 -0.9468 -0.1043  0.8703
  352TIP3    H2 1021   0.931   4.159   2.208  0.0673 -0.9628  0.4201
  353TIP3   OH2 1022   1.798   0.447   5.177  0.0149 -0.5009  0.3911
  353TIP3    H1 1023   1.772   0.525   5.227 -0.9557 -0.2276 -0.5145
  353TIP3    H2 1024   1.741   0.378   5.210 -0.2592 -0.4413  0.0521
  354TIP3   OH2 1025   1.787   2.652   4.934 -0.0627 -0.0103  0.2033
  354TIP3    H1 1026   1.764   2.590   5.004  0.8410 -0.7930 -0.1643
  354TIP3    H2 1027   1.725   2.724   4.944 -1.4116 -1.1675  0.3885
  355TIP3   OH2 1028   4.342   3.700   2.604  0.7849 -0.4021 -1.1504
  355TIP3    H1 1029   4.294   3.622   2.633 -0.0053  0.7231  0.7687
  355TIP3    H2 1030   4.358   3.685   2.511  0.2769 -2.6432 -0.9386
  356TIP3   OH2 1031   2.833   0.129   1.920 -0.2551  0.7176 -0.3529
  356TIP3    H1 1032   2.909   0.120   1.977 -0.4876  2.4836  0.3033
  356TIP3    H2 1033   2.783   0.049   1.933  1.2924 -0.3165 -0.5218
  357TIP3   OH2 1034   3.066   4.634   3.448  0.0730  0.2601  0.6169
  357TIP3    H1 1035   3.139   4.647   3.508  0.3722  0.2365  0.2615
  357TIP3    H2 1036   3.032   4.722   3.431  2.4826  0.8028 -2.2698
  358TIP3   OH2 1037   6.879   6.655   5.404  0.7618  0.1410  0.0251
  358TIP3    H1 1038   6.961   6.630   5.361  1.1130  0.0365  0.7443
  358TIP3    H2 1039   6.903   6.666   5.496  0.0889  0.6916  0.1358
  359TIP3   OH2 1040   1.477   3.681   1.128  0.0660 -0.5374 -0.0982
  359TIP3    H1 1041   1.495   3.732   1.207 -1.5598 -1.5178  0.9549
  359TIP3    H2 1042   1.539   3.608   1.132 -1.0032 -1.4150  1.1061
  360TIP3   OH2 1043   1.612   0.811   5.236  0.2281  0.1311  0.5705
  360TIP3    H1 1044   1.697   0.770   5.248  0.0277  0.1293  2.1847
  360TIP3    H2 1045   1.596   0.806   5.141  2.4144  0.9563  0.0878
  361TIP3   OH2 1046   5.393   1.344   5.814  0.2017 -0.0728 -0.0224
  361TIP3    H1 1047   5.409   1.424   5.765 -1.5881  0.3129 -0.0666
  361TIP3    H2 1048   5.362   1.281   5.749  0.4285 -0.4262  0.2024
  362TIP3   OH2 1049   6.729   5.444   1.964 -0.2268  0.0902  0.9822
  362TIP3    H1 1050   6.717   5.425   2.057 -0.5256  0.2901  0.9875
  362TIP3    H2 1051   6.795   5.514   1.962 -2.6609  2.5859  1.2841
  363TIP3   OH2 1052   2.096   4.168   4.597  1.1361 -0.1204 -0.0894
  363TIP3    H1 1053   2.008   4.131   4.597  0.9759  0.1344  2.1311
  363TIP3    H2 1054   2.153   4.094   4.619  1.4641 -0.1727 -1.0230
  364TIP3   OH2 1055   5.414   5.150   1.244 -0.0266  0.0924  0.2960
  364TIP3    H1 1056   5.458   5.195   1.171 -1.1765 -0.1281 -0.5627
  364TIP3    H2 1057   5.347   5.212   1.273 -0.0905 -0.1455  0.6619
  365TIP3   OH2 1058   0.856   0.872   0.844  0.0481  0.0777  0.4860
  365TIP3    H1 1059   0.895   0.800   0.893  1.5937  1.5274  1.4950
  365TIP3    H2 1060   0.765   0.875   0.874 -0.1840 -1.7096  0.0676
  366TIP3   OH2 1061   6.948   3.209   5.012  0.4397 -0.3506  0.3534
  366TIP3    H1 1062   6.991   3.286   4.973 -0.6112 -0.4183 -1.0246
  366TIP3    H2 1063   6.980   3.135   4.960  0.8632 -0.7660  1.1877
  367TIP3   OH2 1064   4.208   5.519   3.977  0.6992  0.3972  0.2260
  367TIP3    H1 1065   4.187   5.613   3.977  0.0514  0.3163 -1.9869
  367TIP3    H2 1066   4.131   5.477   4.014  1.4968  0.7552  2.4597
  368TIP3   OH2 1067   3.286   3.150   3.583 -0.0741  0.5461 -0.1477
  368TIP3    H1 1068   3.283   3.094   3.505 -0.5244 -0.8982  0.8611
  368TIP3    H2 1069   3.378   3.149   3.609 -0.2949 -0.9790  0.6943
  369TIP3   OH2 1070   2.570   0.194   2.107 -0.0703  0.3098  0.0036
  369TIP3    H1 1071   2.532   0.161   2.025 -1.4738  0.1271  0.6906
  369TIP3    H2 1072   2.496   0.196   2.168  0.6157  1.8795  0.8452
  370TIP3   OH2 1073   0.845   5.725   4.592  0.4636 -0.5588 -0.0626
  370TIP3    H1 1074   0.890   5.736   4.508 -0.8845 -0.1484 -0.7585
  370TIP3    H2 1075   0.830   5.815   4.623  0.5058 -0.6975  0.3603
  371TIP3   OH2 1076   6.989   2.564   2.686 -0.1379 -0.8883  0.5052
  371TIP3    H1 1077   7.034   2.605   2.613 -0.0429 -1.7382  0.0700
  371TIP3    H2 1078   6.937   2.634   2.725  1.4947  0.1172  0.9826
  372TIP3   OH2 1079   1.378   0.648   5.404 -0.0240  0.0150 -0.5955
  372TIP3    H1 1080   1.324   0.646   5.326  0.5755  1.0767 -1.0619
  372TIP3    H2 1081   1.369   0.738   5.437  1.4068  0.2195 -0.6788
  373TIP3   OH2 1082   1.011   3.829   5.473 -0.0933  0.1327  0.1063
  373TIP3    H1 1083   1.035   3.918   5.449  0.5252  0.2556  1.0973
  373TIP3    H2 1084   1.051   3.774   5.406  3.1412  0.3287  1.7007
  374TIP3   OH2 1085   0.893   1.351   3.822 -0.3998  0.0117 -0.2672
  374TIP3    H1 1086   0.878   1.270   3.870 -0.4688  1.0034  1.4870
  374TIP3    H2 1087   0.807   1.392   3.815 -0.0998  0.8350  0.6191
  375TIP3   OH2 1088   7.216   2.971   4.988 -0.0479  0.3279  0.2754
  375TIP3    H1 1089   7.121   2.982   4.981 -0.0776 -0.5206 -0.9975
  375TIP3    H2 1090   7.228   2.884   5.025  0.2271  0.0539 -0.4358
  376TIP3   OH2 1091   4.825   1.568   0.651  0.5504 -0.4521  0.4229
  376TIP3    H1 1092   4.872   1.593   0.731 -2.1317  1.5823  1.5063
  376TIP3    H2 1093   4.755   1.510   0.681  0.8946 -1.5568 -0.8204
  377TIP3   OH2 1094   6.318   6.405   1.965  0.5597 -0.8533 -0.1127
  377TIP3    H1 1095   6.283   6.462   1.896 -0.0351 -0.0580  0.8070
  377TIP3    H2 1096   6.396   6.366   1.927 -0.1998 -1.0651 -1.5157
  378TIP3   OH2 1097   5.375   0.016   1.662  0.1879 -0.2643 -0.3280
  378TIP3    H1 1098   5.364   0.109   1.681  2.0733  0.4534 -2.2975
  378TIP3    H2 1099   5.443  -0.014   1.722 -1.4530 -0.8191  1.3402
  379TIP3   OH2 1100   0.618   6.186   3.021  0.0422  0.4277  0.2255
  379TIP3    H1 1101   0.568   6.108   2.995  3.2644 -1.4400 -0.9647
  379TIP3    H2 1102   0.600   6.251   2.954  0.6965 -0.9399 -1.3483
  380TIP3   OH2 1103   6.102   4.202   0.799 -0.4357 -0.2296 -0.1416
  380TIP3    H1 1104   6.108   4.235   0.709 -1.2357 -3.3264 -1.4673
  380TIP3    H2 1105   6.183   4.232   0.840  0.9731 -0.3936 -2.5536
  381TIP3   OH2 1106   2.566   1.503   2.705 -0.1402  0.2400 -0.4674
  381TIP3    H1 1107   2.642   1.562   2.705 -0.4697  0.6910  0.6821
  381TIP3    H2 1108   2.496   1.554   2.747 -0.6595 -0.6869 -0.1860
  382TIP3   OH2 1109   3.958   4.017   0.373  0.7097  0.1778 -0.0092
  382TIP3    H1 1110   3.963   3.988   0.464 -0.1103  0.6675  0.2078
  382TIP3    H2 1111   3.864   4.017   0.354  0.8438  0.5774 -0.6880
  383TIP3   OH2 1112   0.674   3.216   0.575  0.4008  0.4457  0.1749
  383TIP3    H1 1113   0.588   3.259   0.574  0.7537  1.1731  0.3941
  383TIP3    H2 1114   0.731   3.278   0.620  0.8544 -0.4002  0.7918
  384TIP3   OH2 1115   2.242   0.559   3.815 -0.1925  0.2528  0.0550
  384TIP3    H1 1116   2.165   0.614   3.835  0.3173  2.7403 -3.7078
  384TIP3    H2 1117   2.206   0.472   3.800 -2.0123  0.9113  0.3361
  385TIP3   OH2 1118   4.854   0.058   1.596 -0.0275  0.3926  0.1705
  385TIP3    H1 1119   4.944   0.049   1.565  0.3792  0.5615  1.2479
  385TIP3    H2 1120   4.856   0.135   1.653 -1.1962  1.3070 -0.9556
  386TIP3   OH2 1121   5.255  -0.025   2.867 -1.0057  0.3818 -0.4529
  386TIP3    H1 1122   5.234   0.067   2.880  0.5970  0.6132  0.9443
  386TIP3    H2 1123   5.342  -0.035   2.906 -1.3451 -1.8227 -0.1362
  387TIP3   OH2 1124   0.235   5.847   1.091 -0.1116 -0.1821 -0.2693
  387TIP3    H1 1125   0.329   5.848   1.108 -0.0469 -1.1855 -0.4789
  387TIP3    H2 1126   0.217   5.929   1.045  0.0660  1.6360  2.6538
  388TIP3   OH2 1127   4.446   0.624   1.420  0.1183  0.6152  0.1007
  388TIP3    H1 1128   4.429   0.717   1.409 -1.5751  0.4504  0.9734
  388TIP3    H2 1129   4.362   0.582   1.403  1.1832 -0.9361 -1.8589
  389TIP3   OH2 1130   4.261   4.866   5.193 -0.2775 -0.2507  0.0012
  389TIP3    H1 1131   4.186   4.838   5.141  0.0771 -1.1165 -0.0633
  389TIP3    H2 1132   4.223   4.897   5.276 -0.6025 -2.7809  0.8772
  390TIP3   OH2 1133   2.120   3.203   3.315  0.1377 -0.0166 -0.2468
  390TIP3    H1 1134   2.076   3.191   3.399  0.0627 -2.1453 -0.5171
  390TIP3    H2 1135   2.119   3.116   3.275  2.8057  0.2696 -1.1514
  391TIP3   OH2 1136   2.025   0.643   3.355  0.0961  0.2913 -0.1906
  391TIP3    H1 1137   1.997   0.715   3.412  0.0290  0.3115 -0.2483
  391TIP3    H2 1138   2.102   0.606   3.398  2.0215  2.3422 -1.6880
  392TIP3   OH2 1139   1.602   1.996   2.461 -0.0954 -0.1287  0.0146
  392TIP3    H1 1140   1.645   1.968   2.542 -1.3821  0.1722  0.8217
  392TIP3    H2 1141   1.672   2.040   2.412  0.4858  0.5754  1.4075
  393TIP3   OH2 1142   1.637   2.470   5.617 -0.0071  0.2964 -0.0968
  393TIP3    H1 1143   1.708   2.465   5.681  1.0633 -0.3348 -1.2756
  393TIP3    H2 1144   1.659   2.546   5.562  2.2704 -2.3090 -3.1819
  394TIP3   OH2 1145   3.576   1.327   0.532 -0.1047  0.0412 -0.3978
  394TIP3    H1 1146   3.628   1.313   0.611  0.6200 -0.5298 -0.9647
  394TIP3    H2 1147   3.502   1.266   0.540  0.2325 -0.3684 -0.3905
  395TIP3   OH2 1148   2.700   2.037   5.094 -0.5258  0.0860  0.3706
  395TIP3    H1 1149   2.761   1.964   5.107 -0.4456  0.2423  0.9106
  395TIP3    H2 1150   2.739   2.088   5.023  0.6425  0.8667  1.5207
  396TIP3   OH2 1151   5.232   4.550   1.703 -0.2094 -0.2359 -0.0100
  396TIP3    H1 1152   5.326   4.548   1.690 -0.4093  0.3812 -1.7423
  396TIP3    H2 1153   5.220   4.583   1.792  1.1896  0.3373 -0.0199
  397TIP3   OH2 1154   6.414   0.704   3.909 -0.7856 -0.3079 -0.3845
  397TIP3    H1 1155   6.346   0.750   3.956 -1.8015 -1.7160 -0.4080
  397TIP3    H2 1156   6.382   0.614   3.901  2.2829 -1.8497  2.1883
  398TIP3   OH2 1157   3.619   2.141   5.606  0.0996 -0.2323 -0.6030
  398TIP3    H1 1158   3.663   2.104   5.529  1.8045  0.5395 -0.0705
  398TIP3    H2 1159   3.572   2.217   5.572  2.4240  1.2764 -0.6857
  399TIP3   OH2 1160   4.257   4.876   4.228  0.2508  0.2952  0.2445
  399TIP3    H1 1161   4.326   4.811   4.216  0.1464  0.2143  0.0649
  399TIP3    H2 1162   4.179   4.836   4.189 -0.3504 -0.3840  2.0428
  400TIP3   OH2 1163   6.693   3.145   1.411 -0.1931  0.0956 -0.1702
  400TIP3    H1 1164   6.642   3.080   1.458 -1.7287  0.4138 -1.3200
  400TIP3    H2 1165   6.782   3.135   1.445 -0.9707 -0.5210  1.8617
  401TIP3   OH2 1166   5.059   5.528   1.461  0.2730  0.3948 -0.0453
  401TIP3    H1 1167   5.120   5.472   1.414 -2.4244 -0.6879 -2.5978
  401TIP3    H2 1168   5.101   5.614   1.461  2.6889 -0.6964  0.3251
  402TIP3   OH2 1169   6.566   6.574   1.959 -0.3696 -0.0639  0.9027
  402TIP3    H1 1170   6.629   6.587   1.888 -1.2298 -2.2975 -0.3811
  402TIP3    H2 1171   6.504   6.646   1.949 -0.6465 -0.4915 -0.8754
  403TIP3   OH2 1172   2.838   3.848   0.538 -0.1900  0.5981 -0.5721
  403TIP3    H1 1173   2.806   3.913   0.476 -2.2252  0.6801  0.4878
  403TIP3    H2 1174   2.765   3.833   0.598  1.6307  0.4227  1.7520
  404TIP3   OH2 1175   0.020   3.948   5.718  0.1581 -0.5946  0.6756
  404TIP3    H1 1176  -0.007   3.884   5.652  1.5291  0.7288 -1.3201
  404TIP3    H2 1177   0.078   3.900   5.777  0.0454 -1.5131  0.0523
  405TIP3   OH2 1178   4.011   2.779   3.881  0.2910  0.3955 -0.0155
  405TIP3    H1 1179   4.019   2.685   3.865  0.0828  0.4697 -0.5872
  405TIP3    H2 1180   3.925   2.790   3.920 -0.1456  0.4678 -0.9737
  406TIP3   OH2 1181   6.938   4.129   4.043 -0.0943 -0.4871 -0.5203
  406TIP3    H1 1182   6.866   4.178   4.084 -0.3203 -2.1974  1.3055
  406TIP3    H2 1183   6.898   4.045   4.019  0.8219 -0.6739 -1.4304
  407TIP3   OH2 1184   3.901   1.178   0.354  0.0848 -0.1251  0.3884
  407TIP3    H1 1185   3.892   1.270   0.330  1.9255 -0.1211 -0.4753
  407TIP3    H2 1186   3.923   1.179   0.447 -0.6895  0.2375  0.5775
  408TIP3   OH2 1187   4.570   3.032   3.320  0.0451 -0.2324 -0.5000
  408TIP3    H1 1188   4.584   3.077   3.237 -0.8435  0.5949 -0.2150
  408TIP3    H2 1189   4.655   3.035   3.364  1.0619 -2.2687 -2.0920
  409TIP3   OH2 1190   0.750   4.965   4.438  0.1286  0.9380  0.0002
  409TIP3    H1 1191   0.764   4.957   4.344 -2.4557 -0.2290 -0.3671
  409TIP3    H2 1192   0.680   5.029   4.447 -2.4534 -1.7314  0.7156
  410TIP3   OH2 1193   7.003   1.512   1.610 -0.0195  0.0258 -0.2303
  410TIP3    H1 1194   6.956   1.556   1.680 -0.1229 -0.7906  0.2355
  410TIP3    H2 1195   7.052   1.442   1.655 -0.9431 -1.2124 -1.0643
  411TIP3   OH2 1196   0.779   4.977   4.966 -0.1778  0.0401  0.6873
  411TIP3    H1 1197   0.728   5.030   5.026  0.5068 -1.0096  2.2929
  411TIP3    H2 1198   0.848   5.036   4.934 -0.5748  0.6253  0.8987
  412TIP3   OH2 1199   6.940   0.868   5.803  0.6116  0.2119  0.1463
  412TIP3    H1 1200   6.959   0.855   5.896  2.3030 -1.2153 -0.3634
  412TIP3    H2 1201   7.024   0.895   5.765  0.2689 -0.5597 -1.1989
  413TIP3   OH2 1202   2.433   6.422   3.553  0.6190  0.1308  0.4383
  413TIP3    H1 1203   2.467   6.359   3.617 -0.1642 -0.2075  0.5333
  413TIP3    H2 1204   2.341   6.434   3.577  1.1344  2.5923  1.4560
  414TIP3   OH2 1205   0.815   3.639   3.227 -0.1736  0.1365  0.6094
  414TIP3    H1 1206   0.788   3.568   3.286 -0.1206  0.0776  0.5621
  414TIP3    H2 1207   0.764   3.625   3.148  2.9274 -2.4923 -1.1711
  415TIP3   OH2 1208   5.658   0.868   2.410  0.0033  0.3110  0.1518
  415TIP3    H1 1209   5.609   0.785   2.405  0.5088  0.0889 -3.3912
  415TIP3    H2 1210   5.609   0.928   2.354  0.9204  1.7033  0.8050
  416TIP3   OH2 1211   1.560   3.090   3.984 -0.0484  0.4565  0.3870
  416TIP3    H1 1212   1.510   3.009   3.974 -1.0031  0.9916  0.6620
  416TIP3    H2 1213   1.598   3.084   4.072 -2.0331  1.2893  1.3798
  417TIP3   OH2 1214   2.402   5.300   2.544  0.1952 -0.0727 -0.1347
  417TIP3    H1 1215   2.483   5.281   2.592  1.9899  0.7214 -2.6747
  417TIP3    H2 1216   2.402   5.395   2.534  1.2314 -0.3140 -3.7047
  418TIP3   OH2 1217   5.351   6.793   2.672 -1.0370 -0.0071  0.3973
  418TIP3    H1 1218   5.320   6.723   2.614 -0.1111 -0.9587  1.0124
  418TIP3    H2 1219   5.392   6.857   2.613 -0.3724 -0.8141 -0.0388
  419TIP3   OH2 1220   2.506   5.135   5.710 -0.4659  0.4018  0.0760
  419TIP3    H1 1221   2.491   5.054   5.758  1.3716  0.5639  1.0064
  419TIP3    H2 1222   2.452   5.126   5.631  2.6996 -3.6670 -2.0589
  420TIP3   OH2 1223   3.468   0.537   0.789 -0.2884 -0.6453  0.6869
  420TIP3    H1 1224   3.425   0.470   0.842 -1.1485  0.1653  1.0198
  420TIP3    H2 1225   3.483   0.494   0.704 -1.0257 -1.1889  0.8274
  421TIP3   OH2 1226   5.082   5.607   1.818 -0.0671  0.5715  0.5728
  421TIP3    H1 1227   5.077   5.680   1.756 -1.8935 -1.0418 -1.3602
  421TIP3    H2 1228   5.055   5.644   1.902 -0.5180  2.1946 -0.2449
  422TIP3   OH2 1229   7.148   3.751   2.374 -0.0108 -0.2492  0.7049
  422TIP3    H1 1230   7.100   3.816   2.322  2.5728  1.9444  0.8498
  422TIP3    H2 1231   7.089   3.675   2.378 -3.0462  1.8885  0.1822
  423TIP3   OH2 1232   4.266   1.269   3.355  0.7340 -0.6389 -0.1195
  423TIP3    H1 1233   4.217   1.345   3.324  0.9901  0.6700  2.3618
  423TIP3    H2 1234   4.310   1.235   3.277 -1.5496  0.0544 -1.8208
  424TIP3   OH2 1235   1.758   2.444   5.176 -0.6117 -0.0868 -0.2084
  424TIP3    H1 1236   1.781   2.353   5.156  0.4663  0.6925 -2.9573
  424TIP3    H2 1237   1.840   2.486   5.199 -1.2343  0.0641  1.9616
  425TIP3   OH2 1238   1.558   0.733   2.502  0.4211 -0.3916 -0.2244
  425TIP3    H1 1239   1.583   0.817   2.541 -0.6068  0.8406 -2.0827
  425TIP3    H2 1240   1.596   0.736   2.414 -1.2475 -1.0091 -1.0001
  426TIP3   OH2 1241   0.498   2.999   0.913  0.6717 -0.1531  0.2486
  426TIP3    H1 1242   0.420   3.012   0.858  0.0133 -0.2037  1.1467
  426TIP3    H2 1243   0.535   3.086   0.924 -0.8580  0.3245  2.0954
  427TIP3   OH2 1244   5.656   1.882   1.272 -0.2374  0.0754 -0.3123
  427TIP3    H1 1245   5.722   1.879   1.202 -0.1466 -0.1340 -0.2188
  427TIP3    H2 1246   5.572   1.875   1.225 -0.1948  0.3969 -0.4344
  428TIP3   OH2 1247   6.341   3.773   2.933  0.2717 -0.4460 -0.0499
  428TIP3    H1 1248   6.336   3.771   3.028 -0.8288  0.9116 -0.0587
  428TIP3    H2 1249   6.282   3.844   2.906 -1.2741 -2.2523 -1.8566
  429TIP3   OH2 1250   5.936   2.882   3.709 -0.3718  0.1144  0.0529
  429TIP3    H1 1251   6.026   2.906   3.686 -0.2773 -0.8543 -0.6198
  429TIP3    H2 1252   5.945   2.809   3.770 -0.6968  0.5236  0.6037
  430TIP3   OH2 1253   4.523   6.379   4.985  0.2180 -0.0858 -0.8947
  430TIP3    H1 1254   4.450   6.318   4.997  0.2564 -0.1090 -0.7812
  430TIP3    H2 1255   4.481   6.460   4.955 -0.2406  0.8911  2.0141
  431TIP3   OH2 1256   0.138   0.611   3.377 -0.1063 -0.1196 -0.2951
  431TIP3    H1 1257   0.223   0.628   3.415 -0.3989  0.7126 -0.0012
  431TIP3    H2 1258   0.151   0.623   3.283  0.2920 -0.8337 -0.3372
  432TIP3   OH2 1259   3.116   5.770   0.158 -0.6311 -0.3057  0.7424
  432TIP3    H1 1260   3.046   5.742   0.099 -1.2054  1.5904  0.4534
  432TIP3    H2 1261   3.103   5.718   0.237 -2.6979  0.3152  0.8630
  433TIP3   OH2 1262   6.087   1.751   0.838 -0.6890  0.4121  0.0498
  433TIP3    H1 1263   6.033   1.676   0.860  1.0511 -0.7593  0.5131
  433TIP3    H2 1264   6.074   1.813   0.910 -2.1731  0.6121 -0.3621
  434TIP3   OH2 1265   1.975   5.368   4.890 -0.5269 -0.3168  0.2392
  434TIP3    H1 1266   1.891   5.391   4.930 -0.7085  0.8244 -0.7213
  434TIP3    H2 1267   2.035   5.437   4.919 -0.3609 -0.1685 -0.4331
  435TIP3   OH2 1268   2.000   1.640   0.308 -0.6210  0.3582 -0.0876
  435TIP3    H1 1269   2.030   1.549   0.310 -0.2558  0.4162 -1.6536
  435TIP3    H2 1270   1.972   1.654   0.218 -1.5189  1.5445  0.3549
  436TIP3   OH2 1271   3.584   0.090   1.792 -0.3599 -0.6575 -0.6252
  436TIP3    H1 1272   3.615   0.029   1.859  0.7569  2.1856  1.6685
  436TIP3    H2 1273   3.631   0.064   1.713  0.7575 -2.1932  0.4806
  437TIP3   OH2 1274   3.299   1.673   2.629  0.2847  0.2465 -0.0662
  437TIP3    H1 1275   3.389   1.704   2.624 -0.3749  2.1321 -2.1905
  437TIP3    H2 1276   3.255   1.736   2.686 -0.0966  0.5683 -0.7012
  438TIP3   OH2 1277   5.719   1.043   3.309 -0.1989  0.0304  0.6670
  438TIP3    H1 1278   5.665   1.079   3.379 -1.4940 -0.2202 -0.1587
  438TIP3    H2 1279   5.693   0.951   3.304 -0.2140  0.0689 -0.2029
  439TIP3   OH2 1280   3.054   6.312   5.061  0.6077  0.2700  0.4194
  439TIP3    H1 1281   3.101   6.292   4.980  1.3802  0.6727  0.7594
  439TIP3    H2 1282   3.122   6.334   5.123  0.1557 -1.5607  1.6543
  440TIP3   OH2 1283   1.489   0.382   2.964  1.1375  0.1633  0.0657
  440TIP3    H1 1284   1.404   0.374   2.921  0.7274  1.6326  0.5502
  440TIP3    H2 1285   1.468   0.405   3.055  2.0405 -0.5466  0.4721
  441TIP3   OH2 1286   4.759   0.620   3.582 -0.5589  0.3742  0.1579
  441TIP3    H1 1287   4.754   0.583   3.494 -1.0085 -0.0576  0.3608
  441TIP3    H2 1288   4.758   0.715   3.568 -1.1859  0.3091 -0.2755
  442TIP3   OH2 1289   0.721   2.861   0.110 -0.0011 -0.0461  0.2013
  442TIP3    H1 1290   0.640   2.909   0.125  1.5741  3.4122 -1.2130
  442TIP3    H2 1291   0.773   2.875   0.189  0.6654  1.1712 -0.4179
  443TIP3   OH2 1292   1.509   4.758   4.700 -0.5827  0.0712  0.0849
  443TIP3    H1 1293   1.540   4.834   4.650 -0.2227 -0.2087 -0.1192
  443TIP3    H2 1294   1.504   4.789   4.790 -1.7385  0.7436 -0.1803
  444TIP3   OH2 1295   5.112   4.690   4.644 -0.1334 -0.1921 -0.3424
  444TIP3    H1 1296   5.140   4.604   4.612 -2.1921 -1.5177  1.1773
  444TIP3    H2 1297   5.126   4.749   4.569  1.1184 -1.8595 -1.4971
  445TIP3   OH2 1298   3.641   5.791   5.795  0.0825 -0.3368 -0.1332
  445TIP3    H1 1299   3.577   5.720   5.791 -0.5173 -0.0907  2.7476
  445TIP3    H2 1300   3.669   5.804   5.704 -3.1644 -1.1392 -1.3835
  446TIP3   OH2 1301   1.418   0.603   1.624  0.2693 -0.7398 -0.4756
  446TIP3    H1 1302   1.402   0.539   1.693 -1.8894  1.1801  0.9789
  446TIP3    H2 1303   1.511   0.626   1.632  0.1045 -0.6802  1.7536
  447TIP3   OH2 1304   2.167   1.103   0.785  0.2460 -0.1876  0.3502
  447TIP3    H1 1305   2.073   1.088   0.795  0.3273 -0.5978  0.5401
  447TIP3    H2 1306   2.173   1.182   0.731 -0.2759 -2.3620 -3.2407
  448TIP3   OH2 1307   6.100   1.149   0.055 -0.0286  0.2927  0.4256
  448TIP3    H1 1308   6.137   1.092   0.123  0.8505  0.2984 -0.0346
  448TIP3    H2 1309   6.018   1.106   0.030  0.3915 -0.5320  0.4130
  449TIP3   OH2 1310   5.980   6.462   5.484  0.3624 -0.2241 -0.2712
  449TIP3    H1 1311   6.009   6.544   5.443  1.5554 -1.5369 -2.2147
  449TIP3    H2 1312   5.890   6.450   5.453 -0.0877  0.6974  0.6294
  450TIP3   OH2 1313   1.441   0.107   3.155  0.1738 -0.2890 -0.0213
  450TIP3    H1 1314   1.380   0.033   3.150 -0.4458  0.2605 -0.9903
  450TIP3    H2 1315   1.389   0.178   3.191  0.0208  0.3698 -1.4615
  451TIP3   OH2 1316   0.002   6.092   1.550  0.6018  0.2680  0.5750
  451TIP3    H1 1317   0.055   6.036   1.492  0.4477 -0.4190  1.0777
  451TIP3    H2 1318   0.064   6.153   1.588  1.2115 -1.0586  1.7966
  452TIP3   OH2 1319   1.607   0.109   4.748 -0.3886  0.8814  0.4141
  452TIP3    H1 1320   1.683   0.075   4.796 -0.9486 -0.0518  0.6766
  452TIP3    H2 1321   1.552   0.031   4.733 -0.0724  1.0504 -2.0481
  453TIP3   OH2 1322   6.332   2.826   0.599 -0.0346 -0.1363 -0.2291
  453TIP3    H1 1323   6.413   2.774   0.600 -1.3879 -2.4468  1.9330
  453TIP3    H2 1324   6.345   2.890   0.669  0.8405  1.1559 -1.5365
  454TIP3   OH2 1325   3.202   4.597   3.859 -0.5811  0.1023  0.7461
  454TIP3    H1 1326   3.156   4.678   3.835 -1.3035  0.0633  1.8884
  454TIP3    H2 1327   3.205   4.546   3.778  1.5651  2.0050 -0.5111
  455TIP3   OH2 1328   7.041   2.655   3.192  0.1480  0.1203  0.7097
  455TIP3    H1 1329   7.084   2.703   3.263  0.3259 -0.7106  1.1798
  455TIP3    H2 1330   7.103   2.660   3.119  0.1349  0.6572  0.7353
  456TIP3   OH2 1331   5.065   0.151   0.130  0.4671 -0.0580 -0.4788
  456TIP3    H1 1332   5.154   0.179   0.150  0.0658 -1.1573  3.7021
  456TIP3    H2 1333   5.065   0.057   0.149 -1.5787 -0.0655 -0.3571
  457TIP3   OH2 1334   6.619   2.669   5.166 -0.1837 -0.3338 -0.4273
  457TIP3    H1 1335   6.548   2.616   5.130 -0.1387 -1.3602  0.8702
  457TIP3    H2 1336   6.590   2.759   5.157 -2.8828 -0.7424  2.2870
  458TIP3   OH2 1337   4.701   3.135   3.088 -0.2078 -0.1018  0.1504
  458TIP3    H1 1338   4.751   3.068   3.043  0.0255 -0.8975  1.5472
  458TIP3    H2 1339   4.635   3.162   3.024  0.7311 -0.4565 -1.0084
  459TIP3   OH2 1340   1.366   1.447  -0.002 -0.1308 -0.1205 -0.3389
  459TIP3    H1 1341   1.384   1.367  -0.051 -2.3429 -1.4157  0.8368
  459TIP3    H2 1342   1.392   1.427   0.088  0.6307  1.0249 -0.2757
  460TIP3   OH2 1343   0.293   1.983   0.975 -0.4053 -0.3918 -0.2054
  460TIP3    H1 1344   0.342   2.051   1.021 -1.5124 -0.9140  1.8656
  460TIP3    H2 1345   0.211   2.025   0.949 -0.0011 -0.2455 -1.3390
  461TIP3   OH2 1346   5.376   6.773   0.998  0.3396  0.4139  0.1768
  461TIP3    H1 1347   5.393   6.790   1.091  0.4405  3.0640 -0.2510
  461TIP3    H2 1348   5.405   6.683   0.985  2.1845  0.6066  2.2744
  462TIP3   OH2 1349   2.227   1.008   1.759 -0.4616  0.2164 -0.3721
  462TIP3    H1 1350   2.283   1.042   1.829  1.7192  0.0181 -1.9350
  462TIP3    H2 1351   2.223   0.914   1.776 -0.7675  0.2968  0.0279
  463TIP3   OH2 1352   5.152   2.040   0.028 -0.3725  0.1291  0.0701
  463TIP3    H1 1353   5.192   2.023  -0.058 -2.7848 -2.3461 -0.6940
  463TIP3    H2 1354   5.171   1.962   0.079 -3.9831 -1.1936 -0.3402
  464TIP3   OH2 1355   4.593   1.438   5.610 -0.2972 -0.4524  0.0512
  464TIP3    H1 1356   4.617   1.500   5.680 -0.5518  1.3268 -1.3519
  464TIP3    H2 1357   4.673   1.388   5.593  0.3434  0.4684  0.2813
  465TIP3   OH2 1358   6.099   0.249   1.017  0.2392 -0.0483  0.0871
  465TIP3    H1 1359   6.138   0.177   1.066  0.4084  0.5049  0.7824
  465TIP3    H2 1360   6.173   0.306   0.995  0.0872 -0.0110 -0.3419
  466TIP3   OH2 1361   6.666   6.379   2.799 -0.0618  0.5829  0.1037
  466TIP3    H1 1362   6.619   6.458   2.826 -1.0919  0.4378 -1.1886
  466TIP3    H2 1363   6.676   6.388   2.704  1.4408  0.0099  0.1757
  467TIP3   OH2 1364   5.210   1.527   1.080 -0.4105 -0.0345 -0.5999
  467TIP3    H1 1365   5.184   1.436   1.068 -0.7535  0.2961 -2.7026
  467TIP3    H2 1366   5.141   1.564   1.137  0.6814 -1.4493  1.7777
  468TIP3   OH2 1367   2.400   2.176   5.497 -0.1767  0.2618  0.1264
  468TIP3    H1 1368   2.323   2.158   5.551 -0.6035  0.1895 -0.4959
  468TIP3    H2 1369   2.474   2.166   5.557 -0.6229 -0.1184  0.6262
  469TIP3   OH2 1370   5.392   1.552   5.643 -0.2646 -0.2269  0.3746
  469TIP3    H1 1371   5.357   1.624   5.590 -0.7585 -0.6802  0.0693
  469TIP3    H2 1372   5.485   1.570   5.651 -0.2752  0.1057 -0.2455
  470TIP3   OH2 1373   6.320   2.347   5.181 -0.2958 -0.4315 -0.4387
  470TIP3    H1 1374   6.352   2.352   5.272 -0.7029  3.2938 -0.3445
  470TIP3    H2 1375   6.230   2.317   5.189 -0.0865 -0.8821  0.3311
  471TIP3   OH2 1376   2.507   1.882   2.739  0.1921  0.2121 -0.5785
  471TIP3    H1 1377   2.463   1.808   2.697 -1.4590  1.2600 -0.7991
  471TIP3    H2 1378   2.522   1.945   2.668  2.0922 -0.1103 -0.4992
  472TIP3   OH2 1379   4.352   3.653   4.600 -0.2147 -0.3701 -0.5305
  472TIP3    H1 1380   4.258   3.644   4.609 -0.3388  0.2810 -1.0968
  472TIP3    H2 1381   4.373   3.611   4.517  0.3229 -2.5195  0.6298
  473TIP3   OH2 1382   1.744   1.137   3.105  0.3193  0.3269  0.4261
  473TIP3    H1 1383   1.823   1.087   3.123  0.1074  0.2484  1.1382
  473TIP3    H2 1384   1.756   1.168   3.015  0.8110 -0.3195  0.2628
  474TIP3   OH2 1385   6.164   5.887   1.219 -0.7663 -0.1854 -0.2649
  474TIP3    H1 1386   6.167   5.937   1.137  0.9352  0.0733 -0.0832
  474TIP3    H2 1387   6.247   5.840   1.221 -0.7215 -0.0881  1.3692
  475TIP3   OH2 1388   1.517   1.801   5.846  0.3054 -0.4336  0.1175
  475TIP3    H1 1389   1.483   1.758   5.925  0.8660 -0.6329  0.2556
  475TIP3    H2 1390   1.496   1.741   5.775 -1.8486  0.5796 -0.1694
  476TIP3   OH2 1391   0.576   5.826   3.360 -0.5111 -0.2403 -0.3580
  476TIP3    H1 1392   0.560   5.867   3.275 -0.7721  0.1663 -0.1172
  476TIP3    H2 1393   0.497   5.845   3.411  0.3548  1.0605  0.5672
  477TIP3   OH2 1394   6.471   4.224   5.812  0.1357  0.0373 -0.0299
  477TIP3    H1 1395   6.470   4.170   5.733 -0.5229 -0.8349  0.5469
  477TIP3    H2 1396   6.424   4.304   5.787  0.6620  0.1250 -0.7513
  478TIP3   OH2 1397   0.719   1.877   5.191  0.1904 -0.3553 -0.0553
  478TIP3    H1 1398   0.796   1.842   5.146  1.2285  1.3270  0.2962
  478TIP3    H2 1399   0.677   1.801   5.231  0.6754 -1.5491 -1.7044
  479TIP3   OH2 1400   2.498   4.944   5.135 -0.2145 -0.3853  0.4112
  479TIP3    H1 1401   2.515   5.000   5.210 -0.9673 -1.2845  1.2661
  479TIP3    H2 1402   2.455   4.867   5.171 -0.8112 -0.7304 -0.9688
  480TIP3   OH2 1403   2.624   4.600   4.397  0.0604  0.0035 -0.2294
  480TIP3    H1 1404   2.635   4.656   4.321  0.8654 -0.1944 -0.2662
  480TIP3    H2 1405   2.684   4.526   4.382  0.6918  0.2664  0.8712
  481TIP3   OH2 1406   3.130   2.613   0.293  0.1501 -0.3180 -0.3823
  481TIP3    H1 1407   3.120   2.526   0.331 -0.3971 -0.2667 -0.4107
  481TIP3    H2 1408   3.136   2.599   0.199  0.1477 -0.3301 -0.3805
  482TIP3   OH2 1409   1.471   3.378   1.846 -0.7193  0.2818  0.1172
  482TIP3    H1 1410   1.545   3.426   1.808 -0.5993 -0.8410 -1.1874
  482TIP3    H2 1411   1.506   3.338   1.925 -0.1575  0.4044 -0.0651
  483TIP3   OH2 1412   6.654   6.712   3.407 -0.2708 -0.0531  0.7506
  483TIP3    H1 1413   6.712   6.655   3.357 -0.6910  1.1562 -1.1981
  483TIP3    H2 1414   6.712   6.758   3.468  0.1877 -1.8353  1.7570
  484TIP3   OH2 1415   4.795   5.648   3.927  0.4355 -0.2551  0.2181
  484TIP3    H1 1416   4.812   5.600   4.008  3.2173 -0.9314 -0.6702
  484TIP3    H2 1417   4.762   5.581   3.867 -0.0508 -0.0900  0.2966
  485TIP3   OH2 1418   1.096   5.977   1.999  0.6148 -0.3773  0.1946
  485TIP3    H1 1419   1.056   5.893   1.977  1.3637 -0.3273 -1.5091
  485TIP3    H2 1420   1.061   6.039   1.935  1.4477  0.2174  0.2913
  486TIP3   OH2 1421   3.681   3.988   2.550  0.1231  0.1830  0.5995
  486TIP3    H1 1422   3.603   4.008   2.601 -0.4834 -0.5797  0.0007
  486TIP3    H2 1423   3.659   4.018   2.461 -0.0953 -1.3553  0.0954
  487TIP3   OH2 1424   2.096   6.251   5.662 -0.8104 -0.0857  0.4465
  487TIP3    H1 1425   2.077   6.247   5.568  1.3313 -1.0528 -0.0241
  487TIP3    H2 1426   2.077   6.163   5.694  0.6841 -0.4615  0.3821
  488TIP3   OH2 1427   4.437   0.125   3.448 -0.5334  0.2676 -0.0535
  488TIP3    H1 1428   4.431   0.220   3.438 -0.6380  0.3031  0.3416
  488TIP3    H2 1429   4.422   0.109   3.541 -1.7435 -0.2396 -0.3120
  489TIP3   OH2 1430   1.901   3.922   0.322 -0.5923 -0.2705 -0.3559
  489TIP3    H1 1431   1.851   3.983   0.377  3.2511  2.9036  0.0287
  489TIP3    H2 1432   1.952   3.870   0.384 -1.0032 -1.2700 -0.8276
  490TIP3   OH2 1433   0.020   2.714   0.016 -0.1628  0.0179 -0.0326
  490TIP3    H1 1434   0.045   2.806   0.026 -0.2183 -0.0582  0.9292
  490TIP3    H2 1435   0.100   2.671  -0.014  0.2005  0.1912  0.6620
  491TIP3   OH2 1436   6.360   3.750   4.498 -0.2777  0.3162  0.5698
  491TIP3    H1 1437   6.365   3.716   4.408 -1.8777 -0.5404  0.7765
  491TIP3    H2 1438   6.275   3.794   4.503 -0.2499  0.2659  1.7012
  492TIP3   OH2 1439   5.418   1.752   5.073 -0.2426  0.1597 -0.0919
  492TIP3    H1 1440   5.426   1.809   5.149 -0.0967  0.9616 -0.7004
  492TIP3    H2 1441   5.501   1.760   5.027  0.1891 -1.3777  0.3732
  493TIP3   OH2 1442   1.296   3.580   5.401  0.4036  0.1226  0.2202
  493TIP3    H1 1443   1.337   3.504   5.360 -1.1782  0.4769 -2.1912
  493TIP3    H2 1444   1.357   3.652   5.383  0.9995 -0.1907  0.8982
  494TIP3   OH2 1445   5.652   6.514   3.093  0.3292 -0.1946  0.3604
  494TIP3    H1 1446   5.595   6.490   3.020 -0.6574  1.0066  0.6971
  494TIP3    H2 1447   5.601   6.491   3.171  0.5052  0.4433  0.6698
  495TIP3   OH2 1448   3.828   5.402   3.054  0.7373  0.1492  0.3010
  495TIP3    H1 1449   3.911   5.441   3.027  0.5750 -0.2409 -0.8177
  495TIP3    H2 1450   3.848   5.308   3.061  0.1645 -0.0901 -0.9896
  496TIP3   OH2 1451   1.297   5.344   3.453 -0.4214 -0.9856  0.2947
  496TIP3    H1 1452   1.214   5.307   3.483 -0.6963 -0.3197  0.3566
  496TIP3    H2 1453   1.277   5.381   3.367  0.0231 -1.6040 -0.0835
  497TIP3   OH2 1454   7.001   3.870   4.234 -0.1925 -0.0261  0.3539
  497TIP3    H1 1455   7.040   3.846   4.318 -1.4827  0.4196  1.1162
  497TIP3    H2 1456   6.918   3.912   4.258 -0.7591 -0.2311 -1.1585
  498TIP3   OH2 1457   5.360   6.692   0.521 -0.0133  0.1517  0.1392
  498TIP3    H1 1458   5.340   6.778   0.483 -1.1133 -0.5499 -0.9655
  498TIP3    H2 1459   5.288   6.675   0.581  0.5683  0.2772  0.8953
  499TIP3   OH2 1460   5.298   4.096   4.083  0.0724 -0.0644 -0.3981
  499TIP3    H1 1461   5.209   4.125   4.103 -0.2542 -2.5019  2.2561
  499TIP3    H2 1462   5.352   4.174   4.098 -1.3294  0.7442  0.7370
  500TIP3   OH2 1463   0.275   4.571   2.198  0.1398 -0.0410 -0.0381
  500TIP3    H1 1464   0.187   4.600   2.223  0.2469  0.7245 -0.4962
  500TIP3    H2 1465   0.334   4.633   2.242  0.4959 -0.9993  0.8726
  501TIP3   OH2 1466   5.049   1.763   5.685 -0.4323  0.0491  0.3091
  501TIP3    H1 1467   4.963   1.798   5.708  0.2019  2.7452 -0.9758
  501TIP3    H2 1468   5.045   1.750   5.590  0.2402 -0.8672  0.3938
  502TIP3   OH2 1469   6.676   5.740   4.725 -0.3316  0.5948  0.0157
  502TIP3    H1 1470   6.646   5.778   4.642  1.1448 -0.1598 -0.9149
  502TIP3    H2 1471   6.623   5.661   4.735  0.7440 -0.3689 -1.2743
  503TIP3   OH2 1472   3.154   1.011   1.607  0.1311 -0.1966  0.1102
  503TIP3    H1 1473   3.221   0.957   1.650 -1.4870 -1.2446  1.3975
  503TIP3    H2 1474   3.093   1.034   1.676 -0.7250  0.9482 -0.9908
  504TIP3   OH2 1475   4.641   3.351   5.408 -0.1060 -0.2281  0.9310
  504TIP3    H1 1476   4.626   3.409   5.333 -0.6472  1.1461  2.0700
  504TIP3    H2 1477   4.724   3.306   5.387 -0.1480  0.2609 -0.3851
  505TIP3   OH2 1478   3.264   3.712   4.508 -0.0218  0.4710  0.3236
  505TIP3    H1 1479   3.185   3.746   4.465 -0.6423 -0.2701  0.8490
  505TIP3    H2 1480   3.334   3.728   4.444 -0.9344 -0.6897 -1.0470
  506TIP3   OH2 1481   6.289   5.363   4.812  0.2851  0.7847  0.8353
  506TIP3    H1 1482   6.347   5.404   4.876  0.7644  1.0153  0.2578
  506TIP3    H2 1483   6.259   5.436   4.758 -1.4213  0.8493  1.7920
  507TIP3   OH2 1484   6.031   6.690   2.885 -0.0022  0.0119 -0.1602
  507TIP3    H1 1485   6.123   6.665   2.897  0.0855  0.8085  0.9970
  507TIP3    H2 1486   5.981   6.614   2.917  0.2679  0.4892  1.5180
  508TIP3   OH2 1487   3.368   6.418   4.878 -0.4002 -0.0160 -0.3751
  508TIP3    H1 1488   3.382   6.443   4.786 -2.0548 -0.6001 -0.8322
  508TIP3    H2 1489   3.334   6.496   4.920 -2.0429 -0.4043 -0.9065
  509TIP3   OH2 1490   5.277   3.614   2.809 -0.5008 -0.0617 -0.1550
  509TIP3    H1 1491   5.206   3.569   2.763  0.1695 -1.3654  0.0558
  509TIP3    H2 1492   5.312   3.674   2.743 -0.3050 -1.0794 -1.0147
  510TIP3   OH2 1493   0.145   2.046   2.747 -0.3742  0.3535 -0.1700
  510TIP3    H1 1494   0.132   1.952   2.758 -0.3677  0.2900 -0.6600
  510TIP3    H2 1495   0.237   2.055   2.725  0.3149  0.7342  2.5448
  511TIP3   OH2 1496   7.016   4.796   0.554  0.5010 -0.1256 -0.3678
  511TIP3    H1 1497   7.031   4.837   0.469 -0.1712 -1.6580 -1.2604
  511TIP3    H2 1498   7.036   4.703   0.541  0.4412 -0.3891  1.1605
  512TIP3   OH2 1499   5.695   3.875   2.780  0.3886  0.0990  0.3163
  512TIP3    H1 1500   5.713   3.806   2.717  0.9855  0.3557  0.1957
  512TIP3    H2 1501   5.707   3.833   2.866  0.4662 -0.0187  0.2474
  513TIP3   OH2 1502   3.635   3.950   4.457 -0.0452 -0.4679  0.5838
  513TIP3    H1 1503   3.621   4.043   4.474  1.1118  0.1878 -1.6303
  513TIP3    H2 1504   3.698   3.923   4.525  0.8003  0.7767  0.3329
  514TIP3   OH2 1505   6.313   3.587   1.680  0.5849 -0.2034  0.1967
  514TIP3    H1 1506   6.275   3.526   1.616 -2.2437  2.1034 -0.5083
  514TIP3    H2 1507   6.249   3.591   1.750  0.5356  2.1222  0.0862
  515TIP3   OH2 1508   2.887   4.117   2.082  0.0167 -0.1009 -0.6631
  515TIP3    H1 1509   2.915   4.186   2.022 -0.3711 -0.2563 -1.0293
  515TIP3    H2 1510   2.801   4.090   2.050 -0.1614 -0.2486 -0.0891
  516TIP3   OH2 1511   6.296   4.677   3.403 -0.1099  0.3163  0.7044
  516TIP3    H1 1512   6.224   4.623   3.436 -0.2552  0.7761  1.1619
  516TIP3    H2 1513   6.253   4.748   3.357  0.0258  0.8598  1.3975
  517TIP3   OH2 1514   3.902   5.609   4.556  0.0976  0.0426  0.1736
  517TIP3    H1 1515   3.973   5.570   4.608 -0.0957 -1.3226 -0.5701
  517TIP3    H2 1516   3.829   5.616   4.617 -0.0958 -1.4625  0.1546
  518TIP3   OH2 1517   3.801   2.498   2.054  0.3126  0.0027  0.4990
  518TIP3    H1 1518   3.894   2.508   2.072  0.3614  0.7661 -0.0924
  518TIP3    H2 1519   3.773   2.584   2.022 -0.5993 -0.2096  0.6809
  519TIP3   OH2 1520   0.388   3.912   1.958 -0.0951 -0.0327 -0.5998
  519TIP3    H1 1521   0.379   3.863   2.040 -0.8642  0.2462 -0.5034
  519TIP3    H2 1522   0.312   3.971   1.957 -0.3223 -0.3212 -1.7138
  520TIP3   OH2 1523   2.810   1.662   5.390 -0.7886 -0.4590 -0.7122
  520TIP3    H1 1524   2.825   1.577   5.430  0.6856  0.6248  1.2485
  520TIP3    H2 1525   2.741   1.701   5.444 -1.0588 -0.2018 -1.2429
  521TIP3   OH2 1526   0.730   4.750   4.631  0.2686  0.0423  0.0409
  521TIP3    H1 1527   0.748   4.817   4.565  2.0090 -1.9758 -1.7499
  521TIP3    H2 1528   0.655   4.701   4.596 -0.7359  0.7648  1.1285
  522TIP3   OH2 1529   7.178   5.034   4.695 -0.3510  0.1990  0.0311
  522TIP3    H1 1530   7.159   4.946   4.727  2.0458 -0.6675 -0.7358
  522TIP3    H2 1531   7.259   5.058   4.739 -0.1865  1.4252 -0.9114
  523TIP3   OH2 1532   0.939   1.632   5.745  0.9814  0.6800  0.2852
  523TIP3    H1 1533   1.033   1.617   5.734  1.1969  0.8536  1.7422
  523TIP3    H2 1534   0.913   1.572   5.815 -0.8902 -2.4957 -2.7781
  524TIP3   OH2 1535   6.944   1.956   0.569  0.1317  0.5253 -0.7228
  524TIP3    H1 1536   6.954   1.977   0.476  2.0312  0.9955 -0.4485
  524TIP3    H2 1537   6.914   1.865   0.570  1.5337  0.0171 -1.7848
  525TIP3   OH2 1538   1.671   2.853   4.305 -0.0955  0.0732  0.5158
  525TIP3    H1 1539   1.741   2.823   4.363  0.6291 -2.4925 -1.5052
  525TIP3    H2 1540   1.590   2.833   4.351  0.4710 -0.8602  1.1262
  526TIP3   OH2 1541   4.551   0.898   3.325 -0.3096  0.3097 -0.5096
  526TIP3    H1 1542   4.520   0.875   3.413 -1.2690 -0.9590 -1.1503
  526TIP3    H2 1543   4.646   0.894   3.332 -0.3769 -0.0000  0.4222
  527TIP3   OH2 1544   2.820   0.349   2.959  0.1012 -0.9940 -0.1768
  527TIP3    H1 1545   2.750   0.377   2.900  0.3625 -0.0958 -0.0725
  527TIP3    H2 1546   2.856   0.431   2.994 -1.0964 -1.4838  2.4720
  528TIP3   OH2 1547   4.858   2.604   3.119  0.4332 -0.1067  0.3194
  528TIP3    H1 1548   4.902   2.630   3.039  1.2020 -1.1584  0.3761
  528TIP3    H2 1549   4.902   2.523   3.146  0.7745  0.6538  2.2510
  529TIP3   OH2 1550   6.391   3.970   5.234  0.4471 -0.0990  0.1471
  529TIP3    H1 1551   6.436   3.886   5.235  0.1844 -0.2379  0.2750
  529TIP3    H2 1552   6.311   3.954   5.184  0.4328  0.0949  0.1044
  530TIP3   OH2 1553   2.867   6.561   0.179  1.1127 -0.7908 -0.0527
  530TIP3    H1 1554   2.895   6.521   0.097  0.5607  0.5131 -0.9017
  530TIP3    H2 1555   2.771   6.560   0.176  1.0841 -0.9473  0.6803
  531TIP3   OH2 1556   4.299   2.640   3.282  0.5002 -0.1068 -0.2802
  531TIP3    H1 1557   4.235   2.689   3.333  0.0137  0.4925 -1.4451
  531TIP3    H2 1558   4.252   2.562   3.253  0.4014  0.1432 -0.8079
  532TIP3   OH2 1559   6.200   1.886   4.155 -0.4163  0.1101  0.5852
  532TIP3    H1 1560   6.251   1.806   4.168  2.6802  1.5871 -1.2671
  532TIP3    H2 1561   6.146   1.868   4.078 -0.2125 -0.4165  0.5643
  533TIP3   OH2 1562   1.865   4.729   3.897 -0.3001 -0.3984 -0.1646
  533TIP3    H1 1563   1.917   4.809   3.891 -2.0712  0.8359  0.1410
  533TIP3    H2 1564   1.903   4.670   3.832  2.0100  0.0974  0.6592
  534TIP3   OH2 1565   4.740   4.549   5.868 -0.2681 -0.1999 -0.3814
  534TIP3    H1 1566   4.753   4.468   5.819 -0.0672 -0.1322 -0.4403
  534TIP3    H2 1567   4.663   4.532   5.922  2.0183 -1.9123  2.6262
  535TIP3   OH2 1568   3.982   6.384   3.804 -0.2049 -0.3451 -0.6230
  535TIP3    H1 1569   3.973   6.478   3.821 -1.7198 -0.5590 -0.1243
  535TIP3    H2 1570   4.044   6.379   3.731 -0.7678  1.0986 -1.2400
  536TIP3   OH2 1571   1.725   4.764   1.192 -0.1797  0.4504 -0.0273
  536TIP3    H1 1572   1.817   4.792   1.190 -0.5647  1.7244 -0.4575
  536TIP3    H2 1573   1.675   4.845   1.194 -1.3747 -0.1554 -2.2304
  537TIP3   OH2 1574   2.635   2.547   4.326 -0.3272  0.5217 -0.2440
  537TIP3    H1 1575   2.573   2.503   4.268  0.2302  1.7536 -1.8431
  537TIP3    H2 1576   2.701   2.480   4.345 -1.1958 -0.2738  0.0340
  538TIP3   OH2 1577   3.694   4.496   1.638 -0.6318  0.2144  0.4999
  538TIP3    H1 1578   3.636   4.457   1.572  0.1341 -0.1928  0.0448
  538TIP3    H2 1579   3.762   4.431   1.651  0.8787  1.5195 -0.5370
  539TIP3   OH2 1580   4.514   4.223   2.934  0.0964 -0.2190 -0.4608
  539TIP3    H1 1581   4.555   4.271   2.862 -1.3840  3.5815  0.9965
  539TIP3    H2 1582   4.559   4.254   3.013 -0.3696 -1.9558  0.5541
  540TIP3   OH2 1583   6.873   5.105   0.335 -0.2937  0.1484  0.0877
  540TIP3    H1 1584   6.910   5.149   0.411  2.9249  1.5098 -2.0262
  540TIP3    H2 1585   6.878   5.012   0.355  2.0996  0.4015  0.9646
  541TIP3   OH2 1586   6.017   6.525   2.217 -0.0526 -0.2470  0.5769
  541TIP3    H1 1587   6.011   6.430   2.227 -2.0509 -0.0651  1.4492
  541TIP3    H2 1588   6.029   6.539   2.123 -1.9176 -1.3063  0.1504
  542TIP3   OH2 1589   3.148   5.434   5.536 -0.0989 -0.1352  0.4360
  542TIP3    H1 1590   3.167   5.497   5.467 -1.8751  1.1603  1.0572
  542TIP3    H2 1591   3.063   5.398   5.512 -0.4780 -0.0702  1.6350
  543TIP3   OH2 1592   4.565   1.904   2.836 -0.0537  0.5436  0.3140
  543TIP3    H1 1593   4.479   1.862   2.843  0.3063 -0.2545  0.0871
  543TIP3    H2 1594   4.558   1.983   2.890 -1.6529  1.7104 -1.4844
  544TIP3   OH2 1595   3.959   1.387   4.702 -0.0968  0.1653 -0.3390
  544TIP3    H1 1596   4.004   1.304   4.684  0.0766  0.3880 -0.9850
  544TIP3    H2 1597   3.872   1.361   4.733 -0.1656 -0.2664 -0.8611
  545TIP3   OH2 1598   3.106   0.136   0.793  0.5646 -0.0502 -0.2769
  545TIP3    H1 1599   3.075   0.147   0.883 -0.6285 -0.5119 -0.6153
  545TIP3    H2 1600   3.032   0.162   0.739  1.1763 -0.0474 -1.1270
  546TIP3   OH2 1601   7.041   0.626   5.326  0.4006  0.3355  0.1661
  546TIP3    H1 1602   6.960   0.610   5.278  0.0367 -0.1051  0.8911
  546TIP3    H2 1603   7.018   0.608   5.417  0.9539  1.5522  0.5682
  547TIP3   OH2 1604   6.089   3.029   4.646 -0.6939  0.0777  0.1851
  547TIP3    H1 1605   5.999   3.028   4.613 -0.9921 -1.5381  0.9509
  547TIP3    H2 1606   6.143   3.011   4.569 -1.2460 -1.6419  0.1404
  548TIP3   OH2 1607   4.865   4.306   0.865  0.0643 -0.1030 -0.7707
  548TIP3    H1 1608   4.875   4.277   0.774 -1.3138 -1.2394 -0.5839
  548TIP3    H2 1609   4.810   4.384   0.859 -1.2393 -0.9979 -0.8306
  549TIP3   OH2 1610   6.452   0.121   3.769  0.0448  0.0963 -0.2798
  549TIP3    H1 1611   6.505   0.187   3.814 -0.6433 -0.1529  0.9147
  549TIP3    H2 1612   6.374   0.168   3.740 -0.2325 -0.0890  0.1639
  550TIP3   OH2 1613   1.382   5.309   2.332 -0.2361  0.0737  0.0647
  550TIP3    H1 1614   1.468   5.307   2.373 -0.2112  0.1011  0.0125
  550TIP3    H2 1615   1.362   5.402   2.323  0.1148  0.0779 -0.7517
  551TIP3   OH2 1616   5.443   1.332   1.119  0.2300  0.7771 -0.2841
  551TIP3    H1 1617   5.415   1.241   1.109 -1.5401  1.1052  1.1851
  551TIP3    H2 1618   5.454   1.364   1.029 -2.1824 -0.0071 -0.9159
  552TIP3   OH2 1619   1.920   0.987   2.680 -0.2190  0.1819  0.0036
  552TIP3    H1 1620   1.930   0.897   2.648 -2.5220 -0.4837  0.9298
  552TIP3    H2 1621   1.915   1.041   2.601 -0.1631 -0.6633 -0.5886
  553TIP3   OH2 1622   1.463   4.264   0.674 -0.1655 -0.0980 -0.1941
  553TIP3    H1 1623   1.455   4.240   0.582 -1.6115  0.8084 -0.3393
  553TIP3    H2 1624   1.555   4.250   0.695  0.6515  1.5909 -2.3202
  554TIP3   OH2 1625   2.536   5.420   5.654  0.5357  0.3200 -0.3472
  554TIP3    H1 1626   2.481   5.485   5.698  0.9580  1.0597 -0.8988
  554TIP3    H2 1627   2.485   5.339   5.659 -0.1414  0.7603  0.0720
  555TIP3   OH2 1628   5.394   5.964   2.233 -0.1133 -0.7661 -0.0588
  555TIP3    H1 1629   5.458   5.893   2.238  0.0406 -0.7247 -1.2227
  555TIP3    H2 1630   5.431   6.026   2.169  0.2353  0.8677  1.6273
  556TIP3   OH2 1631   3.589   4.703   2.006  0.2862  0.1763  0.3335
  556TIP3    H1 1632   3.601   4.798   2.006 -1.6911  0.4755  1.2276
  556TIP3    H2 1633   3.594   4.678   2.098  1.2487 -0.6836  0.0689
  557TIP3   OH2 1634   6.047   1.306   2.292 -0.0033  0.4639  0.0228
  557TIP3    H1 1635   6.063   1.395   2.262  0.9724  0.1539 -0.4114
  557TIP3    H2 1636   5.971   1.313   2.350 -0.5876  1.4046 -0.8342
  558TIP3   OH2 1637   1.942   2.420   5.454  0.0795 -0.3315  0.4211
  558TIP3    H1 1638   2.033   2.445   5.471 -0.6591  1.6786  1.8536
  558TIP3    H2 1639   1.932   2.337   5.501  1.0643 -0.4031  0.5460
  559TIP3   OH2 1640   6.444   5.372   5.401 -0.2644  0.2484  0.4217
  559TIP3    H1 1641   6.449   5.383   5.306 -0.2363  2.2082  0.6100
  559TIP3    H2 1642   6.454   5.278   5.415  2.2278  0.1676 -1.3514
  560TIP3   OH2 1643   4.385   1.028   0.146 -0.1749  0.0787 -0.0611
  560TIP3    H1 1644   4.303   0.977   0.147  0.2222 -0.5683  0.0847
  560TIP3    H2 1645   4.453   0.964   0.167  0.1462  1.0395  2.0692
  561TIP3   OH2 1646   5.405   1.260   2.686 -0.2067 -0.0760 -0.3392
  561TIP3    H1 1647   5.426   1.308   2.605 -0.1685 -0.2323 -0.4223
  561TIP3    H2 1648   5.417   1.324   2.755  2.7381 -0.7017 -0.1493
  562TIP3   OH2 1649   6.684   3.076   4.155 -0.5501 -0.1375  0.4791
  562TIP3    H1 1650   6.740   3.152   4.138  1.2163 -1.3541  0.4829
  562TIP3    H2 1651   6.626   3.071   4.079 -0.2810  0.8556  0.1975
  563TIP3   OH2 1652   1.644   5.293   4.736  0.4317 -0.0808  0.6168
  563TIP3    H1 1653   1.591   5.363   4.699  0.9896 -0.2819 -0.6382
  563TIP3    H2 1654   1.720   5.337   4.774  0.9428 -0.0055 -0.4595
  564TIP3   OH2 1655   6.403   1.255   5.305 -0.6935  0.5138  0.3599
  564TIP3    H1 1656   6.418   1.287   5.216  1.4644  0.4174  0.6406
  564TIP3    H2 1657   6.483   1.278   5.353 -0.7096 -1.7076  1.6055
  565TIP3   OH2 1658   7.061   1.321   0.864  0.2559  0.4621  0.6243
  565TIP3    H1 1659   7.135   1.367   0.904 -0.0116 -0.0939  1.7781
  565TIP3    H2 1660   6.989   1.332   0.926 -0.3592  0.1663 -0.0291
  566TIP3   OH2 1661   2.694   3.535   0.754 -0.4306 -0.1552 -0.2345
  566TIP3    H1 1662   2.619   3.498   0.801  0.0172 -0.1200  0.5236
  566TIP3    H2 1663   2.681   3.629   0.758  0.1473 -0.1049  0.7561
  567TIP3   OH2 1664   2.027   6.289   0.389 -0.1155  0.2326  0.5162
  567TIP3    H1 1665   1.950   6.319   0.437 -0.7991  0.7956 -0.8552
  567TIP3    H2 1666   2.010   6.316   0.298 -0.3503 -3.4982 -0.7013
  568TIP3   OH2 1667   3.636   0.423   5.810  0.1428  0.6424 -0.0038
  568TIP3    H1 1668   3.676   0.476   5.878  0.1161  0.6725 -0.0117
  568TIP3    H2 1669   3.567   0.478   5.774  0.6222  0.8997 -0.5445
  569TIP3   OH2 1670   6.653   6.096   5.645 -0.2082  0.2323  0.1355
  569TIP3    H1 1671   6.739   6.119   5.609  0.0835 -0.2168  0.5182
  569TIP3    H2 1672   6.606   6.179   5.651  0.4041  0.5631  0.4305
  570TIP3   OH2 1673   6.341   0.474   4.685  0.2149 -0.3465  0.2226
  570TIP3    H1 1674   6.320   0.519   4.604 -2.4818 -1.2851  0.3020
  570TIP3    H2 1675   6.310   0.532   4.754  2.2121  0.3051  0.6463
  571TIP3   OH2 1676   4.262   6.225   5.018 -0.3383  0.2071  0.3387
  571TIP3    H1 1677   4.269   6.131   5.029 -0.0579  0.1217 -0.4855
  571TIP3    H2 1678   4.208   6.254   5.092 -0.4447 -0.5953  0.5860
  572TIP3   OH2 1679   5.301   5.837   5.075  0.3024  0.1428  0.3078
  572TIP3    H1 1680   5.266   5.749   5.086  1.2560 -0.1092  1.4650
  572TIP3    H2 1681   5.383   5.825   5.028  0.6644  0.3682  0.8804
  573TIP3   OH2 1682   2.383   3.542   4.131  0.6550 -0.4975  0.0258
  573TIP3    H1 1683   2.302   3.555   4.082  0.2508  0.4772  0.9311
  573TIP3    H2 1684   2.419   3.629   4.142  2.2161 -0.9745 -0.9660
  574TIP3   OH2 1685   2.653   6.502   4.429 -0.0991 -0.3762 -0.2048
  574TIP3    H1 1686   2.641   6.596   4.446 -0.7095 -0.1308 -1.8511
  574TIP3    H2 1687   2.579   6.461   4.472  1.3233 -0.3858  2.4407
  575TIP3   OH2 1688   4.129   6.741   4.708 -0.4540 -0.3908 -0.4044
  575TIP3    H1 1689   4.094   6.788   4.632  0.0469  1.0993  0.2463
  575TIP3    H2 1690   4.221   6.767   4.711 -0.9237  1.3218  1.9212
  576TIP3   OH2 1691   2.884   6.137   4.389  0.5447  0.5298 -0.0051
  576TIP3    H1 1692   2.838   6.054   4.373  0.6559  0.1731  1.3852
  576TIP3    H2 1693   2.841   6.200   4.332 -1.8786  0.2710  1.3832
  577TIP3   OH2 1694   5.154   1.357   4.263  0.9627  0.3891 -0.0060
  577TIP3    H1 1695   5.215   1.347   4.189 -1.1774 -0.4984 -1.7631
  577TIP3    H2 1696   5.074   1.314   4.233 -0.7127  1.9532  2.0009
  578TIP3   OH2 1697   2.798   5.789   2.735  0.2914  0.1467 -0.4109
  578TIP3    H1 1698   2.806   5.716   2.674  0.0283 -1.0988  0.9864
  578TIP3    H2 1699   2.875   5.783   2.791  1.1518  1.9891 -1.2964
  579TIP3   OH2 1700   3.456   0.954   3.282 -0.1960  0.4205  0.2122
  579TIP3    H1 1701   3.533   0.900   3.298 -0.4349 -0.1740 -0.6014
  579TIP3    H2 1702   3.382   0.899   3.309 -0.4051  0.5713 -0.0512
  580TIP3   OH2 1703   2.746   4.603   0.950  0.0586 -0.7140  0.1601
  580TIP3    H1 1704   2.678   4.656   0.909 -1.0455 -0.8292  1.7649
  580TIP3    H2 1705   2.698   4.535   0.997  1.3063 -1.0536  0.9777
  581TIP3   OH2 1706   4.063   6.552   0.168  0.5062  0.0671  0.0186
  581TIP3    H1 1707   4.108   6.583   0.247  2.1508 -0.2137 -0.7539
  581TIP3    H2 1708   4.125   6.571   0.097 -0.2311 -1.1727 -0.9883
  582TIP3   OH2 1709   4.559   0.416   3.937  0.1327  0.0346  0.1934
  582TIP3    H1 1710   4.606   0.384   3.859  0.9821  0.8036  0.3746
  582TIP3    H2 1711   4.481   0.458   3.902 -0.3413 -1.0760 -0.1299
  583TIP3   OH2 1712   4.748   3.063   4.626 -0.1492 -0.0341  0.0144
  583TIP3    H1 1713   4.765   3.157   4.620 -0.0679 -0.0017  0.6114
  583TIP3    H2 1714   4.678   3.047   4.563  1.5592 -0.0475 -1.9578
  584TIP3   OH2 1715   5.184   3.324   0.607  0.3787  0.0494  0.4271
  584TIP3    H1 1716   5.236   3.357   0.680  0.7172  2.3380 -0.7261
  584TIP3    H2 1717   5.116   3.391   0.594  0.5241 -0.1221 -1.5154
  585TIP3   OH2 1718   2.824   6.686   4.648 -0.0331  0.1455 -0.3252
  585TIP3    H1 1719   2.737   6.660   4.677 -0.0178 -0.1359 -0.5308
  585TIP3    H2 1720   2.809   6.746   4.575 -0.0724  0.8868  0.2887
  586TIP3   OH2 1721   1.824   4.087   0.960  0.7543 -0.1288 -0.9565
  586TIP3    H1 1722   1.867   4.002   0.948 -0.0497 -0.8089  0.6496
  586TIP3    H2 1723   1.865   4.124   1.038  0.7864  0.7560 -1.3866
  587TIP3   OH2 1724   1.668   5.389   5.562 -0.4957  0.2309  0.1551
  587TIP3    H1 1725   1.645   5.464   5.616  0.5887  1.5191 -1.0912
  587TIP3    H2 1726   1.683   5.318   5.625 -1.4848  1.0544  1.3690
  588TIP3   OH2 1727   3.901   5.953   1.886  0.5812 -0.0185 -0.3759
  588TIP3    H1 1728   3.829   5.976   1.944  0.4636 -1.0032 -0.1094
  588TIP3    H2 1729   3.939   5.874   1.925  1.0204 -0.2204 -1.1838
  589TIP3   OH2 1730   0.614   5.557   3.745 -0.3320  0.5157  0.2968
  589TIP3    H1 1731   0.642   5.622   3.680  0.5151 -0.3446 -0.2297
  589TIP3    H2 1732   0.532   5.522   3.711 -2.0599  2.8962  1.7319
  590TIP3   OH2 1733   0.741   1.943   0.096 -0.2458 -0.2457  0.0509
  590TIP3    H1 1734   0.721   2.026   0.052  1.4455 -0.1373 -0.5598
  590TIP3    H2 1735   0.804   1.899   0.039  0.3086 -1.1087  1.2769
  591TIP3   OH2 1736   3.992   3.702   3.286  0.1919 -0.2271 -0.1720
  591TIP3    H1 1737   4.009   3.743   3.371  1.1265  0.9965 -0.9221
  591TIP3    H2 1738   3.940   3.767   3.239 -0.0004 -0.7414 -0.6755
  592TIP3   OH2 1739   3.505   3.964   4.076  0.1032 -0.0458  0.1926
  592TIP3    H1 1740   3.528   4.034   4.137  0.7923 -0.0734 -0.0287
  592TIP3    H2 1741   3.572   3.968   4.008 -0.0713 -0.6715 -0.0271
  593TIP3   OH2 1742   1.255   3.455   5.068 -0.1044 -0.0978 -0.2388
  593TIP3    H1 1743   1.311   3.416   5.001  1.2599  0.5704  0.4583
  593TIP3    H2 1744   1.216   3.532   5.026  1.2331  0.6770 -0.1221
  594TIP3   OH2 1745   6.437   1.203   2.230 -0.1649 -0.5223 -0.6818
  594TIP3    H1 1746   6.455   1.126   2.176  1.1058  0.8546 -2.3341
  594TIP3    H2 1747   6.369   1.251   2.182 -1.3145 -0.8265  0.5869
  595TIP3   OH2 1748   2.273   4.896   4.695 -0.1890 -0.3144 -0.1282
  595TIP3    H1 1749   2.258   4.906   4.789  0.9015 -1.1832  0.1586
  595TIP3    H2 1750   2.210   4.956   4.655 -1.1470 -0.4326  1.1204
  596TIP3   OH2 1751   3.426   5.480   5.224  0.4401 -0.1605 -0.0121
  596TIP3    H1 1752   3.358   5.412   5.217 -1.0775  1.3849 -1.1706
  596TIP3    H2 1753   3.385   5.559   5.188  2.0382  1.4690  1.5117
  597TIP3   OH2 1754   3.116   0.193   2.890  0.2335  0.0611 -0.3725
  597TIP3    H1 1755   3.050   0.126   2.902  0.7844 -0.5121 -0.5140
  597TIP3    H2 1756   3.175   0.183   2.965  2.7063 -2.4037 -2.4229
  598TIP3   OH2 1757   4.360   3.373   0.220  0.1853 -0.1750  0.6766
  598TIP3    H1 1758   4.364   3.399   0.312  0.7924 -0.5946  0.7763
  598TIP3    H2 1759   4.449   3.384   0.188 -0.4162  1.9189 -0.4242
  599TIP3   OH2 1760   7.023   0.039   3.590 -0.6804  0.1506 -0.1228
  599TIP3    H1 1761   6.979   0.033   3.676  0.0172 -0.9264  0.1858
  599TIP3    H2 1762   6.964  -0.007   3.530  0.1286 -1.6573  0.3700
  600TIP3   OH2 1763   1.496   2.930   0.764  0.3939  0.0811 -0.0162
  600TIP3    H1 1764   1.475   2.843   0.731 -0.5271  0.5272 -0.6405
  600TIP3    H2 1765   1.585   2.947   0.732  0.3227 -0.3552 -0.4596
  601TIP3   OH2 1766   5.612   5.055   3.594  0.3478  0.5891  0.4980
  601TIP3    H1 1767   5.557   5.015   3.527  0.5762 -0.9755  1.1999
  601TIP3    H2 1768   5.596   5.003   3.673 -0.2217  2.6373  1.7962
  602TIP3   OH2 1769   4.299   4.634   2.554 -0.3105 -0.0318 -0.0486
  602TIP3    H1 1770   4.262   4.714   2.517  0.4425  0.2769 -0.1706
  602TIP3    H2 1771   4.235   4.566   2.534 -1.4694  0.7112  0.9728
  603TIP3   OH2 1772   4.418   5.365   1.738  0.0836  0.4988  0.1409
  603TIP3    H1 1773   4.496   5.420   1.728 -0.1791  0.8529  0.0261
  603TIP3    H2 1774   4.345   5.427   1.740 -0.2462  0.1369 -0.3355
  604TIP3   OH2 1775   1.475   2.895   1.780 -0.2411 -0.4842  0.2211
  604TIP3    H1 1776   1.382   2.912   1.795  0.0291  1.3331  0.0402
  604TIP3    H2 1777   1.510   2.877   1.867 -0.6433 -0.5035  0.3829
  605TIP3   OH2 1778   4.787   4.441   4.600  0.2024 -0.0816 -0.1657
  605TIP3    H1 1779   4.743   4.356   4.612 -1.0380  0.7268  1.2963
  605TIP3    H2 1780   4.841   4.428   4.521  0.8691 -2.5509  0.5826
  606TIP3   OH2 1781   0.725   4.475   5.919  0.4330  0.0169 -0.1329
  606TIP3    H1 1782   0.676   4.429   5.852 -3.1031  0.7716  1.6667
  606TIP3    H2 1783   0.709   4.568   5.901 -0.0992  0.2429  1.3494
  607TIP3   OH2 1784   6.640   2.097   1.214  0.3331 -0.0211 -0.5275
  607TIP3    H1 1785   6.587   2.140   1.148 -4.3855 -2.5257  1.1940
  607TIP3    H2 1786   6.671   2.017   1.171  2.0384  0.9606 -1.2229
  608TIP3   OH2 1787   2.568   6.390   5.084 -0.7781  0.1955  0.0180
  608TIP3    H1 1788   2.637   6.333   5.048 -0.6710 -0.3442  1.0198
  608TIP3    H2 1789   2.487   6.345   5.062 -0.7833  0.5315 -0.6591
  609TIP3   OH2 1790   6.260   3.797   4.768  0.1443 -0.1217  0.1330
  609TIP3    H1 1791   6.312   3.876   4.782 -2.5314  1.8594 -0.1636
  609TIP3    H2 1792   6.290   3.762   4.684  1.4592  0.4966  0.3260
  610TIP3   OH2 1793   4.068   5.129   1.118  0.6482 -0.0480  0.4791
  610TIP3    H1 1794   4.063   5.051   1.063 -0.0981 -0.0487  0.5447
  610TIP3    H2 1795   3.986   5.176   1.101 -0.2727 -0.7537  2.6402
  611TIP3   OH2 1796   0.595   5.411   0.594  0.1353  0.0456 -0.1390
  611TIP3    H1 1797   0.499   5.417   0.592  0.1269 -0.2926 -0.7476
  611TIP3    H2 1798   0.614   5.365   0.676 -0.2549 -0.5524 -0.3786
  612TIP3   OH2 1799   4.789   2.065   4.147  0.3211  0.4503 -0.1824
  612TIP3    H1 1800   4.760   2.139   4.093  0.1847  0.8635  0.4520
  612TIP3    H2 1801   4.777   2.094   4.237  0.0496 -0.4332  0.0800
  613TIP3   OH2 1802   5.485   2.500   3.957  0.0130 -0.2867  0.0545
  613TIP3    H1 1803   5.554   2.562   3.934 -1.6275  1.3735 -0.6776
  613TIP3    H2 1804   5.504   2.421   3.907  0.9293  0.4249 -0.7338
  614TIP3   OH2 1805   4.296   1.322   0.458 -0.1005  0.4051 -0.1361
  614TIP3    H1 1806   4.313   1.298   0.367  0.5213  1.7310 -0.3996
  614TIP3    H2 1807   4.350   1.262   0.510  1.3145  1.0950 -0.7540
  615TIP3   OH2 1808   2.968   1.518   4.005 -0.0232 -0.1790  0.8917
  615TIP3    H1 1809   2.912   1.445   3.978 -1.1207  0.6794  0.7847
  615TIP3    H2 1810   3.043   1.514   3.945 -1.0333 -0.0456 -0.4220
  616TIP3   OH2 1811   6.430   5.340   2.462 -0.3255 -0.3054 -0.4055
  616TIP3    H1 1812   6.444   5.389   2.543 -1.1642 -1.1067  0.2393
  616TIP3    H2 1813   6.503   5.366   2.405  0.7172 -0.3269  0.8860
  617TIP3   OH2 1814   5.208   2.896   2.727 -0.1860  0.0232 -0.0752
  617TIP3    H1 1815   5.190   2.899   2.633  0.6725  0.9985 -0.2244
  617TIP3    H2 1816   5.289   2.846   2.735 -0.2777 -0.0912  0.1455
  618TIP3   OH2 1817   0.364   6.538   5.658 -0.6727 -0.0850  0.1217
  618TIP3    H1 1818   0.400   6.529   5.570 -1.3915 -1.3723 -0.0784
  618TIP3    H2 1819   0.324   6.625   5.659 -2.5012 -0.8072 -1.5790
  619TIP3   OH2 1820   5.752   2.350   0.842 -0.4848  0.3843  0.2592
  619TIP3    H1 1821   5.672   2.402   0.836 -0.0382  1.2070  1.0396
  619TIP3    H2 1822   5.802   2.393   0.911  0.8800  0.2314 -0.5998
  620TIP3   OH2 1823   0.061   2.354   1.056  0.3565 -0.2581  0.6359
  620TIP3    H1 1824  -0.033   2.363   1.041  0.2187 -1.0163  1.0027
  620TIP3    H2 1825   0.096   2.441   1.039 -0.0884 -0.4952 -1.8852
  621TIP3   OH2 1826   2.773   2.487   3.661  0.1856  0.4065 -0.1935
  621TIP3    H1 1827   2.776   2.533   3.744  1.8637  0.0756 -0.0193
  621TIP3    H2 1828   2.740   2.551   3.598 -1.6547  0.4860  0.7947
  622TIP3   OH2 1829   4.833   2.959   0.684 -0.8611 -0.2523 -0.0030
  622TIP3    H1 1830   4.808   2.933   0.596 -2.2994  1.1868 -0.0707
  622TIP3    H2 1831   4.796   3.047   0.695  0.4966  0.1830  1.5304
  623TIP3   OH2 1832   3.508   2.937   5.553 -0.6101 -0.5610 -0.1836
  623TIP3    H1 1833   3.475   2.889   5.628 -1.2051  1.1862  0.7243
  623TIP3    H2 1834   3.434   2.989   5.522  0.5596  1.5840  0.3877
  624TIP3   OH2 1835   0.192   4.448   2.883 -0.2263 -0.0428 -0.1815
  624TIP3    H1 1836   0.284   4.433   2.861 -0.5748 -1.1555 -1.0276
  624TIP3    H2 1837   0.152   4.479   2.802 -0.7444 -0.3090 -0.0373
  625TIP3   OH2 1838   4.287   0.965   3.897  0.1739 -0.6031  0.5218
  625TIP3    H1 1839   4.243   1.049   3.890 -0.7588 -1.0240  1.1642
  625TIP3    H2 1840   4.341   0.973   3.976 -0.9422 -1.0410  1.3606
  626TIP3   OH2 1841   3.497   1.157   4.689 -0.1271 -0.5179 -0.1947
  626TIP3    H1 1842   3.426   1.093   4.704 -0.7529  0.3957  0.9123
  626TIP3    H2 1843   3.453   1.242   4.692  0.4456 -0.0242 -3.0777
  627TIP3   OH2 1844   4.784   6.596   4.993  0.1179 -0.8792  0.4285
  627TIP3    H1 1845   4.751   6.681   4.964  0.1847 -0.3359  1.8421
  627TIP3    H2 1846   4.871   6.590   4.955  0.0582 -0.3686  0.1966
  628TIP3   OH2 1847   5.290   3.924   2.161  0.5695  0.4038  0.3943
  628TIP3    H1 1848   5.211   3.975   2.148  0.1200 -0.0991  1.0779
  628TIP3    H2 1849   5.311   3.889   2.075  1.7575  2.9261 -0.4357
  629TIP3   OH2 1850   5.459   1.656   1.139 -0.6713 -0.2620  0.3366
  629TIP3    H1 1851   5.406   1.590   1.095  0.4624 -1.5358  0.8069
  629TIP3    H2 1852   5.411   1.676   1.220 -0.9698 -0.5942  0.2424
  630TIP3   OH2 1853   6.504   5.078   2.118 -0.4782 -0.0362  0.1201
  630TIP3    H1 1854   6.482   5.019   2.190 -1.0705  1.8348  1.5778
  630TIP3    H2 1855   6.600   5.076   2.115 -0.3747  0.5315  1.6534
  631TIP3   OH2 1856   4.317   2.357   3.467  0.1231 -0.2120  0.0722
  631TIP3    H1 1857   4.391   2.372   3.526  0.1744  1.7214 -0.4201
  631TIP3    H2 1858   4.243   2.402   3.509 -0.2518 -0.2772 -0.4988
  632TIP3   OH2 1859   3.235   4.630   1.932 -0.1336  0.2032  0.0262
  632TIP3    H1 1860   3.312   4.636   1.876 -1.1586 -1.2497 -1.6525
  632TIP3    H2 1861   3.184   4.708   1.910  0.8537  1.2237  1.2203
  633TIP3   OH2 1862   5.338   1.111   0.311 -0.1985  0.3720  0.4151
  633TIP3    H1 1863   5.261   1.128   0.365  1.0941  1.8795  1.8827
  633TIP3    H2 1864   5.328   1.170   0.236 -1.6083 -1.1754 -0.7031
  634TIP3   OH2 1865   0.908   2.685   3.365 -0.5960 -0.0748 -0.1519
  634TIP3    H1 1866   0.980   2.683   3.428  0.1577 -2.0577 -0.9937
  634TIP3    H2 1867   0.897   2.593   3.338 -0.7891  0.6849 -2.9819
  635TIP3   OH2 1868   2.757   0.788   0.673 -0.3310 -1.0027  0.4960
  635TIP3    H1 1869   2.804   0.800   0.756  0.2177  0.8199 -0.0409
  635TIP3    H2 1870   2.674   0.748   0.699 -0.8550  0.9621  2.1780
  636TIP3   OH2 1871   0.225   1.804   2.546  0.2049 -0.6846  0.3281
  636TIP3    H1 1872   0.143   1.852   2.537  0.5639  0.3481  2.0900
  636TIP3    H2 1873   0.270   1.817   2.463 -0.1888  1.1661  0.3594
  637TIP3   OH2 1874   4.269   4.347   2.995  0.4845  0.6612  0.6728
  637TIP3    H1 1875   4.319   4.381   3.070  2.3768 -2.8953  1.2312
  637TIP3    H2 1876   4.334   4.332   2.927 -0.6039  0.3113 -0.3270
  638TIP3   OH2 1877   7.152   3.893   4.857  0.3601  0.1779 -0.2877
  638TIP3    H1 1878   7.089   3.960   4.831 -0.1498 -0.3341 -0.3850
  638TIP3    H2 1879   7.208   3.882   4.780  0.0931  0.0885 -0.4702
  639TIP3   OH2 1880   5.439   2.098   0.410  0.1972 -0.3931 -0.1164
  639TIP3    H1 1881   5.513   2.054   0.451  0.9890  2.7459  2.2050
  639TIP3    H2 1882   5.365   2.082   0.469 -0.1018 -0.5643 -0.5315
  640TIP3   OH2 1883   3.956   2.291   1.093 -0.1153  0.2196  0.1031
  640TIP3    H1 1884   3.864   2.302   1.118 -0.0230  1.1318  0.0486
  640TIP3    H2 1885   3.980   2.206   1.130 -0.8600  0.1600  0.4768
  641TIP3   OH2 1886   1.595   1.004   0.358 -0.1068  0.1763 -0.2286
  641TIP3    H1 1887   1.673   0.955   0.333  0.6902  1.0206  0.4802
  641TIP3    H2 1888   1.616   1.095   0.336 -0.9124  0.4073 -0.0755
  642TIP3   OH2 1889   2.062   6.127   3.518 -1.0187  0.7207  0.4404
  642TIP3    H1 1890   2.081   6.187   3.447  0.5299 -1.0755 -0.7755
  642TIP3    H2 1891   2.061   6.040   3.477 -0.0826 -0.3901  2.5798
  643TIP3   OH2 1892   6.318   5.856   0.922  0.0680  0.1131 -0.2131
  643TIP3    H1 1893   6.253   5.786   0.924  0.2569 -0.0463  0.3831
  643TIP3    H2 1894   6.402   5.811   0.927  0.2336  0.3229 -0.8897
  644TIP3   OH2 1895   4.246   5.527   2.283  0.2416  0.6998 -0.7229
  644TIP3    H1 1896   4.289   5.611   2.269 -0.7039  0.8992 -2.7799
  644TIP3    H2 1897   4.307   5.462   2.249  0.0855  0.7381 -1.0755
  645TIP3   OH2 1898   6.298   1.585   0.703  0.3784  0.7101  0.0825
  645TIP3    H1 1899   6.269   1.494   0.710  0.4008  0.6240 -0.8072
  645TIP3    H2 1900   6.241   1.632   0.764  1.9694 -0.2142  2.4115
  646TIP3   OH2 1901   1.577   6.196   3.424  0.6610  0.2361  0.3299
  646TIP3    H1 1902   1.583   6.238   3.338  2.4737  1.5302  1.0160
  646TIP3    H2 1903   1.628   6.115   3.415 -0.0298 -0.1638 -0.0774
  647TIP3   OH2 1904   7.013   6.452   3.774  0.2757  0.1482  0.2134
  647TIP3    H1 1905   7.093   6.469   3.724  0.5263  1.7254  1.0683
  647TIP3    H2 1906   7.042   6.398   3.847  0.2841 -0.4557 -0.2270
  648TIP3   OH2 1907   2.685   4.117   0.611 -0.5178  0.1714 -0.1078
  648TIP3    H1 1908   2.730   4.074   0.537 -1.1986  0.1932 -0.5405
  648TIP3    H2 1909   2.592   4.105   0.593 -0.6965 -0.1363  0.9451
  649TIP3   OH2 1910   3.425   0.532   1.738  0.0846 -0.2447 -0.1757
  649TIP3    H1 1911   3.520   0.517   1.733 -0.0537 -0.9915 -0.6685
  649TIP3    H2 1912   3.386   0.445   1.730 -0.5836 -0.2999  2.6520
  650TIP3   OH2 1913   0.793   3.332   3.159  0.2459  0.8644 -0.5260
  650TIP3    H1 1914   0.729   3.374   3.217 -0.1597  0.0923 -0.3921
  650TIP3    H2 1915   0.868   3.314   3.215 -0.4004 -0.4824 -0.0409
  651TIP3   OH2 1916   1.318   5.805   1.497 -0.0517 -0.1747  0.3332
  651TIP3    H1 1917   1.297   5.742   1.566  1.7830 -1.1075  0.1150
  651TIP3    H2 1918   1.234   5.821   1.453 -0.7389 -1.7705  0.9699
  652TIP3   OH2 1919   3.310   0.752   0.485  0.2526 -0.2979 -0.5565
  652TIP3    H1 1920   3.286   0.670   0.529  0.9902 -0.2879 -0.1242
  652TIP3    H2 1921   3.396   0.735   0.448  0.9595  0.6674  0.5956
  653TIP3   OH2 1922   4.262   5.609   4.508 -0.4763  0.5502  0.0767
  653TIP3    H1 1923   4.203   5.665   4.457 -0.9204 -0.4323 -0.5309
  653TIP3    H2 1924   4.350   5.644   4.490 -0.6181  0.1882 -1.4515
  654TIP3   OH2 1925   4.674   5.859   1.304 -0.3783 -0.0742 -0.2841
  654TIP3    H1 1926   4.634   5.855   1.390  0.4433 -0.6035  0.0866
  654TIP3    H2 1927   4.640   5.782   1.258 -0.1121 -0.2999 -0.1087
  655TIP3   OH2 1928   2.844   2.772   0.702  0.3745 -0.4136  0.1091
  655TIP3    H1 1929   2.920   2.747   0.650 -0.0281 -2.4824  0.3970
  655TIP3    H2 1930   2.797   2.836   0.648 -0.0619 -2.4962 -2.1748
  656TIP3   OH2 1931   0.497   3.760   4.708 -0.2241  0.0174 -0.4639
  656TIP3    H1 1932   0.450   3.709   4.641 -0.5874  0.0183 -0.2132
  656TIP3    H2 1933   0.434   3.770   4.779 -0.3514  1.2811 -0.7292
  657TIP3   OH2 1934   1.796   1.799   2.330  0.3440  0.4779 -0.0795
  657TIP3    H1 1935   1.827   1.719   2.288 -1.8372 -0.7075  0.3886
  657TIP3    H2 1936   1.755   1.848   2.260 -0.1243  0.1944 -0.0104
  658TIP3   OH2 1937   0.116   0.888   3.405  0.3666 -0.1508 -0.1379
  658TIP3    H1 1938   0.078   0.833   3.474 -1.1907  0.4212 -0.4891
  658TIP3    H2 1939   0.077   0.855   3.324  2.3099 -0.9300 -0.8031
  659TIP3   OH2 1940   5.198   2.460   4.280 -0.3171  0.2510  0.4964
  659TIP3    H1 1941   5.274   2.451   4.337 -0.7146  2.9803  1.5933
  659TIP3    H2 1942   5.235   2.482   4.194  0.1886 -1.7203  0.1557
  660TIP3   OH2 1943   1.608   4.434   5.049 -0.0265  0.6050 -0.4815
  660TIP3    H1 1944   1.622   4.526   5.072  1.1445  0.0968  1.0221
  660TIP3    H2 1945   1.619   4.431   4.954 -0.4043  2.0626 -0.5894
  661TIP3   OH2 1946   4.088   5.040   5.404  0.1776  0.0169  0.2104
  661TIP3    H1 1947   4.045   5.122   5.428 -0.0225 -0.0591  0.1111
  661TIP3    H2 1948   4.117   5.002   5.487 -1.6738 -0.8992  0.4914
  662TIP3   OH2 1949   2.997   4.474   1.008  0.2396  0.8277  0.6526
  662TIP3    H1 1950   2.911   4.516   0.999 -1.2973 -1.8817  1.2570
  662TIP3    H2 1951   3.046   4.502   0.931 -1.1186  2.5835  0.3575
  663TIP3   OH2 1952   5.681   1.229   5.425  0.1633 -0.0521  0.0455
  663TIP3    H1 1953   5.611   1.177   5.385 -0.2416  1.6822 -1.7025
  663TIP3    H2 1954   5.756   1.170   5.430 -0.4600 -0.9917 -1.2392
  664TIP3   OH2 1955   4.747   2.225   0.738  0.3032  0.0326 -0.2416
  664TIP3    H1 1956   4.807   2.297   0.759  1.0852 -0.3111 -1.2470
  664TIP3    H2 1957   4.717   2.194   0.824 -0.0687  1.5492  0.2119
  665TIP3   OH2 1958   6.951   4.083   4.890  0.4348  0.0048  0.1905
  665TIP3    H1 1959   6.948   4.172   4.926  1.4850 -1.6226  5.0664
  665TIP3    H2 1960   6.869   4.043   4.918  0.2750 -0.7979 -1.3447
  666TIP3   OH2 1961   0.510   3.766   0.811  0.4682  0.3074  0.2017
  666TIP3    H1 1962   0.450   3.732   0.745  0.3139  0.2690  0.3611
  666TIP3    H2 1963   0.478   3.854   0.830  1.0202  0.6392 -0.3994
  667TIP3   OH2 1964   7.137   0.802   4.659  0.5999  0.6279  0.4339
  667TIP3    H1 1965   7.208   0.749   4.695 -1.0639 -2.0694  0.0852
  667TIP3    H2 1966   7.068   0.738   4.640 -0.2656  2.4183 -3.4652
  668TIP3   OH2 1967   6.913   6.182   5.566 -0.4923 -0.8008  0.0682
  668TIP3    H1 1968   6.988   6.137   5.604 -0.8071  0.0855  1.8474
  668TIP3    H2 1969   6.951   6.243   5.502  0.1258 -1.7349 -0.4694
  669TIP3   OH2 1970   4.179   0.344   4.534 -0.3332  0.4486 -0.3850
  669TIP3    H1 1971   4.182   0.259   4.578  0.3415  0.4124 -0.4769
  669TIP3    H2 1972   4.139   0.403   4.598 -0.7591  0.0751 -0.3009
  670TIP3   OH2 1973   0.732   5.464   4.522  0.0783  0.0928 -0.2899
  670TIP3    H1 1974   0.742   5.549   4.566 -0.7751  0.1601 -0.1913
  670TIP3    H2 1975   0.637   5.447   4.526  0.3715 -1.4856  0.8506
  671TIP3   OH2 1976   4.579   5.534   1.282  0.1897 -0.6889 -0.2661
  671TIP3    H1 1977   4.579   5.463   1.345 -0.5612 -1.1275 -0.7415
  671TIP3    H2 1978   4.561   5.492   1.198  1.3974 -0.1470 -0.8241
  672TIP3   OH2 1979   3.469   4.601   5.138  0.2212  0.1978 -0.0593
  672TIP3    H1 1980   3.408   4.673   5.156  0.7632  0.4815  0.7110
  672TIP3    H2 1981   3.437   4.562   5.057 -0.7912  0.5442  0.1587
  673TIP3   OH2 1982   7.052   6.150   2.648 -0.0548  0.4705 -0.2254
  673TIP3    H1 1983   7.127   6.205   2.626  1.7483 -1.5018  0.5764
  673TIP3    H2 1984   7.049   6.150   2.744 -0.8535  0.2354 -0.2406
  674TIP3   OH2 1985   7.115   4.929   2.196 -0.4874  0.1218  0.0608
  674TIP3    H1 1986   7.143   4.970   2.114 -0.2835 -2.4891 -1.3165
  674TIP3    H2 1987   7.188   4.942   2.256  0.7390 -0.5305 -1.2224
  675TIP3   OH2 1988   1.372   4.326   1.795 -0.5257 -0.0254 -0.3269
  675TIP3    H1 1989   1.455   4.340   1.751  0.0028 -0.1218  0.6061
  675TIP3    H2 1990   1.368   4.231   1.808 -0.5949  0.0179 -0.0228
  676TIP3   OH2 1991   1.512   2.805   5.888 -0.3882 -0.2033 -0.3992
  676TIP3    H1 1992   1.565   2.833   5.814 -1.2260 -0.8028 -1.2492
  676TIP3    H2 1993   1.427   2.845   5.874 -0.3186  0.3777  0.7050
  677TIP3   OH2 1994   3.207   0.105   3.189  0.1588  0.4258  0.1966
  677TIP3    H1 1995   3.160   0.188   3.199  0.2430  0.5010 -0.0222
  677TIP3    H2 1996   3.192   0.059   3.271  3.6270  2.4497  2.2291
  678TIP3   OH2 1997   4.385   2.166   0.701  0.8975  0.1455 -0.6050
  678TIP3    H1 1998   4.333   2.139   0.626  0.0233 -0.5352  0.2177
  678TIP3    H2 1999   4.462   2.208   0.663  0.3016  0.1470 -1.8641
  679TIP3   OH2 2000   2.366   5.763   3.824  0.1631  0.3459 -0.8428
  679TIP3    H1 2001   2.374   5.743   3.917 -0.5207 -1.1708 -1.0714
  679TIP3    H2 2002   2.410   5.691   3.780 -0.5512  0.4121 -1.7042
  680TIP3   OH2 2003   5.866   5.764   5.542  0.1155  0.1139 -0.0408
  680TIP3    H1 2004   5.930   5.693   5.549 -0.1199 -0.0507  0.4653
  680TIP3    H2 2005   5.911   5.840   5.578  0.0276  0.0015  0.3024
  681TIP3   OH2 2006   5.618   3.697   3.703  0.5951 -0.2200  0.0253
  681TIP3    H1 2007   5.686   3.661   3.760  0.2037 -1.2396 -0.1321
  681TIP3    H2 2008   5.582   3.621   3.657  0.7570  0.5583 -1.4311
  682TIP3   OH2 2009   5.503   4.411   2.349 -0.4410 -0.2092  0.2682
  682TIP3    H1 2010   5.474   4.425   2.439  1.6777 -2.4710  1.4511
  682TIP3    H2 2011   5.490   4.317   2.335 -0.4161  0.0430 -1.7068
  683TIP3   OH2 2012   2.420   6.773   4.442  0.0503 -0.3052 -0.1914
  683TIP3    H1 2013   2.360   6.780   4.516 -1.7349  0.6813 -1.6586
  683TIP3    H2 2014   2.372   6.810   4.368  2.7679  1.3460 -1.2908
  684TIP3   OH2 2015   4.149   2.993   5.655 -0.8825  0.4416  0.0420
  684TIP3    H1 2016   4.059   2.970   5.679  0.1319 -1.7282  2.0266
  684TIP3    H2 2017   4.152   3.089   5.665 -2.2517  0.2910  2.6636
  685TIP3   OH2 2018   4.541   1.745   0.228 -0.6933  0.5239  0.5525
  685TIP3    H1 2019   4.473   1.677   0.232 -0.1436 -0.0866 -0.1790
  685TIP3    H2 2020   4.511   1.812   0.290 -1.3273 -0.3064  1.1763
  686TIP3   OH2 2021   2.932   4.476   0.729  0.2234 -0.3795 -0.5287
  686TIP3    H1 2022   2.986   4.445   0.657  1.7649  1.1103 -0.0903
  686TIP3    H2 2023   2.842   4.475   0.694  0.9011  0.1649 -2.4369
  687TIP3   OH2 2024   6.189   6.264   1.276 -0.4545 -0.5571 -0.4739
  687TIP3    H1 2025   6.136   6.185   1.288 -1.6747  0.5033  1.9581
  687TIP3    H2 2026   6.133   6.323   1.226 -1.0362  0.0147  0.8010
  688TIP3   OH2 2027   3.509   5.765   3.922  0.1989  0.2857 -0.0661
  688TIP3    H1 2028   3.583   5.780   3.863  0.4361 -0.4986  0.0238
  688TIP3    H2 2029   3.447   5.835   3.900 -0.2354 -0.6537 -2.1051
  689TIP3   OH2 2030   3.377   1.107   0.518 -0.3295 -0.4832 -0.9468
  689TIP3    H1 2031   3.447   1.050   0.551  0.2083  1.3977  1.4303
  689TIP3    H2 2032   3.297   1.072   0.555 -0.0672 -0.0715  0.0389
  690TIP3   OH2 2033   0.175   5.115   0.828  0.4038 -0.4497  0.0627
  690TIP3    H1 2034   0.145   5.190   0.879  1.3076  0.6748 -1.0189
  690TIP3    H2 2035   0.106   5.049   0.841 -1.2087  1.1018 -0.2244
  691TIP3   OH2 2036   0.991   5.083   5.608  0.2786  0.7230  0.1128
  691TIP3    H1 2037   1.063   5.140   5.635  0.4288  0.0220  1.2184
  691TIP3    H2 2038   0.924   5.095   5.675  0.8244 -1.3510  1.0972
  692TIP3   OH2 2039   2.053   1.768   1.976  0.1140 -0.3495  0.1241
  692TIP3    H1 2040   2.051   1.739   1.885 -1.9331 -1.5909  0.5140
  692TIP3    H2 2041   2.109   1.704   2.020 -1.0641 -1.3399  0.2131
  693TIP3   OH2 2042   4.323   0.911   1.371  0.3990 -0.5857  0.0413
  693TIP3    H1 2043   4.313   0.948   1.459 -1.7538  1.1435 -0.8205
  693TIP3    H2 2044   4.233   0.895   1.341  0.9677  0.0783 -2.2819
  694TIP3   OH2 2045   6.449   1.193   0.210  0.1934  0.2013  0.6600
  694TIP3    H1 2046   6.488   1.221   0.293 -2.0377  2.7719  0.9938
  694TIP3    H2 2047   6.355   1.185   0.229 -0.6994  2.6125 -1.8770
  695TIP3   OH2 2048   3.445   2.287   2.427 -0.6071  0.2082 -0.0215
  695TIP3    H1 2049   3.531   2.306   2.389 -1.0377  0.9858 -0.6424
  695TIP3    H2 2050   3.443   2.340   2.507 -0.6090  0.3873 -0.1396
  696TIP3   OH2 2051   5.476   0.190   1.375 -0.3576  0.5046  0.4609
  696TIP3    H1 2052   5.477   0.234   1.460  0.1075  0.2337  0.5972
  696TIP3    H2 2053   5.536   0.115   1.385  0.1597  0.8044 -0.2800
  697TIP3   OH2 2054   3.777   3.370   4.139  0.1173  0.5007 -1.0270
  697TIP3    H1 2055   3.860   3.332   4.168  0.5245  0.7446 -1.8535
  697TIP3    H2 2056   3.738   3.404   4.219 -1.2044 -3.2781  0.1707
  698TIP3   OH2 2057   1.158   4.717   2.151 -0.1651 -0.3768 -0.1041
  698TIP3    H1 2058   1.142   4.749   2.239 -2.8324  1.7802 -1.2084
  698TIP3    H2 2059   1.078   4.670   2.127  0.8997 -1.7835 -1.0595
  699TIP3   OH2 2060   0.595   4.638   0.601  0.1063  0.7178  0.0041
  699TIP3    H1 2061   0.685   4.662   0.625  1.1220 -2.7893  0.2302
  699TIP3    H2 2062   0.586   4.668   0.510  2.4027 -0.7789 -0.8255
  700TIP3   OH2 2063   6.487   0.202   3.289  0.1879 -0.1380 -0.4126
  700TIP3    H1 2064   6.546   0.163   3.225 -1.1789 -1.3855 -0.9685
  700TIP3    H2 2065   6.403   0.209   3.244 -0.0613  1.9336  0.2346
  701TIP3   OH2 2066   6.097   2.517   2.068 -0.1348 -0.3634  0.4344
  701TIP3    H1 2067   6.156   2.564   2.009 -0.4872 -1.7099 -1.0553
  701TIP3    H2 2068   6.155   2.458   2.117 -0.0489 -0.5969  0.0606
  702TIP3   OH2 2069   4.457   3.431   5.710  0.2030 -0.5220 -0.2918
  702TIP3    H1 2070   4.467   3.486   5.632  0.5375 -1.8790 -1.2429
  702TIP3    H2 2071   4.544   3.429   5.749  0.0693  0.0359  0.0508
  703TIP3   OH2 2072   1.579   4.389   2.318  0.6119  0.8359  0.1165
  703TIP3    H1 2073   1.545   4.315   2.267  0.0360 -0.7498  2.6264
  703TIP3    H2 2074   1.559   4.466   2.264  0.8011 -0.7362 -2.3898
  704TIP3   OH2 2075   2.368   5.964   3.551  0.0099 -0.1438  0.4628
  704TIP3    H1 2076   2.463   5.964   3.543  0.0019 -0.6655  0.3198
  704TIP3    H2 2077   2.336   5.999   3.468  0.1189  2.7023  1.4929
  705TIP3   OH2 2078   2.733   5.409   4.279 -0.2485 -0.2057 -0.0322
  705TIP3    H1 2079   2.672   5.341   4.306  0.3006 -0.2290  1.1999
  705TIP3    H2 2080   2.775   5.373   4.200 -1.0033 -0.6578 -0.2374
  706TIP3   OH2 2081   5.104   0.295   3.284 -0.0661 -0.5084 -0.7626
  706TIP3    H1 2082   5.015   0.292   3.319  0.5108  0.5817  0.9050
  706TIP3    H2 2083   5.121   0.388   3.270  1.5913 -0.4681  1.1342
  707TIP3   OH2 2084   3.255   1.361   0.489 -0.5167  0.0825 -0.1632
  707TIP3    H1 2085   3.258   1.395   0.579  1.5079  1.2267 -0.6060
  707TIP3    H2 2086   3.286   1.271   0.496 -1.9017 -0.3693  0.4693
  708TIP3   OH2 2087   5.681   6.252   5.646  0.2274  0.5246  0.0948
  708TIP3    H1 2088   5.722   6.178   5.692 -1.7121 -1.3486 -0.9761
  708TIP3    H2 2089   5.660   6.314   5.716  0.1803 -0.8301  1.3533
  709TIP3   OH2 2090   1.909   2.915   5.344 -0.0444 -0.7973  0.2603
  709TIP3    H1 2091   1.843   2.982   5.360  1.0774  1.8472 -4.2190
  709TIP3    H2 2092   1.978   2.934   5.407 -0.9440  0.4628  0.9105
  710TIP3   OH2 2093   1.641   3.893   4.502 -0.4466 -0.4205  0.4029
  710TIP3    H1 2094   1.558   3.932   4.527 -0.3711  0.5908 -0.8143
  710TIP3    H2 2095   1.676   3.952   4.435  1.1976 -0.8937  0.8031
  711TIP3   OH2 2096   1.063   4.636   0.725 -0.4692 -0.1695  0.1451
  711TIP3    H1 2097   1.088   4.554   0.683  0.8333 -0.4430  1.3705
  711TIP3    H2 2098   1.058   4.615   0.819 -0.4959  1.0449  0.4377
  712TIP3   OH2 2099   0.542   6.012   4.133  0.3352 -0.2276  0.5956
  712TIP3    H1 2100   0.575   6.040   4.047  1.1806 -0.9000  0.6822
  712TIP3    H2 2101   0.544   5.916   4.128  0.1797 -0.2679  1.2987
  713TIP3   OH2 2102   6.788   6.356   4.388 -0.5779 -0.4033 -0.2857
  713TIP3    H1 2103   6.778   6.437   4.438 -0.1965 -0.9066  0.6132
  713TIP3    H2 2104   6.870   6.369   4.339 -0.1953 -0.4867  0.3249
  714TIP3   OH2 2105   1.091   4.377   3.383  0.0773  0.2993 -0.3898
  714TIP3    H1 2106   1.100   4.436   3.458  0.8712 -0.8842  0.5066
  714TIP3    H2 2107   1.009   4.329   3.400 -1.1751  1.8747 -1.7000
  715TIP3   OH2 2108   5.729   1.487   1.235  0.0457 -0.5049  0.3299
  715TIP3    H1 2109   5.683   1.406   1.210  0.6707 -0.6811 -0.2729
  715TIP3    H2 2110   5.688   1.555   1.183 -0.0425 -0.5372  0.3563
  716TIP3   OH2 2111   0.081   2.263   2.201 -0.2255  0.0273 -0.1060
  716TIP3    H1 2112   0.006   2.319   2.179 -1.3456 -1.0984  0.6555
  716TIP3    H2 2113   0.136   2.317   2.257 -0.4251  0.9180 -0.7636
  717TIP3   OH2 2114   2.858   1.927   2.677 -0.4845 -0.7746 -0.2043
  717TIP3    H1 2115   2.862   1.834   2.698 -0.2922 -0.5608  0.7745
  717TIP3    H2 2116   2.938   1.964   2.715 -1.3406  0.0445  0.8755
  718TIP3   OH2 2117   2.047   2.473   1.722  0.2795 -0.2939 -0.0912
  718TIP3    H1 2118   2.097   2.536   1.773  1.0362 -0.6512 -0.3771
  718TIP3    H2 2119   2.091   2.470   1.637 -2.5305  2.3410 -1.8215
  719TIP3   OH2 2120   0.783   6.068   1.123  0.0201  0.4609  0.0751
  719TIP3    H1 2121   0.859   6.113   1.086 -1.4368  1.3181 -2.1032
  719TIP3    H2 2122   0.814   6.031   1.205  2.7206  0.9183 -0.6524
  720TIP3   OH2 2123   0.112   2.743   0.531 -0.6635  0.5832 -0.5088
  720TIP3    H1 2124   0.178   2.724   0.598 -2.4380  0.6933  1.3886
  720TIP3    H2 2125   0.159   2.796   0.466  1.2256  0.2035  0.4606
  721TIP3   OH2 2126   0.266   5.547   3.384 -0.1650 -0.7496  0.1548
  721TIP3    H1 2127   0.235   5.470   3.433 -0.8087 -0.6446 -0.0749
  721TIP3    H2 2128   0.220   5.542   3.300 -0.6611  0.2014  0.3550
  722TIP3   OH2 2129   0.503   2.279   3.877  0.3504  0.0519  0.3959
  722TIP3    H1 2130   0.492   2.354   3.934  0.4978  0.8183 -0.5553
  722TIP3    H2 2131   0.460   2.303   3.795 -1.4394 -1.7259  0.7360
  723TIP3   OH2 2132   5.464   4.948   4.118  0.7374  0.3194 -0.2054
  723TIP3    H1 2133   5.540   4.954   4.176 -0.2028 -0.9754  1.2713
  723TIP3    H2 2134   5.498   4.912   4.036  1.6666 -0.6820  0.5917
  724TIP3   OH2 2135   3.195   5.539   4.752  0.0758  0.0733 -0.1586
  724TIP3    H1 2136   3.171   5.574   4.666 -1.4091  2.3980  1.0714
  724TIP3    H2 2137   3.111   5.516   4.792  0.5358  0.8964  1.3661
  725TIP3   OH2 2138   7.182   0.392   2.174 -0.2089 -0.1173 -0.2193
  725TIP3    H1 2139   7.101   0.343   2.159  0.5465 -1.2585 -0.6807
  725TIP3    H2 2140   7.252   0.336   2.140  0.7476  1.0613 -0.2986
  726TIP3   OH2 2141   0.244   2.287   1.851 -0.2223 -0.1531 -0.3166
  726TIP3    H1 2142   0.160   2.318   1.816  1.1255  1.7118 -2.1101
  726TIP3    H2 2143   0.284   2.364   1.889  1.4254 -0.5777 -1.0832
  727TIP3   OH2 2144   6.976   2.997   4.849  0.3571 -0.5609 -0.1223
  727TIP3    H1 2145   6.945   2.908   4.866 -1.2781  0.3076  1.8908
  727TIP3    H2 2146   6.904   3.040   4.804  1.3481 -0.3587 -1.5899
  728TIP3   OH2 2147   3.996   6.234   2.077  0.3848 -0.4267  0.2835
  728TIP3    H1 2148   4.073   6.177   2.076  1.6803  1.2157  0.9474
  728TIP3    H2 2149   3.988   6.260   2.169 -0.2642  0.3154  0.0227
  729TIP3   OH2 2150   2.984   0.533   5.623  0.4374 -0.1120  0.1073
  729TIP3    H1 2151   2.985   0.579   5.539 -0.0728 -0.7210 -0.2425
  729TIP3    H2 2152   2.912   0.572   5.672 -1.4628 -1.9281 -1.0274
  730TIP3   OH2 2153   0.671   5.420   3.959  0.3762  0.9863  0.0007
  730TIP3    H1 2154   0.626   5.469   4.028  1.0571  2.1592 -0.3737
  730TIP3    H2 2155   0.654   5.469   3.879  1.8379  1.1422 -0.2403
  731TIP3   OH2 2156   6.854   3.142   0.737 -0.2096 -0.0817 -0.0032
  731TIP3    H1 2157   6.841   3.220   0.683  2.8151  1.1955  0.9178
  731TIP3    H2 2158   6.774   3.090   0.723 -1.1625  1.8741 -2.7484
  732TIP3   OH2 2159   5.829   3.384   1.966 -0.4350  0.6342 -0.2945
  732TIP3    H1 2160   5.857   3.470   1.995 -3.0992  0.6643  2.7135
  732TIP3    H2 2161   5.739   3.397   1.934 -0.2770 -0.7835 -1.4499
  733TIP3   OH2 2162   6.396   6.020   5.889 -0.3061  0.2919 -0.6533
  733TIP3    H1 2163   6.377   6.063   5.806  0.2658  1.8119 -0.0206
  733TIP3    H2 2164   6.335   6.059   5.951 -0.8294 -0.9375 -0.3585
  734TIP3   OH2 2165   3.062   2.458   1.396  0.1344 -0.2780  0.2578
  734TIP3    H1 2166   3.076   2.552   1.408  2.4490 -0.4280 -0.5765
  734TIP3    H2 2167   3.128   2.417   1.452  0.9871 -1.2819 -1.4024
  735TIP3   OH2 2168   5.299   0.691   4.478 -0.5584  0.1143 -0.2829
  735TIP3    H1 2169   5.216   0.646   4.464  0.4499 -1.9804  0.2163
  735TIP3    H2 2170   5.351   0.670   4.400  0.5666 -1.1506  0.7727
  736TIP3   OH2 2171   7.217   4.861   5.654 -0.3663 -0.1053  0.0863
  736TIP3    H1 2172   7.158   4.936   5.645  1.5854  1.4740 -0.3166
  736TIP3    H2 2173   7.234   4.853   5.748  0.6524  1.0298  0.0253
  737TIP3   OH2 2174   1.123   3.418   1.355  0.0281 -0.2144 -0.3532
  737TIP3    H1 2175   1.091   3.490   1.410 -3.2181  0.3697 -2.7043
  737TIP3    H2 2176   1.155   3.353   1.417 -2.6589  0.7105  2.2381
  738TIP3   OH2 2177   5.991   0.758   4.287 -0.6458  0.0529 -0.1180
  738TIP3    H1 2178   5.922   0.781   4.350  0.8227  1.7059  0.9612
  738TIP3    H2 2179   6.027   0.676   4.319 -1.7770 -0.6095 -0.4571
  739TIP3   OH2 2180   2.485   3.276   4.069  0.3113 -0.1550  0.0831
  739TIP3    H1 2181   2.423   3.336   4.111 -0.4632 -0.3565 -0.7425
  739TIP3    H2 2182   2.570   3.299   4.107 -0.1688  0.5692  0.7530
  740TIP3   OH2 2183   1.428   4.912   0.206  0.0834  0.3295  0.8091
  740TIP3    H1 2184   1.417   4.970   0.131 -1.7183 -0.4537  0.4101
  740TIP3    H2 2185   1.522   4.898   0.212  0.2579 -0.0106 -1.6568
  741TIP3   OH2 2186   3.064   0.980   4.830  0.3451  0.6958 -0.1698
  741TIP3    H1 2187   3.101   1.033   4.759  1.7152 -0.3040 -0.2530
  741TIP3    H2 2188   3.125   0.991   4.903  0.8835 -1.0209 -0.3124
  742TIP3   OH2 2189   2.880   3.864   3.330 -0.0049  0.1061 -0.0080
  742TIP3    H1 2190   2.839   3.943   3.366 -0.6898  0.4037 -1.3520
  742TIP3    H2 2191   2.967   3.893   3.302  0.2187  0.0703  0.6338
  743TIP3   OH2 2192   4.793   2.483   0.135  0.1116 -0.2227 -0.4910
  743TIP3    H1 2193   4.738   2.555   0.163  1.2728  1.4207 -2.2196
  743TIP3    H2 2194   4.737   2.429   0.079 -0.2600  0.4074 -0.7356
  744TIP3   OH2 2195   5.751   0.810   2.064 -0.0327 -0.3656 -0.0573
  744TIP3    H1 2196   5.771   0.877   2.129 -0.6962 -0.0327 -0.1898
  744TIP3    H2 2197   5.785   0.729   2.102  0.0222 -0.0919  0.4804
  745TIP3   OH2 2198   6.129   4.872   3.292  0.4058  0.6263  0.3417
  745TIP3    H1 2199   6.165   4.953   3.254  1.7051 -0.5301 -1.0227
  745TIP3    H2 2200   6.084   4.830   3.219 -0.6238  0.2951  1.1479
  746TIP3   OH2 2201   1.120   2.964   5.601  0.1732 -0.5518  0.2388
  746TIP3    H1 2202   1.182   3.007   5.543 -1.1627  0.2320 -0.6745
  746TIP3    H2 2203   1.159   2.972   5.688  0.9315  0.6930 -0.1870
  747TIP3   OH2 2204   1.807   6.290   2.703 -0.1380 -0.3243 -0.2040
  747TIP3    H1 2205   1.762   6.298   2.787 -2.1468  1.5264 -1.3418
  747TIP3    H2 2206   1.753   6.230   2.652 -1.6839  2.1111 -1.6682
  748TIP3   OH2 2207   5.051   2.192   0.983 -0.2058  0.1006  0.3470
  748TIP3    H1 2208   4.985   2.136   1.023 -0.9296  1.2702  0.8549
  748TIP3    H2 2209   5.128   2.136   0.975 -0.4297 -0.5619  2.1970
  749TIP3   OH2 2210   3.180   1.550   1.134  0.8496  0.1902  0.5633
  749TIP3    H1 2211   3.178   1.515   1.223  0.7330 -0.6426  0.2388
  749TIP3    H2 2212   3.096   1.595   1.124 -1.2723 -3.6256 -0.6422
  750TIP3   OH2 2213   4.839   4.843   5.827 -0.3879 -0.9665  0.1355
  750TIP3    H1 2214   4.790   4.876   5.902  1.2825  0.0445  0.8471
  750TIP3    H2 2215   4.825   4.748   5.828 -1.0303 -0.8699  1.2585
  751TIP3   OH2 2216   0.330   5.589   1.641  0.2218 -0.1377  0.4278
  751TIP3    H1 2217   0.362   5.505   1.607 -0.4007 -0.4909  0.7004
  751TIP3    H2 2218   0.237   5.589   1.621  0.1584  0.3577  0.7051
  752TIP3   OH2 2219   3.976   5.422   4.921 -0.0268  0.3002  0.3462
  752TIP3    H1 2220   3.973   5.390   4.831 -1.1814  0.7838  0.1938
  752TIP3    H2 2221   3.899   5.385   4.962  1.0164 -0.7148  1.4367
  753TIP3   OH2 2222   4.253   5.661   1.066  0.8102  0.0797  0.2316
  753TIP3    H1 2223   4.223   5.577   1.099 -0.4412  0.4510  0.1094
  753TIP3    H2 2224   4.334   5.642   1.019 -0.3079 -1.3254 -1.2286
  754TIP3   OH2 2225   2.967   2.052   0.651 -0.2970 -0.2682 -0.1244
  754TIP3    H1 2226   2.994   2.141   0.629 -0.5103 -0.1459  0.0989
  754TIP3    H2 2227   3.011   2.033   0.734 -1.1366  0.0601  0.4198
  755TIP3   OH2 2228   1.187   4.852   2.393  0.3855  0.0852  0.1662
  755TIP3    H1 2229   1.276   4.826   2.417  1.0987  0.0185 -2.2804
  755TIP3    H2 2230   1.191   4.947   2.381  0.6790 -0.1335 -1.8175
  756TIP3   OH2 2231   3.127   1.040   4.019 -0.2365  0.0910 -0.6084
  756TIP3    H1 2232   3.139   0.951   4.051 -1.4998 -0.2926 -1.1580
  756TIP3    H2 2233   3.135   1.034   3.924 -1.4499  0.3302 -0.7533
  757TIP3   OH2 2234   3.361   3.231   0.064  0.1773  0.1317 -0.0013
  757TIP3    H1 2235   3.379   3.321   0.038 -0.0515  0.0157 -0.5700
  757TIP3    H2 2236   3.274   3.235   0.105  0.1643  0.1672 -0.0321
  758TIP3   OH2 2237   4.785   6.169   0.948 -0.2967 -0.6854  0.3259
  758TIP3    H1 2238   4.851   6.101   0.954  3.4125  2.5588  0.2796
  758TIP3    H2 2239   4.797   6.206   0.860 -1.5707  0.6074  0.6625
  759TIP3   OH2 2240   3.973   5.244   2.170  0.2733  0.1436  0.0496
  759TIP3    H1 2241   4.020   5.207   2.245  1.9929  2.1043  0.0144
  759TIP3    H2 2242   3.902   5.295   2.208 -0.2719 -0.7201  0.2161
  760TIP3   OH2 2243   6.128   6.480   4.143  0.7748  0.3359 -0.5516
  760TIP3    H1 2244   6.107   6.561   4.097  0.8074  0.7649  0.1699
  760TIP3    H2 2245   6.088   6.491   4.229 -1.0878 -1.3095 -1.1304
  761TIP3   OH2 2246   5.806   2.076   0.824  0.5601  0.7854 -0.8902
  761TIP3    H1 2247   5.882   2.076   0.767  1.2010  1.1534 -0.0495
  761TIP3    H2 2248   5.771   2.165   0.818  0.4544  0.7414 -0.9326
  762TIP3   OH2 2249   4.457   5.045   3.919  0.2831  0.2354  0.2788
  762TIP3    H1 2250   4.491   5.021   4.006  0.2288  0.2697  0.3095
  762TIP3    H2 2251   4.371   5.083   3.937  1.1099  2.1805  0.4181
  763TIP3   OH2 2252   1.068   6.667   0.146 -0.0916  0.4075 -0.0475
  763TIP3    H1 2253   1.126   6.602   0.184 -0.2448  1.5789  2.3331
  763TIP3    H2 2254   0.980   6.641   0.174 -0.5848 -0.2589 -2.0060
  764TIP3   OH2 2255   2.994   5.097   0.130 -0.0176  0.0024  0.1596
  764TIP3    H1 2256   2.992   5.053   0.215 -1.0180  0.0487  0.1690
  764TIP3    H2 2257   3.084   5.086   0.100 -0.1239 -1.6493  0.3750
  765TIP3   OH2 2258   4.352   1.240   5.614 -0.4516 -0.2327  0.0900
  765TIP3    H1 2259   4.437   1.279   5.638 -0.5680 -0.2321  0.5139
  765TIP3    H2 2260   4.313   1.216   5.698 -1.3554  0.7767 -0.0157
  766TIP3   OH2 2261   6.364   5.683   2.441 -0.2943 -0.2785  0.2585
  766TIP3    H1 2262   6.338   5.622   2.509 -1.2237  0.5400  0.6534
  766TIP3    H2 2263   6.334   5.643   2.360  0.7415 -1.2163  0.3205
  767TIP3   OH2 2264   0.459   0.267   3.017 -0.1834  0.6636  0.5621
  767TIP3    H1 2265   0.370   0.265   2.984 -0.6418  0.5602  1.7651
  767TIP3    H2 2266   0.488   0.176   3.013  0.2549  0.8438 -0.8005
  768TIP3   OH2 2267   3.388   1.516   5.724  0.0075 -0.4542 -0.2803
  768TIP3    H1 2268   3.366   1.605   5.753  0.6752  0.0806 -1.3385
  768TIP3    H2 2269   3.384   1.463   5.804 -0.8565  0.4322  0.2831
  769TIP3   OH2 2270   4.150   5.783   3.963 -0.4097  0.2852 -0.3892
  769TIP3    H1 2271   4.057   5.806   3.952 -0.2193  1.1196 -0.2913
  769TIP3    H2 2272   4.191   5.862   3.997  0.5293  0.2243 -1.3314
  770TIP3   OH2 2273   4.373   2.177   0.980 -0.0891 -0.3168  0.0569
  770TIP3    H1 2274   4.282   2.184   1.010 -0.0800 -0.8796  0.2273
  770TIP3    H2 2275   4.366   2.162   0.886 -0.0976  2.4804 -0.4831
  771TIP3   OH2 2276   2.083   3.486   0.629  0.4761 -0.5303  0.5765
  771TIP3    H1 2277   2.034   3.417   0.584  1.0473 -0.6000  0.0451
  771TIP3    H2 2278   2.088   3.458   0.720 -2.4602  0.5646  1.2002
  772TIP3   OH2 2279   3.744   2.630   4.540 -0.4572  0.4642 -0.3457
  772TIP3    H1 2280   3.656   2.643   4.507 -0.3571  1.3208 -0.3141
  772TIP3    H2 2281   3.747   2.683   4.620  0.0661  0.3918 -0.3148
  773TIP3   OH2 2282   4.648   2.774   2.919  0.4958  0.1005 -0.6909
  773TIP3    H1 2283   4.743   2.770   2.905  0.2500 -1.3852 -2.2271
  773TIP3    H2 2284   4.620   2.849   2.866  0.6812 -0.1663 -1.1772
  774TIP3   OH2 2285   2.634   1.938   2.006  0.1330 -0.7394  0.2923
  774TIP3    H1 2286   2.598   1.901   2.087 -0.7930  2.1703  1.3016
  774TIP3    H2 2287   2.725   1.959   2.027  0.7265 -2.4564 -0.3503
  775TIP3   OH2 2288   4.747   3.376   5.777 -0.1676 -0.1377  0.2539
  775TIP3    H1 2289   4.785   3.352   5.692 -3.1757  2.9302 -2.2522
  775TIP3    H2 2290   4.722   3.293   5.816 -0.2776 -1.6666 -2.7595
  776TIP3   OH2 2291   2.644   1.040   5.572  0.2056  0.1985 -0.2903
  776TIP3    H1 2292   2.712   1.039   5.639 -1.0077  0.1374  0.9725
  776TIP3    H2 2293   2.681   0.988   5.500  0.5789 -1.8827  1.3063
  777TIP3   OH2 2294   3.511   5.234   3.706  0.4040 -0.0776 -0.3390
  777TIP3    H1 2295   3.495   5.162   3.645  1.0871 -0.2602 -0.3091
  777TIP3    H2 2296   3.483   5.312   3.659 -0.2427 -0.3461 -0.4116
  778TIP3   OH2 2297   0.834   1.454   2.335 -0.1302  0.1165  0.1506
  778TIP3    H1 2298   0.815   1.370   2.375  0.2895  1.2719  3.0704
  778TIP3    H2 2299   0.835   1.516   2.408  0.0558  2.5993 -1.7861
  779TIP3   OH2 2300   4.709   5.775   5.359 -0.9290  0.2939  0.1192
  779TIP3    H1 2301   4.775   5.760   5.291  0.6877 -0.6746  1.7820
  779TIP3    H2 2302   4.736   5.856   5.401  0.5660 -1.1333  2.1437
  780TIP3   OH2 2303   5.290   5.496   0.977  0.0773  0.6042 -0.0437
  780TIP3    H1 2304   5.375   5.535   0.995  0.8634 -1.9581  2.5104
  780TIP3    H2 2305   5.311   5.410   0.939 -1.5188  1.1925 -2.5226
  781TIP3   OH2 2306   6.286   1.810   4.442  0.0605  0.1939  0.2731
  781TIP3    H1 2307   6.260   1.820   4.351 -0.1526  1.1055  0.4269
  781TIP3    H2 2308   6.207   1.779   4.486  0.8473 -2.9122 -0.2873
  782TIP3   OH2 2309   2.277   0.982   5.424  0.6480  0.1016 -0.1665
  782TIP3    H1 2310   2.189   0.957   5.451  1.0018  0.4076  1.3395
  782TIP3    H2 2311   2.334   0.953   5.496  1.5654  1.4042 -0.3228
  783TIP3   OH2 2312   1.886   4.563   3.686 -0.6254  0.1563  0.1209
  783TIP3    H1 2313   1.823   4.550   3.615 -1.2668 -0.8078  0.8424
  783TIP3    H2 2314   1.903   4.475   3.720  1.5363  0.3150 -0.3794
  784TIP3   OH2 2315   3.119   1.742   4.664  0.8074 -0.3440  0.1829
  784TIP3    H1 2316   3.190   1.719   4.604  0.9736 -0.8407  0.5676
  784TIP3    H2 2317   3.041   1.744   4.609  1.0407 -0.2671 -0.1501
  785TIP3   OH2 2318   6.994   5.155   2.299 -0.0800  0.0111  0.7279
  785TIP3    H1 2319   6.965   5.077   2.346 -0.5922  1.0795  2.2506
  785TIP3    H2 2320   6.986   5.226   2.362  1.9924  1.0509 -0.0817
  786TIP3   OH2 2321   1.037   2.473   1.533  0.3853 -0.6580 -0.1526
  786TIP3    H1 2322   1.074   2.415   1.466 -1.8364 -3.6034  0.9561
  786TIP3    H2 2323   0.962   2.514   1.491 -0.0179 -1.2166  0.0077
  787TIP3   OH2 2324   2.838   4.303   5.389  0.2995 -0.6990  0.1692
  787TIP3    H1 2325   2.930   4.310   5.412  0.1731  0.5530  0.3694
  787TIP3    H2 2326   2.835   4.317   5.295  0.3093 -0.7270  0.1644
  788TIP3   OH2 2327   5.718   3.724   1.240 -0.0190 -0.0199 -0.1054
  788TIP3    H1 2328   5.651   3.725   1.172  0.6533 -0.5897 -0.8012
  788TIP3    H2 2329   5.772   3.801   1.222  0.3037 -0.3065 -0.3701
  789TIP3   OH2 2330   6.346   5.994   5.291 -0.7580 -0.3663 -0.1364
  789TIP3    H1 2331   6.371   6.037   5.209 -1.5648 -0.7291 -0.5907
  789TIP3    H2 2332   6.351   5.900   5.271  0.1398 -0.4889  0.5808
  790TIP3   OH2 2333   2.734   6.709   1.888 -0.3424 -0.0181  0.2446
  790TIP3    H1 2334   2.738   6.673   1.799  1.5242 -1.0156  0.6712
  790TIP3    H2 2335   2.646   6.687   1.919 -1.0118  0.3283 -1.3389
  791TIP3   OH2 2336   4.522   2.314   4.027 -0.3824 -0.5445 -0.3082
  791TIP3    H1 2337   4.579   2.371   4.078  1.8328  0.5078 -3.6232
  791TIP3    H2 2338   4.476   2.374   3.967 -0.9264 -1.8951 -1.2989
  792TIP3   OH2 2339   0.036   3.556   0.935 -0.0476  0.1800  0.3826
  792TIP3    H1 2340   0.048   3.461   0.939  0.1053  0.0900 -1.4366
  792TIP3    H2 2341   0.115   3.589   0.893 -0.4154  1.0216  0.3241
  793TIP3   OH2 2342   5.451   3.902   0.691 -0.7993 -0.1956  0.2933
  793TIP3    H1 2343   5.404   3.828   0.731  1.8998 -2.3092 -0.1906
  793TIP3    H2 2344   5.530   3.912   0.744 -0.4251  1.4170 -0.5235
  794TIP3   OH2 2345   2.107   6.335   5.371 -0.0077  0.2535  0.1185
  794TIP3    H1 2346   2.055   6.355   5.293  0.9665  1.3981 -0.2646
  794TIP3    H2 2347   2.189   6.299   5.337  1.3798  2.8532  0.4115
  795TIP3   OH2 2348   7.222   5.412   1.565  0.2497 -0.0361 -0.0793
  795TIP3    H1 2349   7.246   5.320   1.577  2.8590  0.5664 -0.0777
  795TIP3    H2 2350   7.126   5.411   1.556  0.2103 -2.7323 -0.1521
  796TIP3   OH2 2351   0.372   1.795   1.151  0.3016 -0.3278  0.0896
  796TIP3    H1 2352   0.448   1.825   1.101  0.0183  0.0556 -0.1171
  796TIP3    H2 2353   0.296   1.828   1.102  0.0245  0.5177  1.0434
  797TIP3   OH2 2354   4.096   4.445   2.534 -0.2416 -0.7768 -0.1369
  797TIP3    H1 2355   4.022   4.446   2.473 -0.3972  0.7143  0.0370
  797TIP3    H2 2356   4.151   4.373   2.504 -0.1852  0.0587 -2.2046
  798TIP3   OH2 2357   5.654   0.304   0.841 -0.0404 -0.5533 -0.2806
  798TIP3    H1 2358   5.648   0.398   0.858 -0.9589 -0.6725  0.0952
  798TIP3    H2 2359   5.739   0.293   0.798 -0.0803  0.4877 -0.6440
  799TIP3   OH2 2360   4.993   2.248   2.684 -0.2241  0.3986  0.0351
  799TIP3    H1 2361   5.028   2.165   2.651 -0.5938 -0.3140  1.3913
  799TIP3    H2 2362   4.898   2.237   2.680 -0.3133  1.2925 -1.0397
  800TIP3   OH2 2363   6.413   0.653   3.488 -0.1741 -0.0922 -0.7232
  800TIP3    H1 2364   6.502   0.673   3.515 -0.4959  0.2883  0.0972
  800TIP3    H2 2365   6.416   0.656   3.392  1.2691 -2.7070 -0.8421
  801TIP3   OH2 2366   2.228   2.117   1.811  0.5651  0.2077  0.0142
  801TIP3    H1 2367   2.236   2.051   1.881 -1.1993  0.5793  0.6280
  801TIP3    H2 2368   2.252   2.070   1.731 -1.8942 -1.6224  0.2362
  802TIP3   OH2 2369   5.754   0.440   5.208 -0.2465  0.4708 -0.2016
  802TIP3    H1 2370   5.663   0.424   5.232 -0.0150 -1.2922 -0.3562
  802TIP3    H2 2371   5.762   0.405   5.119  0.4867  1.0130 -0.3605
  803TIP3   OH2 2372   3.562   6.540   2.657 -0.2695 -0.8636 -0.1183
  803TIP3    H1 2373   3.620   6.489   2.601 -0.8770 -1.4056 -0.2721
  803TIP3    H2 2374   3.480   6.545   2.608  0.0911  1.2237 -0.6127
  804TIP3   OH2 2375   5.048   2.427   2.907 -0.6726 -0.1021 -0.5694
  804TIP3    H1 2376   5.033   2.483   2.831 -0.3399  0.5962 -0.1241
  804TIP3    H2 2377   5.021   2.340   2.877 -1.0704  0.2597 -1.3088
  805TIP3   OH2 2378   1.281   3.668   1.849 -0.0417  0.3570 -0.0046
  805TIP3    H1 2379   1.343   3.694   1.918  2.7117 -0.5353 -1.9748
  805TIP3    H2 2380   1.271   3.574   1.860  0.7937  0.1287 -1.0606
  806TIP3   OH2 2381   2.733   5.355   3.622  0.0291 -0.1837  0.4049
  806TIP3    H1 2382   2.803   5.396   3.673 -0.7659  0.1447  1.2406
  806TIP3    H2 2383   2.665   5.334   3.686 -1.3096  0.9028 -0.6037
  807TIP3   OH2 2384   4.862   4.064   0.634  0.2273 -0.0710 -0.4101
  807TIP3    H1 2385   4.875   4.006   0.559  1.1792 -1.0552  0.4731
  807TIP3    H2 2386   4.852   4.004   0.709  1.3664  0.8815  0.5505
  808TIP3   OH2 2387   0.325   4.672   5.598  1.1496  0.0864 -0.2886
  808TIP3    H1 2388   0.252   4.612   5.613  0.5952  0.9309  0.4970
  808TIP3    H2 2389   0.389   4.620   5.549 -0.2430 -0.4842 -1.5848
  809TIP3   OH2 2390   1.205   3.652   3.801  0.2641  0.5549  0.6294
  809TIP3    H1 2391   1.253   3.734   3.789  1.3290 -0.3976 -3.0928
  809TIP3    H2 2392   1.239   3.615   3.883  1.2771  2.8272  1.3029
  810TIP3   OH2 2393   1.998   6.818   0.524  0.5772  0.7108  0.0897
  810TIP3    H1 2394   1.921   6.799   0.578  1.4201  0.0550  1.1066
  810TIP3    H2 2395   1.981   6.775   0.441  0.4839 -0.7273  0.8177
  811TIP3   OH2 2396   1.711   5.628   4.742 -0.6493  0.7403  0.2270
  811TIP3    H1 2397   1.762   5.683   4.683 -0.2985 -0.9476 -1.1378
  811TIP3    H2 2398   1.623   5.627   4.704 -0.4031 -0.4114 -0.3879
  812TIP3   OH2 2399   5.144   5.825   2.458 -0.1075  0.0181  0.4064
  812TIP3    H1 2400   5.200   5.901   2.478 -0.8740  1.0895 -1.3499
  812TIP3    H2 2401   5.113   5.796   2.544  1.3729  0.7488  1.2451
  813TIP3   OH2 2402   5.989   5.309   4.113  0.0019 -0.2057 -0.0797
  813TIP3    H1 2403   5.917   5.335   4.172  0.6211  0.8280  0.2333
  813TIP3    H2 2404   5.950   5.242   4.057 -1.1103  0.0727  0.3290
  814TIP3   OH2 2405   5.888   4.892   0.377  0.0132 -0.2801 -0.4897
  814TIP3    H1 2406   5.911   4.799   0.387 -0.1708 -0.3274 -0.4989
  814TIP3    H2 2407   5.954   4.926   0.317  2.4405  0.5249  2.4197
  815TIP3   OH2 2408   6.324   5.257   3.295  0.4574  0.4252 -0.4855
  815TIP3    H1 2409   6.274   5.338   3.297  1.0253  0.7775  0.0034
  815TIP3    H2 2410   6.268   5.194   3.249 -1.5075  0.0856  2.1078
  816TIP3   OH2 2411   1.184   0.437   0.933  0.4128 -0.2580  0.0593
  816TIP3    H1 2412   1.106   0.388   0.958  0.9699 -0.6756  1.0426
  816TIP3    H2 2413   1.209   0.485   1.012  0.3811  0.9488 -0.6386
  817TIP3   OH2 2414   0.092   5.381   1.179 -0.4124 -0.0581  0.0379
  817TIP3    H1 2415   0.162   5.445   1.171  0.6367 -1.1491  0.2316
  817TIP3    H2 2416   0.018   5.421   1.133 -0.3698  2.0583  1.6675
  818TIP3   OH2 2417   4.299   4.180   5.845 -0.4459 -0.3423  0.5403
  818TIP3    H1 2418   4.386   4.178   5.885  0.4696 -1.9605 -1.3361
  818TIP3    H2 2419   4.304   4.250   5.780 -0.8273  0.0940  0.9760
  819TIP3   OH2 2420   5.155   3.913   2.679  0.2844 -0.2181  0.0593
  819TIP3    H1 2421   5.126   3.825   2.654  0.0799 -0.0885 -0.1663
  819TIP3    H2 2422   5.157   3.962   2.597  0.1901  0.0470  0.2123
  820TIP3   OH2 2423   3.644   0.556   5.142 -0.5326 -0.3710  0.2130
  820TIP3    H1 2424   3.552   0.584   5.143 -1.0318 -1.8676 -0.7771
  820TIP3    H2 2425   3.666   0.542   5.234 -1.6239 -1.0318  0.3877
  821TIP3   OH2 2426   1.327   3.145   5.142 -0.1711 -0.0994  0.8297
  821TIP3    H1 2427   1.361   3.076   5.199  1.6654  2.0868  2.5451
  821TIP3    H2 2428   1.237   3.159   5.174 -0.1549 -0.8752  1.2515
  822TIP3   OH2 2429   5.549   2.092   5.144  0.2529 -0.0051  0.3953
  822TIP3    H1 2430   5.528   2.021   5.205  1.8453 -1.3277 -0.5383
  822TIP3    H2 2431   5.557   2.169   5.200  0.5022 -0.9486  1.7085
  823TIP3   OH2 2432   6.143   1.286   1.399 -0.2631 -0.4882  0.0890
  823TIP3    H1 2433   6.084   1.299   1.325 -0.4539 -2.3140 -0.1256
  823TIP3    H2 2434   6.108   1.209   1.444 -0.2641  0.6714  2.2038
  824TIP3   OH2 2435   0.524   2.015   1.360  0.8205 -0.3347  0.5111
  824TIP3    H1 2436   0.431   2.037   1.356  0.0868 -2.6674  2.4729
  824TIP3    H2 2437   0.552   2.016   1.268 -0.6185  2.1932  0.0028
  825TIP3   OH2 2438   4.513   1.609   4.789 -0.2867  0.3669  0.5335
  825TIP3    H1 2439   4.581   1.628   4.725 -0.6285  1.6503  0.5160
  825TIP3    H2 2440   4.504   1.690   4.839  0.4528 -0.8205  2.7017
  826TIP3   OH2 2441   6.876   1.862   2.910  0.0084 -0.8642 -0.5484
  826TIP3    H1 2442   6.899   1.826   2.996  0.2135 -1.2200 -0.7485
  826TIP3    H2 2443   6.845   1.786   2.860 -1.2512 -0.4741 -0.4157
  827TIP3   OH2 2444   5.957   6.323   5.067 -0.1856 -0.1665  0.2987
  827TIP3    H1 2445   5.920   6.346   4.981 -0.1075  0.2125  0.3646
  827TIP3    H2 2446   5.935   6.397   5.123 -0.7654 -0.6861  0.7712
  828TIP3   OH2 2447   3.358   5.737   5.603  0.2378 -0.1703 -0.3151
  828TIP3    H1 2448   3.434   5.684   5.628  0.6034  1.5889  2.8860
  828TIP3    H2 2449   3.298   5.729   5.677 -3.1881 -2.0408 -3.0064
  829TIP3   OH2 2450   2.868   0.506   4.855 -0.4081 -0.1341  0.0083
  829TIP3    H1 2451   2.835   0.508   4.765 -0.6318  0.4595  0.0998
  829TIP3    H2 2452   2.840   0.590   4.892  0.4698  0.0175  0.3479
  830TIP3   OH2 2453   3.786   1.490   1.217 -0.2530 -0.2649  0.4496
  830TIP3    H1 2454   3.754   1.516   1.303 -0.9213 -0.9023  0.4010
  830TIP3    H2 2455   3.812   1.399   1.227  1.6267  0.2437  0.4932
  831TIP3   OH2 2456   0.069   1.554   3.852 -0.7188  0.0200 -0.0967
  831TIP3    H1 2457   0.155   1.584   3.883 -0.3147 -0.3647 -0.8160
  831TIP3    H2 2458   0.008   1.619   3.886  0.1185  1.5923 -1.4477
  832TIP3   OH2 2459   0.717   5.001   0.040 -0.3304  0.1597  0.4739
  832TIP3    H1 2460   0.774   4.976  -0.032  1.4004  0.2241  1.7492
  832TIP3    H2 2461   0.688   5.090   0.017 -0.5490 -0.1612 -0.5495
  833TIP3   OH2 2462   2.749   6.395   1.226 -0.4858  0.4572  0.4609
  833TIP3    H1 2463   2.773   6.319   1.279  1.9902  0.7656 -0.0923
  833TIP3    H2 2464   2.769   6.368   1.136  1.6344  2.0733  0.3485
  834TIP3   OH2 2465   5.358   0.366   2.739 -0.4983  0.4126  0.4540
  834TIP3    H1 2466   5.358   0.398   2.829 -0.2345  0.7766  0.3291
  834TIP3    H2 2467   5.431   0.412   2.697 -0.8218  0.4984 -0.0300
  835TIP3   OH2 2468   4.944   4.548   5.052 -0.4546 -0.2322 -0.0160
  835TIP3    H1 2469   4.986   4.509   5.128 -0.1815 -0.3887 -0.2443
  835TIP3    H2 2470   5.011   4.604   5.014  0.1982 -1.8497 -1.4141
  836TIP3   OH2 2471   2.591   2.398   2.643  0.7343 -0.3552 -0.4246
  836TIP3    H1 2472   2.662   2.401   2.578 -1.9394 -0.1795 -3.6411
  836TIP3    H2 2473   2.594   2.309   2.678  2.6567 -0.2632 -0.2561
  837TIP3   OH2 2474   6.079   5.322   5.223 -0.0818  0.3700  0.0035
  837TIP3    H1 2475   6.013   5.383   5.257 -0.9020 -1.0548  1.0772
  837TIP3    H2 2476   6.070   5.327   5.128 -1.3717  0.6143  0.1161
  838TIP3   OH2 2477   5.483   4.119   5.743 -0.5106  0.3301  0.3981
  838TIP3    H1 2478   5.526   4.036   5.720 -0.1314  0.1664  1.6106
  838TIP3    H2 2479   5.415   4.094   5.806 -1.3756  0.7767 -0.3397
  839TIP3   OH2 2480   4.415   4.948   1.361  0.1954  0.1204  0.0697
  839TIP3    H1 2481   4.360   5.026   1.356 -0.0467 -0.1392 -1.9332
  839TIP3    H2 2482   4.411   4.922   1.453 -1.7214  1.0275  0.2888
  840TIP3   OH2 2483   5.292   1.272   2.019 -0.2974 -0.5007 -0.6395
  840TIP3    H1 2484   5.245   1.275   2.102 -1.2212 -2.3854 -1.0338
  840TIP3    H2 2485   5.316   1.363   2.001  1.4891 -0.2100  2.5140
  841TIP3   OH2 2486   7.096   0.266   1.185  0.2991  0.0754 -0.1967
  841TIP3    H1 2487   7.030   0.197   1.197  0.4657 -0.0741 -0.1336
  841TIP3    H2 2488   7.053   0.345   1.218  0.7524 -0.3351  1.4934
  842TIP3   OH2 2489   2.342   3.042   2.628  0.4048 -0.3954 -0.2501
  842TIP3    H1 2490   2.257   3.028   2.585  1.4366 -2.5596 -1.8077
  842TIP3    H2 2491   2.403   2.988   2.577  2.2220 -1.0967  2.4816
  843TIP3   OH2 2492   0.393   4.350   2.329 -0.1272 -0.3474  0.7803
  843TIP3    H1 2493   0.373   4.417   2.263  2.4856 -2.0845 -2.1029
  843TIP3    H2 2494   0.448   4.395   2.393 -0.4709  0.8048  0.2941
  844TIP3   OH2 2495   2.562   0.069   4.938  0.2616  0.5775  0.3250
  844TIP3    H1 2496   2.519   0.123   4.871 -2.8812  0.8753  2.3827
  844TIP3    H2 2497   2.590   0.132   5.004  0.4109  0.0278  0.7909
  845TIP3   OH2 2498   5.920   6.278   0.885  0.0334  0.4115 -0.0792
  845TIP3    H1 2499   5.841   6.269   0.938  0.1689 -1.4732 -0.1521
  845TIP3    H2 2500   5.893   6.258   0.796  0.1729  1.8923 -0.4883
  846TIP3   OH2 2501   5.315   5.095   3.046 -0.1908  0.6350 -0.2568
  846TIP3    H1 2502   5.406   5.108   3.022  0.4153  0.9439  2.0320
  846TIP3    H2 2503   5.280   5.183   3.058 -0.2680  0.4912  0.6400
  847TIP3   OH2 2504   3.051   2.340   4.842 -0.0059  0.0746 -0.0657
  847TIP3    H1 2505   3.053   2.411   4.906  0.7493  1.1347 -1.2093
  847TIP3    H2 2506   3.112   2.368   4.774 -0.4189 -1.2406 -1.0175
  848TIP3   OH2 2507   1.343   2.598   3.821 -0.4063 -0.3763  0.0334
  848TIP3    H1 2508   1.413   2.625   3.762 -1.1583 -1.5398 -1.4812
  848TIP3    H2 2509   1.274   2.664   3.809  0.0974  0.3151  0.9003
  849TIP3   OH2 2510   1.683   4.804   0.353 -0.1178 -0.0883  0.1105
  849TIP3    H1 2511   1.699   4.757   0.436  0.2604  0.5960  0.4333
  849TIP3    H2 2512   1.682   4.896   0.378  0.8512  0.1725 -0.7816
  850TIP3   OH2 2513   1.528   0.657   0.946 -0.1284 -0.9773 -0.8495
  850TIP3    H1 2514   1.603   0.714   0.967 -1.9979  0.4082  2.9799
  850TIP3    H2 2515   1.488   0.697   0.870  0.0757  1.4574  0.2363
  851TIP3   OH2 2516   2.662   4.993   1.001 -0.8496 -0.2548 -0.4140
  851TIP3    H1 2517   2.706   5.023   0.922 -0.5144  0.2964 -0.0328
  851TIP3    H2 2518   2.698   5.049   1.071 -3.4374  1.4902 -0.3522
  852TIP3   OH2 2519   1.991   2.242   1.541 -0.3521  0.1519  0.0943
  852TIP3    H1 2520   2.054   2.284   1.599  1.0573  1.2359 -2.0854
  852TIP3    H2 2521   2.034   2.243   1.455 -1.9652 -2.1554 -0.8253
  853TIP3   OH2 2522   3.597   2.644   4.289  0.2936 -0.4828  0.3130
  853TIP3    H1 2523   3.594   2.708   4.219  1.3973  0.7244  1.3204
  853TIP3    H2 2524   3.506   2.637   4.319  0.1040  0.3342 -0.0497
  854TIP3   OH2 2525   3.191   3.447   3.013 -0.1309  0.6992  0.0078
  854TIP3    H1 2526   3.178   3.373   3.073  1.6854  0.4784  0.1766
  854TIP3    H2 2527   3.283   3.470   3.023 -0.6774  3.0799  0.0467
  855TIP3   OH2 2528   2.466   5.471   4.561 -0.5596 -0.5056  0.4667
  855TIP3    H1 2529   2.436   5.388   4.525  0.2850 -0.7420  0.2764
  855TIP3    H2 2530   2.553   5.451   4.597 -0.2910  0.3216  0.2972
  856TIP3   OH2 2531   4.382   2.379   3.746 -0.2701 -0.3463  0.3546
  856TIP3    H1 2532   4.297   2.340   3.767 -0.3992 -0.6433 -0.7013
  856TIP3    H2 2533   4.381   2.463   3.793 -0.9277 -0.5718  0.7693
  857TIP3   OH2 2534   2.901   5.787   4.124  0.4185 -0.4556  0.4022
  857TIP3    H1 2535   2.806   5.773   4.117  0.2114 -0.6843  2.8887
  857TIP3    H2 2536   2.912   5.882   4.119  0.0408 -0.4184  0.2763
  858TIP3   OH2 2537   0.204   1.187   3.825  0.1384 -0.6018  0.3853
  858TIP3    H1 2538   0.254   1.203   3.745 -0.2331 -0.8081  0.1077
  858TIP3    H2 2539   0.254   1.231   3.893  0.0046  0.3427 -0.0957
  859TIP3   OH2 2540   0.662   0.213   2.152 -0.1982  0.4689 -0.5927
  859TIP3    H1 2541   0.746   0.170   2.171 -0.3066  1.0588  1.5044
  859TIP3    H2 2542   0.613   0.149   2.101  1.6469  0.2575 -2.2305
  860TIP3   OH2 2543   4.618   5.591   5.534 -0.1473  0.0661  0.3203
  860TIP3    H1 2544   4.670   5.645   5.475  1.0842 -2.0510 -0.6617
  860TIP3    H2 2545   4.542   5.565   5.482 -0.7835  0.8787  0.8181
  861TIP3   OH2 2546   6.512   4.055   1.911  0.2915 -0.3330 -0.4049
  861TIP3    H1 2547   6.475   4.038   1.825  0.0631 -2.1042  0.0172
  861TIP3    H2 2548   6.606   4.058   1.896  0.1840  3.8507 -1.4230
  862TIP3   OH2 2549   6.849   0.120   1.854 -0.7353 -0.1671 -0.2256
  862TIP3    H1 2550   6.934   0.119   1.810  0.7654  0.5770  2.4767
  862TIP3    H2 2551   6.808   0.202   1.825 -0.0999 -0.0337 -0.7687
  863TIP3   OH2 2552   2.065   1.678   3.860 -0.2698  0.5585 -0.2731
  863TIP3    H1 2553   1.987   1.732   3.870 -1.0364 -0.8445  2.0254
  863TIP3    H2 2554   2.110   1.684   3.944  1.4865  0.3951 -1.1633
  864TIP3   OH2 2555   4.205   3.163   0.052  0.0795  0.0507 -0.0665
  864TIP3    H1 2556   4.272   3.117   0.001 -0.2184 -1.7406  1.0476
  864TIP3    H2 2557   4.241   3.168   0.140 -0.6224  0.4039  0.2107
  865TIP3   OH2 2558   2.747   3.193   0.705  0.0711 -0.7111 -0.7789
  865TIP3    H1 2559   2.667   3.240   0.684  0.2578  0.0614  0.2032
  865TIP3    H2 2560   2.726   3.101   0.688 -1.6337 -0.7545  1.2304
  866TIP3   OH2 2561   5.929   1.410   5.606  0.6416 -0.0342  0.6127
  866TIP3    H1 2562   5.890   1.323   5.618  1.0925 -0.1336  1.4542
  866TIP3    H2 2563   5.859   1.471   5.629  0.6268 -0.1916  0.9928
  867TIP3   OH2 2564   5.667   0.033   0.523 -0.0684 -0.4598  0.2849
  867TIP3    H1 2565   5.642   0.049   0.614  0.0665 -1.9119  0.5978
  867TIP3    H2 2566   5.629  -0.053   0.503 -0.4137  0.0036 -1.1515
  868TIP3   OH2 2567   3.026   3.578   2.438 -0.0958  0.4872 -0.8313
  868TIP3    H1 2568   3.098   3.629   2.473 -0.1488 -0.5283  0.8140
  868TIP3    H2 2569   2.960   3.577   2.507 -1.6714  1.2765 -2.2289
  869TIP3   OH2 2570   6.398   2.945   2.519  0.4914 -0.1510 -0.3057
  869TIP3    H1 2571   6.338   2.889   2.569 -0.7649  1.9987  0.7039
  869TIP3    H2 2572   6.483   2.930   2.560  0.0442 -0.7395  0.4515
  870TIP3   OH2 2573   5.685   2.129   3.734  0.3020  0.7748  0.3676
  870TIP3    H1 2574   5.768   2.148   3.690  0.8159  1.7810  1.6739
  870TIP3    H2 2575   5.708   2.065   3.802 -0.0872  0.6776  0.4112
  871TIP3   OH2 2576   6.440   3.097   2.097 -0.3831 -1.0484 -0.0859
  871TIP3    H1 2577   6.365   3.091   2.037 -0.7991  1.0067  0.1729
  871TIP3    H2 2578   6.419   3.169   2.156  1.3511 -1.0888  0.6554
  872TIP3   OH2 2579   3.616   5.007   1.543  0.4622  0.3850 -0.0043
  872TIP3    H1 2580   3.598   4.993   1.636 -0.6307  1.5845 -0.0032
  872TIP3    H2 2581   3.707   4.980   1.531  0.0137 -1.7881  0.9589
  873TIP3   OH2 2582   5.321   0.390   0.882  0.4047 -0.2486 -0.4379
  873TIP3    H1 2583   5.368   0.473   0.868  2.9677 -1.0367  2.3679
  873TIP3    H2 2584   5.238   0.417   0.921  0.5905  1.0618 -0.8841
  874TIP3   OH2 2585   0.625   1.750   2.687  0.0669  0.1390 -0.2233
  874TIP3    H1 2586   0.545   1.698   2.684  0.5758 -0.7377  0.6307
  874TIP3    H2 2587   0.598   1.839   2.665 -1.7381  0.5385  3.0473
  875TIP3   OH2 2588   4.675   3.276   4.281  0.0453  0.0702 -0.4690
  875TIP3    H1 2589   4.766   3.300   4.265  0.4119 -0.3668  0.8931
  875TIP3    H2 2590   4.654   3.215   4.209  1.5091 -1.5078  0.3677
  876TIP3   OH2 2591   0.513   3.900   0.131 -0.5854 -0.0611  0.0891
  876TIP3    H1 2592   0.522   3.880   0.224 -0.3072 -1.0188 -0.1296
  876TIP3    H2 2593   0.510   3.995   0.127 -0.4588 -0.0043  1.0646
  877TIP3   OH2 2594   5.980   2.020   4.656 -0.8633  0.5071 -0.4508
  877TIP3    H1 2595   5.997   1.943   4.601 -1.8749 -0.0875  0.0338
  877TIP3    H2 2596   6.027   2.001   4.737 -2.2924 -0.3133  0.2228
  878TIP3   OH2 2597   6.518   3.050   1.083  0.7279  0.5576  0.0435
  878TIP3    H1 2598   6.593   3.086   1.129  0.3049 -1.3844  2.4611
  878TIP3    H2 2599   6.446   3.110   1.101  0.8013  0.3282  1.1412
  879TIP3   OH2 2600   1.065   3.741   2.029 -0.1593 -0.5724 -0.1174
  879TIP3    H1 2601   1.118   3.741   1.950 -0.8978 -0.0362 -0.6288
  879TIP3    H2 2602   0.978   3.715   1.999 -1.1571  2.2544 -0.0080
  880TIP3   OH2 2603   3.246   0.634   5.503  0.1020  0.7776  0.4444
  880TIP3    H1 2604   3.299   0.628   5.424 -0.1622  2.9444  0.0415
  880TIP3    H2 2605   3.168   0.681   5.476 -1.1190 -0.5670  1.4879
  881TIP3   OH2 2606   0.740   0.472   3.082  0.8890  0.4784  0.6704
  881TIP3    H1 2607   0.783   0.558   3.082 -0.4038  1.1669 -0.9082
  881TIP3    H2 2608   0.650   0.491   3.110 -0.5796  0.3762 -3.3837
  882TIP3   OH2 2609   0.288   2.630   0.761 -0.0856 -0.5961  0.0444
  882TIP3    H1 2610   0.203   2.656   0.796 -1.1343 -0.4636 -2.3478
  882TIP3    H2 2611   0.295   2.537   0.783  0.0485 -0.1856  1.8590
  883TIP3   OH2 2612   5.237   3.154   2.771  0.5418  0.0600  0.1683
  883TIP3    H1 2613   5.229   3.059   2.756 -0.4522  0.0539  0.6709
  883TIP3    H2 2614   5.215   3.166   2.863 -1.2075  0.9758 -0.3309
  884TIP3   OH2 2615   0.993   1.831   4.859  0.1348  0.2830  0.6446
  884TIP3    H1 2616   0.982   1.799   4.949 -0.0063 -0.0710  0.5024
  884TIP3    H2 2617   1.006   1.925   4.869 -0.9660  0.4185  0.9642
  885TIP3   OH2 2618   1.460   3.125   5.842 -0.0893 -0.0286  0.6705
  885TIP3    H1 2619   1.528   3.092   5.901 -0.3723  0.1051  1.0733
  885TIP3    H2 2620   1.464   3.220   5.851 -0.6654 -0.0399  1.0715
  886TIP3   OH2 2621   6.833   0.876   4.736  0.0317  0.3850  0.3668
  886TIP3    H1 2622   6.836   0.928   4.816  1.3777 -1.3445  1.5185
  886TIP3    H2 2623   6.860   0.937   4.667 -1.1916  1.9161  1.1686
  887TIP3   OH2 2624   3.381   2.988   5.819 -0.1624 -0.7606 -0.6593
  887TIP3    H1 2625   3.357   3.034   5.900  0.2987 -0.5991 -0.6113
  887TIP3    H2 2626   3.299   2.979   5.772 -0.1797  0.7304 -0.9779
  888TIP3   OH2 2627   2.439   6.528   5.792 -0.6555  0.0890  0.2514
  888TIP3    H1 2628   2.464   6.576   5.871 -0.0486 -1.7578  1.2367
  888TIP3    H2 2629   2.355   6.487   5.813 -0.4920 -0.4178 -0.0419
  889TIP3   OH2 2630   1.520   3.125   4.402 -0.0147 -0.3455  0.0339
  889TIP3    H1 2631   1.570   3.043   4.408  2.1129  0.8762  0.0621
  889TIP3    H2 2632   1.579   3.186   4.359 -1.1206  1.4921  0.9941
  890TIP3   OH2 2633   4.190   2.757   1.237  0.5250  0.0823  0.0293
  890TIP3    H1 2634   4.165   2.669   1.211  2.4918 -0.5558  0.1467
  890TIP3    H2 2635   4.144   2.814   1.175  1.0254 -1.1509 -1.5240
  891TIP3   OH2 2636   3.269   2.898   4.003  0.4487 -0.6054 -0.1529
  891TIP3    H1 2637   3.214   2.840   3.951  0.2469  0.4457 -1.1588
  891TIP3    H2 2638   3.264   2.862   4.092 -0.1708 -1.7366 -0.6206
  892TIP3   OH2 2639   2.973   4.995   0.392 -0.3533 -0.0703 -0.2584
  892TIP3    H1 2640   2.929   5.071   0.430  0.1124  0.2753 -0.4084
  892TIP3    H2 2641   3.056   4.989   0.438 -0.5262 -0.6900 -0.0182
  893TIP3   OH2 2642   3.958   6.216   0.266 -0.4985 -0.3409  0.5017
  893TIP3    H1 2643   3.909   6.295   0.291  0.6767  1.1416 -1.5315
  893TIP3    H2 2644   3.956   6.216   0.170  1.5008 -1.4496  0.3953
  894TIP3   OH2 2645   6.601   5.728   5.079  0.1275 -0.2403 -0.0189
  894TIP3    H1 2646   6.672   5.691   5.025 -1.3754 -1.5720 -1.1953
  894TIP3    H2 2647   6.621   5.821   5.084  1.6943 -0.4941 -0.7405
  895TIP3   OH2 2648   1.054   2.789   2.389 -0.1336  0.4500  0.7056
  895TIP3    H1 2649   1.059   2.801   2.484  0.5542  0.2940  0.6955
  895TIP3    H2 2650   1.017   2.701   2.379 -1.9519  1.1657  0.8014
  896TIP3   OH2 2651   2.144   5.576   4.498 -0.4847 -0.0851  0.1014
  896TIP3    H1 2652   2.052   5.596   4.513 -0.3230  2.7178 -1.8993
  896TIP3    H2 2653   2.173   5.534   4.579 -3.4875 -1.1807  0.7396
  897TIP3   OH2 2654   5.750   5.547   3.895 -0.1231 -0.0147 -0.2138
  897TIP3    H1 2655   5.692   5.475   3.869 -2.3343  0.9505  1.6696
  897TIP3    H2 2656   5.710   5.625   3.857 -0.9598  0.8555  2.2689
  898TIP3   OH2 2657   4.063   1.270   0.578 -0.2639 -0.1798 -0.1008
  898TIP3    H1 2658   4.138   1.309   0.532 -0.5283 -0.4077 -0.7408
  898TIP3    H2 2659   4.065   1.309   0.665  0.9964 -0.6819  0.1109
  899TIP3   OH2 2660   3.631   3.259   2.506  0.4787 -0.2068  0.3173
  899TIP3    H1 2661   3.562   3.325   2.515  0.9567  0.4008 -0.3404
  899TIP3    H2 2662   3.650   3.258   2.412  0.5833 -1.1808  0.3479
  900TIP3   OH2 2663   3.357   2.185   3.592  0.0834  0.4104  0.0794
  900TIP3    H1 2664   3.319   2.250   3.651 -0.6176  0.5481 -0.5111
  900TIP3    H2 2665   3.340   2.219   3.504 -2.6353 -1.7598 -0.3782
  901TIP3   OH2 2666   5.369   4.217   2.714 -0.0803  0.1193 -0.4266
  901TIP3    H1 2667   5.324   4.245   2.794 -0.7917 -0.3537 -0.6506
  901TIP3    H2 2668   5.319   4.142   2.684  0.0560  0.4286 -1.4445
  902TIP3   OH2 2669   2.542   3.736   4.001  0.1440 -0.1705 -0.4681
  902TIP3    H1 2670   2.618   3.793   3.992  1.4837 -1.6477  0.8395
  902TIP3    H2 2671   2.494   3.771   4.076  0.2554 -0.0214 -0.4666
  903TIP3   OH2 2672   5.572   4.209   1.175  0.4088 -0.0813 -0.5235
  903TIP3    H1 2673   5.584   4.213   1.270 -1.3868  1.0681 -0.3042
  903TIP3    H2 2674   5.643   4.263   1.141  0.6483  0.0885  0.2076
  904TIP3   OH2 2675   3.924   0.463   4.130 -0.0188 -0.1239 -0.4415
  904TIP3    H1 2676   3.987   0.491   4.063  0.1933 -0.2825 -0.3115
  904TIP3    H2 2677   3.942   0.369   4.141 -2.9996 -1.2785 -3.4321
  905TIP3   OH2 2678   5.650   3.833   2.089 -0.0438  0.5106 -0.0523
  905TIP3    H1 2679   5.609   3.910   2.050 -1.3703 -0.4259 -0.5689
  905TIP3    H2 2680   5.598   3.815   2.167  0.9685  0.7876  0.7222
  906TIP3   OH2 2681   2.597   0.287   1.669  0.6593  0.0908 -0.1464
  906TIP3    H1 2682   2.679   0.337   1.669  0.5412  0.2868 -0.7030
  906TIP3    H2 2683   2.594   0.247   1.582 -0.5466  1.2624 -0.6759
  907TIP3   OH2 2684   2.605   1.563   3.104  0.0213  0.0756 -0.8372
  907TIP3    H1 2685   2.645   1.633   3.052  0.6192 -1.0563 -1.9545
  907TIP3    H2 2686   2.651   1.484   3.077 -1.4155 -0.9335 -0.4427
  908TIP3   OH2 2687   6.759   4.523   2.693 -0.0598  0.0637  0.4542
  908TIP3    H1 2688   6.709   4.493   2.617 -0.7321  1.6096  0.2410
  908TIP3    H2 2689   6.768   4.446   2.749  1.9629 -1.6244 -1.9498
  909TIP3   OH2 2690   1.319   5.298   5.539  0.9001 -0.1247  0.3998
  909TIP3    H1 2691   1.328   5.231   5.606  0.5179 -0.4431  0.1347
  909TIP3    H2 2692   1.390   5.360   5.558  1.8255 -1.0580  0.1224
  910TIP3   OH2 2693   4.025   5.972   4.212  0.2656 -0.7827 -0.0541
  910TIP3    H1 2694   3.958   6.040   4.209 -0.7476 -1.6520  1.3735
  910TIP3    H2 2695   4.093   6.007   4.269  0.1298 -0.6497  0.0257
  911TIP3   OH2 2696   1.641   6.246   2.902 -0.1482  0.4146  0.2077
  911TIP3    H1 2697   1.613   6.333   2.930 -0.4360 -0.1163  1.6951
  911TIP3    H2 2698   1.559   6.196   2.897  0.0932  0.0119  0.2390
  912TIP3   OH2 2699   5.340   4.996   5.112  0.0723  0.3659  0.3688
  912TIP3    H1 2700   5.261   4.942   5.115 -0.9302  1.7341 -0.3958
  912TIP3    H2 2701   5.357   5.019   5.203 -0.8816  0.7112  0.4638
  913TIP3   OH2 2702   5.016   0.506   4.189  0.0382  0.2828  0.3350
  913TIP3    H1 2703   5.061   0.557   4.121  0.5860 -2.4537 -1.5113
  913TIP3    H2 2704   4.930   0.487   4.152  1.0069 -2.8548 -0.5969
  914TIP3   OH2 2705   2.544   5.662   0.431  0.0653  0.5874  0.0741
  914TIP3    H1 2706   2.636   5.636   0.439 -0.1491  0.0117  0.8417
  914TIP3    H2 2707   2.516   5.676   0.522 -0.7766  0.1316 -0.1073
  915TIP3   OH2 2708   3.194   0.210   2.397 -0.9999 -0.4491  0.1882
  915TIP3    H1 2709   3.123   0.168   2.446  0.2806 -1.3831  1.3158
  915TIP3    H2 2710   3.238   0.265   2.461  0.8395 -1.8513  0.2159
  916TIP3   OH2 2711   1.995   0.078   0.104  0.7706 -0.1763  0.2073
  916TIP3    H1 2712   1.986   0.085   0.009  0.0332 -1.0527  0.1991
  916TIP3    H2 2713   2.082   0.114   0.123 -0.5832  3.9458 -0.3203
  917TIP3   OH2 2714   0.129   2.443   5.272  0.5810 -0.2208 -0.1765
  917TIP3    H1 2715   0.065   2.504   5.308 -0.1281 -0.9785 -0.1267
  917TIP3    H2 2716   0.113   2.361   5.319  1.8387 -0.3184  0.1021
  918TIP3   OH2 2717   3.896   1.167   4.492 -0.7626  0.3105  0.0101
  918TIP3    H1 2718   3.806   1.140   4.513 -0.5887  1.1994  2.2453
  918TIP3    H2 2719   3.885   1.242   4.433 -1.4547 -0.1388 -0.4425
  919TIP3   OH2 2720   6.227   3.409   3.336 -0.3438  0.0834 -0.0084
  919TIP3    H1 2721   6.134   3.389   3.333 -0.0805 -1.2954  0.3546
  919TIP3    H2 2722   6.232   3.502   3.314 -1.9025  0.4941  1.1447
  920TIP3   OH2 2723   4.590   0.201   5.780  0.0843  0.5534  0.0783
  920TIP3    H1 2724   4.597   0.106   5.779 -0.5186  0.4743  1.4466
  920TIP3    H2 2725   4.681   0.232   5.776  0.3680 -0.1127  0.9775
  921TIP3   OH2 2726   3.403   0.402   0.561  0.6374 -0.2453 -0.0417
  921TIP3    H1 2727   3.377   0.310   0.551 -1.0101  0.3928 -2.5040
  921TIP3    H2 2728   3.321   0.448   0.578  1.0829  1.0458 -1.2223
  922TIP3   OH2 2729   5.205   5.272   3.267  0.4232  0.0321 -0.2568
  922TIP3    H1 2730   5.173   5.362   3.260  0.6104  0.1911  0.7362
  922TIP3    H2 2731   5.286   5.272   3.216  0.3726  0.4047 -0.3445
  923TIP3   OH2 2732   3.408   5.400   4.633  0.4091 -0.3357  0.0263
  923TIP3    H1 2733   3.379   5.359   4.551  0.1520 -1.5965  0.7235
  923TIP3    H2 2734   3.329   5.442   4.667 -0.3234 -2.4718  1.1557
  924TIP3   OH2 2735   6.083   6.768   3.492 -0.4916  0.6707 -0.0818
  924TIP3    H1 2736   6.178   6.757   3.481 -0.8854 -1.8278 -1.8920
  924TIP3    H2 2737   6.047   6.751   3.405 -2.7154  0.0878  0.8890
  925TIP3   OH2 2738   3.888   2.823   0.863  0.6190 -0.7317  0.4274
  925TIP3    H1 2739   3.830   2.855   0.794 -2.0631 -2.8029  1.5497
  925TIP3    H2 2740   3.927   2.743   0.826  1.6816 -0.1261  0.2067
  926TIP3   OH2 2741   3.442   2.144   3.919 -0.4094  0.5927 -0.5787
  926TIP3    H1 2742   3.388   2.201   3.864 -0.2254  0.5896 -0.7608
  926TIP3    H2 2743   3.378   2.100   3.976 -0.5974  0.6099 -0.7732
  927TIP3   OH2 2744   4.212   5.388   1.075 -0.1755 -0.4745 -0.0947
  927TIP3    H1 2745   4.297   5.374   1.033 -1.6868  0.3484 -3.7978
  927TIP3    H2 2746   4.161   5.311   1.052 -0.6552 -0.6971  1.6141
  928TIP3   OH2 2747   1.546   4.220   5.535  0.2232 -0.0817  0.2262
  928TIP3    H1 2748   1.636   4.220   5.502  0.7003  1.3826  1.4177
  928TIP3    H2 2749   1.553   4.251   5.625 -1.5883  1.2945 -0.0400
  929TIP3   OH2 2750   4.362   5.376   2.065  0.1633  0.0928  0.8042
  929TIP3    H1 2751   4.425   5.436   2.026 -0.2282 -0.4927 -0.8399
  929TIP3    H2 2752   4.414   5.302   2.096  0.3897  0.0199  0.2689
  930TIP3   OH2 2753   3.955   5.528   1.659 -0.2521  0.1566 -0.0750
  930TIP3    H1 2754   3.928   5.544   1.750 -1.9512 -0.2258 -0.4917
  930TIP3    H2 2755   3.874   5.512   1.612  0.5852  0.6101 -1.7374
  931TIP3   OH2 2756   1.715   4.965   2.768 -0.0387  0.0701  0.0515
  931TIP3    H1 2757   1.759   4.903   2.827  0.0508  0.4864  0.4287
  931TIP3    H2 2758   1.701   5.043   2.822  0.4299  0.6142 -0.6036
  932TIP3   OH2 2759   3.851   0.434   5.618  0.4649  0.6239  0.0956
  932TIP3    H1 2760   3.805   0.363   5.572 -0.2239  0.8672  0.4021
  932TIP3    H2 2761   3.838   0.414   5.711  0.7800  0.8282  0.1830
  933TIP3   OH2 2762   5.362   5.950   3.426  0.2112 -0.3435 -0.3315
  933TIP3    H1 2763   5.404   5.891   3.363  1.9324  0.2328  0.2089
  933TIP3    H2 2764   5.425   6.022   3.437  0.3102 -0.7426  2.5150
  934TIP3   OH2 2765   0.164   2.079   3.737  0.1813  0.4401  0.1546
  934TIP3    H1 2766   0.099   2.010   3.749  2.6095 -1.7818  1.6163
  934TIP3    H2 2767   0.164   2.096   3.643 -0.8130 -1.2344 -0.1773
  935TIP3   OH2 2768   2.083   6.664   3.112  0.2691 -0.0905 -0.0930
  935TIP3    H1 2769   2.099   6.628   3.025  0.8617  2.3634 -1.0698
  935TIP3    H2 2770   2.165   6.650   3.159  1.2653  1.7874 -1.1674
  936TIP3   OH2 2771   2.289   4.012   3.657 -0.0916 -0.3504 -0.3983
  936TIP3    H1 2772   2.286   3.922   3.624 -0.8967 -0.6536  0.4735
  936TIP3    H2 2773   2.226   4.014   3.728  0.8628  0.5690  0.4552
  937TIP3   OH2 2774   3.793   4.264   0.260 -0.0361 -0.3558  0.1150
  937TIP3    H1 2775   3.827   4.283   0.347  0.1559 -0.4214  0.0536
  937TIP3    H2 2776   3.857   4.302   0.200 -0.3672  0.0335  0.0040
  938TIP3   OH2 2777   0.629   3.333   2.809  0.0175  0.6656 -0.1638
  938TIP3    H1 2778   0.606   3.295   2.893 -0.0435  1.7566  0.3332
  938TIP3    H2 2779   0.547   3.367   2.774 -0.0419 -0.2024 -0.8958
  939TIP3   OH2 2780   2.331   2.901   5.112 -0.6592 -0.4509  0.4277
  939TIP3    H1 2781   2.239   2.924   5.123 -0.3345  0.8970  0.5092
  939TIP3    H2 2782   2.366   2.896   5.201 -0.0422  1.8355  0.3852
  940TIP3   OH2 2783   5.189   0.538   3.242 -0.3947  0.3687 -0.3366
  940TIP3    H1 2784   5.246   0.586   3.303 -0.3215  0.2518 -0.3136
  940TIP3    H2 2785   5.120   0.601   3.219 -2.3263 -0.5825  2.3948
  941TIP3   OH2 2786   5.399   0.804   3.206 -0.1976  0.1892 -0.0840
  941TIP3    H1 2787   5.406   0.809   3.302  0.6365 -0.3417 -0.1085
  941TIP3    H2 2788   5.450   0.727   3.183 -1.0342 -0.1402 -0.9016
  942TIP3   OH2 2789   0.603   4.942   5.684  0.5945 -0.3574 -0.5208
  942TIP3    H1 2790   0.650   5.003   5.627  0.9408 -0.2829 -0.1680
  942TIP3    H2 2791   0.515   4.936   5.647  0.4398  0.6451 -0.3520
  943TIP3   OH2 2792   5.288   0.387   5.144 -0.0207 -0.2782 -0.1825
  943TIP3    H1 2793   5.210   0.357   5.190  0.7109  0.3210  1.5316
  943TIP3    H2 2794   5.359   0.332   5.179  0.6016  0.3587 -0.4086
  944TIP3   OH2 2795   1.163   3.703   2.789 -0.0343  0.0117 -0.2997
  944TIP3    H1 2796   1.145   3.668   2.876  1.4763 -0.3868 -0.1149
  944TIP3    H2 2797   1.178   3.626   2.735 -2.3442  0.1915 -1.2910
  945TIP3   OH2 2798   0.129   1.456   2.864 -0.0455  0.1343 -0.4875
  945TIP3    H1 2799   0.049   1.506   2.851 -0.3731 -0.7832 -2.1657
  945TIP3    H2 2800   0.154   1.425   2.777  3.1286  1.8448 -0.3232
  946TIP3   OH2 2801   6.898   1.806   5.391 -0.0140  0.2236  0.4994
  946TIP3    H1 2802   6.834   1.841   5.330  0.8570  1.3793  0.2206
  946TIP3    H2 2803   6.877   1.849   5.474 -3.0241 -3.4109  1.9152
  947TIP3   OH2 2804   6.441   0.575   2.307  0.1965  0.4451  0.4864
  947TIP3    H1 2805   6.520   0.569   2.359 -0.3910  0.6501  1.4297
  947TIP3    H2 2806   6.380   0.514   2.349 -0.5083  1.1075  0.4519
  948TIP3   OH2 2807   6.054   1.707   0.140  0.4491  0.1357 -0.1407
  948TIP3    H1 2808   5.972   1.754   0.128  0.8202  0.8554  0.1158
  948TIP3    H2 2809   6.057   1.687   0.233  1.2723  1.4592  0.1407
  949TIP3   OH2 2810   0.120   3.873   4.650 -0.4951 -0.2174  0.0032
  949TIP3    H1 2811   0.179   3.803   4.678 -1.3977 -1.5672 -1.3269
  949TIP3    H2 2812   0.175   3.932   4.598 -0.1224 -1.0418 -0.5621
  950TIP3   OH2 2813   0.614   3.101   2.635 -0.1183  0.2017 -0.8072
  950TIP3    H1 2814   0.604   3.179   2.689  0.8794  0.2751 -0.7027
  950TIP3    H2 2815   0.599   3.028   2.694  1.3169  0.2719 -0.3140
  951TIP3   OH2 2816   1.237   2.035   3.557 -0.0322  0.3899 -0.4091
  951TIP3    H1 2817   1.291   2.111   3.578  1.5796 -0.8536  0.2040
  951TIP3    H2 2818   1.180   2.024   3.633  0.8650  0.0554  0.2366
  952TIP3   OH2 2819   5.335   5.554   4.486 -0.4982  0.0865  0.0191
  952TIP3    H1 2820   5.377   5.525   4.405 -1.0949  0.6869 -0.5175
  952TIP3    H2 2821   5.260   5.495   4.496 -0.8071  0.4421 -0.2215
  953TIP3   OH2 2822   6.708   1.296   3.062  0.0901  0.2971 -0.0612
  953TIP3    H1 2823   6.686   1.277   3.153  1.1134  1.0284  0.3596
  953TIP3    H2 2824   6.774   1.366   3.067 -0.9409  1.4411 -1.4024
  954TIP3   OH2 2825   3.473   1.787   1.338 -0.0926  0.0417 -0.4542
  954TIP3    H1 2826   3.430   1.868   1.310  0.0980 -0.1265 -1.2750
  954TIP3    H2 2827   3.550   1.815   1.386  0.9298  0.3870 -2.2120
  955TIP3   OH2 2828   6.412   1.343   5.726  0.3960 -0.5185 -0.2049
  955TIP3    H1 2829   6.425   1.305   5.813  1.4570 -0.4491 -0.3174
  955TIP3    H2 2830   6.466   1.422   5.727 -0.1423 -0.1394 -0.6888
  956TIP3   OH2 2831   3.584   4.274   4.494  0.2132 -0.4693 -0.3079
  956TIP3    H1 2832   3.523   4.302   4.562  1.0268  0.5741  0.0185
  956TIP3    H2 2833   3.528   4.253   4.419 -0.5645  0.3355  0.0241
  957TIP3   OH2 2834   3.042   2.729   1.857  0.2422  0.4781 -0.3493
  957TIP3    H1 2835   3.107   2.765   1.916 -1.3197  1.1511  1.0349
  957TIP3    H2 2836   2.958   2.744   1.901 -0.7454 -1.9492 -1.2098
  958TIP3   OH2 2837   1.516   6.282   3.183 -0.7943  0.0836 -0.2264
  958TIP3    H1 2838   1.545   6.231   3.107 -0.1479 -1.4318  0.9927
  958TIP3    H2 2839   1.446   6.338   3.149  0.3090  0.3461 -2.1946
  959TIP3   OH2 2840   2.823   5.606   5.710  0.1241  0.3550  0.6975
  959TIP3    H1 2841   2.854   5.686   5.668  0.6753  0.2395  0.8804
  959TIP3    H2 2842   2.744   5.583   5.661  0.2387  0.7372  0.3269
  960TIP3   OH2 2843   1.150   3.718   4.973  0.9431 -1.0353 -0.0281
  960TIP3    H1 2844   1.193   3.798   4.943 -0.6491  0.8017  2.2227
  960TIP3    H2 2845   1.086   3.699   4.905  0.9259 -0.0212 -0.3125
  961TIP3   OH2 2846   6.637   2.376   4.740 -0.2670 -0.1751 -0.5351
  961TIP3    H1 2847   6.599   2.290   4.760  1.2526 -0.6853  0.3471
  961TIP3    H2 2848   6.585   2.438   4.790 -1.3545 -0.5749 -1.1411
  962TIP3   OH2 2849   4.920   5.795   1.657 -0.0032  0.5598  0.1372
  962TIP3    H1 2850   4.971   5.869   1.625 -0.3258  0.9008  0.4068
  962TIP3    H2 2851   4.948   5.722   1.602 -1.8320  1.4818 -2.1728
  963TIP3   OH2 2852   2.027   0.404   3.186  0.0946  0.1816  0.2523
  963TIP3    H1 2853   2.047   0.447   3.103  2.0660 -1.1331 -0.0254
  963TIP3    H2 2854   2.011   0.476   3.247  0.7033  1.2258 -0.7765
  964TIP3   OH2 2855   4.598   5.440   3.376 -0.1912 -0.4523 -0.3820
  964TIP3    H1 2856   4.534   5.462   3.308 -0.2449  0.6601 -0.0077
  964TIP3    H2 2857   4.548   5.446   3.458  0.3686  0.3968 -0.0875
  965TIP3   OH2 2858   3.969   6.221   2.349  0.0979  0.6147 -0.8326
  965TIP3    H1 2859   4.024   6.155   2.308  1.0551  0.8335  0.0596
  965TIP3    H2 2860   3.989   6.214   2.443 -2.8728 -0.6814 -0.1894
  966TIP3   OH2 2861   0.643   2.526   3.680  0.2027  0.3950 -0.1242
  966TIP3    H1 2862   0.682   2.465   3.743  0.2583  0.7406  0.1782
  966TIP3    H2 2863   0.677   2.612   3.706  1.9197  0.3210 -1.8832
  967TIP3   OH2 2864   3.118   0.641   3.547  0.2231  0.7251  0.2096
  967TIP3    H1 2865   3.185   0.582   3.580 -1.6222 -1.5761  0.1255
  967TIP3    H2 2866   3.114   0.713   3.611 -0.0944 -1.2443  2.5417
  968TIP3   OH2 2867   3.644   2.902   1.725  0.5788  0.0589  0.2915
  968TIP3    H1 2868   3.574   2.867   1.671  1.3403 -0.5329 -0.3282
  968TIP3    H2 2869   3.610   2.986   1.756  0.6207  1.1100 -2.2501
  969TIP3   OH2 2870   3.761   2.432   3.942 -0.6756 -0.2476  0.3072
  969TIP3    H1 2871   3.711   2.381   3.878 -1.5242 -0.1629  0.8863
  969TIP3    H2 2872   3.769   2.375   4.018 -1.0460  0.2239  0.7085
  970TIP3   OH2 2873   0.109   2.424   5.788  0.0455 -0.4604  0.1258
  970TIP3    H1 2874   0.159   2.387   5.716  2.2541  2.3306  0.0624
  970TIP3    H2 2875   0.171   2.429   5.861 -1.0085  0.3680  1.0073
  971TIP3   OH2 2876   5.350   6.146   3.058  0.1901  0.2581 -0.0946
  971TIP3    H1 2877   5.276   6.156   3.117 -0.9217  1.2545 -1.5948
  971TIP3    H2 2878   5.409   6.218   3.081  0.3290 -0.0613  0.5701
  972TIP3   OH2 2879   1.056   0.448   5.573 -0.4211 -0.0656 -0.1049
  972TIP3    H1 2880   1.010   0.414   5.497  0.6712 -1.8465 -0.0246
  972TIP3    H2 2881   1.123   0.383   5.592  0.4204  1.1515  1.3777
  973TIP3   OH2 2882   4.909   3.570   0.907  0.4690 -0.1081  0.0028
  973TIP3    H1 2883   4.949   3.622   0.976 -0.2073  2.0666 -1.1466
  973TIP3    H2 2884   4.815   3.589   0.914  0.3079 -0.4500 -1.0127
  974TIP3   OH2 2885   3.112   0.982   5.719  0.3409 -0.0430 -0.5056
  974TIP3    H1 2886   3.150   1.060   5.678  2.2844 -1.8807 -2.4579
  974TIP3    H2 2887   3.145   0.984   5.809 -0.9685  2.1593 -0.0109
  975TIP3   OH2 2888   3.689   5.195   0.883 -0.0835  0.1307  0.4232
  975TIP3    H1 2889   3.746   5.251   0.935 -1.6091  1.7194  0.4602
  975TIP3    H2 2890   3.744   5.120   0.859  1.2897  0.4083  2.4652
  976TIP3   OH2 2891   4.322   6.124   3.588 -0.5347 -0.3061  0.1096
  976TIP3    H1 2892   4.356   6.206   3.624 -0.8070  0.1305 -0.6177
  976TIP3    H2 2893   4.254   6.151   3.526 -1.7106 -1.1346  0.9942
  977TIP3   OH2 2894   0.446   2.814   4.485  0.3399  0.0850  0.3306
  977TIP3    H1 2895   0.350   2.821   4.489  0.4009  1.5191 -0.1648
  977TIP3    H2 2896   0.472   2.787   4.573 -0.6123 -2.1144  0.0125
  978TIP3   OH2 2897   0.275   6.749   2.694 -0.0649  0.6256 -0.3222
  978TIP3    H1 2898   0.315   6.797   2.766  0.5267 -0.5255  0.1461
  978TIP3    H2 2899   0.181   6.759   2.706 -0.1310 -1.7452  2.2474
  979TIP3   OH2 2900   5.853   2.289   2.360  0.0749 -0.1032  0.2757
  979TIP3    H1 2901   5.868   2.373   2.318  0.2899 -0.5812 -0.6398
  979TIP3    H2 2902   5.760   2.270   2.342 -0.0812  0.1236  0.8324
  980TIP3   OH2 2903   7.041   0.161   3.307 -0.2469 -0.2419 -0.1967
  980TIP3    H1 2904   7.073   0.151   3.397 -1.9206  0.7677  0.5472
  980TIP3    H2 2905   6.948   0.181   3.316 -0.2770  0.7096 -2.1198
  981TIP3   OH2 2906   6.388   1.520   1.199  1.1539  0.0155  0.8033
  981TIP3    H1 2907   6.406   1.535   1.106 -0.8842 -0.1276  0.3367
  981TIP3    H2 2908   6.370   1.426   1.204  1.7547 -0.0664  1.4422
  982TIP3   OH2 2909   1.724   4.004   2.504  0.4214 -0.3252 -0.0144
  982TIP3    H1 2910   1.630   4.001   2.488  0.3321 -2.0014  0.5470
  982TIP3    H2 2911   1.739   4.088   2.547 -1.0966 -0.7167  1.3709
  983TIP3   OH2 2912   4.787   0.140   2.482  0.0197 -0.2973 -0.0314
  983TIP3    H1 2913   4.862   0.168   2.535  0.4931 -0.5482 -0.5532
  983TIP3    H2 2914   4.729   0.216   2.481  0.7358  0.2653 -0.4350
  984TIP3   OH2 2915   4.797   4.019   3.310 -0.3315  0.6687  0.5803
  984TIP3    H1 2916   4.877   4.069   3.328 -0.9377  1.7402  0.3797
  984TIP3    H2 2917   4.766   4.052   3.226 -0.6474 -0.2056  0.3380
  985TIP3   OH2 2918   4.188   6.240   4.059  0.5030 -0.1255  0.1666
  985TIP3    H1 2919   4.228   6.311   4.007 -0.8391 -0.1488 -0.9294
  985TIP3    H2 2920   4.203   6.161   4.008  0.2514 -0.3395  0.4210
  986TIP3   OH2 2921   5.128   3.487   2.990  0.6579  0.2705 -0.6857
  986TIP3    H1 2922   5.082   3.563   3.025  0.6978  1.3519 -2.8284
  986TIP3    H2 2923   5.210   3.523   2.956  2.0567 -1.2462  0.8789
  987TIP3   OH2 2924   6.637   5.549   5.542 -0.0083 -0.0505  0.3813
  987TIP3    H1 2925   6.550   5.557   5.504 -0.0812  1.7770  0.8441
  987TIP3    H2 2926   6.643   5.620   5.606  2.4553  1.1048 -0.9626
  988TIP3   OH2 2927   1.041   5.991   3.074  0.0994  0.2634 -0.1952
  988TIP3    H1 2928   1.043   5.946   3.158 -1.9122  1.0532  0.3186
  988TIP3    H2 2929   1.070   6.080   3.093  1.1146  0.0533 -0.6558
  989TIP3   OH2 2930   2.222   5.085   1.863  0.0399 -0.0973 -0.3822
  989TIP3    H1 2931   2.304   5.110   1.820 -0.0415 -0.3984 -0.7174
  989TIP3    H2 2932   2.241   5.092   1.956  0.4025 -0.0132 -0.4595
  990TIP3   OH2 2933   4.142   3.288   3.863 -0.1345 -0.5307  0.2590
  990TIP3    H1 2934   4.183   3.205   3.839 -2.5553 -1.5125 -0.8150
  990TIP3    H2 2935   4.064   3.263   3.913 -0.6488  1.1189  0.3643
  991TIP3   OH2 2936   2.962   4.651   5.050 -0.3953  0.4676 -0.0586
  991TIP3    H1 2937   2.891   4.715   5.056  0.2342  1.4323 -1.8828
  991TIP3    H2 2938   2.938   4.597   4.974  0.3953  0.2456 -0.1554
  992TIP3   OH2 2939   3.767   3.700   4.126 -0.5578  0.1948 -0.1017
  992TIP3    H1 2940   3.821   3.673   4.052 -0.8990  1.9385 -1.0449
  992TIP3    H2 2941   3.710   3.625   4.142 -1.2912  0.1663 -2.4112
  993TIP3   OH2 2942   3.724   3.574   5.426  0.0174 -0.3300  0.0090
  993TIP3    H1 2943   3.767   3.489   5.438  1.2021  0.4095  1.3431
  993TIP3    H2 2944   3.665   3.582   5.500  0.0861  0.1243  0.0140
  994TIP3   OH2 2945   0.195   5.364   0.592 -1.1330  0.5489  0.2657
  994TIP3    H1 2946   0.236   5.325   0.670 -2.0931 -0.8122  0.1320
  994TIP3    H2 2947   0.250   5.335   0.519 -1.6206 -0.2667  0.2077
  995TIP3   OH2 2948   5.473   2.674   4.835  0.3835 -0.1156 -0.2520
  995TIP3    H1 2949   5.447   2.731   4.908 -0.2654 -0.8420  0.1002
  995TIP3    H2 2950   5.423   2.593   4.850  1.2448 -0.7481 -0.7771
  996TIP3   OH2 2951   2.319   3.193   3.646  0.2823 -0.6864 -0.5549
  996TIP3    H1 2952   2.295   3.286   3.656  3.2047  0.1442 -0.4101
  996TIP3    H2 2953   2.246   3.146   3.686 -0.5140  1.6151  0.9448
  997TIP3   OH2 2954   0.304   1.754   1.439  0.1040 -0.0107  0.2925
  997TIP3    H1 2955   0.334   1.782   1.352  2.9693 -1.4433  0.7083
  997TIP3    H2 2956   0.225   1.703   1.422  0.9371 -0.7619 -1.5707
  998TIP3   OH2 2957   3.446   3.314   4.231  0.0311 -0.1518  0.1572
  998TIP3    H1 2958   3.362   3.335   4.189  0.2688 -0.6936 -0.6156
  998TIP3    H2 2959   3.425   3.247   4.296  0.1793 -2.1585 -1.7293
  999TIP3   OH2 2960   5.676   3.770   3.053  0.4532 -0.1398 -0.9707
  999TIP3    H1 2961   5.704   3.808   3.136  0.6651  1.8962 -1.9305
  999TIP3    H2 2962   5.581   3.775   3.055  0.3664 -1.5717 -0.2169
 1000TIP3   OH2 2963   2.530   2.136   4.144 -0.4628 -0.0293 -0.0633
 1000TIP3    H1 2964   2.533   2.169   4.233  0.5233  0.2538 -0.1888
 1000TIP3    H2 2965   2.441   2.104   4.133 -0.7718  0.5003  0.8163
 1001TIP3   OH2 2966   5.703   0.999   4.681  0.7666  0.4336  0.4488
 1001TIP3    H1 2967   5.697   0.911   4.717 -1.2416 -0.0152 -0.7687
 1001TIP3    H2 2968   5.727   1.054   4.755  2.2187 -1.1158  1.2106
 1002TIP3   OH2 2969   0.244   2.913   2.330  0.4042  0.3562  0.6047
 1002TIP3    H1 2970   0.272   3.001   2.305 -0.6941  0.1141 -1.8374
 1002TIP3    H2 2971   0.153   2.908   2.303  0.8556 -1.9846 -0.8368
 1003TIP3   OH2 2972   1.115   4.225   0.904  0.0824  0.1663 -0.5525
 1003TIP3    H1 2973   1.210   4.232   0.908 -0.0272  2.1535 -0.6382
 1003TIP3    H2 2974   1.096   4.141   0.947  1.7599  0.4208  0.8158
 1004TIP3   OH2 2975   5.216   4.474   3.338 -0.3152 -0.1789  0.0688
 1004TIP3    H1 2976   5.223   4.407   3.406  0.4653 -0.0008  0.1725
 1004TIP3    H2 2977   5.303   4.477   3.298 -0.5746  0.1954 -0.4862
 1005TIP3   OH2 2978   0.542   6.740   2.420  0.1998 -0.0057  0.0176
 1005TIP3    H1 2979   0.509   6.811   2.364  3.1852 -0.0334 -2.0264
 1005TIP3    H2 2980   0.596   6.784   2.485  0.4155 -0.2784  0.0241
 1006TIP3   OH2 2981   3.508   3.001  -0.030  0.6737 -0.2083 -0.0796
 1006TIP3    H1 2982   3.440   3.058   0.006  0.3786  0.3480 -1.4632
 1006TIP3    H2 2983   3.508   2.924   0.027 -0.0388  0.4609  0.8480
 1007TIP3   OH2 2984   3.416   5.673   3.065 -0.3535 -0.2157 -0.3123
 1007TIP3    H1 2985   3.336   5.628   3.036 -0.1792 -0.4521 -0.4331
 1007TIP3    H2 2986   3.485   5.608   3.053  0.0895  0.4549 -1.5836
 1008TIP3   OH2 2987   3.443   2.860   5.220 -0.1975  0.6418  0.3541
 1008TIP3    H1 2988   3.399   2.926   5.166  0.5644  0.3004 -0.7143
 1008TIP3    H2 2989   3.404   2.871   5.306 -1.6317  1.0412 -0.3083
 1009TIP3   OH2 2990   4.710   5.578   4.206 -0.2590 -0.0740 -0.5072
 1009TIP3    H1 2991   4.676   5.582   4.295 -1.5192 -0.2221 -0.9725
 1009TIP3    H2 2992   4.643   5.620   4.152  0.3506 -0.2579 -1.4316
 1010TIP3   OH2 2993   6.905   6.696   2.133  0.2125  0.1708  0.0567
 1010TIP3    H1 2994   6.987   6.699   2.083  0.2587  0.7173  0.1551
 1010TIP3    H2 2995   6.862   6.779   2.112 -0.2532 -0.0544  0.1139
 1011TIP3   OH2 2996   4.847   1.981   0.072  0.0671 -0.1570 -0.3805
 1011TIP3    H1 2997   4.872   1.918   0.139  0.5671  0.6290  0.1885
 1011TIP3    H2 2998   4.930   2.018   0.041 -0.2268  0.4165 -0.5121
 1012TIP3   OH2 2999   6.661   5.650   1.261 -0.2834  0.1301  0.2739
 1012TIP3    H1 3000   6.732   5.600   1.303 -1.9124 -2.4232  0.1858
 1012TIP3    H2 3001   6.624   5.703   1.332 -0.6585 -1.3850  1.2576
 1013TIP3   OH2 3002   7.207   2.672   4.135  0.0312 -0.2756  0.0461
 1013TIP3    H1 3003   7.261   2.602   4.171  0.5843 -0.0003 -0.2392
 1013TIP3    H2 3004   7.117   2.639   4.143  0.3378 -1.4874 -1.0831
 1014TIP3   OH2 3005   1.613   3.513   0.119  0.1439  0.0838 -0.2152
 1014TIP3    H1 3006   1.683   3.464   0.077  1.2080  1.0331  0.4060
 1014TIP3    H2 3007   1.639   3.604   0.112 -0.1753  0.3480  1.4959
 1015TIP3   OH2 3008   0.559   3.267   0.895  0.3048  0.3759 -0.1074
 1015TIP3    H1 3009   0.654   3.273   0.900  0.3838  1.5650 -1.9076
 1015TIP3    H2 3010   0.540   3.273   0.801 -1.4352 -2.0099 -0.0094
 1016TIP3   OH2 3011   6.722   6.568   1.438 -0.5743 -0.5379 -0.3422
 1016TIP3    H1 3012   6.691   6.553   1.348 -0.6033 -0.5085 -0.3372
 1016TIP3    H2 3013   6.647   6.608   1.482 -0.4081 -0.1350 -0.4254
 1017TIP3   OH2 3014   3.526   2.408   3.367  0.6035  0.1979  0.1757
 1017TIP3    H1 3015   3.546   2.322   3.331  1.6457  0.8321 -0.8204
 1017TIP3    H2 3016   3.430   2.414   3.363  0.5921 -0.4109 -0.9572
 1018TIP3   OH2 3017   5.175   5.922   1.193 -0.3948 -0.2714  0.4481
 1018TIP3    H1 3018   5.240   5.948   1.128 -0.3592 -1.1065  0.1337
 1018TIP3    H2 3019   5.105   5.986   1.183  0.9802  1.5550  1.8131
 1019TIP3   OH2 3020   1.486   1.136   1.510 -0.0457 -0.5661 -0.2443
 1019TIP3    H1 3021   1.438   1.056   1.530  0.6448 -0.9248  0.0191
 1019TIP3    H2 3022   1.576   1.106   1.493 -0.2892 -0.1698 -2.6808
 1020TIP3   OH2 3023   4.458   1.703   2.469 -0.1244 -0.5127  0.3625
 1020TIP3    H1 3024   4.540   1.691   2.517  1.3419  0.1170 -1.8218
 1020TIP3    H2 3025   4.409   1.622   2.483  1.2451 -1.2520  1.0673
 1021TIP3   OH2 3026   0.622   4.308   1.039 -0.0243 -0.3080  0.4487
 1021TIP3    H1 3027   0.697   4.360   1.011  0.1686 -0.2624  1.0245
 1021TIP3    H2 3028   0.571   4.368   1.093  0.5032 -0.8654  1.6089
 1022TIP3   OH2 3029   4.382   5.442   4.340 -0.3430  0.3584 -0.0664
 1022TIP3    H1 3030   4.350   5.358   4.307  1.0353 -0.2680  0.1087
 1022TIP3    H2 3031   4.310   5.475   4.395 -1.7311  0.3159 -1.7673
 1023TIP3   OH2 3032   5.377   5.442   2.233 -0.2997  0.6455  0.0356
 1023TIP3    H1 3033   5.312   5.430   2.163 -0.6422  2.8578 -0.0873
 1023TIP3    H2 3034   5.391   5.536   2.237  1.3271  0.3884  1.5330
 1024TIP3   OH2 3035   0.024   2.983   0.753  0.0376  0.8084 -0.4090
 1024TIP3    H1 3036   0.108   3.027   0.767  0.1856  0.8145 -1.2497
 1024TIP3    H2 3037  -0.007   3.016   0.669 -0.2458 -0.0513 -0.6600
 1025TIP3   OH2 3038   6.547   5.255   4.442 -0.2333  0.3914  0.0783
 1025TIP3    H1 3039   6.550   5.257   4.347 -0.8318 -0.3026  0.0354
 1025TIP3    H2 3040   6.519   5.343   4.467  1.0499  0.9321 -0.3239
 1026TIP3   OH2 3041   4.213   2.729   5.516  0.3796  0.5890 -0.1036
 1026TIP3    H1 3042   4.211   2.816   5.556  0.0963  0.5058  0.0709
 1026TIP3    H2 3043   4.265   2.676   5.576 -1.9228 -0.1264  1.4266
 1027TIP3   OH2 3044   0.725   0.213   3.226  0.1309  0.5402  0.4789
 1027TIP3    H1 3045   0.743   0.296   3.180 -2.7557  0.9654 -0.0361
 1027TIP3    H2 3046   0.732   0.147   3.157 -0.3150  0.7124  0.2607
 1028TIP3   OH2 3047   6.196   0.517   0.328  0.1861  0.0151 -0.6615
 1028TIP3    H1 3048   6.216   0.555   0.242 -1.6903  0.4851 -0.9163
 1028TIP3    H2 3049   6.194   0.422   0.311 -0.0857  0.0981 -1.1226
 1029TIP3   OH2 3050   2.782   4.809   0.295  0.4798  0.1040  0.3772
 1029TIP3    H1 3051   2.796   4.749   0.368  3.1856 -0.0326 -0.1186
 1029TIP3    H2 3052   2.808   4.895   0.329  2.4489 -0.0736 -0.5257
 1030TIP3   OH2 3053   5.256   0.170   1.931 -0.2599  0.1216  0.0507
 1030TIP3    H1 3054   5.224   0.190   1.843  0.0209 -0.3046 -0.1482
 1030TIP3    H2 3055   5.256   0.074   1.935 -0.0907  0.1379  0.4506
 1031TIP3   OH2 3056   4.647   6.488   2.347  0.3287  0.1224 -0.0530
 1031TIP3    H1 3057   4.641   6.570   2.299 -2.3789  0.1261  0.1144
 1031TIP3    H2 3058   4.687   6.426   2.286  0.4659  1.0486 -0.9184
 1032TIP3   OH2 3059   6.812   2.281   5.445 -0.1057  0.1404  0.1288
 1032TIP3    H1 3060   6.747   2.216   5.420  0.1930  0.2567 -0.9826
 1032TIP3    H2 3061   6.884   2.269   5.383 -0.0450  1.5310 -0.0937
 1033TIP3   OH2 3062   0.519   4.591   4.478 -0.0025  0.1440 -0.6930
 1033TIP3    H1 3063   0.479   4.577   4.392  0.6893  1.7892 -1.3299
 1033TIP3    H2 3064   0.452   4.639   4.527  0.3702  1.0591 -1.0528
 1034TIP3   OH2 3065   6.639   5.724   2.423  0.2842  0.3337  0.3546
 1034TIP3    H1 3066   6.545   5.711   2.437  0.3500 -1.0824 -0.2560
 1034TIP3    H2 3067   6.646   5.746   2.330  0.6617 -1.4505 -0.0857
 1035TIP3   OH2 3068   1.079   3.468   0.537  0.4837  0.4612 -0.5918
 1035TIP3    H1 3069   1.108   3.424   0.617  1.9290  3.2634  0.5548
 1035TIP3    H2 3070   1.088   3.402   0.469  2.8083 -0.9528  0.9511
 1036TIP3   OH2 3071   0.561   3.301   2.435  0.6501 -0.3896  0.1610
 1036TIP3    H1 3072   0.595   3.228   2.485 -0.2116 -1.5468 -0.8777
 1036TIP3    H2 3073   0.567   3.273   2.344 -0.6291  0.4098 -0.2046
 1037TIP3   OH2 3074   6.055   2.607   3.529  0.0882  0.7062  0.0057
 1037TIP3    H1 3075   6.092   2.682   3.481 -0.9031  0.8696 -0.5309
 1037TIP3    H2 3076   6.027   2.547   3.460  0.7789 -0.1189  0.4326
 1038TIP3   OH2 3077   6.891   5.855   5.544  0.0202  0.3810 -0.5886
 1038TIP3    H1 3078   6.967   5.894   5.587  1.5026 -3.3039  0.4943
 1038TIP3    H2 3079   6.926   5.814   5.465 -1.4307  0.9959 -1.5983
 1039TIP3   OH2 3080   6.641   5.803   0.036  0.5622 -0.3960 -0.0505
 1039TIP3    H1 3081   6.698   5.728   0.019 -1.2944 -1.9066  0.0117
 1039TIP3    H2 3082   6.620   5.837  -0.051  1.0026 -0.2542 -0.1060
 1040TIP3   OH2 3083   5.189   1.362   4.808 -0.2199  0.1037  0.2345
 1040TIP3    H1 3084   5.250   1.320   4.747  1.3436 -1.6225  2.7642
 1040TIP3    H2 3085   5.245   1.419   4.861 -0.7985 -1.0791  2.2426
 1041TIP3   OH2 3086   4.194   6.381   3.622  0.2635 -0.2410  0.1852
 1041TIP3    H1 3087   4.226   6.379   3.532  1.5463  0.2743  0.6186
 1041TIP3    H2 3088   4.264   6.422   3.672 -1.4538  1.8406  1.0236
 1042TIP3   OH2 3089   2.616   2.086   1.500 -0.5606 -0.3317  0.1475
 1042TIP3    H1 3090   2.561   2.013   1.473 -1.0685 -0.2058  0.8314
 1042TIP3    H2 3091   2.664   2.111   1.420 -0.8779 -0.9716 -0.2449
 1043TIP3   OH2 3092   1.504   1.479   2.703 -0.0626  0.0266  0.2733
 1043TIP3    H1 3093   1.498   1.566   2.665 -0.6146 -0.0285  0.2229
 1043TIP3    H2 3094   1.429   1.473   2.762 -0.5304 -0.7137 -0.3680
 1044TIP3   OH2 3095   5.816   3.252   5.031  0.0788  0.5275  0.1703
 1044TIP3    H1 3096   5.868   3.189   5.082  1.5479  0.7396 -0.9788
 1044TIP3    H2 3097   5.873   3.275   4.957 -1.5887  0.9601 -1.0413
 1045TIP3   OH2 3098   7.157   2.362   3.622  0.5453  0.4960 -0.3072
 1045TIP3    H1 3099   7.121   2.387   3.537  0.1689  1.4127  0.1031
 1045TIP3    H2 3100   7.248   2.340   3.603  0.6057  1.1712 -0.8871
 1046TIP3   OH2 3101   1.802   4.788   4.837 -0.2516 -0.0047 -0.0355
 1046TIP3    H1 3102   1.836   4.770   4.749 -0.0421  1.9130 -0.3977
 1046TIP3    H2 3103   1.707   4.788   4.826 -0.2214  0.5337 -0.3526
 1047TIP3   OH2 3104   3.264   4.561   5.380  0.0605  0.7696  0.0026
 1047TIP3    H1 3105   3.358   4.552   5.364 -0.1600 -0.0429 -0.8785
 1047TIP3    H2 3106   3.257   4.568   5.476  1.0962  2.0152  0.0196
 1048TIP3   OH2 3107   1.427   1.453   0.863 -0.0503  0.1351 -0.3676
 1048TIP3    H1 3108   1.513   1.411   0.857  0.1019  0.3844  0.0271
 1048TIP3    H2 3109   1.411   1.460   0.957 -0.5842 -0.0719 -0.4375
 1049TIP3   OH2 3110   5.302   2.100   2.133  0.7621  0.4608 -0.0655
 1049TIP3    H1 3111   5.351   2.055   2.201 -0.0937  0.6779  0.7205
 1049TIP3    H2 3112   5.242   2.033   2.099  1.6709  0.1532 -1.1268
 1050TIP3   OH2 3113   6.466   5.091   5.338 -0.4606  0.5805  0.4963
 1050TIP3    H1 3114   6.426   5.070   5.254  1.3418 -0.6864 -0.1081
 1050TIP3    H2 3115   6.558   5.066   5.328  0.0564  1.4909  2.4651
 1051TIP3   OH2 3116   1.833   2.016   2.923  0.1825  0.2924 -0.0654
 1051TIP3    H1 3117   1.821   2.073   2.999  0.9538  1.1302 -0.5509
 1051TIP3    H2 3118   1.922   1.981   2.933 -0.3606 -1.0092  0.3377
 1052TIP3   OH2 3119   5.678   4.746   2.570 -0.2503  0.0763 -0.1281
 1052TIP3    H1 3120   5.718   4.825   2.534  0.7788  0.1413  1.0738
 1052TIP3    H2 3121   5.686   4.756   2.665 -3.1086  0.0450  0.1803
 1053TIP3   OH2 3122   5.413   2.665   4.260 -0.1115  0.2285 -0.1368
 1053TIP3    H1 3123   5.339   2.647   4.201 -0.7372  0.2330  0.6360
 1053TIP3    H2 3124   5.483   2.693   4.201 -1.1672  1.6752 -0.7837
 1054TIP3   OH2 3125   4.800   0.830   0.262  0.2295  0.2901  0.1664
 1054TIP3    H1 3126   4.758   0.847   0.346  0.3445  0.0807  0.2669
 1054TIP3    H2 3127   4.729   0.836   0.198  0.4438  2.2554  0.0540
 1055TIP3   OH2 3128   5.462   0.697   5.198 -0.0935 -0.7253  0.0171
 1055TIP3    H1 3129   5.527   0.710   5.267 -0.8130 -0.6120  0.6885
 1055TIP3    H2 3130   5.509   0.718   5.117  0.9159 -1.3643  0.4121
 1056TIP3   OH2 3131   3.372   1.732   4.034  0.5026  0.6527  0.3610
 1056TIP3    H1 3132   3.463   1.708   4.018  0.1728  0.4679 -1.3857
 1056TIP3    H2 3133   3.343   1.674   4.105  0.9865 -1.1160 -0.8451
 1057TIP3   OH2 3134   6.842   2.303   0.610  0.4643 -0.1232  0.1958
 1057TIP3    H1 3135   6.781   2.335   0.543  0.9983 -1.6297 -1.0811
 1057TIP3    H2 3136   6.794   2.311   0.692 -0.8025  0.3223 -0.5554
 1058TIP3   OH2 3137   2.945   0.072   5.599  0.6869  0.5329  0.2250
 1058TIP3    H1 3138   2.927   0.079   5.505  2.0692 -1.7173 -0.2682
 1058TIP3    H2 3139   2.959   0.163   5.627  2.2109  1.1257 -2.1690
 1059TIP3   OH2 3140   2.422   3.816   4.237 -0.4013  0.4134 -0.4772
 1059TIP3    H1 3141   2.422   3.912   4.234  0.9729  0.5973  2.0502
 1059TIP3    H2 3142   2.337   3.794   4.274  0.2371  0.9094  1.4378
 1060TIP3   OH2 3143   0.599   5.531   2.365 -0.2006  0.3062  0.0421
 1060TIP3    H1 3144   0.517   5.549   2.411  0.0360 -1.3044  1.1509
 1060TIP3    H2 3145   0.580   5.455   2.310  1.0393 -1.4584  1.9025
 1061TIP3   OH2 3146   4.855   6.738   3.627 -0.0787 -0.3508 -0.0279
 1061TIP3    H1 3147   4.927   6.796   3.652  0.4918 -0.9258 -0.3020
 1061TIP3    H2 3148   4.787   6.796   3.593  0.8301  0.0960 -1.1277
 1062TIP3   OH2 3149   5.240   5.615   0.042 -0.4995  0.0849 -0.4854
 1062TIP3    H1 3150   5.144   5.619   0.037 -0.6458 -0.8103  0.9516
 1062TIP3    H2 3151   5.263   5.671   0.116  0.1929  1.0695 -1.4193
 1063TIP3   OH2 3152   7.016   5.068   4.116 -0.3455 -0.6334 -0.0985
 1063TIP3    H1 3153   6.939   5.017   4.090  0.3516 -0.9679 -1.6135
 1063TIP3    H2 3154   7.083   5.003   4.135 -0.5710 -0.3597  1.8055
 1064TIP3   OH2 3155   6.168   2.836   4.168 -0.0818 -0.4782  0.2787
 1064TIP3    H1 3156   6.260   2.832   4.193 -0.6460  0.0207  2.7470
 1064TIP3    H2 3157   6.150   2.753   4.125  1.5038 -0.5761 -0.2422
 1065TIP3   OH2 3158   2.346   5.185   4.493 -0.1606  0.7159  0.0422
 1065TIP3    H1 3159   2.258   5.150   4.482  0.5776 -0.6175 -2.5713
 1065TIP3    H2 3160   2.397   5.110   4.525  0.0739  1.4361  1.4007
 1066TIP3   OH2 3161   1.993   3.148   3.544  0.8460  0.3436  0.3723
 1066TIP3    H1 3162   2.021   3.075   3.598  0.5978 -0.5466 -0.6793
 1066TIP3    H2 3163   1.900   3.158   3.564  0.8417  0.2633  0.3928
 1067TIP3   OH2 3164   5.162   2.697   5.749 -0.1825 -0.0706 -0.2701
 1067TIP3    H1 3165   5.210   2.679   5.668 -0.1342  0.1810 -0.2991
 1067TIP3    H2 3166   5.130   2.786   5.738  0.8947  0.4321  0.5234
 1068TIP3   OH2 3167   2.316   6.727   3.571 -0.2242 -0.2736 -0.2236
 1068TIP3    H1 3168   2.354   6.655   3.621  0.3736 -0.4454 -0.9204
 1068TIP3    H2 3169   2.257   6.771   3.634 -0.6316 -1.3812  0.1942
 1069TIP3   OH2 3170   7.188   0.268   3.668 -0.0249  0.4527 -0.1900
 1069TIP3    H1 3171   7.134   0.193   3.645 -0.7724  0.9249 -0.0415
 1069TIP3    H2 3172   7.145   0.343   3.626 -0.0900  0.9854  0.7843
 1070TIP3   OH2 3173   5.664   0.131   2.718  0.2417  0.8667  0.2255
 1070TIP3    H1 3174   5.734   0.069   2.739  0.0977 -0.3330 -2.4015
 1070TIP3    H2 3175   5.590   0.105   2.772  0.4832 -0.7060 -0.1643
 1071TIP3   OH2 3176   4.091   2.004   5.538  0.4259  0.2658  0.1814
 1071TIP3    H1 3177   4.145   1.948   5.594 -0.1417  0.6749  1.1638
 1071TIP3    H2 3178   4.021   2.034   5.596  0.3566  1.4613 -0.5070
 1072TIP3   OH2 3179   3.186   3.220   1.739  0.4907  0.4213 -0.2487
 1072TIP3    H1 3180   3.264   3.205   1.686  1.3197  0.3282  0.9527
 1072TIP3    H2 3181   3.114   3.214   1.677  1.5456  3.9737 -2.1690
 1073TIP3   OH2 3182   0.006   0.784   5.741 -0.0035  0.0034  0.1371
 1073TIP3    H1 3183   0.093   0.818   5.718  0.3199 -0.2543  0.9574
 1073TIP3    H2 3184   0.024   0.709   5.797 -0.7598  1.0954  1.9176
 1074TIP3   OH2 3185   2.780   4.651   5.754 -0.3221 -0.0655 -0.2835
 1074TIP3    H1 3186   2.817   4.683   5.672 -1.3629 -2.0236 -1.5999
 1074TIP3    H2 3187   2.851   4.601   5.794 -0.2873 -0.4031 -0.7639
 1075TIP3   OH2 3188   6.210   5.141   5.426 -0.3217  0.3131 -0.1216
 1075TIP3    H1 3189   6.170   5.188   5.352  0.5847  0.3207 -0.6268
 1075TIP3    H2 3190   6.298   5.121   5.396  0.1037  0.4155  1.0215
 1076TIP3   OH2 3191   5.319   0.486   5.563  0.3229 -0.2732 -0.5516
 1076TIP3    H1 3192   5.319   0.393   5.539  0.3462 -0.5878  0.6110
 1076TIP3    H2 3193   5.242   0.496   5.620 -0.0885  0.5828 -1.2363
 1077TIP3   OH2 3194   6.476   1.111   1.817  0.5166 -0.3077 -0.0920
 1077TIP3    H1 3195   6.539   1.062   1.764 -0.3321 -1.8800  0.2839
 1077TIP3    H2 3196   6.463   1.057   1.895  1.5157  1.8090  1.6601
 1078TIP3   OH2 3197   3.600   4.328   5.134  0.2370 -0.5611  0.3229
 1078TIP3    H1 3198   3.536   4.272   5.089 -1.1879  1.9197 -0.9796
 1078TIP3    H2 3199   3.573   4.327   5.225 -0.6565 -0.8479  0.0642
 1079TIP3   OH2 3200   1.701   2.525   4.343  0.7044  0.4617  0.2149
 1079TIP3    H1 3201   1.759   2.457   4.377  0.3152  0.4319  0.8483
 1079TIP3    H2 3202   1.747   2.561   4.267  1.1959 -0.0811  0.2503
 1080TIP3   OH2 3203   6.388   1.603   4.959 -0.9230 -0.4953 -0.0352
 1080TIP3    H1 3204   6.395   1.665   4.886 -2.7299 -0.7685 -0.4874
 1080TIP3    H2 3205   6.335   1.531   4.924 -1.4350 -0.8512  1.3976
 1081TIP3   OH2 3206   4.709   5.588   2.426  0.4805  0.5254 -0.5525
 1081TIP3    H1 3207   4.789   5.542   2.400 -0.8847 -0.7302 -2.8990
 1081TIP3    H2 3208   4.699   5.657   2.361 -0.2912  0.7421 -0.2207
 1082TIP3   OH2 3209   0.093   3.478   4.395  0.1205  0.6278 -0.0547
 1082TIP3    H1 3210   0.172   3.448   4.350 -1.3660 -1.5871 -1.3685
 1082TIP3    H2 3211   0.042   3.523   4.327 -0.7378  0.0297  0.1727
 1083TIP3   OH2 3212   2.321   3.602   5.645 -0.1341 -0.5587 -0.9227
 1083TIP3    H1 3213   2.416   3.600   5.655  0.0202  3.1472 -0.4396
 1083TIP3    H2 3214   2.306   3.648   5.562 -1.4736  0.6984 -0.0325
 1084TIP3   OH2 3215   1.699   2.227   4.192  0.1552  0.0427  0.7634
 1084TIP3    H1 3216   1.763   2.250   4.261 -0.6877  0.6319  1.3715
 1084TIP3    H2 3217   1.614   2.244   4.232 -0.4364 -1.5926  0.2704
 1085TIP3   OH2 3218   1.430   1.761   2.474  0.8291 -0.0593  0.3388
 1085TIP3    H1 3219   1.446   1.697   2.405  0.6054 -0.8478  0.9956
 1085TIP3    H2 3220   1.484   1.836   2.450 -0.6504  0.4589 -1.6830
 1086TIP3   OH2 3221   6.444   2.383   1.329  0.1302 -0.0921  0.2516
 1086TIP3    H1 3222   6.442   2.440   1.405 -1.4650  0.7426 -0.3794
 1086TIP3    H2 3223   6.352   2.371   1.304  0.3706 -2.9706  0.3584
 1087TIP3   OH2 3224   6.572   2.108   3.982  0.1096 -0.4137  0.2850
 1087TIP3    H1 3225   6.538   2.081   4.068  0.9340 -0.0963  0.7244
 1087TIP3    H2 3226   6.497   2.149   3.939 -0.3061 -0.5316  0.8716
 1088TIP3   OH2 3227   2.005   2.607   5.186  0.4784  0.1986  0.3692
 1088TIP3    H1 3228   1.992   2.692   5.229 -0.1047 -0.6265  1.9218
 1088TIP3    H2 3229   2.047   2.628   5.103  3.1352  1.8075  1.9849
 1089TIP3   OH2 3230   1.136   1.809   2.877 -0.4136 -0.5437 -0.2796
 1089TIP3    H1 3231   1.197   1.855   2.819 -0.9369  0.9721  0.3067
 1089TIP3    H2 3232   1.050   1.828   2.839 -0.8012  0.8120  1.1497
 1090TIP3   OH2 3233   0.205   4.589   5.281 -0.8566 -0.1908  0.4009
 1090TIP3    H1 3234   0.187   4.561   5.192  0.2713  0.5047 -0.0671
 1090TIP3    H2 3235   0.252   4.515   5.321  2.6412  1.0342 -1.0097
 1091TIP3   OH2 3236   0.537   5.136   4.363 -0.2916 -0.4406 -0.8435
 1091TIP3    H1 3237   0.504   5.211   4.413 -0.4018  0.0379 -1.6127
 1091TIP3    H2 3238   0.515   5.157   4.272 -1.5376 -2.0283 -0.9571
 1092TIP3   OH2 3239   1.275   1.750   0.784  0.1035  0.0773 -0.1954
 1092TIP3    H1 3240   1.319   1.723   0.865  1.0501 -1.5486 -1.2076
 1092TIP3    H2 3241   1.340   1.805   0.739 -1.1300  2.6628  0.9788
 1093TIP3   OH2 3242   3.660   4.282   1.251 -0.1578 -0.0582 -0.2351
 1093TIP3    H1 3243   3.574   4.274   1.209 -0.8040  1.3493  0.7452
 1093TIP3    H2 3244   3.661   4.213   1.317 -0.5992 -0.0083 -0.1686
 1094TIP3   OH2 3245   0.566   5.081   3.726  0.3009 -0.2736 -0.3797
 1094TIP3    H1 3246   0.480   5.066   3.766  0.2259 -1.3402 -0.9053
 1094TIP3    H2 3247   0.627   5.076   3.799  0.2258 -2.7408 -0.3899
 1095TIP3   OH2 3248   4.248   0.756   3.713 -0.2933  0.2364 -0.0714
 1095TIP3    H1 3249   4.313   0.755   3.643  0.9109 -0.8320  1.0109
 1095TIP3    H2 3250   4.269   0.835   3.764  0.1171 -0.0603  0.2264
 1096TIP3   OH2 3251   6.622   2.505   0.162  0.2644  0.2016 -0.0494
 1096TIP3    H1 3252   6.692   2.535   0.104  1.8520  1.0157  2.1236
 1096TIP3    H2 3253   6.666   2.487   0.245 -1.8747 -0.9605  0.9190
 1097TIP3   OH2 3254   2.579   0.070   3.392  0.7839 -0.7447  0.0218
 1097TIP3    H1 3255   2.597   0.164   3.393 -0.0721 -0.5780  0.6741
 1097TIP3    H2 3256   2.665   0.029   3.402  1.3416 -0.0798 -1.6983
 1098TIP3   OH2 3257   2.204   4.865   3.431 -0.2466 -0.2169  0.6349
 1098TIP3    H1 3258   2.194   4.959   3.448 -0.9649 -0.1231 -0.2311
 1098TIP3    H2 3259   2.172   4.853   3.342  0.9704 -1.0963  0.2871
 1099TIP3   OH2 3260   7.151   5.601   4.995  0.2798  0.4582  0.7585
 1099TIP3    H1 3261   7.132   5.578   5.086  1.1159 -0.1850  0.7848
 1099TIP3    H2 3262   7.200   5.526   4.961  0.1523  0.7799 -0.1632
 1100TIP3   OH2 3263   4.204   6.688   3.196  0.3583 -0.2819 -0.0107
 1100TIP3    H1 3264   4.180   6.756   3.133 -0.0458  0.8437  1.3107
 1100TIP3    H2 3265   4.237   6.737   3.271  0.5549 -1.5894  0.7698
 1101TIP3   OH2 3266   4.850   2.336   4.721 -0.0914 -0.0361  0.0395
 1101TIP3    H1 3267   4.779   2.399   4.730  0.2893  0.3131  0.6356
 1101TIP3    H2 3268   4.894   2.336   4.806  1.6016  0.9262 -0.7846
 1102TIP3   OH2 3269   0.201   3.421   0.328 -0.1191  0.5108 -0.0241
 1102TIP3    H1 3270   0.284   3.440   0.373 -0.6888 -1.2045  1.9167
 1102TIP3    H2 3271   0.136   3.416   0.399 -1.4549 -0.4355 -1.2506
 1103TIP3   OH2 3272   3.206   3.861   5.223  0.0048 -0.3515 -0.4295
 1103TIP3    H1 3273   3.288   3.865   5.272 -1.9056 -0.6884  3.1468
 1103TIP3    H2 3274   3.183   3.952   5.206  1.4061 -0.2728 -2.1573
 1104TIP3   OH2 3275   6.034   2.094   2.461 -0.6510 -0.5458 -0.0025
 1104TIP3    H1 3276   5.978   2.022   2.489 -3.3022  1.9680  1.8476
 1104TIP3    H2 3277   5.973   2.158   2.423  1.2310  1.5398  0.2375
 1105TIP3   OH2 3278   0.607   3.496   5.814  0.0327  0.5846  0.2587
 1105TIP3    H1 3279   0.568   3.465   5.896 -0.9192 -0.2246 -0.4650
 1105TIP3    H2 3280   0.541   3.554   5.777 -0.5593 -0.8249 -1.0023
 1106TIP3   OH2 3281   1.548   4.202   3.204  0.5901  0.5897  0.1437
 1106TIP3    H1 3282   1.642   4.214   3.218  1.0144  0.0980 -1.9797
 1106TIP3    H2 3283   1.538   4.109   3.183  0.0388  1.0788 -2.0872
 1107TIP3   OH2 3284   1.005   0.833   3.237 -0.1112 -0.4000 -0.0789
 1107TIP3    H1 3285   0.984   0.804   3.148 -2.3956 -1.0799  0.6164
 1107TIP3    H2 3286   0.922   0.862   3.273  0.6742 -0.5971  2.0163
 1108TIP3   OH2 3287   5.778   1.207   0.222 -0.3323  0.2400  0.0158
 1108TIP3    H1 3288   5.715   1.226   0.292  0.3768  0.2028  0.6788
 1108TIP3    H2 3289   5.731   1.228   0.141 -1.1074  0.4500  0.5075
 1109TIP3   OH2 3290   6.560   3.913   5.788  0.1617 -0.6677 -0.4552
 1109TIP3    H1 3291   6.521   3.964   5.859  1.4728 -1.0591  0.5887
 1109TIP3    H2 3292   6.498   3.921   5.715 -0.5297  0.9139  0.2630
 1110TIP3   OH2 3293   1.581   2.742   0.123 -0.2339 -0.2283  0.2731
 1110TIP3    H1 3294   1.526   2.674   0.085 -2.6328  1.4189  0.5171
 1110TIP3    H2 3295   1.568   2.734   0.218 -1.1441  0.9306  0.2841
 1111TIP3   OH2 3296   2.676   2.478   3.112 -0.3393  0.3664  0.1047
 1111TIP3    H1 3297   2.714   2.395   3.140  0.2272  1.0473  1.4095
 1111TIP3    H2 3298   2.594   2.454   3.070  0.2777 -0.9225 -0.4144
 1112TIP3   OH2 3299   0.701   1.760   3.804  0.3643 -0.3112 -0.9252
 1112TIP3    H1 3300   0.693   1.673   3.765 -2.8211 -0.7319  0.3474
 1112TIP3    H2 3301   0.654   1.818   3.744 -1.7064 -0.3976  0.4995
 1113TIP3   OH2 3302   3.862   0.148   4.530 -0.0374  0.3917  0.1473
 1113TIP3    H1 3303   3.821   0.084   4.588  1.0275  0.9461  1.5590
 1113TIP3    H2 3304   3.847   0.232   4.572  0.7007  0.8183 -0.4226
 1114TIP3   OH2 3305   4.122   4.394   0.957  0.3499 -0.6742 -0.0371
 1114TIP3    H1 3306   4.062   4.381   1.030  0.8096  1.8000  0.8470
 1114TIP3    H2 3307   4.199   4.436   0.996  0.1655  1.7383 -2.0479
 1115TIP3   OH2 3308   2.140   4.998   3.168 -0.0061 -0.4961  0.3691
 1115TIP3    H1 3309   2.227   5.021   3.136 -0.0276  0.9465  1.2489
 1115TIP3    H2 3310   2.090   4.977   3.090  1.5229 -2.9770 -0.0699
 1116TIP3   OH2 3311   1.463   0.981   2.617  0.3549  0.2210  0.6258
 1116TIP3    H1 3312   1.373   1.000   2.590  0.0588  0.6137  1.8375
 1116TIP3    H2 3313   1.513   0.986   2.536 -0.5413  1.1140  0.0955
 1117TIP3   OH2 3314   1.566   3.026   3.355 -0.0246 -0.1043  0.0783
 1117TIP3    H1 3315   1.651   3.022   3.311  0.4028  0.2930  0.8363
 1117TIP3    H2 3316   1.580   2.978   3.437 -1.0887 -1.7282 -0.6444
 1118TIP3   OH2 3317   3.048   3.112   3.356  0.2475  0.1147 -0.7142
 1118TIP3    H1 3318   2.954   3.116   3.374  0.1117  1.1935 -1.5441
 1118TIP3    H2 3319   3.069   3.018   3.359 -0.5097 -0.0488  1.0373
 1119TIP3   OH2 3320   1.814   0.131   4.347  0.4484 -0.6158 -0.2620
 1119TIP3    H1 3321   1.728   0.150   4.309  0.9244 -0.3849 -1.2634
 1119TIP3    H2 3322   1.873   0.128   4.272  1.5774  0.6618  0.5199
 1120TIP3   OH2 3323   4.756   3.316   0.468 -0.1234  0.1520 -0.1080
 1120TIP3    H1 3324   4.812   3.290   0.540  0.4154  0.8610 -0.2605
 1120TIP3    H2 3325   4.771   3.410   0.459  1.9865 -0.3455 -2.9666
 1121TIP3   OH2 3326   5.816   1.819   1.054  0.3897  0.0320 -0.5542
 1121TIP3    H1 3327   5.770   1.828   0.971 -0.4049  1.2042 -0.0061
 1121TIP3    H2 3328   5.898   1.866   1.042  0.7439 -0.6783 -0.9958
 1122TIP3   OH2 3329   1.195   3.881   2.221 -0.6060 -0.3802 -0.2622
 1122TIP3    H1 3330   1.145   3.830   2.157 -0.5141 -1.8206  0.7533
 1122TIP3    H2 3331   1.129   3.927   2.272 -0.6472  2.0145 -2.2585
 1123TIP3   OH2 3332   5.055   3.560   5.863  0.3024  0.1499 -0.9757
 1123TIP3    H1 3333   5.020   3.519   5.943 -0.8503 -1.8295 -2.4148
 1123TIP3    H2 3334   5.147   3.535   5.861  0.2710 -0.0223 -0.4308
 1124TIP3   OH2 3335   0.521   0.748   4.837  0.1197 -0.0655  0.7424
 1124TIP3    H1 3336   0.559   0.798   4.909 -1.0287  0.0363  1.2993
 1124TIP3    H2 3337   0.443   0.797   4.812 -0.0320 -0.6267  0.0861
 1125TIP3   OH2 3338   4.154   0.491   3.709  0.2535  0.5096 -0.0771
 1125TIP3    H1 3339   4.180   0.583   3.697  1.6737  0.1979  0.4132
 1125TIP3    H2 3340   4.179   0.471   3.799  1.2915 -0.7684 -0.6188
 1126TIP3   OH2 3341   5.125   2.989   3.656  0.3520 -0.8353 -0.4251
 1126TIP3    H1 3342   5.119   2.997   3.752  2.8776 -0.5217 -0.2339
 1126TIP3    H2 3343   5.043   3.026   3.624  0.1194  0.5510  1.5689
 1127TIP3   OH2 3344   4.383   4.954   0.500 -0.1592  0.0546 -0.4399
 1127TIP3    H1 3345   4.463   4.904   0.519 -0.5322 -0.1338  0.6723
 1127TIP3    H2 3346   4.414   5.029   0.449  0.6605 -0.2859 -0.4637
 1128TIP3   OH2 3347   4.668   6.586   1.674  0.0229 -0.4677 -0.3205
 1128TIP3    H1 3348   4.721   6.664   1.681 -1.2976  0.4094  0.3037
 1128TIP3    H2 3349   4.609   6.603   1.600 -0.1857 -0.9110 -0.2640
 1129TIP3   OH2 3350   0.215   1.605   3.580  0.1614 -0.2587  0.1053
 1129TIP3    H1 3351   0.184   1.567   3.662  1.1811 -0.8384  0.2320
 1129TIP3    H2 3352   0.174   1.692   3.577  1.3610  0.4431  2.0424
 1130TIP3   OH2 3353   2.255   5.759   4.838  0.1983  0.3673  0.4735
 1130TIP3    H1 3354   2.169   5.738   4.875  1.5751 -0.2033  3.6636
 1130TIP3    H2 3355   2.287   5.676   4.801 -0.2039  0.3672  0.1138
 1131TIP3   OH2 3356   5.119   5.913   3.527 -0.7117  0.2851 -0.5251
 1131TIP3    H1 3357   5.194   5.924   3.468 -1.7127  0.2796 -1.8636
 1131TIP3    H2 3358   5.152   5.936   3.613  0.6737  0.8573 -1.1802
 1132TIP3   OH2 3359   6.723   4.782   4.400  0.8740  0.1332 -0.1969
 1132TIP3    H1 3360   6.707   4.749   4.312 -0.6095 -1.9099  0.7523
 1132TIP3    H2 3361   6.637   4.811   4.431  1.0327 -0.6804  1.1049
 1133TIP3   OH2 3362   3.760   1.060   4.200  0.7601 -0.1905  0.0098
 1133TIP3    H1 3363   3.695   1.006   4.156 -0.9553  2.8431 -1.5652
 1133TIP3    H2 3364   3.716   1.092   4.279  1.2732 -0.0463  0.2474
 1134TIP3   OH2 3365   1.138   0.710   3.639  0.5807 -0.0539  0.1640
 1134TIP3    H1 3366   1.180   0.624   3.648  1.0411  0.0056 -1.2474
 1134TIP3    H2 3367   1.053   0.692   3.600  0.8698  0.1637 -0.5785
 1135TIP3   OH2 3368   2.540   6.367   0.077  0.0348  0.4204  0.5540
 1135TIP3    H1 3369   2.498   6.358   0.162  1.3699  0.9075  1.3113
 1135TIP3    H2 3370   2.503   6.448   0.040 -0.1855  0.4792  0.8990
 1136TIP3   OH2 3371   2.325   2.429   5.674  0.6364 -0.5805  0.6720
 1136TIP3    H1 3372   2.371   2.428   5.590  0.3621 -0.0628  0.5154
 1136TIP3    H2 3373   2.393   2.448   5.739  1.0840 -2.1865  0.7234
 1137TIP3   OH2 3374   7.119   5.322   4.144 -0.4708 -0.3725  0.0390
 1137TIP3    H1 3375   7.171   5.305   4.223  1.3830 -1.4878 -1.3127
 1137TIP3    H2 3376   7.098   5.235   4.110 -0.2520  0.0486 -1.2681
 1138TIP3   OH2 3377   5.881   5.603   1.861 -0.1106  0.1526 -0.5568
 1138TIP3    H1 3378   5.961   5.656   1.855  0.5018 -0.4568  1.3691
 1138TIP3    H2 3379   5.905   5.518   1.826  0.0279  0.0337 -0.1761
 1139TIP3   OH2 3380   1.476   2.835   3.941  0.3456 -0.0401  0.1173
 1139TIP3    H1 3381   1.429   2.760   3.976  0.0942 -0.5769 -1.2849
 1139TIP3    H2 3382   1.569   2.815   3.955  0.2332  0.6392  2.1334
 1140TIP3   OH2 3383   5.028   0.125   2.646 -0.2287  0.0869 -1.0141
 1140TIP3    H1 3384   5.121   0.119   2.626 -0.4981  0.7818 -2.6208
 1140TIP3    H2 3385   5.024   0.178   2.726  0.7445  0.0854 -0.9526
 1141TIP3   OH2 3386   6.992   0.562   4.006  0.4073 -0.0242  0.2428
 1141TIP3    H1 3387   7.003   0.642   3.953 -2.9940  1.1264  1.0321
 1141TIP3    H2 3388   6.990   0.593   4.096  0.8592 -1.2911  0.7082
 1142TIP3   OH2 3389   2.001   1.324   0.639 -0.0179  0.3824 -0.6193
 1142TIP3    H1 3390   2.025   1.315   0.547 -0.1727  1.4237 -0.7715
 1142TIP3    H2 3391   2.019   1.416   0.659  0.4005  0.0681  0.5006
 1143TIP3   OH2 3392   5.449   3.257   3.014  0.2760  0.0102 -0.3033
 1143TIP3    H1 3393   5.497   3.339   3.021 -1.1594  0.8139  0.5631
 1143TIP3    H2 3394   5.488   3.213   2.938  2.0439  0.8095  0.1104
 1144TIP3   OH2 3395   3.589   0.692   2.657  0.2504  0.1320  0.1452
 1144TIP3    H1 3396   3.614   0.747   2.583 -1.2731  0.6791 -0.0002
 1144TIP3    H2 3397   3.670   0.646   2.682  0.4609 -1.3704 -2.9081
 1145TIP3   OH2 3398   3.042   1.566   1.814  0.2672  0.3700 -0.1776
 1145TIP3    H1 3399   2.981   1.580   1.742 -0.4156 -0.0231  0.3124
 1145TIP3    H2 3400   2.988   1.531   1.885  0.9680  0.5332  0.4501
 1146TIP3   OH2 3401   5.561   0.844   3.564 -0.1862 -0.0844  0.0270
 1146TIP3    H1 3402   5.500   0.902   3.516  1.8437 -0.1543 -2.9159
 1146TIP3    H2 3403   5.521   0.757   3.558 -2.3323  0.5609  2.8614
 1147TIP3   OH2 3404   2.282   5.069   0.365 -0.0193  0.0326  0.1081
 1147TIP3    H1 3405   2.339   4.993   0.378  1.5379  0.7676 -1.8060
 1147TIP3    H2 3406   2.340   5.144   0.377 -1.0599  0.8822 -0.0174
 1148TIP3   OH2 3407   4.252   0.462   1.196  0.3907 -0.1250  1.2241
 1148TIP3    H1 3408   4.310   0.402   1.242  0.0135 -0.9180  0.6810
 1148TIP3    H2 3409   4.181   0.479   1.258 -0.5419 -1.8362  0.6611
 1149TIP3   OH2 3410   1.797   3.008   3.212 -0.1115 -0.0982  0.1319
 1149TIP3    H1 3411   1.759   2.985   3.128 -0.7938 -0.3012  0.4881
 1149TIP3    H2 3412   1.799   3.103   3.213 -1.5472 -0.0442  0.4944
 1150TIP3   OH2 3413   5.086   2.102   3.483  0.4981  0.2076  0.1641
 1150TIP3    H1 3414   5.047   2.017   3.505  3.5192 -1.1518  0.8196
 1150TIP3    H2 3415   5.069   2.113   3.389  1.1070 -1.7706 -0.2199
 1151TIP3   OH2 3416   4.096   2.815   1.542 -0.2134  0.7362 -0.1508
 1151TIP3    H1 3417   4.003   2.798   1.530  0.2076 -0.7592 -1.8515
 1151TIP3    H2 3418   4.135   2.796   1.456  2.0171 -1.6838  1.2226
 1152TIP3   OH2 3419   3.194   6.692   2.547 -0.1696  0.2137 -0.1229
 1152TIP3    H1 3420   3.115   6.656   2.586  1.5738  0.0463  3.7537
 1152TIP3    H2 3421   3.166   6.774   2.506 -2.0731  1.5463  3.4198
 1153TIP3   OH2 3422   5.378   0.266   2.146 -0.4027 -0.1960 -0.4556
 1153TIP3    H1 3423   5.465   0.278   2.106 -1.1556  1.9507 -1.6411
 1153TIP3    H2 3424   5.325   0.230   2.075 -0.5382 -1.4106  0.2397
 1154TIP3   OH2 3425  -0.009   2.605   2.993  0.2088 -0.0274 -0.0155
 1154TIP3    H1 3426   0.002   2.684   2.940  0.7723 -0.2326 -0.2172
 1154TIP3    H2 3427   0.078   2.591   3.032  0.1450 -0.6118 -0.0781
 1155TIP3   OH2 3428   5.808   0.579   0.809  0.2346 -0.2178  0.2945
 1155TIP3    H1 3429   5.903   0.577   0.801  0.1436 -0.1175 -1.0043
 1155TIP3    H2 3430   5.776   0.567   0.719 -0.9697  0.5405  0.6015
 1156TIP3   OH2 3431   7.099   5.210   0.109  0.2812  0.0243  0.3578
 1156TIP3    H1 3432   7.031   5.185   0.172 -0.0026  0.3640  0.1898
 1156TIP3    H2 3433   7.181   5.184   0.151  0.0424 -0.4956  0.5135
 1157TIP3   OH2 3434   0.415   3.649   5.744  0.0220 -0.3323 -0.1574
 1157TIP3    H1 3435   0.327   3.672   5.774  0.8991  3.0693  0.1291
 1157TIP3    H2 3436   0.423   3.689   5.658  0.4294 -2.9838 -1.4674
 1158TIP3   OH2 3437   5.479   4.700   4.956  0.0885  0.5351 -0.6775
 1158TIP3    H1 3438   5.496   4.608   4.933 -0.0199 -0.6980  3.3024
 1158TIP3    H2 3439   5.564   4.732   4.988 -0.1953  1.3781 -0.7566
 1159TIP3   OH2 3440   6.218   0.276   5.434 -0.4605  0.2126  0.2202
 1159TIP3    H1 3441   6.285   0.313   5.376 -0.6921 -2.9583 -2.3371
 1159TIP3    H2 3442   6.137   0.319   5.406 -0.3807 -0.4028 -1.0079
 1160TIP3   OH2 3443   7.031   4.152   3.705  0.2654 -0.0680 -0.4864
 1160TIP3    H1 3444   6.939   4.160   3.681 -0.1016  0.2276  0.8879
 1160TIP3    H2 3445   7.071   4.103   3.634 -0.8930  0.0477 -1.2452
 1161TIP3   OH2 3446   1.682   5.073   1.492 -0.1847 -0.2917  0.1246
 1161TIP3    H1 3447   1.733   5.101   1.416  1.3943 -2.4696  0.2963
 1161TIP3    H2 3448   1.597   5.050   1.457 -0.8810  2.5332 -0.3175
 1162TIP3   OH2 3449   4.470   6.616   0.113 -0.0496 -0.4199 -0.4601
 1162TIP3    H1 3450   4.543   6.678   0.117  0.9654 -1.6240  0.6637
 1162TIP3    H2 3451   4.493   6.556   0.042 -0.4276 -0.2436 -0.7366
 1163TIP3   OH2 3452   0.914   5.037   2.293  0.5216  0.2002 -0.1177
 1163TIP3    H1 3453   0.843   5.053   2.232 -0.4372  0.2954  0.9748
 1163TIP3    H2 3454   0.927   4.942   2.292 -0.0943  0.1081  0.1661
 1164TIP3   OH2 3455   2.959   1.479   0.439 -0.0629  0.0643 -0.0660
 1164TIP3    H1 3456   2.907   1.512   0.366  0.0459  0.2161 -0.0766
 1164TIP3    H2 3457   2.956   1.384   0.429  0.7766  0.1003 -0.8605
 1165TIP3   OH2 3458   2.748   3.179   4.233  0.8627  0.2669 -0.4210
 1165TIP3    H1 3459   2.735   3.216   4.320  0.0669 -0.2216 -0.3211
 1165TIP3    H2 3460   2.693   3.100   4.232  1.3606 -0.0818 -1.1438
 1166TIP3   OH2 3461   3.112   6.278   3.654 -0.2235  0.0107 -0.2862
 1166TIP3    H1 3462   3.113   6.203   3.594  1.5884 -0.8069  0.7018
 1166TIP3    H2 3463   3.147   6.243   3.736 -1.6815  1.3577  0.9602
 1167TIP3   OH2 3464   1.217   1.773   3.847 -0.6961  0.0759 -0.4600
 1167TIP3    H1 3465   1.213   1.722   3.928  1.4184 -0.9329 -0.9197
 1167TIP3    H2 3466   1.280   1.725   3.792  1.1913  2.9854 -1.0554
 1168TIP3   OH2 3467   5.198   1.123   5.015 -0.1379 -0.3832 -0.3799
 1168TIP3    H1 3468   5.198   1.209   4.973 -1.0666  0.6948  1.6767
 1168TIP3    H2 3469   5.260   1.072   4.964  1.1530  1.7820 -1.1335
 1169TIP3   OH2 3470   4.459   5.752   5.216  0.2523 -0.1434  0.1760
 1169TIP3    H1 3471   4.549   5.769   5.244  0.4795  0.4070 -0.8258
 1169TIP3    H2 3472   4.442   5.662   5.243  1.8922 -1.0219 -1.5089
 1170TIP3   OH2 3473   5.573   1.948   0.726 -0.5761 -0.4077 -0.7449
 1170TIP3    H1 3474   5.660   1.984   0.743 -1.0090  0.5716 -0.5325
 1170TIP3    H2 3475   5.577   1.858   0.759 -0.0742  0.0805  0.5791
 1171TIP3   OH2 3476   6.361   0.944   5.651 -0.0052 -0.3459 -0.3915
 1171TIP3    H1 3477   6.453   0.920   5.659  0.0931  0.3655  1.0141
 1171TIP3    H2 3478   6.324   0.927   5.738 -0.9892  0.2377 -0.6744
 1172TIP3   OH2 3479   0.177   4.085   1.950 -0.1642  0.1935 -0.1762
 1172TIP3    H1 3480   0.108   4.077   2.016  0.0574 -0.4280 -0.0152
 1172TIP3    H2 3481   0.140   4.146   1.885 -0.6374  0.3105  0.1910
 1173TIP3   OH2 3482   3.192   2.991   1.557  0.3914  0.0850  0.2851
 1173TIP3    H1 3483   3.121   2.969   1.496  0.5614 -1.5042  0.6190
 1173TIP3    H2 3484   3.272   2.983   1.505  0.4006  0.9347  0.1564
 1174TIP3   OH2 3485   2.650   2.889   2.568 -0.2444  0.4077  0.0806
 1174TIP3    H1 3486   2.651   2.825   2.497  0.9084  0.3862  0.0925
 1174TIP3    H2 3487   2.616   2.841   2.643  0.5978 -0.2072  0.0864
 1175TIP3   OH2 3488   6.742   4.379   2.269  0.5153 -0.8630 -0.1172
 1175TIP3    H1 3489   6.775   4.356   2.356  0.8619  0.8536  0.2453
 1175TIP3    H2 3490   6.713   4.296   2.232 -0.3846 -1.5345  1.9396
 1176TIP3   OH2 3491   1.504   1.745   4.356  0.6929 -0.4977 -0.9107
 1176TIP3    H1 3492   1.497   1.788   4.441 -4.0904  0.2058 -1.3914
 1176TIP3    H2 3493   1.526   1.655   4.377 -1.9215 -0.7607  1.3978
 1177TIP3   OH2 3494   1.465   4.499   4.245 -0.2392 -0.6304 -0.0869
 1177TIP3    H1 3495   1.529   4.510   4.174  0.5842  0.7795  0.8372
 1177TIP3    H2 3496   1.386   4.469   4.200  0.6220 -1.0104 -1.4378
 1178TIP3   OH2 3497   5.787   5.692   0.261 -0.2877  0.3592 -0.3689
 1178TIP3    H1 3498   5.825   5.642   0.189 -2.4520  0.2694 -1.5471
 1178TIP3    H2 3499   5.799   5.784   0.236  0.9554  0.4074  0.3047
 1179TIP3   OH2 3500   4.446   3.806   5.431  0.1517  0.5175  0.2046
 1179TIP3    H1 3501   4.527   3.857   5.426  0.2010  0.5366  1.0733
 1179TIP3    H2 3502   4.385   3.852   5.373  1.0267 -0.0151 -1.1819
 1180TIP3   OH2 3503  -0.011   2.747   5.104  0.0921  1.0883 -0.8423
 1180TIP3    H1 3504   0.074   2.763   5.146  1.1174 -1.7168 -1.6455
 1180TIP3    H2 3505   0.004   2.671   5.048 -3.2771 -0.3198 -0.0377
 1181TIP3   OH2 3506   1.868   3.664   4.329 -0.5676 -0.1766  0.1680
 1181TIP3    H1 3507   1.913   3.748   4.321  2.3793 -1.5969  0.5277
 1181TIP3    H2 3508   1.868   3.646   4.423 -1.3245 -0.5526  0.1051
 1182TIP3   OH2 3509   6.524   2.627   0.581  0.2110  0.2597 -0.0510
 1182TIP3    H1 3510   6.472   2.562   0.533 -0.2838  1.0710 -0.6332
 1182TIP3    H2 3511   6.513   2.602   0.673 -0.2815 -0.2611 -0.2421
 1183TIP3   OH2 3512   4.016   2.833   4.844 -0.7256 -0.0822 -0.1793
 1183TIP3    H1 3513   3.991   2.865   4.757  0.2194  0.4953 -0.2512
 1183TIP3    H2 3514   3.962   2.755   4.857 -0.8076 -0.2380 -1.3333
 1184TIP3   OH2 3515   0.312   6.577   3.596  0.4805 -0.7318  0.5390
 1184TIP3    H1 3516   0.271   6.587   3.510  1.5934 -1.1526 -0.0550
 1184TIP3    H2 3517   0.353   6.662   3.613 -1.8255  0.2121  1.8170
 1185TIP3   OH2 3518   6.876   3.116   1.747  0.2827 -0.5542  0.3319
 1185TIP3    H1 3519   6.964   3.105   1.711  1.3335 -0.1490  2.6529
 1185TIP3    H2 3520   6.828   3.040   1.714  2.4068 -2.5745  1.5500
 1186TIP3   OH2 3521   5.321   5.088   5.371  0.7411 -0.2556 -0.2521
 1186TIP3    H1 3522   5.340   5.102   5.463 -0.8368  0.3621  0.0028
 1186TIP3    H2 3523   5.324   5.175   5.331 -3.6800  0.3831  0.2912
 1187TIP3   OH2 3524   4.967   5.464   4.281  0.3306  0.6838  0.2561
 1187TIP3    H1 3525   4.880   5.480   4.245  0.2411 -0.2651  0.0227
 1187TIP3    H2 3526   5.022   5.534   4.245 -0.4372  1.5840  0.8051
 1188TIP3   OH2 3527   6.620   5.683   2.800 -0.3531 -0.3146 -0.5888
 1188TIP3    H1 3528   6.656   5.596   2.814  0.1138 -0.2748 -1.4470
 1188TIP3    H2 3529   6.648   5.734   2.876  0.0708 -0.7073 -0.4788
 1189TIP3   OH2 3530   4.672   2.497   4.865 -0.0529  0.0330  0.5978
 1189TIP3    H1 3531   4.649   2.469   4.953  0.5996  0.9699  1.0869
 1189TIP3    H2 3532   4.588   2.505   4.819 -0.7154  2.5331  2.0679
 1190TIP3   OH2 3533   6.838   2.830   4.252 -0.3446 -0.3768 -0.1278
 1190TIP3    H1 3534   6.833   2.753   4.196  2.8525  0.6111 -2.0023
 1190TIP3    H2 3535   6.826   2.904   4.192 -0.9103  0.6598  1.2102
 1191TIP3   OH2 3536   4.684   6.787   0.062 -0.2268 -0.2441 -0.4961
 1191TIP3    H1 3537   4.738   6.762  -0.014 -2.1552  1.3030 -2.5038
 1191TIP3    H2 3538   4.748   6.814   0.128  1.5718  1.1146 -2.6135
 1192TIP3   OH2 3539   2.415   5.739   4.099  0.3427 -0.3682 -0.0026
 1192TIP3    H1 3540   2.379   5.672   4.157  0.6600  0.6832  1.4729
 1192TIP3    H2 3541   2.360   5.816   4.115 -1.4971 -0.8096 -3.3600
 1193TIP3   OH2 3542   5.101   5.888   2.999  0.2704  0.0005  0.5517
 1193TIP3    H1 3543   5.042   5.813   3.007  0.0855 -0.0522 -0.9384
 1193TIP3    H2 3544   5.170   5.872   3.063  0.3484 -1.5601  0.1123
 1194TIP3   OH2 3545   5.217   5.363   1.245  0.1990 -0.4037 -0.0374
 1194TIP3    H1 3546   5.147   5.302   1.220  0.7179 -0.6023 -1.0083
 1194TIP3    H2 3547   5.212   5.433   1.181 -1.4328  1.4718  1.9548
 1195TIP3   OH2 3548   0.837   1.409   0.718  0.3227 -0.2996 -0.1975
 1195TIP3    H1 3549   0.785   1.469   0.771  0.8610 -1.7701  2.1656
 1195TIP3    H2 3550   0.918   1.456   0.699 -0.2607  0.5887 -0.5360
 1196TIP3   OH2 3551   5.074   3.237   1.812 -0.3730  0.5056 -0.4003
 1196TIP3    H1 3552   4.982   3.216   1.832 -0.0032 -0.0488  0.8532
 1196TIP3    H2 3553   5.122   3.203   1.887  0.8440  1.0033 -0.9389
 1197TIP3   OH2 3554   4.802   1.354   4.787  0.5763 -0.2870  0.1623
 1197TIP3    H1 3555   4.862   1.332   4.716  2.9330  0.2874  1.8420
 1197TIP3    H2 3556   4.820   1.288   4.855 -1.8173 -1.0059  0.1833
 1198TIP3   OH2 3557   0.914   0.513   3.561 -0.1659 -0.5294 -0.5508
 1198TIP3    H1 3558   0.858   0.441   3.531 -2.7297  1.7958 -1.8560
 1198TIP3    H2 3559   0.887   0.529   3.651 -0.6956 -0.2700 -0.7490
 1199TIP3   OH2 3560   2.711   3.278   2.813  0.4828  0.5820  0.2515
 1199TIP3    H1 3561   2.699   3.319   2.727  0.6562  0.7424  0.3033
 1199TIP3    H2 3562   2.627   3.235   2.831  1.5974 -2.8275 -1.7646
 1200TIP3   OH2 3563   0.079   3.672   5.270  0.1273 -0.2155  0.3391
 1200TIP3    H1 3564   0.108   3.755   5.231  1.3173 -0.4184  0.7368
 1200TIP3    H2 3565   0.148   3.610   5.248 -1.3024 -1.4103 -0.9300
 1201TIP3   OH2 3566   0.009   1.832   2.163 -0.0905 -0.8057 -0.5977
 1201TIP3    H1 3567  -0.035   1.852   2.081 -1.4660 -1.3696 -0.0426
 1201TIP3    H2 3568   0.082   1.893   2.168 -0.4330 -0.2689 -1.8778
 1202TIP3   OH2 3569   5.171   0.214   2.955 -0.5771  0.1719 -0.4162
 1202TIP3    H1 3570   5.116   0.263   2.894 -1.9052  1.4185  1.6315
 1202TIP3    H2 3571   5.226   0.280   2.997 -0.5261 -0.4523  0.5474
 1203TIP3   OH2 3572   5.968   4.079   3.478  0.1495  0.0044 -0.5909
 1203TIP3    H1 3573   5.917   3.998   3.478  0.1836 -0.0180 -0.3858
 1203TIP3    H2 3574   6.049   4.057   3.432  0.4206 -0.2459 -0.0087
 1204TIP3   OH2 3575   6.659   0.661   2.141  0.5603 -0.7721  0.8862
 1204TIP3    H1 3576   6.637   0.568   2.149 -2.2668 -0.1147  2.0725
 1204TIP3    H2 3577   6.597   0.694   2.076  0.8160  0.4600  1.2550
 1205TIP3   OH2 3578   3.699   5.493   3.625 -0.0163  0.1851 -0.5245
 1205TIP3    H1 3579   3.723   5.437   3.551 -0.1780  0.2472 -0.6259
 1205TIP3    H2 3580   3.624   5.543   3.593 -0.3021 -0.0338 -0.2002
 1206TIP3   OH2 3581   6.508   4.110   2.445  0.0423 -0.1263  0.2741
 1206TIP3    H1 3582   6.575   4.076   2.385  0.4698 -0.5494  0.9764
 1206TIP3    H2 3583   6.528   4.069   2.529 -1.2152 -0.4188  0.4594
 1207TIP3   OH2 3584   2.415   4.643   0.576 -0.7540  0.2467  0.1077
 1207TIP3    H1 3585   2.421   4.554   0.541 -2.1533  0.1251  0.1353
 1207TIP3    H2 3586   2.443   4.635   0.667 -1.7762 -0.3600  0.3823
 1208TIP3   OH2 3587   5.781   1.261   2.077 -0.2135  0.1722  0.2366
 1208TIP3    H1 3588   5.853   1.324   2.080 -2.2300  2.7074 -0.4485
 1208TIP3    H2 3589   5.711   1.307   2.031 -1.9337 -2.5538 -0.1104
 1209TIP3   OH2 3590   4.502   3.047   0.862  0.5685  0.2488 -0.0312
 1209TIP3    H1 3591   4.574   3.039   0.924  0.1837  0.0450  0.3958
 1209TIP3    H2 3592   4.544   3.072   0.780  1.1696 -0.3082  0.0970
 1210TIP3   OH2 3593   2.017   6.390   0.723  0.2211 -0.6521 -0.3473
 1210TIP3    H1 3594   2.033   6.483   0.708  2.3983 -0.8784  0.2051
 1210TIP3    H2 3595   1.944   6.369   0.665 -0.8620  1.5482  0.0864
 1211TIP3   OH2 3596   5.021   5.586   3.394 -0.2712  0.1856  0.2480
 1211TIP3    H1 3597   5.045   5.538   3.315  0.7433  0.2485  0.5011
 1211TIP3    H2 3598   5.013   5.518   3.462  0.3277  0.2751  0.4157
 1212TIP3   OH2 3599   0.533   0.969   5.627 -0.7124 -0.5239 -0.1403
 1212TIP3    H1 3600   0.619   0.928   5.632 -1.0421 -1.2479 -0.3885
 1212TIP3    H2 3601   0.505   0.954   5.537 -0.8636  0.2041 -0.2242
 1213TIP3   OH2 3602   6.591   3.399   1.369 -0.4995 -0.1241  0.6988
 1213TIP3    H1 3603   6.592   3.405   1.464  0.2090 -1.0462  0.7552
 1213TIP3    H2 3604   6.597   3.306   1.350 -2.2133 -0.0998 -0.2441
 1214TIP3   OH2 3605   4.501   1.331   2.247 -0.1651  0.1973  0.4960
 1214TIP3    H1 3606   4.438   1.308   2.315  0.7758  0.0391  1.3465
 1214TIP3    H2 3607   4.450   1.375   2.179 -1.8002 -2.7539 -0.3975
 1215TIP3   OH2 3608   0.871   4.798   4.235  0.0181 -0.3713 -0.1485
 1215TIP3    H1 3609   0.935   4.728   4.224 -0.0422 -0.3141 -0.9623
 1215TIP3    H2 3610   0.804   4.779   4.169 -0.0371  0.4098 -0.3251
 1216TIP3   OH2 3611   0.423   4.369   5.602 -0.4289 -0.5661  0.4056
 1216TIP3    H1 3612   0.423   4.324   5.686  1.2036 -1.0992  0.1731
 1216TIP3    H2 3613   0.484   4.442   5.614 -0.1350 -0.6819 -0.3038
 1217TIP3   OH2 3614   5.473   3.344   5.555  0.1025 -0.2309  0.1096
 1217TIP3    H1 3615   5.383   3.313   5.550  0.0959 -0.5263  1.5045
 1217TIP3    H2 3616   5.524   3.267   5.578  0.7320 -0.0691 -0.6974
 1218TIP3   OH2 3617   1.785   4.992   0.513 -0.2596  0.1762  0.1376
 1218TIP3    H1 3618   1.866   4.953   0.483 -0.6943 -0.9696  0.3987
 1218TIP3    H2 3619   1.756   5.048   0.441  0.4550  0.1364 -0.1837
 1219TIP3   OH2 3620   7.131   4.037   0.406  0.3146 -0.2556 -0.1352
 1219TIP3    H1 3621   7.108   4.122   0.368 -0.6518 -0.6678 -0.5050
 1219TIP3    H2 3622   7.103   3.973   0.340 -0.6875 -0.9510  0.9268
 1220TIP3   OH2 3623   1.133   2.752   3.929 -0.5590 -0.2128 -0.4167
 1220TIP3    H1 3624   1.140   2.810   4.005 -0.7243  0.2182 -0.7252
 1220TIP3    H2 3625   1.060   2.693   3.951 -0.1062 -0.5969  0.0846
 1221TIP3   OH2 3626   1.323   3.211   2.228 -0.4049  0.4098 -0.0510
 1221TIP3    H1 3627   1.335   3.260   2.309 -1.6408 -1.1735  1.1698
 1221TIP3    H2 3628   1.291   3.125   2.256 -1.8818  0.1409 -2.2490
 1222TIP3   OH2 3629   4.609   5.041   4.181 -0.0330  0.3512  0.4958
 1222TIP3    H1 3630   4.608   5.081   4.268 -4.6165  0.4427  0.6520
 1222TIP3    H2 3631   4.616   4.947   4.199 -0.2860  0.4118  0.9309
 1223TIP3   OH2 3632   1.925   5.486   1.181  0.3634  0.1059 -0.5619
 1223TIP3    H1 3633   1.834   5.460   1.197  0.5854 -1.5284 -1.6988
 1223TIP3    H2 3634   1.923   5.527   1.094  0.3253  2.3807  0.4663
 1224TIP3   OH2 3635   4.551   4.036   1.923  0.2264 -0.4804  0.1288
 1224TIP3    H1 3636   4.481   4.001   1.977  0.7781 -0.4183  0.9130
 1224TIP3    H2 3637   4.557   4.129   1.949  0.3512 -0.3979 -0.1930
 1225TIP3   OH2 3638   2.776   6.536   0.445  0.1058 -0.2613 -0.2490
 1225TIP3    H1 3639   2.812   6.592   0.376 -0.1107  0.3183  0.1041
 1225TIP3    H2 3640   2.787   6.447   0.411  2.2660 -0.1619  0.0238
 1226TIP3   OH2 3641   6.025   5.775   4.476 -0.1284  0.3272 -0.5583
 1226TIP3    H1 3642   6.116   5.804   4.467  0.2985 -0.4650  0.8704
 1226TIP3    H2 3643   6.021   5.694   4.426  0.1444  0.0133 -0.0821
 1227TIP3   OH2 3644   6.370   6.448   5.846 -0.0962  0.0806 -0.3130
 1227TIP3    H1 3645   6.427   6.492   5.910  0.5952  1.0653 -1.5607
 1227TIP3    H2 3646   6.297   6.415   5.898  1.5349 -1.1518  1.3466
 1228TIP3   OH2 3647   1.390   0.804   0.310  0.3957 -0.2575  0.3677
 1228TIP3    H1 3648   1.462   0.864   0.332  0.9187 -0.9966  0.6995
 1228TIP3    H2 3649   1.434   0.724   0.282 -0.2694 -0.0070 -1.5202
 1229TIP3   OH2 3650   6.263   6.628   0.137  0.5904  0.2382 -0.3456
 1229TIP3    H1 3651   6.205   6.627   0.060 -0.9656  1.3408  0.7404
 1229TIP3    H2 3652   6.218   6.572   0.200  1.3106  0.1992  0.1314
 1230TIP3   OH2 3653   4.690   2.055   1.738 -0.0657  0.2760  0.0949
 1230TIP3    H1 3654   4.723   1.986   1.796 -0.4598  0.2540  0.2975
 1230TIP3    H2 3655   4.624   2.011   1.684 -2.6312  1.0925  2.3109
 1231TIP3   OH2 3656   2.847   3.349   0.957 -0.5256 -0.1683 -0.0486
 1231TIP3    H1 3657   2.863   3.262   0.994  0.8606  0.2322  0.3623
 1231TIP3    H2 3658   2.795   3.333   0.879  0.0150 -1.4058 -0.1729
 1232TIP3   OH2 3659   4.236   2.781   5.257 -0.1146  0.5773 -0.5583
 1232TIP3    H1 3660   4.269   2.870   5.272  0.8739  0.1641 -0.1938
 1232TIP3    H2 3661   4.212   2.750   5.344 -0.0010  0.3115 -0.6224
 1233TIP3   OH2 3662   5.030   6.298   0.306  0.1452 -0.5478 -0.0747
 1233TIP3    H1 3663   5.023   6.364   0.375  1.3330  0.1126 -0.5594
 1233TIP3    H2 3664   5.047   6.216   0.354 -2.8473 -0.8544  0.6284
 1234TIP3   OH2 3665   3.410   0.726   1.928  0.1891 -0.4699 -0.0667
 1234TIP3    H1 3666   3.404   0.648   1.873  0.6301 -1.4440  1.1936
 1234TIP3    H2 3667   3.503   0.748   1.928  0.1861 -0.4484  0.2275
 1235TIP3   OH2 3668   7.034   0.004   3.898 -0.1490  0.0102  0.0395
 1235TIP3    H1 3669   7.034   0.034   3.989  0.4247 -0.2344  0.1255
 1235TIP3    H2 3670   6.966   0.056   3.855 -1.8343 -1.2505  1.0590
 1236TIP3   OH2 3671   2.953   4.549   0.156  0.3152  0.5848  0.7462
 1236TIP3    H1 3672   3.043   4.518   0.146  0.1889  0.6235 -0.6084
 1236TIP3    H2 3673   2.963   4.638   0.190  0.9347  1.7025 -2.1073
 1237TIP3   OH2 3674   0.675   3.749   1.198  0.5875  0.1131 -0.2169
 1237TIP3    H1 3675   0.619   3.813   1.154 -1.2083 -2.0837 -1.3520
 1237TIP3    H2 3676   0.718   3.702   1.126 -0.8645 -2.2235  0.3363
 1238TIP3   OH2 3677   7.154   5.579   3.496 -0.0370  0.0427 -0.6721
 1238TIP3    H1 3678   7.241   5.614   3.518 -1.8970  3.2522  2.7320
 1238TIP3    H2 3679   7.097   5.613   3.565 -3.7057 -3.6724 -1.4840
 1239TIP3   OH2 3680   2.933   5.037   5.739 -0.5847 -0.2928  0.4835
 1239TIP3    H1 3681   2.891   5.119   5.763 -2.2378 -0.5075 -1.4208
 1239TIP3    H2 3682   3.012   5.063   5.692 -0.8801  0.1984  0.2558
 1240TIP3   OH2 3683   0.689   5.861   3.086  0.2972  0.4404  0.2156
 1240TIP3    H1 3684   0.605   5.904   3.069 -0.0195 -0.2344  0.0597
 1240TIP3    H2 3685   0.754   5.930   3.069 -0.0606  0.2901 -2.2370
 1241TIP3   OH2 3686   2.766   3.345   4.722  0.7293 -0.2530 -0.3452
 1241TIP3    H1 3687   2.794   3.357   4.812  2.8678  0.8009 -1.0758
 1241TIP3    H2 3688   2.774   3.250   4.706 -2.0695 -0.8501  1.2151
 1242TIP3   OH2 3689   5.370   1.509   4.939  0.0049 -0.1411  0.0598
 1242TIP3    H1 3690   5.440   1.504   4.874 -0.3332  0.7436 -0.3897
 1242TIP3    H2 3691   5.394   1.582   4.995  0.1252 -0.6974  0.7357
 1243TIP3   OH2 3692   3.864   1.854   3.913 -0.2623 -0.3439 -0.3644
 1243TIP3    H1 3693   3.907   1.856   3.828 -0.7447 -1.2139 -0.6408
 1243TIP3    H2 3694   3.872   1.943   3.946  0.7714 -0.2306 -0.8924
 1244TIP3   OH2 3695   2.388   0.520   5.654  0.3386 -0.4413 -0.7557
 1244TIP3    H1 3696   2.447   0.451   5.626  1.0494 -0.0162 -0.3298
 1244TIP3    H2 3697   2.317   0.519   5.589  0.1470 -1.7967 -0.5611
 1245TIP3   OH2 3698   6.509   2.122   3.410  0.4668 -0.7508  0.0218
 1245TIP3    H1 3699   6.450   2.062   3.364  0.6389 -1.0711  0.2158
 1245TIP3    H2 3700   6.555   2.169   3.340 -1.2743  0.7774 -0.1644
 1246TIP3   OH2 3701   0.477   1.874   0.231 -0.2068  0.6550  0.2550
 1246TIP3    H1 3702   0.390   1.887   0.194  0.1363 -0.6850 -1.1625
 1246TIP3    H2 3703   0.536   1.914   0.167  0.3595 -0.9762 -0.2837
 1247TIP3   OH2 3704   0.443   1.199   5.777  0.1476  0.4611 -0.2455
 1247TIP3    H1 3705   0.478   1.126   5.727 -1.7904  0.1943 -1.2988
 1247TIP3    H2 3706   0.469   1.182   5.867  3.1875  0.6244 -1.0024
 1248TIP3   OH2 3707   3.685   5.074   2.163  0.1441 -0.3242  0.2298
 1248TIP3    H1 3708   3.605   5.092   2.211  1.4726  2.1090  1.7249
 1248TIP3    H2 3709   3.711   4.986   2.192 -1.5245 -0.8257  0.3101
 1249TIP3   OH2 3710   2.825   4.218   1.525 -0.7931  0.1549  0.2479
 1249TIP3    H1 3711   2.766   4.265   1.583 -0.2573  1.5741 -0.3156
 1249TIP3    H2 3712   2.786   4.225   1.438  0.9204  2.5229 -0.4276
 1250TIP3   OH2 3713   5.571   5.219   3.894  0.5498  0.0554 -0.3687
 1250TIP3    H1 3714   5.492   5.169   3.913  1.2384 -1.3420 -1.0010
 1250TIP3    H2 3715   5.541   5.289   3.836 -0.4162  0.2848  0.3909
 1251TIP3   OH2 3716   3.268   4.999   1.210  0.5340 -0.0518  0.3206
 1251TIP3    H1 3717   3.176   5.009   1.185  0.9238  1.4895 -0.6079
 1251TIP3    H2 3718   3.316   5.000   1.127  1.4721  0.2195  0.8489
 1252TIP3   OH2 3719   3.856   6.605   1.314  0.4280  0.1826  0.8012
 1252TIP3    H1 3720   3.937   6.656   1.322  1.4745 -1.1865 -0.5081
 1252TIP3    H2 3721   3.856   6.548   1.390  2.3558 -1.9583 -0.6642
 1253TIP3   OH2 3722   5.213   2.300   0.279 -1.0400 -0.4134  0.5899
 1253TIP3    H1 3723   5.227   2.380   0.330  0.1410 -0.6025  0.5997
 1253TIP3    H2 3724   5.240   2.229   0.338 -1.2782 -0.7577  0.2879
 1254TIP3   OH2 3725   0.750   5.381   1.250 -0.0931  0.5679 -0.0699
 1254TIP3    H1 3726   0.779   5.316   1.315  0.0820  2.2911  1.6929
 1254TIP3    H2 3727   0.831   5.422   1.221 -0.3104  1.0535  0.0108
 1255TIP3   OH2 3728   0.293   4.514   3.166 -0.4563 -0.0493  0.8800
 1255TIP3    H1 3729   0.282   4.447   3.099  1.3045 -1.3928  1.8490
 1255TIP3    H2 3730   0.369   4.564   3.139 -0.9135  0.6720  0.8941
 1256TIP3   OH2 3731   4.659   1.291   0.284  0.2867  0.3009 -0.5286
 1256TIP3    H1 3732   4.644   1.355   0.353  0.1372 -0.2728 -0.0143
 1256TIP3    H2 3733   4.571   1.267   0.253  0.2108 -1.1070  0.6578
 1257TIP3   OH2 3734   0.755   0.976   3.311 -0.1874  0.5272 -0.2867
 1257TIP3    H1 3735   0.813   1.030   3.364 -1.6125  0.2798  1.5990
 1257TIP3    H2 3736   0.682   0.954   3.368 -0.5873 -1.8544 -1.5539
 1258TIP3   OH2 3737   5.349   3.274   2.539  0.4389 -0.9093 -0.3687
 1258TIP3    H1 3738   5.365   3.212   2.610  0.6258 -2.0789 -1.3853
 1258TIP3    H2 3739   5.272   3.323   2.567  0.7546 -1.0628  0.8162
 1259TIP3   OH2 3740   4.973   0.576   3.819 -0.3528 -0.0825 -0.3230
 1259TIP3    H1 3741   4.913   0.567   3.894  0.6457 -0.0747  0.4910
 1259TIP3    H2 3742   4.915   0.578   3.743 -1.3745 -0.4485  0.4184
 1260TIP3   OH2 3743   3.419   4.113   5.063  0.2102 -0.3218 -0.2238
 1260TIP3    H1 3744   3.377   4.109   4.977 -0.1200 -0.3679 -0.0628
 1260TIP3    H2 3745   3.497   4.058   5.055  0.9122  0.7391 -0.8931
 1261TIP3   OH2 3746   2.534   6.553   5.312  0.2391  0.3242  0.4783
 1261TIP3    H1 3747   2.533   6.489   5.241  0.5058  2.1045 -1.2185
 1261TIP3    H2 3748   2.626   6.573   5.327  0.1165  1.2529  0.0711
 1262TIP3   OH2 3749   3.506   3.573   1.204 -0.1101  0.8424  0.3321
 1262TIP3    H1 3750   3.465   3.617   1.130  0.3547  0.3703 -0.2198
 1262TIP3    H2 3751   3.436   3.520   1.242  0.1305 -0.5466 -1.0691
 1263TIP3   OH2 3752   0.686   1.591   4.005 -0.3640 -0.2771 -0.1278
 1263TIP3    H1 3753   0.678   1.673   3.956 -1.4985 -0.1012  0.3067
 1263TIP3    H2 3754   0.744   1.611   4.078 -0.0796 -0.0585 -0.4125
 1264TIP3   OH2 3755   0.364   3.198   0.321  0.6033 -0.4838 -0.2431
 1264TIP3    H1 3756   0.287   3.245   0.289  0.7245 -0.8500 -1.1138
 1264TIP3    H2 3757   0.390   3.245   0.400 -0.2818 -0.1222 -0.1516
 1265TIP3   OH2 3758   5.241   0.997   2.086  0.6277  0.0140 -0.2954
 1265TIP3    H1 3759   5.187   1.058   2.135 -0.4625 -1.8167  0.8862
 1265TIP3    H2 3760   5.274   1.048   2.012  1.0937  2.4358  1.4672
 1266TIP3   OH2 3761   3.024   4.358   4.540 -0.2515  0.2277  0.6739
 1266TIP3    H1 3762   2.970   4.343   4.462  2.4860 -1.4266 -1.0739
 1266TIP3    H2 3763   3.098   4.409   4.507  0.7973 -0.2138  2.2737
 1267TIP3   OH2 3764   6.392   6.228   1.702  0.4109 -0.0657 -0.0007
 1267TIP3    H1 3765   6.475   6.273   1.689  1.4543 -2.2265 -1.4476
 1267TIP3    H2 3766   6.407   6.174   1.780 -0.1123  0.4830  0.4918
 1268TIP3   OH2 3767   6.832   0.473   2.800 -0.2601 -0.6769 -0.1295
 1268TIP3    H1 3768   6.891   0.495   2.728 -0.9902 -1.3370 -0.9373
 1268TIP3    H2 3769   6.750   0.449   2.758 -1.7962  2.1281  1.0321
 1269TIP3   OH2 3770   1.361   4.578   5.259 -0.2200 -0.2467  0.3548
 1269TIP3    H1 3771   1.331   4.548   5.345  2.3696  0.9104  1.7963
 1269TIP3    H2 3772   1.395   4.500   5.216  1.6784 -0.3392  1.9014
 1270TIP3   OH2 3773   5.023   6.644   1.935  0.6332  0.5392  0.5499
 1270TIP3    H1 3774   4.986   6.717   1.886 -1.6418 -1.3276 -0.7170
 1270TIP3    H2 3775   4.980   6.647   2.020  0.5845  0.7126  0.5183
 1271TIP3   OH2 3776   6.566   1.820   0.782  0.1608  0.2859 -0.5035
 1271TIP3    H1 3777   6.478   1.830   0.744 -0.6057 -0.9559  0.8435
 1271TIP3    H2 3778   6.599   1.738   0.744  0.8454  0.8426 -1.1490
 1272TIP3   OH2 3779   0.194   2.780   3.990  0.0479 -0.2519 -0.0938
 1272TIP3    H1 3780   0.116   2.751   4.038 -0.9931  1.5200 -0.6263
 1272TIP3    H2 3781   0.263   2.781   4.057 -0.9834  0.5867  1.0084
 1273TIP3   OH2 3782   1.456   5.194   1.335 -0.9891  0.3847 -0.4182
 1273TIP3    H1 3783   1.378   5.208   1.282 -1.9528 -1.4113  0.4434
 1273TIP3    H2 3784   1.474   5.279   1.375 -0.6106  1.6312 -3.0062
 1274TIP3   OH2 3785   5.211   2.585   1.456 -0.0375 -0.5691 -0.4126
 1274TIP3    H1 3786   5.271   2.659   1.453 -2.2702  1.3590 -0.6193
 1274TIP3    H2 3787   5.195   2.571   1.550  1.0192 -1.3705 -0.3402
 1275TIP3   OH2 3788   0.422   3.883   4.366  0.1041 -0.6124 -0.8070
 1275TIP3    H1 3789   0.475   3.936   4.306  2.9076 -0.1286  1.8589
 1275TIP3    H2 3790   0.388   3.945   4.430  0.5816 -1.5901  0.4314
 1276TIP3   OH2 3791   2.834   1.219   4.601 -0.0480  0.5071 -0.1203
 1276TIP3    H1 3792   2.909   1.159   4.596 -0.9407 -0.7734  1.0195
 1276TIP3    H2 3793   2.793   1.212   4.514 -0.0266 -0.4048 -0.0730
 1277TIP3   OH2 3794   2.762   3.139   1.930  0.1207  0.4451 -0.6877
 1277TIP3    H1 3795   2.791   3.071   1.869 -0.4108  0.8188 -1.3766
 1277TIP3    H2 3796   2.842   3.165   1.976  0.4285 -0.2542 -0.8010
 1278TIP3   OH2 3797   2.106   3.563   3.388  0.1605  0.1916  0.0504
 1278TIP3    H1 3798   2.075   3.600   3.305 -1.9429 -2.4393 -0.4699
 1278TIP3    H2 3799   2.184   3.513   3.364  0.6826  0.9638  0.0683
 1279TIP3   OH2 3800   5.113   4.851   5.180 -0.0377  0.0716 -0.4860
 1279TIP3    H1 3801   5.056   4.832   5.105 -1.5120  0.6549  0.4349
 1279TIP3    H2 3802   5.053   4.854   5.254  1.4845 -1.3579  0.8810
 1280TIP3   OH2 3803   6.477   6.071   1.336 -0.2965  0.4529 -1.0278
 1280TIP3    H1 3804   6.561   6.040   1.303  0.3583 -0.2088  1.1078
 1280TIP3    H2 3805   6.431   6.104   1.259  2.8901  3.1716 -1.9918
 1281TIP3   OH2 3806   5.656   3.088   3.394  0.3641  0.1577 -0.1621
 1281TIP3    H1 3807   5.573   3.130   3.418  0.3254  0.2342 -0.4234
 1281TIP3    H2 3808   5.715   3.107   3.467 -0.3807 -1.4770  0.9144
 1282TIP3   OH2 3809   1.638   1.671   0.864 -0.4265 -0.2140  0.5966
 1282TIP3    H1 3810   1.645   1.588   0.816 -0.6401  0.0509  0.0973
 1282TIP3    H2 3811   1.701   1.662   0.936 -0.1117 -0.6278  0.2794
 1283TIP3   OH2 3812   1.490   2.880   4.565  0.7575 -0.1756  0.4875
 1283TIP3    H1 3813   1.480   2.870   4.659 -0.7646  0.1413  0.3871
 1283TIP3    H2 3814   1.420   2.826   4.527  0.5895  0.6260 -0.4028
 1284TIP3   OH2 3815   7.101   6.609   5.229  0.0737  0.0425  1.0230
 1284TIP3    H1 3816   7.103   6.670   5.155  1.0079  1.3670  2.0865
 1284TIP3    H2 3817   7.192   6.604   5.258 -0.0978 -1.3622  1.3735
 1285TIP3   OH2 3818   4.343   3.605   1.355 -0.4879  0.0569 -0.5919
 1285TIP3    H1 3819   4.390   3.590   1.437 -2.5312 -2.8305  0.1956
 1285TIP3    H2 3820   4.397   3.670   1.309  2.4135 -0.5310  1.6362
 1286TIP3   OH2 3821   6.128   4.301   2.187  0.1987  0.0758  0.4525
 1286TIP3    H1 3822   6.137   4.211   2.218 -1.0155 -0.0589  0.4962
 1286TIP3    H2 3823   6.187   4.307   2.112  0.0374 -0.8733  0.2360
 1287TIP3   OH2 3824   7.007   5.357   1.031  0.0233 -0.2244  0.8454
 1287TIP3    H1 3825   7.018   5.282   0.972  1.5800  0.1572  0.6274
 1287TIP3    H2 3826   7.043   5.328   1.115 -0.6473 -0.1793  1.1633
 1288TIP3   OH2 3827   4.486   1.186   1.308  0.2400  0.2215  0.1924
 1288TIP3    H1 3828   4.500   1.164   1.400 -1.3949 -2.8492 -0.1752
 1288TIP3    H2 3829   4.525   1.113   1.259 -1.2500  0.4449 -1.4212
 1289TIP3   OH2 3830   5.877   0.971   0.528 -0.2491 -0.1777 -0.2639
 1289TIP3    H1 3831   5.910   1.044   0.475  0.4723 -0.6252 -0.4354
 1289TIP3    H2 3832   5.857   0.902   0.465  1.2599 -0.9602  0.0829
 1290TIP3   OH2 3833   0.054   1.657   1.451  0.0353  0.1799  0.1343
 1290TIP3    H1 3834  -0.013   1.607   1.404 -0.2635 -1.5253  2.1977
 1290TIP3    H2 3835   0.013   1.742   1.467 -0.2084  0.4510 -1.7738
 1291TIP3   OH2 3836   4.193   4.050   3.518  0.3974  0.0112 -0.2186
 1291TIP3    H1 3837   4.247   3.985   3.474  1.4197  0.4324  0.4036
 1291TIP3    H2 3838   4.242   4.132   3.510 -0.3968  0.5082 -0.1085
 1292TIP3   OH2 3839   2.464   1.453   2.413 -0.0228  0.2544  0.3591
 1292TIP3    H1 3840   2.446   1.470   2.320  2.9893  0.8119 -0.2091
 1292TIP3    H2 3841   2.509   1.368   2.413  1.7533  1.1633  1.0468
 1293TIP3   OH2 3842   2.549   4.166   3.462  0.1205 -0.4401 -0.3936
 1293TIP3    H1 3843   2.502   4.113   3.398 -0.2733 -0.9507  0.3137
 1293TIP3    H2 3844   2.639   4.168   3.429 -0.2019 -0.1464 -1.3105
 1294TIP3   OH2 3845   5.341   2.170   4.687 -0.1066  0.3213  0.4269
 1294TIP3    H1 3846   5.291   2.126   4.618 -1.3976 -0.6600  1.8967
 1294TIP3    H2 3847   5.308   2.130   4.768  2.3302  0.4289  1.5449
 1295TIP3   OH2 3848   7.047   6.206   4.855 -0.2587  0.3283  0.0926
 1295TIP3    H1 3849   7.028   6.215   4.762 -1.1903 -0.0047  0.2313
 1295TIP3    H2 3850   7.066   6.113   4.867 -1.0858  0.1798  0.3738
 1296TIP3   OH2 3851   4.096   5.411   2.931 -0.3410 -0.1471  0.1797
 1296TIP3    H1 3852   4.171   5.353   2.949  0.3481  0.4172 -0.7545
 1296TIP3    H2 3853   4.098   5.424   2.836 -0.9480  0.7882  0.2801
 1297TIP3   OH2 3854   2.986   4.907   3.443  0.1757 -0.7920 -0.0568
 1297TIP3    H1 3855   2.929   4.904   3.367  0.3714 -2.3012 -0.1768
 1297TIP3    H2 3856   2.929   4.934   3.515  0.2570  1.9467 -0.9092
 1298TIP3   OH2 3857   4.508   2.120   3.619 -0.2715  0.4266  0.4524
 1298TIP3    H1 3858   4.590   2.156   3.587  0.5423 -1.0859  0.7380
 1298TIP3    H2 3859   4.470   2.190   3.672  0.2239  1.5807 -0.6775
 1299TIP3   OH2 3860   4.227   0.822   4.590  0.0986 -0.4626  0.3676
 1299TIP3    H1 3861   4.221   0.836   4.495 -3.9078 -0.4388  0.4523
 1299TIP3    H2 3862   4.234   0.910   4.627  1.5257 -0.4631  0.1482
 1300TIP3   OH2 3863   0.053   5.826   5.085 -0.3831 -0.4373  0.0417
 1300TIP3    H1 3864   0.051   5.910   5.041 -0.6287 -0.1055  0.6764
 1300TIP3    H2 3865  -0.014   5.774   5.041 -0.1516 -0.3428 -0.4254
 1301TIP3   OH2 3866   4.832   2.988   2.106  0.3040 -0.4432  0.4306
 1301TIP3    H1 3867   4.742   2.955   2.116 -1.0644  2.7585  0.0901
 1301TIP3    H2 3868   4.840   3.006   2.012  0.7377  0.6501  0.6677
 1302TIP3   OH2 3869   3.688   6.173   3.804  0.0494  0.1435 -0.0408
 1302TIP3    H1 3870   3.781   6.156   3.818  0.4042  0.6974 -1.5541
 1302TIP3    H2 3871   3.647   6.152   3.888  1.5280 -0.1245  0.6442
 1303TIP3   OH2 3872   1.096   5.878   4.836  0.2445 -0.1742 -0.5410
 1303TIP3    H1 3873   1.015   5.929   4.839  0.9044  0.8613  0.1877
 1303TIP3    H2 3874   1.130   5.882   4.926 -0.1347 -2.6690 -0.2083
 1304TIP3   OH2 3875   4.663   2.459   4.209  0.0787  0.5033  0.3725
 1304TIP3    H1 3876   4.654   2.554   4.214  0.6542  0.5878 -0.1790
 1304TIP3    H2 3877   4.749   2.442   4.248  0.5379  0.3284 -0.7001
 1305TIP3   OH2 3878   0.404   5.101   2.938  0.0113  0.2450 -0.7070
 1305TIP3    H1 3879   0.349   5.131   2.866 -0.6839 -1.3258 -0.8909
 1305TIP3    H2 3880   0.378   5.009   2.950  2.2115 -0.3957 -0.4248
 1306TIP3   OH2 3881   2.464   2.129   0.120  0.0518 -0.2447  0.0956
 1306TIP3    H1 3882   2.490   2.041   0.092 -0.3666 -0.5629  0.6776
 1306TIP3    H2 3883   2.451   2.177   0.039 -1.5295 -1.2457 -0.2861
 1307TIP3   OH2 3884   3.391   0.907   4.734  0.1715 -0.0699  0.3434
 1307TIP3    H1 3885   3.324   0.839   4.731 -0.5516  0.3939  2.9494
 1307TIP3    H2 3886   3.474   0.860   4.743  0.1680 -0.6267 -1.9937
 1308TIP3   OH2 3887   5.237   3.658   5.424  0.3356  0.4318 -0.2482
 1308TIP3    H1 3888   5.329   3.680   5.406 -0.8260  5.0008 -2.1329
 1308TIP3    H2 3889   5.213   3.714   5.497 -1.0142 -0.6119  0.1418
 1309TIP3   OH2 3890   2.176   1.469   5.630  0.0546  0.4190 -0.2249
 1309TIP3    H1 3891   2.243   1.531   5.659 -0.2333  0.3931  0.5013
 1309TIP3    H2 3892   2.162   1.412   5.705  0.8994 -1.0520 -1.1350
 1310TIP3   OH2 3893   0.951   0.034   3.934 -0.0983 -0.3536  0.5565
 1310TIP3    H1 3894   0.937   0.125   3.907 -0.6700 -0.7302 -0.4811
 1310TIP3    H2 3895   0.911   0.028   4.022 -0.8027  0.1974  0.2827
 1311TIP3   OH2 3896   6.775   2.194   2.767  0.0029  0.1789 -0.3481
 1311TIP3    H1 3897   6.722   2.118   2.792 -0.0578  0.3843  0.1549
 1311TIP3    H2 3898   6.801   2.176   2.677  3.4175 -2.4029  0.9628
 1312TIP3   OH2 3899   5.078   1.414   2.705 -0.0346 -0.1496  0.2044
 1312TIP3    H1 3900   5.061   1.450   2.618  1.2480  0.3204  0.1234
 1312TIP3    H2 3901   5.132   1.481   2.748 -0.3239 -0.5503  1.2195
 1313TIP3   OH2 3902   6.259   4.385   0.358 -0.0176  0.2465 -0.2579
 1313TIP3    H1 3903   6.211   4.443   0.299  0.4585  0.6910 -0.2085
 1313TIP3    H2 3904   6.203   4.377   0.435 -0.6645 -0.3706 -0.7693
 1314TIP3   OH2 3905   3.760   2.790   3.983 -0.1496  0.3591 -0.2773
 1314TIP3    H1 3906   3.729   2.700   3.988  0.3771  0.2206  0.7618
 1314TIP3    H2 3907   3.687   2.838   3.943 -1.2643 -0.1640  1.0405
 1315TIP3   OH2 3908   3.882   6.023   0.486 -0.4005  0.4432  0.3356
 1315TIP3    H1 3909   3.927   6.082   0.427 -1.2615  0.2536 -0.5321
 1315TIP3    H2 3910   3.892   6.063   0.573  1.6716  0.2468  0.2313
 1316TIP3   OH2 3911   3.306   1.633   1.532  0.0902 -0.4575 -0.1058
 1316TIP3    H1 3912   3.379   1.641   1.470 -0.0753 -1.1818 -0.4045
 1316TIP3    H2 3913   3.332   1.687   1.606  1.8448 -2.1935  0.6282
 1317TIP3   OH2 3914   2.903   3.426   0.120  0.0096 -0.3095  0.2829
 1317TIP3    H1 3915   2.903   3.518   0.093 -0.7826  0.0191  1.3656
 1317TIP3    H2 3916   2.812   3.408   0.142  0.2388 -1.2381  0.4852
 1318TIP3   OH2 3917   1.758   2.321   1.633 -0.1514  0.1321  0.3668
 1318TIP3    H1 3918   1.839   2.308   1.585 -0.2274 -0.7920  0.4619
 1318TIP3    H2 3919   1.785   2.330   1.725 -0.0901  0.7254  0.2891
 1319TIP3   OH2 3920   3.929   3.861   1.912  0.1889  0.4807  0.4403
 1319TIP3    H1 3921   3.925   3.827   1.823 -0.8398  0.1056  0.6142
 1319TIP3    H2 3922   3.852   3.825   1.955  2.3983 -2.2299  2.5281
 1320TIP3   OH2 3923   1.843   6.346   5.798  0.0335 -0.5699 -0.0368
 1320TIP3    H1 3924   1.770   6.345   5.737  1.7633  3.4571 -2.5584
 1320TIP3    H2 3925   1.915   6.306   5.749  0.8657  0.6377  0.1498
 1321TIP3   OH2 3926   1.493   3.803   0.666 -0.2726  0.3160 -0.0641
 1321TIP3    H1 3927   1.434   3.865   0.708 -0.3063  0.4997 -0.3743
 1321TIP3    H2 3928   1.455   3.717   0.684 -0.4411  0.4098  0.0354
 1322TIP3   OH2 3929   4.804   4.515   2.555 -0.3940 -0.1796  0.0117
 1322TIP3    H1 3930   4.799   4.578   2.484 -1.2433  0.5436  0.6905
 1322TIP3    H2 3931   4.762   4.559   2.629  0.6703 -0.8147  1.0283
 1323TIP3   OH2 3932   6.126   1.027   3.071 -0.3281 -0.3421 -0.0511
 1323TIP3    H1 3933   6.072   1.077   3.010 -2.0649 -1.3536  0.5764
 1323TIP3    H2 3934   6.106   1.065   3.157  0.4771 -0.3030  0.1210
 1324TIP3   OH2 3935   0.898   2.935   1.838  0.4385 -0.0283 -0.5222
 1324TIP3    H1 3936   0.988   2.903   1.831  0.5998 -0.0196  1.0780
 1324TIP3    H2 3937   0.860   2.885   1.911  0.2327  2.2893  1.0783
 1325TIP3   OH2 3938   2.475   0.922   2.882  0.0795  0.4170 -0.2490
 1325TIP3    H1 3939   2.479   0.857   2.952 -1.1117  0.5880  0.0131
 1325TIP3    H2 3940   2.388   0.961   2.891  0.2936  1.1608 -1.1917
 1326TIP3   OH2 3941   0.676   1.623   2.171  0.3597 -0.1640 -0.4835
 1326TIP3    H1 3942   0.714   1.548   2.218  2.1107  0.7199 -0.4144
 1326TIP3    H2 3943   0.582   1.603   2.168  0.2170 -0.6657  2.7024
 1327TIP3   OH2 3944   3.385   5.043   4.558  0.7388 -0.2047 -0.0431
 1327TIP3    H1 3945   3.426   4.986   4.623  2.2185  0.0078 -0.7557
 1327TIP3    H2 3946   3.458   5.088   4.515 -0.1457 -0.6031 -2.1144
 1328TIP3   OH2 3947   5.308   6.589   5.833  0.3315 -0.5109 -0.6218
 1328TIP3    H1 3948   5.387   6.535   5.840  0.1248 -0.8386 -0.8398
 1328TIP3    H2 3949   5.334   6.673   5.871  0.1009 -1.3088  1.4213
 1329TIP3   OH2 3950   2.096   2.623   0.340  0.3773 -0.1986  0.9534
 1329TIP3    H1 3951   2.156   2.559   0.303 -0.4775 -0.5482  0.1530
 1329TIP3    H2 3952   2.009   2.587   0.325 -0.2622  1.9432 -1.1844
 1330TIP3   OH2 3953   1.299   3.975   0.764 -0.2389 -0.2285 -0.1532
 1330TIP3    H1 3954   1.303   4.013   0.852  0.5259  1.5013 -0.8813
 1330TIP3    H2 3955   1.209   3.942   0.756 -0.5117  0.1714  1.0371
 1331TIP3   OH2 3956   5.538   4.101   4.244  0.0545 -0.1716  0.6838
 1331TIP3    H1 3957   5.444   4.097   4.263 -1.0139  1.2747 -3.2307
 1331TIP3    H2 3958   5.559   4.194   4.249  0.0556  0.1348 -2.6064
 1332TIP3   OH2 3959   4.773   2.660   3.421  0.2179 -0.1327  0.1135
 1332TIP3    H1 3960   4.681   2.688   3.426 -0.8686 -3.1981 -0.2189
 1332TIP3    H2 3961   4.801   2.684   3.333 -0.9018 -0.7879 -0.4428
 1333TIP3   OH2 3962   1.113   6.289   2.211  0.2841 -0.0945 -0.0407
 1333TIP3    H1 3963   1.205   6.313   2.219  0.3195 -0.0854 -0.4258
 1333TIP3    H2 3964   1.096   6.291   2.117 -0.5323  1.4733  0.1078
 1334TIP3   OH2 3965   6.416   4.148   1.190 -0.1487 -0.1195  0.1602
 1334TIP3    H1 3966   6.321   4.157   1.194 -0.0459  0.6529  1.4780
 1334TIP3    H2 3967   6.441   4.188   1.106 -1.0897 -1.7189 -0.9488
 1335TIP3   OH2 3968   2.315   1.765   5.073  0.4836  0.7440 -0.3696
 1335TIP3    H1 3969   2.311   1.727   5.161 -0.1512 -0.9805 -1.0927
 1335TIP3    H2 3970   2.245   1.830   5.071 -0.6317 -0.4227 -0.1128
 1336TIP3   OH2 3971   2.531   4.838   1.536  0.5541  0.2776  0.0767
 1336TIP3    H1 3972   2.535   4.895   1.459  0.6206  2.5432  1.6391
 1336TIP3    H2 3973   2.443   4.800   1.533 -0.6700  2.8558  0.4871
 1337TIP3   OH2 3974   0.235   3.165   3.781  0.3513 -0.7091 -0.0314
 1337TIP3    H1 3975   0.291   3.239   3.803 -0.7756  1.0813 -2.6931
 1337TIP3    H2 3976   0.165   3.167   3.846  1.3690 -0.7221  1.1054
 1338TIP3   OH2 3977   2.714   1.781   2.955 -0.2205  0.3951  0.4291
 1338TIP3    H1 3978   2.718   1.854   3.017 -0.5242  0.5909  0.2161
 1338TIP3    H2 3979   2.682   1.820   2.874  0.7485  0.2521 -0.0268
 1339TIP3   OH2 3980   3.693   3.590   2.154  0.6827 -0.6390  0.3886
 1339TIP3    H1 3981   3.681   3.682   2.177  0.3965 -0.8536  1.1401
 1339TIP3    H2 3982   3.652   3.581   2.068  0.3140 -0.1561  0.5086
 1340TIP3   OH2 3983   5.473   0.522   4.742 -0.4378 -0.2353 -0.3439
 1340TIP3    H1 3984   5.409   0.559   4.803  0.9352 -1.4310  1.9584
 1340TIP3    H2 3985   5.546   0.495   4.797  1.8678  0.5707 -2.7923
 1341TIP3   OH2 3986   5.853   4.568   1.698 -0.4255  0.3270 -0.5207
 1341TIP3    H1 3987   5.781   4.622   1.731  0.2921  1.2666 -0.4371
 1341TIP3    H2 3988   5.812   4.506   1.639 -1.7009 -1.0672  1.7088
 1342TIP3   OH2 3989   5.596   1.450   2.010  0.7370 -0.2027  0.2523
 1342TIP3    H1 3990   5.642   1.534   2.014  0.1988  0.1006  0.1055
 1342TIP3    H2 3991   5.506   1.471   2.033  1.0111 -1.0912  2.4252
 1343TIP3   OH2 3992   1.342   1.191   1.810  0.2828  0.5953  0.3306
 1343TIP3    H1 3993   1.430   1.186   1.848  0.5295  1.8209 -0.0348
 1343TIP3    H2 3994   1.352   1.159   1.721  0.0770 -0.5138  0.6898
 1344TIP3   OH2 3995   0.991   3.022   5.097 -0.0792 -0.2120 -0.1651
 1344TIP3    H1 3996   0.979   2.976   5.014 -0.1205 -1.7094  0.6414
 1344TIP3    H2 3997   1.043   3.099   5.073  0.4226 -0.9150 -1.4900
 1345TIP3   OH2 3998   2.430   5.021   3.372  0.0277  0.1844 -0.8246
 1345TIP3    H1 3999   2.388   4.966   3.305 -2.0257  0.6336 -0.0016
 1345TIP3    H2 4000   2.358   5.075   3.406  0.3177 -1.6827  3.4589
 1346TIP3   OH2 4001   0.091   5.893   4.004  0.3499  0.2598 -0.4629
 1346TIP3    H1 4002   0.013   5.845   4.033  0.5516 -0.7319 -1.5149
 1346TIP3    H2 4003   0.064   5.939   3.925  0.5190  0.8434 -0.1856
 1347TIP3   OH2 4004   1.871   2.306   1.128  0.1475  0.0917 -0.0057
 1347TIP3    H1 4005   1.808   2.333   1.194 -0.1312 -0.9386  0.1767
 1347TIP3    H2 4006   1.852   2.361   1.052 -1.8074 -0.9981 -0.3866
 1348TIP3   OH2 4007   2.749   5.931   1.322  0.6328 -0.3843  0.6591
 1348TIP3    H1 4008   2.746   5.873   1.246  0.4590 -0.5211  0.7675
 1348TIP3    H2 4009   2.836   5.969   1.320  0.6992 -0.5428  0.5057
 1349TIP3   OH2 4010   1.696   5.772   0.359 -0.3991  0.6331 -0.1228
 1349TIP3    H1 4011   1.788   5.750   0.345 -0.2660  0.7506  0.5474
 1349TIP3    H2 4012   1.698   5.860   0.398 -0.7994  0.6967 -0.2438
 1350TIP3   OH2 4013   4.346   3.096   3.822  0.2721 -0.3119  0.1937
 1350TIP3    H1 4014   4.365   3.109   3.915  0.4699 -0.2134  0.1392
 1350TIP3    H2 4015   4.397   3.164   3.777 -0.3864  0.1178  0.0671
 1351TIP3   OH2 4016   5.701   1.208   3.094 -0.2145 -0.4370  0.4236
 1351TIP3    H1 4017   5.719   1.128   3.143 -1.7990 -1.4178 -0.5097
 1351TIP3    H2 4018   5.620   1.190   3.048 -0.1584  1.4189 -0.4913
 1352TIP3   OH2 4019   3.906   3.437   5.729 -0.0415  0.4523 -0.6577
 1352TIP3    H1 4020   3.992   3.399   5.710 -0.3656 -0.9192  0.4573
 1352TIP3    H2 4021   3.920   3.532   5.720  1.5598  0.2519 -0.6415
 1353TIP3   OH2 4022   0.252   1.994   4.180  0.0291  0.0362  0.1353
 1353TIP3    H1 4023   0.317   2.050   4.222  0.7591  0.0550 -0.9630
 1353TIP3    H2 4024   0.226   2.043   4.102  1.0760 -1.3314 -1.1406
 1354TIP3   OH2 4025   6.565   3.754   5.226  0.1157  0.0900  0.2411
 1354TIP3    H1 4026   6.530   3.688   5.286 -0.1681  0.2808  0.2891
 1354TIP3    H2 4027   6.648   3.717   5.195  0.0352 -0.2188  0.3880
 1355TIP3   OH2 4028   0.332   4.854   2.110  0.4037  0.7045  0.5808
 1355TIP3    H1 4029   0.348   4.945   2.084 -3.3838  2.0156  2.1490
 1355TIP3    H2 4030   0.272   4.820   2.043 -0.0232  0.1578  1.2319
 1356TIP3   OH2 4031   5.044   1.693   5.411  0.1000 -0.6414 -0.4808
 1356TIP3    H1 4032   5.029   1.766   5.352 -0.2904  0.7709  1.2898
 1356TIP3    H2 4033   4.973   1.632   5.393 -1.8781  1.1956  0.6055
 1357TIP3   OH2 4034   5.683   2.607   5.114  0.0287  0.0924 -0.1859
 1357TIP3    H1 4035   5.594   2.607   5.150  0.8830  3.0219  2.3207
 1357TIP3    H2 4036   5.694   2.695   5.077  1.9364 -0.1486 -0.3029
 1358TIP3   OH2 4037   1.760   5.060   4.934 -0.7218 -0.3973  0.0542
 1358TIP3    H1 4038   1.692   5.038   4.998 -1.8867 -0.2053 -1.0723
 1358TIP3    H2 4039   1.795   4.975   4.906  0.6873 -0.4605  1.8033
 1359TIP3   OH2 4040   1.963   6.719   0.235 -0.0120  0.1935 -0.1483
 1359TIP3    H1 4041   1.953   6.658   0.162 -1.8713  1.1142 -0.7195
 1359TIP3    H2 4042   2.049   6.757   0.222  1.1454 -2.1227  0.1332
 1360TIP3   OH2 4043   3.676   0.486   1.693  0.6230  0.3468  0.2762
 1360TIP3    H1 4044   3.754   0.532   1.725  0.9592  0.5319 -0.7673
 1360TIP3    H2 4045   3.705   0.395   1.682  1.1623  0.6810 -1.4981
 1361TIP3   OH2 4046   5.457   2.097   2.888  0.4646 -0.0014 -0.4351
 1361TIP3    H1 4047   5.488   2.083   2.799  0.4094  0.5065 -0.5358
 1361TIP3    H2 4048   5.512   2.167   2.922  0.5567 -0.2629 -0.0283
 1362TIP3   OH2 4049   4.551   4.849   4.587 -0.7927 -0.0880  0.4931
 1362TIP3    H1 4050   4.540   4.870   4.679 -1.0632 -1.4951  0.8055
 1362TIP3    H2 4051   4.521   4.759   4.579  0.2890 -0.3773 -0.7534
 1363TIP3   OH2 4052   6.306   2.435   1.726  0.1854 -0.0385 -0.3941
 1363TIP3    H1 4053   6.326   2.454   1.634  1.1487 -0.9321 -0.3826
 1363TIP3    H2 4054   6.239   2.499   1.749 -1.8741 -1.3096 -2.4202
 1364TIP3   OH2 4055   6.005   0.858   0.745 -0.6284 -0.1806 -0.0699
 1364TIP3    H1 4056   6.050   0.798   0.686  0.5057  0.2051  0.3631
 1364TIP3    H2 4057   5.965   0.923   0.687  0.3709  0.1310 -0.4336
 1365TIP3   OH2 4058   0.803   1.100   1.285 -0.0399 -0.3030  0.2620
 1365TIP3    H1 4059   0.794   1.184   1.239  1.2100 -0.4441 -0.2850
 1365TIP3    H2 4060   0.883   1.109   1.336  0.1190 -1.1686  0.1794
 1366TIP3   OH2 4061   0.572   0.800   3.879  0.2222  0.1013  0.1237
 1366TIP3    H1 4062   0.491   0.750   3.889 -0.9180  2.0066  0.8627
 1366TIP3    H2 4063   0.544   0.886   3.847  1.8798  0.9820  0.8937
 1367TIP3   OH2 4064   5.558   0.036   0.791  0.9421 -0.1093 -0.0603
 1367TIP3    H1 4065   5.504   0.106   0.754  0.8774  1.0473  2.0892
 1367TIP3    H2 4066   5.621   0.081   0.847  1.0752 -1.7348  1.1575
 1368TIP3   OH2 4067   0.493   3.313   4.184  0.9015  0.0264 -0.3928
 1368TIP3    H1 4068   0.473   3.244   4.248  2.1601  1.2686  1.4250
 1368TIP3    H2 4069   0.573   3.284   4.140 -0.0414 -0.8959 -1.5904
 1369TIP3   OH2 4070   0.486   4.771   3.858  1.1686  0.2381  0.0511
 1369TIP3    H1 4071   0.419   4.799   3.920  1.5019  3.9003 -1.0084
 1369TIP3    H2 4072   0.438   4.745   3.779  0.9026  1.7487 -0.3066
 1370TIP3   OH2 4073   1.851   2.601   4.136  0.1968 -0.4592  0.0726
 1370TIP3    H1 4074   1.906   2.549   4.077  1.2258  1.2027 -0.5018
 1370TIP3    H2 4075   1.813   2.668   4.079 -1.7694 -1.0443  0.6316
 1371TIP3   OH2 4076   0.865   5.767   0.345  0.1732  0.3156  0.4182
 1371TIP3    H1 4077   0.879   5.768   0.250  1.4752  1.1361  0.5835
 1371TIP3    H2 4078   0.818   5.686   0.362  1.5298 -0.7519 -0.7229
 1372TIP3   OH2 4079   4.700   4.637   2.331  0.2799  0.0336  0.2532
 1372TIP3    H1 4080   4.702   4.708   2.395  0.3259 -0.0712  0.3676
 1372TIP3    H2 4081   4.607   4.623   2.314  0.0904 -1.8683  2.4355
 1373TIP3   OH2 4082   6.813   4.430   4.706 -0.0501 -0.2200  0.7781
 1373TIP3    H1 4083   6.777   4.373   4.638  1.3093  0.4044 -0.5424
 1373TIP3    H2 4084   6.906   4.405   4.711  0.7430  2.2001 -0.2906
 1374TIP3   OH2 4085   4.589   0.686   1.114 -0.3891 -0.4074 -0.1298
 1374TIP3    H1 4086   4.577   0.700   1.208 -2.9230  0.7731 -0.5532
 1374TIP3    H2 4087   4.570   0.771   1.074  0.8742 -0.8242 -1.7340
 1375TIP3   OH2 4088   3.275   2.339   3.825 -0.3956 -0.6091  0.0963
 1375TIP3    H1 4089   3.317   2.394   3.892  0.9728  0.9005 -1.8747
 1375TIP3    H2 4090   3.200   2.390   3.795 -1.3219 -1.5167  0.8084
 1376TIP3   OH2 4091   0.310   6.673   1.983  0.6772 -0.1969  0.0133
 1376TIP3    H1 4092   0.255   6.635   2.051 -2.1432  1.2980 -1.2906
 1376TIP3    H2 4093   0.288   6.624   1.904  0.7869  0.7650 -0.6351
 1377TIP3   OH2 4094   6.706   6.502   0.945 -0.0238 -0.1326 -0.4939
 1377TIP3    H1 4095   6.724   6.594   0.930  1.8616 -0.5426 -0.9514
 1377TIP3    H2 4096   6.780   6.456   0.907 -1.2204 -1.8892 -0.8246
 1378TIP3   OH2 4097   3.998   0.810   5.883 -0.2593  0.0130  0.4952
 1378TIP3    H1 4098   3.977   0.901   5.859  1.1445  0.4610  0.8581
 1378TIP3    H2 4099   3.917   0.762   5.867 -1.2473  1.4449  0.9130
 1379TIP3   OH2 4100   6.120   6.019   2.436  0.0289  0.1399 -0.8766
 1379TIP3    H1 4101   6.098   5.952   2.500 -0.4402  0.3476 -0.8094
 1379TIP3    H2 4102   6.209   5.999   2.409 -0.8244 -1.8723 -2.5175
 1380TIP3   OH2 4103   6.893   6.238   3.364  0.3819 -0.7638 -0.0622
 1380TIP3    H1 4104   6.834   6.192   3.305  1.1128  0.5121 -1.8763
 1380TIP3    H2 4105   6.981   6.216   3.331  0.7697  0.9476 -0.2328
 1381TIP3   OH2 4106   0.310   4.071   1.559  0.1556  0.1425  0.0417
 1381TIP3    H1 4107   0.251   4.090   1.631 -1.0850  2.1503 -1.4124
 1381TIP3    H2 4108   0.255   4.029   1.493  0.7916  0.2105 -0.5477
 1382TIP3   OH2 4109   6.460   3.711   3.440  0.0594 -0.4834 -0.3339
 1382TIP3    H1 4110   6.520   3.740   3.510  1.5377 -0.6240 -1.4786
 1382TIP3    H2 4111   6.514   3.654   3.386 -1.3635 -1.2070 -1.0162
 1383TIP3   OH2 4112   6.748   0.750   2.761 -0.1093 -0.0084  0.3884
 1383TIP3    H1 4113   6.807   0.675   2.763 -0.7839 -0.5627 -0.0049
 1383TIP3    H2 4114   6.664   0.715   2.793 -0.2541  0.7427  0.8609
 1384TIP3   OH2 4115   1.493   2.790   4.844 -1.0469  0.3206  0.9120
 1384TIP3    H1 4116   1.571   2.826   4.887 -0.9455  0.0319  0.9732
 1384TIP3    H2 4117   1.422   2.808   4.905 -1.4642  2.7050 -0.1711
 1385TIP3   OH2 4118   4.984   3.910   3.929  0.3157 -0.2119 -0.1701
 1385TIP3    H1 4119   5.039   3.838   3.958 -0.6390 -0.9325 -0.1058
 1385TIP3    H2 4120   4.895   3.876   3.932  0.0772 -0.2879 -3.5911
 1386TIP3   OH2 4121   6.015   0.531   0.004 -0.2626  0.1622 -0.5787
 1386TIP3    H1 4122   5.984   0.464   0.066 -1.6740  0.6770 -0.6858
 1386TIP3    H2 4123   5.940   0.546  -0.054 -0.1017  2.0943 -0.3417
 1387TIP3   OH2 4124   1.102   4.828   5.643 -0.5192  0.6953  0.1286
 1387TIP3    H1 4125   1.164   4.857   5.711  0.6957 -0.1992 -0.5455
 1387TIP3    H2 4126   1.069   4.909   5.605  0.1182  1.2004  0.6214
 1388TIP3   OH2 4127   0.868   1.242   4.171  0.3852  0.0825  0.7176
 1388TIP3    H1 4128   0.777   1.252   4.141  0.4892 -0.2221  0.2940
 1388TIP3    H2 4129   0.877   1.308   4.239 -0.0126  0.4478  0.4303
 1389TIP3   OH2 4130   5.144   5.535   3.155  0.7550  0.0212 -0.2257
 1389TIP3    H1 4131   5.210   5.560   3.219  0.2467  0.5780  0.0904
 1389TIP3    H2 4132   5.175   5.573   3.073  1.0298 -0.0569 -0.1593
 1390TIP3   OH2 4133   6.187   2.791   3.368 -0.2563 -0.6798 -0.2260
 1390TIP3    H1 4134   6.195   2.794   3.273  0.3570 -0.9411 -0.1857
 1390TIP3    H2 4135   6.198   2.882   3.396  0.3584 -0.7121 -0.3497
 1391TIP3   OH2 4136   1.465   2.116   0.894  0.1178  0.5099 -0.2314
 1391TIP3    H1 4137   1.372   2.093   0.895  0.6304 -2.0421  2.8933
 1391TIP3    H2 4138   1.472   2.189   0.956  0.4594 -1.1205  1.7496
 1392TIP3   OH2 4139   6.903   3.990   5.461  0.0608 -0.6455  0.2507
 1392TIP3    H1 4140   6.873   3.947   5.381 -0.2576 -0.0694  0.0494
 1392TIP3    H2 4141   6.853   4.072   5.464  1.2566  0.1138  0.1807
 1393TIP3   OH2 4142   1.557   0.902   5.491  0.4131 -0.3279 -0.1921
 1393TIP3    H1 4143   1.571   0.879   5.399  0.1912 -0.1706 -0.2657
 1393TIP3    H2 4144   1.550   0.997   5.492  2.1834 -0.1482  0.2242
 1394TIP3   OH2 4145   3.038   1.612   0.677 -0.1656 -0.3247 -0.1946
 1394TIP3    H1 4146   3.008   1.561   0.602  1.7624 -0.0769 -1.1997
 1394TIP3    H2 4147   3.119   1.569   0.705 -0.0777  0.4523  0.8392
 1395TIP3   OH2 4148   0.778   4.125   0.661 -0.0111  0.7219 -0.0988
 1395TIP3    H1 4149   0.792   4.030   0.659 -0.9059  0.5928 -0.8913
 1395TIP3    H2 4150   0.862   4.162   0.635  0.3650  0.1562  0.2765
 1396TIP3   OH2 4151   3.121   6.441   3.912  0.8032 -0.0511 -0.1806
 1396TIP3    H1 4152   3.179   6.440   3.836  1.3413 -0.0872  0.2267
 1396TIP3    H2 4153   3.160   6.505   3.971  0.1664  0.2731 -0.1004
 1397TIP3   OH2 4154   1.067   0.060   5.312 -0.6663  0.0073 -0.5462
 1397TIP3    H1 4155   1.070   0.049   5.407  3.5959  1.4053 -0.2938
 1397TIP3    H2 4156   0.991   0.117   5.297 -1.7073 -0.5830  1.9374
 1398TIP3   OH2 4157   7.062   0.314   0.135 -0.0061 -0.1516 -0.6430
 1398TIP3    H1 4158   7.052   0.219   0.125 -1.1616 -0.0521 -0.5593
 1398TIP3    H2 4159   7.048   0.329   0.228  3.3561 -0.2315 -0.0238
 1399TIP3   OH2 4160   6.541   3.887   0.663 -0.1437  0.6071  0.5434
 1399TIP3    H1 4161   6.516   3.796   0.681 -0.0254  0.3061 -0.7235
 1399TIP3    H2 4162   6.632   3.892   0.691 -0.3375  0.5237  1.2147
 1400TIP3   OH2 4163   4.922   0.574   2.444  0.4649 -0.3411 -0.2725
 1400TIP3    H1 4164   4.943   0.589   2.536  1.5975 -1.7011 -0.2869
 1400TIP3    H2 4165   4.980   0.503   2.417  1.3083  1.0619 -2.4584
 1401TIP3   OH2 4166   2.521   6.530   2.103  0.1261  0.1412  0.0766
 1401TIP3    H1 4167   2.575   6.499   2.176 -0.5227  0.4267  0.6899
 1401TIP3    H2 4168   2.451   6.580   2.145 -0.3969  0.0979 -0.7310
 1402TIP3   OH2 4169   1.338   5.748   0.171 -0.2248 -0.5581  0.0598
 1402TIP3    H1 4170   1.264   5.702   0.130 -0.9454  0.3040  0.3564
 1402TIP3    H2 4171   1.383   5.681   0.222 -0.5793 -1.1831 -0.4365
 1403TIP3   OH2 4172   0.313   1.592   5.730  0.1890  0.0882 -0.4347
 1403TIP3    H1 4173   0.316   1.498   5.712 -1.0255  0.1981 -1.3580
 1403TIP3    H2 4174   0.249   1.626   5.668 -0.9716  1.1822  1.2732
 1404TIP3   OH2 4175   4.225   4.774   3.233  0.1774  0.3187 -0.5961
 1404TIP3    H1 4176   4.264   4.820   3.308  0.7705 -1.8638  0.5130
 1404TIP3    H2 4177   4.298   4.763   3.172  0.4724 -0.6197 -0.0953
 1405TIP3   OH2 4178   3.035   3.566   3.521 -0.5216 -0.2041 -0.6743
 1405TIP3    H1 4179   2.972   3.495   3.510  0.0443 -0.8381  0.0774
 1405TIP3    H2 4180   3.116   3.533   3.482 -0.1998 -0.0604 -0.1339
 1406TIP3   OH2 4181   4.284   3.690   0.852  0.8197  0.4499 -0.0216
 1406TIP3    H1 4182   4.231   3.717   0.777 -0.0070 -0.8802  0.0469
 1406TIP3    H2 4183   4.303   3.772   0.898  0.3610  1.1582 -1.0399
 1407TIP3   OH2 4184   0.850   1.978   3.903 -0.0255  0.1596  0.2915
 1407TIP3    H1 4185   0.791   1.928   3.846 -0.7249  0.4255  0.7639
 1407TIP3    H2 4186   0.814   1.965   3.991 -0.2029  1.4578  0.4247
 1408TIP3   OH2 4187   5.967   0.050   4.339 -0.1529 -0.1975 -0.1169
 1408TIP3    H1 4188   5.872   0.044   4.347 -0.2482  0.1084 -0.9418
 1408TIP3    H2 4189   5.990   0.127   4.391 -0.3144 -0.4190  0.2976
 1409TIP3   OH2 4190   3.548   3.607   5.626 -0.1799 -0.0383 -0.2431
 1409TIP3    H1 4191   3.466   3.652   5.607  0.4691  0.5716 -1.7264
 1409TIP3    H2 4192   3.570   3.635   5.715 -0.4964  1.5188 -0.6263
 1410TIP3   OH2 4193   2.587   0.339   5.547 -0.0076  0.3853  0.7268
 1410TIP3    H1 4194   2.504   0.320   5.502  0.2464 -1.9980  1.1163
 1410TIP3    H2 4195   2.626   0.409   5.495 -0.7574 -0.7236 -1.5105
 1411TIP3   OH2 4196   5.557   6.654   4.115 -0.4400 -0.2610  0.6539
 1411TIP3    H1 4197   5.515   6.707   4.183  2.5425  1.3430  1.4224
 1411TIP3    H2 4198   5.604   6.586   4.164 -1.1162 -1.3166 -0.1068
 1412TIP3   OH2 4199   4.079   3.638   4.638  0.1188 -0.2024 -0.4304
 1412TIP3    H1 4200   4.050   3.611   4.725  0.9083 -1.8417 -0.6261
 1412TIP3    H2 4201   4.021   3.590   4.578  0.9966 -0.8552 -0.7881
 1413TIP3   OH2 4202   4.763   0.897   3.520  0.2532  0.8058 -0.1480
 1413TIP3    H1 4203   4.842   0.928   3.563 -0.6426  0.4871  1.8478
 1413TIP3    H2 4204   4.692   0.917   3.582 -0.8658 -1.4935 -0.5637
 1414TIP3   OH2 4205   3.303   0.938   1.046 -0.2549  0.6013 -0.3968
 1414TIP3    H1 4206   3.397   0.922   1.033 -0.0063  0.5799  1.2400
 1414TIP3    H2 4207   3.300   1.011   1.107 -1.3038  0.3301 -0.1102
 1415TIP3   OH2 4208   4.078   0.479   4.754 -0.0775 -0.2054 -0.7289
 1415TIP3    H1 4209   4.065   0.572   4.770  1.6015  0.0078 -0.3584
 1415TIP3    H2 4210   4.092   0.442   4.841 -1.5083 -0.9747 -0.7933
 1416TIP3   OH2 4211   0.151   1.798   0.831 -0.0626  0.2737 -0.3136
 1416TIP3    H1 4212   0.125   1.853   0.756  0.3416 -0.9882 -1.4153
 1416TIP3    H2 4213   0.184   1.861   0.895 -1.4441  1.4917 -0.7373
 1417TIP3   OH2 4214   1.294   2.455   4.039 -0.5700  0.3155 -0.2422
 1417TIP3    H1 4215   1.294   2.506   3.958  1.2854  1.3355  0.3238
 1417TIP3    H2 4216   1.258   2.370   4.015 -0.6469  0.8080 -1.9838
 1418TIP3   OH2 4217   7.168   1.758   2.872  0.3516  0.3307 -0.1495
 1418TIP3    H1 4218   7.162   1.787   2.963  1.1238  1.2000 -0.3631
 1418TIP3    H2 4219   7.139   1.667   2.874 -1.1165  0.7827  0.7158
 1419TIP3   OH2 4220   0.281   1.110   1.131  0.1240 -0.3486 -0.9235
 1419TIP3    H1 4221   0.288   1.146   1.219  0.6023  1.1219 -1.5326
 1419TIP3    H2 4222   0.204   1.153   1.093  1.6948  1.4885 -2.2556
 1420TIP3   OH2 4223   3.044   2.268   1.215  0.6453 -0.1210  1.1855
 1420TIP3    H1 4224   3.034   2.329   1.287  0.1270  0.7237  0.4158
 1420TIP3    H2 4225   3.135   2.279   1.186  0.2463  1.1586  0.3142
 1421TIP3   OH2 4226   6.650   4.123   5.019  0.2867  0.3776  0.3771
 1421TIP3    H1 4227   6.649   4.211   4.982 -0.4980 -0.1335 -0.8650
 1421TIP3    H2 4228   6.558   4.103   5.037  0.4823 -0.1009  0.8705
 1422TIP3   OH2 4229   1.172   4.135   3.492  0.2698  0.5943  0.3104
 1422TIP3    H1 4230   1.209   4.207   3.441  0.6707  0.4547  0.3952
 1422TIP3    H2 4231   1.125   4.177   3.564  1.3477  0.7647  0.9409
 1423TIP3   OH2 4232   6.259   4.853   2.870 -0.2411 -0.1867  0.5925
 1423TIP3    H1 4233   6.274   4.928   2.811 -1.2925  0.4134  1.0635
 1423TIP3    H2 4234   6.194   4.800   2.824  2.2870 -2.2214 -0.9435
 1424TIP3   OH2 4235   2.227   6.787   3.321 -0.1912 -0.0052  0.0724
 1424TIP3    H1 4236   2.272   6.746   3.395 -0.5001  0.4337  0.5127
 1424TIP3    H2 4237   2.154   6.834   3.361 -1.0092 -0.6553 -0.6163
 1425TIP3   OH2 4238   5.783   5.066   1.974 -0.2133  0.0548  0.6789
 1425TIP3    H1 4239   5.816   5.133   2.034  1.8791 -2.2428  2.3233
 1425TIP3    H2 4240   5.854   5.055   1.910 -1.4800  0.9056 -0.9286
 1426TIP3   OH2 4241   3.743   1.984   5.380  0.3783 -0.4823 -0.2929
 1426TIP3    H1 4242   3.768   1.892   5.372  0.7988 -0.3179 -0.9120
 1426TIP3    H2 4243   3.818   2.032   5.345 -0.8833  0.0065 -2.5227
 1427TIP3   OH2 4244   0.415   0.606   3.515 -0.5224 -0.3190  0.3022
 1427TIP3    H1 4245   0.405   0.539   3.582  0.6312 -1.2046 -0.3716
 1427TIP3    H2 4246   0.457   0.560   3.442 -0.4399  0.9543 -0.4737
 1428TIP3   OH2 4247   5.594   0.914   0.240  0.5846 -1.1180 -0.0608
 1428TIP3    H1 4248   5.653   0.972   0.289  2.2329 -0.4059 -2.6497
 1428TIP3    H2 4249   5.589   0.954   0.153 -0.6564 -3.3008 -1.0691
 1429TIP3   OH2 4250   3.100   4.326   2.747  0.3011 -0.0749  0.2385
 1429TIP3    H1 4251   3.011   4.355   2.726  1.3646  2.1916 -1.7747
 1429TIP3    H2 4252   3.112   4.348   2.839 -1.1159 -0.1043  0.4469
 1430TIP3   OH2 4253   6.395   1.184   2.890  0.0396  0.9986 -0.2181
 1430TIP3    H1 4254   6.427   1.094   2.888 -0.3135  0.8761 -1.5105
 1430TIP3    H2 4255   6.338   1.187   2.967  2.3156  0.9691  1.5882
 1431TIP3   OH2 4256   4.667   4.793   3.528  0.0687 -0.8430  0.1988
 1431TIP3    H1 4257   4.731   4.865   3.523 -0.2872 -0.5417 -0.1040
 1431TIP3    H2 4258   4.589   4.834   3.565 -0.3533 -0.9121 -0.5949
 1432TIP3   OH2 4259   5.808   4.227   4.056  0.1526 -0.0391 -0.4209
 1432TIP3    H1 4260   5.745   4.289   4.092  0.6961  1.5115 -2.0234
 1432TIP3    H2 4261   5.818   4.161   4.125  0.7702  2.4590  2.0798
 1433TIP3   OH2 4262   6.166   1.447   2.534 -0.7890  0.5420  0.7615
 1433TIP3    H1 4263   6.109   1.471   2.607 -1.4006 -0.9046  0.8051
 1433TIP3    H2 4264   6.148   1.513   2.466 -1.7621  0.6945  1.1554
 1434TIP3   OH2 4265   1.138   1.157   4.005 -0.2044  0.1870  0.3215
 1434TIP3    H1 4266   1.058   1.135   4.053 -1.7307  0.0130 -2.1615
 1434TIP3    H2 4267   1.150   1.084   3.944  0.2556  1.5078 -1.2230
 1435TIP3   OH2 4268   0.577   1.415   5.181  0.3778  0.1623  0.7189
 1435TIP3    H1 4269   0.596   1.350   5.249 -1.1637 -3.1461 -1.7415
 1435TIP3    H2 4270   0.482   1.429   5.188  0.3573  0.4922 -0.1216
 1436TIP3   OH2 4271   6.974   4.704   4.125  0.2469 -0.0468  0.2631
 1436TIP3    H1 4272   6.997   4.614   4.103 -2.5630 -0.9586  0.6429
 1436TIP3    H2 4273   6.907   4.728   4.061 -1.5629  0.4543  2.2171
 1437TIP3   OH2 4274   4.744   1.490   3.738 -0.1538  0.3529 -0.2216
 1437TIP3    H1 4275   4.717   1.484   3.646  1.2511  1.0191 -0.7148
 1437TIP3    H2 4276   4.835   1.459   3.738 -0.2268  0.0894  1.0003
 1438TIP3   OH2 4277   6.180   6.368   0.654 -0.3545 -0.0235 -0.0727
 1438TIP3    H1 4278   6.197   6.300   0.719 -0.5620  0.5772  0.6231
 1438TIP3    H2 4279   6.249   6.357   0.589 -0.2720 -0.7709  0.1271
 1439TIP3   OH2 4280   5.612   1.748   2.231 -0.0447  0.5241 -0.5492
 1439TIP3    H1 4281   5.571   1.683   2.173  1.8751 -0.1377 -1.2598
 1439TIP3    H2 4282   5.668   1.799   2.173 -0.0354  1.5538  0.3406
 1440TIP3   OH2 4283   1.141   4.961   1.924  0.5592 -0.1908  0.4429
 1440TIP3    H1 4284   1.050   4.945   1.950 -0.0124  1.3682 -0.4339
 1440TIP3    H2 4285   1.185   4.985   2.005 -0.0058 -0.1512  0.7469
 1441TIP3   OH2 4286   4.836   4.527   1.485  0.5447  0.2914  0.0235
 1441TIP3    H1 4287   4.806   4.438   1.502 -1.8315  0.6121 -1.8828
 1441TIP3    H2 4288   4.912   4.516   1.428  0.7192 -0.5116  0.3931
 1442TIP3   OH2 4289   1.929   1.132   1.841 -0.0396 -0.3033 -0.0556
 1442TIP3    H1 4290   1.938   1.206   1.901 -1.4210 -0.2552  0.1194
 1442TIP3    H2 4291   1.965   1.058   1.889 -0.1340 -0.0569  0.3989
 1443TIP3   OH2 4292   1.559   5.593   5.738  0.7641 -0.3019  0.0548
 1443TIP3    H1 4293   1.593   5.568   5.824  0.8366 -0.5717 -0.0523
 1443TIP3    H2 4294   1.492   5.659   5.758  0.3552 -0.7955  0.3683
 1444TIP3   OH2 4295   5.187   0.076   4.924  0.3377 -0.1129 -0.2487
 1444TIP3    H1 4296   5.132   0.148   4.892  1.2508 -0.1084 -1.9049
 1444TIP3    H2 4297   5.130  -0.001   4.920  0.2312  0.0096 -1.2942
 1445TIP3   OH2 4298   1.504   2.268   4.365  0.1012  0.0872 -0.2563
 1445TIP3    H1 4299   1.569   2.257   4.434 -0.4962  1.8944  0.6548
 1445TIP3    H2 4300   1.467   2.355   4.380 -1.1569 -0.1022 -1.9246
 1446TIP3   OH2 4301   1.329   0.187   3.979  0.0552 -0.2343  0.0027
 1446TIP3    H1 4302   1.254   0.236   3.945  0.7946  1.5878  0.8389
 1446TIP3    H2 4303   1.324   0.102   3.936 -0.5513  1.0129 -2.6056
 1447TIP3   OH2 4304   0.015   4.336   1.154 -0.2713  0.6328  0.2292
 1447TIP3    H1 4305   0.087   4.289   1.112  1.0211  2.5584  0.1969
 1447TIP3    H2 4306   0.057   4.392   1.218 -1.9523  0.2145  1.7763
 1448TIP3   OH2 4307   0.171   6.652   0.749 -0.0101  0.6078  0.3368
 1448TIP3    H1 4308   0.175   6.567   0.794 -0.4246  0.1794 -0.4048
 1448TIP3    H2 4309   0.211   6.635   0.664  1.1924  1.5226  0.6874
 1449TIP3   OH2 4310   3.166   2.984   4.545 -0.3448  0.4656  0.5841
 1449TIP3    H1 4311   3.161   3.076   4.519 -0.3136 -0.3201 -2.6622
 1449TIP3    H2 4312   3.077   2.960   4.568 -0.6182  0.9731  0.0724
 1450TIP3   OH2 4313   3.368   2.274   5.397 -0.1907 -0.5502 -0.0561
 1450TIP3    H1 4314   3.412   2.352   5.430 -0.3968 -0.5220  0.1535
 1450TIP3    H2 4315   3.395   2.268   5.305 -1.2248  0.5407 -0.4661
 1451TIP3   OH2 4316   6.841   5.135   5.179  0.2611  0.0211  0.0921
 1451TIP3    H1 4317   6.935   5.130   5.158  0.1359  0.9302 -0.8019
 1451TIP3    H2 4318   6.838   5.184   5.262  0.5564  0.5883 -0.2222
 1452TIP3   OH2 4319   0.708   1.200   0.599 -0.1599 -0.2727  0.4849
 1452TIP3    H1 4320   0.670   1.136   0.660 -0.8682 -0.3376 -0.0210
 1452TIP3    H2 4321   0.744   1.268   0.656 -2.1331  0.4253  0.9784
 1453TIP3   OH2 4322   0.615   0.868   2.516 -0.3000  0.3715 -0.1720
 1453TIP3    H1 4323   0.558   0.891   2.589 -1.4222 -0.7234 -0.6774
 1453TIP3    H2 4324   0.704   0.874   2.553 -0.5948  3.4004  0.2497
 1454TIP3   OH2 4325   6.247   3.277   5.074 -0.4313 -0.4223 -0.3153
 1454TIP3    H1 4326   6.266   3.356   5.023  0.7161  0.2118  1.0123
 1454TIP3    H2 4327   6.210   3.309   5.156 -2.7670 -1.4500 -0.8960
 1455TIP3   OH2 4328   3.349   6.326   5.222 -0.2849 -0.0062 -0.6900
 1455TIP3    H1 4329   3.428   6.331   5.169 -0.6667  0.1598 -1.2495
 1455TIP3    H2 4330   3.381   6.311   5.311  0.4688  1.8258 -0.6096
 1456TIP3   OH2 4331   5.948   5.421   5.601 -0.1070  0.1540  0.1376
 1456TIP3    H1 4332   5.952   5.475   5.523  0.8072  1.0844  0.7943
 1456TIP3    H2 4333   5.881   5.463   5.656 -2.6220 -1.9278 -1.1116
 1457TIP3   OH2 4334   0.725   1.064   0.184  0.2222  0.1980  0.0309
 1457TIP3    H1 4335   0.789   1.071   0.254  1.4390  0.3331 -1.0549
 1457TIP3    H2 4336   0.688   1.152   0.176 -1.3314 -0.2363  1.7279
 1458TIP3   OH2 4337   0.238   0.237   5.784 -0.0402  0.5768  0.3844
 1458TIP3    H1 4338   0.296   0.230   5.709 -0.6865  1.4336 -0.2215
 1458TIP3    H2 4339   0.237   0.149   5.823  2.6919  0.8237  1.2407
 1459TIP3   OH2 4340   1.389   5.628   5.014 -0.0406 -0.0259  0.2229
 1459TIP3    H1 4341   1.365   5.537   5.032  0.9994 -0.6513 -1.2552
 1459TIP3    H2 4342   1.306   5.674   5.008 -0.7055 -1.2729 -0.7456
 1460TIP3   OH2 4343   2.789   5.718   1.102 -0.2771 -0.3241 -0.2295
 1460TIP3    H1 4344   2.717   5.689   1.158  0.3736  0.7863  1.2554
 1460TIP3    H2 4345   2.759   5.699   1.013 -1.8219 -1.1255  0.4132
 1461TIP3   OH2 4346   4.238   3.171   4.931 -0.8766 -0.9440 -0.1416
 1461TIP3    H1 4347   4.276   3.218   5.006 -0.3997 -0.1506 -0.8718
 1461TIP3    H2 4348   4.150   3.208   4.922 -2.0682 -2.9946  1.7434
 1462TIP3   OH2 4349   3.803   5.734   0.179 -0.4846  0.4419  0.4621
 1462TIP3    H1 4350   3.852   5.813   0.159  1.5348 -0.8456  0.0446
 1462TIP3    H2 4351   3.818   5.719   0.273 -0.5670  0.3588  0.4624
 1463TIP3   OH2 4352   0.732   1.584   0.086  0.3617 -0.1801  1.0361
 1463TIP3    H1 4353   0.681   1.572   0.006  1.0300  1.6743  0.3027
 1463TIP3    H2 4354   0.666   1.602   0.153 -0.1486 -1.0512  0.7912
 1464TIP3   OH2 4355   1.767   5.927   4.486  0.1399 -0.0744  0.8540
 1464TIP3    H1 4356   1.794   6.008   4.530  1.5540 -0.7970  1.3880
 1464TIP3    H2 4357   1.822   5.859   4.526 -0.0488 -1.0799 -0.5410
 1465TIP3   OH2 4358   6.540   5.401   1.206 -0.2442  0.2226  0.2362
 1465TIP3    H1 4359   6.578   5.488   1.197  1.4769 -0.3530  1.4581
 1465TIP3    H2 4360   6.509   5.398   1.297 -0.9052 -0.2202  0.0036
 1466TIP3   OH2 4361   1.491   4.740   0.987 -0.0686 -0.1259  0.0162
 1466TIP3    H1 4362   1.462   4.650   0.971  1.1380 -0.7099  0.9393
 1466TIP3    H2 4363   1.586   4.737   0.975  0.0476  0.9100  0.5792
 1467TIP3   OH2 4364   2.855   2.922   2.984  0.0796 -0.0408 -0.0256
 1467TIP3    H1 4365   2.789   2.876   3.036 -1.6093  0.7282 -1.3941
 1467TIP3    H2 4366   2.936   2.873   2.999 -1.3913 -2.8800 -0.6131
 1468TIP3   OH2 4367   1.021   4.930   0.870 -0.2430 -0.3883 -0.4260
 1468TIP3    H1 4368   0.989   4.983   0.943 -1.0165 -1.3214 -0.0628
 1468TIP3    H2 4369   1.109   4.903   0.896 -1.1246 -2.1116  0.9711
 1469TIP3   OH2 4370   1.595   3.138   4.997  0.0937 -0.8385 -0.1167
 1469TIP3    H1 4371   1.577   3.056   4.952 -0.8777 -0.1432 -1.0706
 1469TIP3    H2 4372   1.520   3.152   5.054  0.4282 -0.7856  0.3187
 1470TIP3   OH2 4373   7.140   3.127   1.676  0.0086 -0.3049  0.1413
 1470TIP3    H1 4374   7.165   3.116   1.584  0.5539 -2.2020  0.4792
 1470TIP3    H2 4375   7.222   3.142   1.722 -0.3182  1.2147  0.2806
 1471TIP3   OH2 4376   1.275   2.631   3.325  0.3211 -0.1569  0.0886
 1471TIP3    H1 4377   1.355   2.677   3.298 -0.8949  0.4990 -2.8259
 1471TIP3    H2 4378   1.256   2.572   3.251 -0.3697 -2.4828  1.9827
 1472TIP3   OH2 4379   5.081   0.355   2.423  0.3561 -0.1283  0.1669
 1472TIP3    H1 4380   5.063   0.292   2.353 -0.1798 -0.4333  0.5683
 1472TIP3    H2 4381   5.077   0.303   2.503 -2.0215  0.7384  0.6801
 1473TIP3   OH2 4382   4.661   2.148   3.251  0.2696  0.1072  0.2472
 1473TIP3    H1 4383   4.668   2.054   3.235 -1.7605  0.1120 -0.8814
 1473TIP3    H2 4384   4.682   2.188   3.167 -0.1534  0.6085  0.3792
 1474TIP3   OH2 4385   6.995   2.050   1.709 -0.0618  0.0420  0.2332
 1474TIP3    H1 4386   7.006   2.117   1.642  1.2651  2.2531  2.4943
 1474TIP3    H2 4387   6.901   2.047   1.726 -0.4788 -0.8452 -1.8656
 1475TIP3   OH2 4388   0.322   1.447   5.261 -0.5105 -0.1169  0.1267
 1475TIP3    H1 4389   0.251   1.506   5.285 -1.5952 -1.5524  0.5757
 1475TIP3    H2 4390   0.288   1.359   5.279  1.0824 -0.8912 -0.4215
 1476TIP3   OH2 4391   5.406   5.820   1.319 -0.5985 -0.8360 -0.6993
 1476TIP3    H1 4392   5.333   5.878   1.295  1.2933  1.2213 -1.9546
 1476TIP3    H2 4393   5.465   5.824   1.243  2.8089  1.0266  1.7712
 1477TIP3   OH2 4394   0.667   1.148   1.524 -0.7648 -0.2215  0.2488
 1477TIP3    H1 4395   0.696   1.146   1.433  0.5257  0.9476  0.6028
 1477TIP3    H2 4396   0.748   1.153   1.575 -1.3548 -2.5343  1.5826
 1478TIP3   OH2 4397   4.928   2.441   3.467 -0.3062 -0.2954 -0.4539
 1478TIP3    H1 4398   4.981   2.428   3.389  1.5348 -0.9230  0.8221
 1478TIP3    H2 4399   4.914   2.536   3.471  2.6502  0.2290  0.2606
 1479TIP3   OH2 4400   6.294   2.061   2.397  0.3012 -0.1357  0.9511
 1479TIP3    H1 4401   6.326   1.993   2.457  1.1724  1.1452  1.9645
 1479TIP3    H2 4402   6.202   2.074   2.423 -0.1030 -1.4054  0.2665
 1480TIP3   OH2 4403   1.706   6.567   3.347 -0.0886  0.3300  0.3331
 1480TIP3    H1 4404   1.724   6.640   3.407  1.3244 -0.1710  0.5473
 1480TIP3    H2 4405   1.668   6.500   3.403 -2.5016  1.2721 -0.0635
 1481TIP3   OH2 4406   2.345   4.145   5.369  0.0148  0.0499  0.1098
 1481TIP3    H1 4407   2.425   4.190   5.342  0.1640 -0.0310  0.4164
 1481TIP3    H2 4408   2.305   4.115   5.287  0.7175 -0.6331  0.0097
 1482TIP3   OH2 4409   1.011   5.962   2.804  0.7157  0.1287 -0.6762
 1482TIP3    H1 4410   1.053   5.929   2.884  0.7673  0.0146 -0.7499
 1482TIP3    H2 4411   0.982   6.051   2.827 -0.7395 -0.4765  0.0088
 1483TIP3   OH2 4412   6.291   3.936   0.942 -0.3073  0.7471 -0.5645
 1483TIP3    H1 4413   6.349   4.010   0.960 -0.0711  0.3562  0.3538
 1483TIP3    H2 4414   6.336   3.860   0.979 -1.0702  0.3244 -0.4639
 1484TIP3   OH2 4415   5.808   2.338   5.487 -0.0680 -0.0308  0.3684
 1484TIP3    H1 4416   5.804   2.334   5.582  2.2006 -2.2551  0.4631
 1484TIP3    H2 4417   5.837   2.428   5.468 -0.8723  0.5473  1.7048
 1485TIP3   OH2 4418   5.392   2.323   4.440 -0.1199 -0.4414 -0.5755
 1485TIP3    H1 4419   5.362   2.306   4.530  1.9752  1.2812  0.5565
 1485TIP3    H2 4420   5.481   2.357   4.451  0.9215 -1.8688 -3.4457
 1486TIP3   OH2 4421   1.670   2.379   0.559 -0.1251 -0.3716  0.0824
 1486TIP3    H1 4422   1.601   2.384   0.493 -0.0988 -0.1740  0.0683
 1486TIP3    H2 4423   1.624   2.358   0.640 -0.1972 -0.2946  0.0622
 1487TIP3   OH2 4424   3.829   1.481   0.326 -0.2762  0.1909 -0.0140
 1487TIP3    H1 4425   3.849   1.538   0.400 -0.0433  0.6186 -0.3980
 1487TIP3    H2 4426   3.865   1.527   0.250  1.3511 -1.2077 -0.1549
 1488TIP3   OH2 4427   2.783   0.386   3.836  0.4498  0.1110 -0.1622
 1488TIP3    H1 4428   2.765   0.331   3.912 -2.4426 -0.8449 -1.3905
 1488TIP3    H2 4429   2.772   0.328   3.761  1.0784  1.5106 -1.3987
 1489TIP3   OH2 4430   4.044   4.498   4.152 -0.2634  0.0819  0.5764
 1489TIP3    H1 4431   3.950   4.496   4.135  0.0899 -0.8779 -1.5965
 1489TIP3    H2 4432   4.053   4.463   4.241 -1.9821  0.8852  1.1080
 1490TIP3   OH2 4433   1.631   1.509   4.404 -0.3679  0.1990  0.3574
 1490TIP3    H1 4434   1.686   1.432   4.419  1.9752  1.8504  0.8116
 1490TIP3    H2 4435   1.564   1.504   4.472  1.5045  0.0500  2.2977
 1491TIP3   OH2 4436   5.724   5.988   3.710 -0.1636  0.0350 -0.2680
 1491TIP3    H1 4437   5.684   6.070   3.737 -2.1211 -0.8511 -0.2810
 1491TIP3    H2 4438   5.799   5.977   3.769 -0.4965  1.2997  0.4219
 1492TIP3   OH2 4439   3.910   4.929   1.457  0.3146 -0.2729  0.0868
 1492TIP3    H1 4440   3.985   4.882   1.420  0.7740 -0.2318  0.9405
 1492TIP3    H2 4441   3.943   5.018   1.469 -0.4411  0.2120 -1.2021
 1493TIP3   OH2 4442   6.801   0.725   0.142  0.4177  0.6677 -0.5888
 1493TIP3    H1 4443   6.847   0.679   0.072  0.5021  1.2914 -0.9463
 1493TIP3    H2 4444   6.771   0.806   0.102 -0.2580  0.6545 -0.1254
 1494TIP3   OH2 4445   4.738   6.049   2.206  0.1746 -0.2160 -0.1668
 1494TIP3    H1 4446   4.746   6.144   2.191 -2.3725  0.5863  2.4889
 1494TIP3    H2 4447   4.805   6.030   2.271  1.0190 -0.3997 -1.0627
 1495TIP3   OH2 4448   0.542   4.521   2.506 -0.4813  0.3087  0.5925
 1495TIP3    H1 4449   0.479   4.567   2.562 -0.5181  0.2963  0.5612
 1495TIP3    H2 4450   0.608   4.588   2.486 -0.0395  0.0885  1.3132
 1496TIP3   OH2 4451   1.445   6.453   5.392  0.0056 -0.1258 -0.2034
 1496TIP3    H1 4452   1.505   6.509   5.344  0.6108 -0.2794  0.3612
 1496TIP3    H2 4453   1.498   6.377   5.417 -0.0244  0.4118  1.5656
 1497TIP3   OH2 4454   6.920   3.867   3.744  0.9461 -0.0854 -0.4488
 1497TIP3    H1 4455   6.908   3.962   3.752 -0.6120 -0.1780 -1.2636
 1497TIP3    H2 4456   6.973   3.843   3.820 -2.0988  0.8793  2.2166
 1498TIP3   OH2 4457   2.230   1.548   4.880 -0.5861  0.5228 -0.1258
 1498TIP3    H1 4458   2.208   1.474   4.937  2.0354 -0.4673 -0.2591
 1498TIP3    H2 4459   2.273   1.611   4.939  0.2492  0.4119 -0.6027
 1499TIP3   OH2 4460   5.536   4.804   1.184  0.3476 -0.0763 -0.3125
 1499TIP3    H1 4461   5.607   4.741   1.170  1.4414  1.3197 -1.4021
 1499TIP3    H2 4462   5.476   4.760   1.244  2.4698 -1.0582  1.2233
 1500TIP3   OH2 4463   3.715   0.888   2.459 -0.4544 -0.4318 -0.0461
 1500TIP3    H1 4464   3.733   0.935   2.378 -0.8038 -0.1455  0.0386
 1500TIP3    H2 4465   3.740   0.949   2.529  0.4141 -0.8992  0.0717
 1501TIP3   OH2 4466   1.596   0.280   3.881  0.2804 -0.4019  0.1193
 1501TIP3    H1 4467   1.585   0.239   3.795 -1.2600 -1.1129  0.6243
 1501TIP3    H2 4468   1.528   0.240   3.935  1.1158  0.1656  1.6316
 1502TIP3   OH2 4469   4.677   4.614   2.851 -0.1475 -0.2288  0.2738
 1502TIP3    H1 4470   4.675   4.707   2.828  2.3716 -0.8040 -3.0729
 1502TIP3    H2 4471   4.762   4.600   2.891  0.5970 -1.4202 -1.5682
 1503TIP3   OH2 4472   0.824   4.725   0.087  0.4118  0.0547  0.2235
 1503TIP3    H1 4473   0.768   4.715   0.010  1.1655  0.2654 -0.3754
 1503TIP3    H2 4474   0.852   4.817   0.084 -0.4724  0.3879  1.4197
 1504TIP3   OH2 4475   3.433   5.271   3.190 -0.0606  0.1690  0.2744
 1504TIP3    H1 4476   3.468   5.182   3.196 -1.6041 -0.5850 -1.0176
 1504TIP3    H2 4477   3.495   5.317   3.133  2.3193  0.8553  3.1807
 1505TIP3   OH2 4478   5.179   2.803   4.525 -0.1804 -0.3009  0.3132
 1505TIP3    H1 4479   5.178   2.883   4.578  1.2089 -0.2088  0.2274
 1505TIP3    H2 4480   5.092   2.765   4.538 -0.5328  0.7272  1.1119
 1506TIP3   OH2 4481   1.242   4.014   1.654  0.4943 -0.4275 -0.4323
 1506TIP3    H1 4482   1.245   4.046   1.565  1.1672 -0.5263 -0.4554
 1506TIP3    H2 4483   1.297   3.935   1.653 -0.9565 -1.4670 -0.3374
 1507TIP3   OH2 4484   3.946   6.484   2.019 -0.1843  0.5437  0.2044
 1507TIP3    H1 4485   3.851   6.477   2.028 -0.1594  0.2128  0.2401
 1507TIP3    H2 4486   3.973   6.397   1.988 -0.0742  1.1150 -1.3755
 1508TIP3   OH2 4487   4.053   6.180   4.566  0.2990  0.1089 -0.2103
 1508TIP3    H1 4488   4.103   6.107   4.529  0.3702 -0.1272  0.3508
 1508TIP3    H2 4489   4.118   6.242   4.597  0.2522  1.0045 -1.7997
 1509TIP3   OH2 4490   0.686   2.911   1.641  0.3998 -0.3874 -0.5290
 1509TIP3    H1 4491   0.646   2.996   1.630 -0.7231 -1.0103 -1.4269
 1509TIP3    H2 4492   0.743   2.921   1.718 -2.5533  0.1564  1.7521
 1510TIP3   OH2 4493   7.167   6.506   0.553  0.0715  0.1160 -0.8106
 1510TIP3    H1 4494   7.130   6.574   0.609  0.5125  0.3701 -0.8204
 1510TIP3    H2 4495   7.211   6.446   0.613  0.7000  0.4855 -0.8855
 1511TIP3   OH2 4496   5.940   0.336   0.196 -0.2244  0.4887 -0.0463
 1511TIP3    H1 4497   5.907   0.249   0.218 -1.3711  0.8783 -0.1146
 1511TIP3    H2 4498   5.876   0.396   0.236  0.8419  1.3097  0.4737
 1512TIP3   OH2 4499   1.260   2.961   3.801 -0.6683 -0.0000 -0.3506
 1512TIP3    H1 4500   1.340   2.917   3.830 -0.0402  1.6348  0.5681
 1512TIP3    H2 4501   1.191   2.925   3.857 -0.3316 -0.4344 -0.2072
 1513TIP3   OH2 4502   0.360   6.666   1.330  0.3095  0.2031  0.3160
 1513TIP3    H1 4503   0.306   6.676   1.252 -0.4972 -0.1711  0.8088
 1513TIP3    H2 4504   0.365   6.572   1.344 -0.0517  0.2855  1.0464
 1514TIP3   OH2 4505   6.686   6.070   5.911  0.2307  0.2874 -0.2035
 1514TIP3    H1 4506   6.688   6.078   5.816  1.7207  1.0190 -0.1472
 1514TIP3    H2 4507   6.596   6.046   5.932 -0.5135  1.5983 -1.6863
 1515TIP3   OH2 4508   6.658   4.390   4.939  0.1795  0.0435 -0.1557
 1515TIP3    H1 4509   6.702   4.400   4.854 -0.3225  0.7982 -0.3331
 1515TIP3    H2 4510   6.653   4.479   4.974 -2.4704  0.2194 -0.7905
 1516TIP3   OH2 4511   2.108   0.346   4.111 -0.0852  0.1594  0.1346
 1516TIP3    H1 4512   2.079   0.421   4.162 -2.0357  0.5446 -1.3804
 1516TIP3    H2 4513   2.090   0.371   4.020  3.3610 -0.4288 -0.8237
 1517TIP3   OH2 4514   0.157   4.844   0.536 -0.2833 -0.6586 -0.2154
 1517TIP3    H1 4515   0.069   4.878   0.550  0.7078  1.3605  1.6742
 1517TIP3    H2 4516   0.167   4.776   0.603  0.3322  0.7663  1.2261
 1518TIP3   OH2 4517   4.574   4.682  -0.024 -0.1927  0.2885  1.3432
 1518TIP3    H1 4518   4.638   4.730   0.028  0.7629 -0.3837  0.8167
 1518TIP3    H2 4519   4.588   4.590  -0.001 -0.6461  0.0882  0.8592
 1519TIP3   OH2 4520   3.808   3.459   3.888  0.5735  0.2114  0.3032
 1519TIP3    H1 4521   3.813   3.424   3.977 -0.0536  0.1454  0.3211
 1519TIP3    H2 4522   3.799   3.382   3.832  2.0217  0.1868  0.0746
 1520TIP3   OH2 4523   2.918   0.884   0.466 -0.5389 -0.6439  0.2075
 1520TIP3    H1 4524   2.997   0.927   0.501 -0.3242 -0.1561 -0.8406
 1520TIP3    H2 4525   2.877   0.844   0.543  1.5448 -2.2608  0.5963
 1521TIP3   OH2 4526   4.007   1.221   5.468 -0.3351  0.2514 -0.1555
 1521TIP3    H1 4527   4.097   1.207   5.436 -0.9273 -1.8957 -1.0930
 1521TIP3    H2 4528   3.959   1.144   5.437 -1.9673  0.1445  2.3772
 1522TIP3   OH2 4529   4.994   2.847   4.080  0.0736  0.1548 -0.2828
 1522TIP3    H1 4530   5.051   2.808   4.146  0.9357 -0.4178 -1.3315
 1522TIP3    H2 4531   4.953   2.772   4.036 -0.7718  0.5364 -0.1774
 1523TIP3   OH2 4532   4.686   2.054   2.449  0.6258 -0.1247 -0.1402
 1523TIP3    H1 4533   4.637   1.999   2.388  0.4528  0.0357 -0.1441
 1523TIP3    H2 4534   4.721   1.993   2.514  1.2545 -0.3680 -0.6924
 1524TIP3   OH2 4535   2.377   4.321   1.721 -0.2386  0.6191 -0.0357
 1524TIP3    H1 4536   2.431   4.242   1.715 -0.7999  0.0584  1.7203
 1524TIP3    H2 4537   2.394   4.368   1.639  0.4702 -1.0787 -0.9184
 1525TIP3   OH2 4538   2.500   0.737   5.790  1.1736  0.9113  0.6023
 1525TIP3    H1 4539   2.463   0.810   5.740  1.1405  1.3347  1.2264
 1525TIP3    H2 4540   2.445   0.662   5.767  0.6571  1.2740  0.6120
 1526TIP3   OH2 4541   0.420   5.850   1.594 -0.0941  0.2821 -0.0419
 1526TIP3    H1 4542   0.379   5.771   1.629 -0.8523 -0.3759 -2.2269
 1526TIP3    H2 4543   0.513   5.838   1.609 -0.2717 -0.6736  0.3416
 1527TIP3   OH2 4544   3.499   4.197   4.253  0.1362 -0.2103 -0.2177
 1527TIP3    H1 4545   3.467   4.272   4.203 -0.0076 -0.0018  0.1832
 1527TIP3    H2 4546   3.594   4.201   4.243  0.2503  0.8840  0.9798
 1528TIP3   OH2 4547   3.285   1.020   5.005  0.0696 -0.4401  0.4455
 1528TIP3    H1 4548   3.337   0.988   4.931 -0.2591 -0.3247  0.1635
 1528TIP3    H2 4549   3.300   1.114   5.007 -0.3798 -0.3596  0.1627
 1529TIP3   OH2 4550   3.225   1.474   5.481 -0.1197 -0.3999  0.1310
 1529TIP3    H1 4551   3.286   1.485   5.555 -0.5597 -1.4812  0.6813
 1529TIP3    H2 4552   3.154   1.535   5.500  0.2517  0.0607  0.0646
 1530TIP3   OH2 4553   0.206   2.683   2.710  0.1960 -0.1540  0.1854
 1530TIP3    H1 4554   0.121   2.726   2.718  0.0561 -0.7154  2.3755
 1530TIP3    H2 4555   0.264   2.732   2.768  0.5580 -1.5802  1.0889
 1531TIP3   OH2 4556   6.458   0.226   1.909  0.2975  0.1857 -0.6291
 1531TIP3    H1 4557   6.421   0.183   1.832  1.5524 -0.7818 -0.7383
 1531TIP3    H2 4558   6.391   0.287   1.937 -1.2171 -1.2215 -1.0173
 1532TIP3   OH2 4559   4.270   3.700   3.717  0.2059 -0.2783  0.1752
 1532TIP3    H1 4560   4.302   3.651   3.793  3.2088 -1.3800 -1.6398
 1532TIP3    H2 4561   4.195   3.650   3.686 -0.4778 -0.3245  1.7866
 1533TIP3   OH2 4562   0.622   1.555   1.661 -0.1368  0.2941  0.0287
 1533TIP3    H1 4563   0.615   1.620   1.731 -0.9491  0.7758 -0.4776
 1533TIP3    H2 4564   0.623   1.607   1.580  0.0620 -0.2888 -0.3500
 1534TIP3   OH2 4565   1.180   0.260   0.012  0.0007  0.1045  0.1790
 1534TIP3    H1 4566   1.104   0.205   0.029  0.4794 -0.2533  1.1917
 1534TIP3    H2 4567   1.233   0.253   0.091  0.9270  0.6194 -0.3863
 1535TIP3   OH2 4568   1.252   5.454   4.508 -0.8745  0.4628 -0.0743
 1535TIP3    H1 4569   1.296   5.484   4.429  1.4179 -0.3524  0.8037
 1535TIP3    H2 4570   1.160   5.447   4.483 -0.2501  0.3200 -2.6367
 1536TIP3   OH2 4571   0.299   5.867   5.657 -0.1142 -0.5848 -0.1401
 1536TIP3    H1 4572   0.344   5.914   5.728 -3.1977  2.1844  0.2591
 1536TIP3    H2 4573   0.259   5.791   5.700 -0.6558  0.2057  0.7968
 1537TIP3   OH2 4574   3.803   3.420   3.537  0.3549  0.3516  0.0515
 1537TIP3    H1 4575   3.834   3.330   3.546  0.8985  0.7276  2.6494
 1537TIP3    H2 4576   3.823   3.443   3.446 -1.1185 -2.5695 -1.1498
 1538TIP3   OH2 4577   4.802   2.275   3.940 -0.4522 -0.1665  0.1423
 1538TIP3    H1 4578   4.829   2.286   3.849  0.5646 -0.3322  0.4163
 1538TIP3    H2 4579   4.712   2.310   3.943 -0.2408  0.4754 -0.7656
 1539TIP3   OH2 4580   1.053   2.752   1.311  0.6209 -0.5625  0.6920
 1539TIP3    H1 4581   0.989   2.681   1.323 -0.2069  0.3117  1.7617
 1539TIP3    H2 4582   1.042   2.780   1.220  2.3555 -3.0517 -0.3969
 1540TIP3   OH2 4583   6.589   4.933   3.203  0.0772 -0.3784  0.1837
 1540TIP3    H1 4584   6.528   4.936   3.277  1.3228 -0.4472  1.2510
 1540TIP3    H2 4585   6.672   4.907   3.242  0.4586 -1.8111 -1.4575
 1541TIP3   OH2 4586   0.989   3.140   0.612 -0.2672 -0.4904 -0.0089
 1541TIP3    H1 4587   0.959   3.228   0.636  0.1299 -0.4553  0.3609
 1541TIP3    H2 4588   0.920   3.082   0.646 -1.0050 -0.2757 -1.0699
 1542TIP3   OH2 4589   2.158   3.054   4.628 -0.6191 -0.0750  0.0367
 1542TIP3    H1 4590   2.213   3.103   4.689 -1.0470 -0.5302  0.7976
 1542TIP3    H2 4591   2.158   3.107   4.548  0.3355  0.2856  0.2623
 1543TIP3   OH2 4592   3.379   5.868   0.191 -0.5897  0.2264 -0.1482
 1543TIP3    H1 4593   3.425   5.949   0.214  0.0254 -0.5941  1.6945
 1543TIP3    H2 4594   3.292   5.879   0.229 -0.9713  0.5379 -1.0636
 1544TIP3   OH2 4595   3.161   2.928   5.689 -0.2042  0.0787 -0.2331
 1544TIP3    H1 4596   3.067   2.910   5.694 -0.0385 -0.7670  0.0621
 1544TIP3    H2 4597   3.170   2.993   5.620 -1.0403  0.4228 -0.0335
 1545TIP3   OH2 4598   1.812   6.435   4.071  0.3849  0.0947  0.0180
 1545TIP3    H1 4599   1.800   6.509   4.011  0.7320  0.2338  0.1153
 1545TIP3    H2 4600   1.727   6.392   4.073  0.5227 -0.2648 -1.0453
 1546TIP3   OH2 4601   5.713   0.651   5.641 -0.5115 -0.4881 -0.1476
 1546TIP3    H1 4602   5.693   0.597   5.718 -0.6063  1.1662  1.0447
 1546TIP3    H2 4603   5.682   0.738   5.665  0.3310  0.2717 -1.7021
 1547TIP3   OH2 4604   4.221   4.526   0.735  0.1889 -0.0738 -0.0396
 1547TIP3    H1 4605   4.261   4.460   0.677  2.2452  0.2195  0.9561
 1547TIP3    H2 4606   4.166   4.475   0.794 -0.3671 -0.5830 -0.9640
 1548TIP3   OH2 4607   3.415   4.412   4.054  0.0040  0.0688  0.2329
 1548TIP3    H1 4608   3.396   4.502   4.030 -0.3044 -0.2893 -0.9653
 1548TIP3    H2 4609   3.409   4.364   3.971 -1.6760 -1.3492  1.1157
 1549TIP3   OH2 4610   5.567   5.604   4.225  0.2607  0.0368 -0.0845
 1549TIP3    H1 4611   5.515   5.619   4.146  2.4892 -0.7897 -1.8188
 1549TIP3    H2 4612   5.570   5.509   4.234  0.1374  0.1201  0.9717
 1550TIP3   OH2 4613   7.215   5.748   5.459  0.3067 -0.0023 -0.1611
 1550TIP3    H1 4614   7.147   5.764   5.394 -0.9206 -0.1327  1.0665
 1550TIP3    H2 4615   7.206   5.655   5.481  1.5393 -0.2736 -0.6922
 1551TIP3   OH2 4616   4.829   2.460   0.890 -0.2228  0.0090 -0.3418
 1551TIP3    H1 4617   4.789   2.437   0.974  0.9228  1.1549  0.5632
 1551TIP3    H2 4618   4.799   2.549   0.872 -0.5207 -0.2544 -1.2085
 1552TIP3   OH2 4619   4.009   3.808   3.548  0.0512  0.0059 -0.1915
 1552TIP3    H1 4620   4.078   3.873   3.565 -0.8935  1.0694 -0.2473
 1552TIP3    H2 4621   3.959   3.806   3.630  1.1713 -2.0941  0.4936
 1553TIP3   OH2 4622   0.797   4.080   0.200 -0.2079  0.0929 -0.1622
 1553TIP3    H1 4623   0.800   4.141   0.273  0.8290  0.2233 -0.2919
 1553TIP3    H2 4624   0.818   3.994   0.238  0.8687  0.2442 -0.3594
 1554TIP3   OH2 4625   4.625   3.616   5.510 -0.1455  0.0801  0.7971
 1554TIP3    H1 4626   4.567   3.660   5.448  0.0595  0.6808  1.0249
 1554TIP3    H2 4627   4.624   3.524   5.483 -0.8272  0.1649  0.5086
 1555TIP3   OH2 4628   5.010   2.232   1.798  0.2796  0.3450  0.0723
 1555TIP3    H1 4629   5.016   2.213   1.892  2.1933 -0.1044 -0.0853
 1555TIP3    H2 4630   5.036   2.324   1.791 -0.9283  0.7018  0.0587
 1556TIP3   OH2 4631   6.116   0.790   1.844  0.7056  0.7411  0.2390
 1556TIP3    H1 4632   6.053   0.858   1.870  0.2410 -0.2058  1.7167
 1556TIP3    H2 4633   6.069   0.708   1.856  1.9985  0.0426  0.7396
 1557TIP3   OH2 4634   1.911   0.318   0.326 -0.0915 -0.4752  0.3903
 1557TIP3    H1 4635   1.881   0.364   0.404 -1.0144  0.5527 -0.5281
 1557TIP3    H2 4636   1.963   0.383   0.278 -0.5661 -0.6914 -0.4396
 1558TIP3   OH2 4637   0.102   6.465   4.264 -0.1201 -0.5521  0.1284
 1558TIP3    H1 4638   0.193   6.438   4.261 -0.1024 -0.4968  0.1560
 1558TIP3    H2 4639   0.060   6.405   4.326  0.3236  0.6491  1.6449
 1559TIP3   OH2 4640   6.284   0.908   2.704 -0.1758  0.2852 -0.1505
 1559TIP3    H1 4641   6.224   0.977   2.678  0.4931  0.8883 -0.1361
 1559TIP3    H2 4642   6.319   0.937   2.788 -0.9216 -0.7449  0.5368
 1560TIP3   OH2 4643   3.441   3.356   5.666  0.2400  0.0321 -0.0086
 1560TIP3    H1 4644   3.482   3.436   5.631  0.9718 -0.9982 -1.6223
 1560TIP3    H2 4645   3.506   3.321   5.727  1.2250 -0.8251 -1.4777
 1561TIP3   OH2 4646   2.693   2.625   3.404  0.2003 -0.2534 -0.0480
 1561TIP3    H1 4647   2.612   2.580   3.384  1.2726 -2.2081 -0.2776
 1561TIP3    H2 4648   2.718   2.669   3.322 -0.7842  0.6969  0.1395
 1562TIP3   OH2 4649   0.898   3.137   1.418 -0.0742 -0.2104 -0.0449
 1562TIP3    H1 4650   0.870   3.150   1.508 -0.6136  0.6044 -0.3196
 1562TIP3    H2 4651   0.992   3.120   1.424  0.0108  0.4486  0.6302
 1563TIP3   OH2 4652   4.681   0.434   1.057  0.0337 -0.0632 -0.6376
 1563TIP3    H1 4653   4.773   0.442   1.083  0.1907 -0.2451 -1.1320
 1563TIP3    H2 4654   4.636   0.502   1.107  0.1508 -1.0852  0.9209
 1564TIP3   OH2 4655   6.096   1.937   1.058 -0.3433  0.6876  0.0115
 1564TIP3    H1 4656   6.099   1.906   1.149  0.0474 -0.9720 -0.5264
 1564TIP3    H2 4657   6.188   1.941   1.031 -0.4474 -3.2036 -1.6212
 1565TIP3   OH2 4658   3.562   5.979   0.441  0.0423  0.0755  0.3627
 1565TIP3    H1 4659   3.653   5.975   0.469 -0.1738 -0.6431  0.9899
 1565TIP3    H2 4660   3.518   5.910   0.490 -1.1133  1.2434  1.0538
 1566TIP3   OH2 4661   4.840   0.989   5.693 -0.1553 -0.4133 -0.1305
 1566TIP3    H1 4662   4.869   0.904   5.662  0.3178  0.1994 -1.4345
 1566TIP3    H2 4663   4.920   1.034   5.720 -0.5280 -0.8610  1.9279
 1567TIP3   OH2 4664   5.358   6.211   0.513 -0.2279  0.0403  0.0322
 1567TIP3    H1 4665   5.425   6.255   0.460  0.6848 -0.3067  0.8503
 1567TIP3    H2 4666   5.347   6.268   0.589 -0.4204 -0.2097  0.1910
 1568TIP3   OH2 4667   1.013   2.892   1.556  0.5176  1.0298  0.0320
 1568TIP3    H1 4668   0.938   2.840   1.585 -0.3388  2.8648  1.3582
 1568TIP3    H2 4669   1.025   2.867   1.465 -0.2543 -0.9513  0.4094
 1569TIP3   OH2 4670   5.997   3.047   4.092 -0.2321 -0.5578  0.2808
 1569TIP3    H1 4671   6.068   3.104   4.061 -1.4724  1.4716  1.0053
 1569TIP3    H2 4672   6.043   2.973   4.132  1.4974  0.4949  0.3853
 1570TIP3   OH2 4673   5.903   6.163   3.475 -0.3677 -0.0393  0.5225
 1570TIP3    H1 4674   5.976   6.112   3.509 -0.0705 -0.1323 -0.2248
 1570TIP3    H2 4675   5.887   6.230   3.541  0.2187 -0.1801  0.8161
 1571TIP3   OH2 4676   3.564   0.951   4.061 -0.3877 -0.1630 -0.1771
 1571TIP3    H1 4677   3.480   0.962   4.105  0.0235  1.5180  0.2651
 1571TIP3    H2 4678   3.557   0.866   4.016 -1.1959 -1.4964  2.2690
 1572TIP3   OH2 4679   7.010   3.785   0.898  0.5637  0.0729  0.2319
 1572TIP3    H1 4680   7.033   3.846   0.829  0.5800  0.4927  0.6000
 1572TIP3    H2 4681   6.932   3.823   0.939 -0.2013 -0.8111 -0.3498
 1573TIP3   OH2 4682   5.343   3.593   3.761 -0.1085  0.4006 -0.0155
 1573TIP3    H1 4683   5.396   3.669   3.782  1.4340  0.2215 -2.8321
 1573TIP3    H2 4684   5.358   3.533   3.834  2.2839  1.0301  0.0925
 1574TIP3   OH2 4685   0.620   4.661   5.607 -0.1363  0.2657  0.2338
 1574TIP3    H1 4686   0.604   4.752   5.634 -1.0145  1.2181 -3.0177
 1574TIP3    H2 4687   0.649   4.668   5.516 -0.2687 -2.7480 -0.1392
 1575TIP3   OH2 4688   4.477   4.187   0.859  0.3012 -0.0607 -0.1316
 1575TIP3    H1 4689   4.440   4.234   0.934 -0.1484  0.2865 -0.5607
 1575TIP3    H2 4690   4.469   4.248   0.786  1.6430 -0.0159 -0.2696
 1576TIP3   OH2 4691   2.464   1.459   2.131 -0.1650  0.4655 -0.3246
 1576TIP3    H1 4692   2.521   1.533   2.110 -0.4613  0.1901 -2.2895
 1576TIP3    H2 4693   2.453   1.413   2.048 -0.9611 -1.1137  0.6037
 1577TIP3   OH2 4694   1.278   6.498   1.422  0.1961  0.0839  0.1335
 1577TIP3    H1 4695   1.372   6.517   1.433  0.3315 -1.0745  1.0964
 1577TIP3    H2 4696   1.251   6.555   1.350  1.4760  0.9673  0.3119
 1578TIP3   OH2 4697   3.711   5.476   0.517 -0.0899 -0.2845  0.0001
 1578TIP3    H1 4698   3.791   5.432   0.491  0.7482  0.9662  0.3773
 1578TIP3    H2 4699   3.727   5.568   0.498 -0.7195  0.2365  1.7859
 1579TIP3   OH2 4700   6.770   4.844   0.291  0.3218  0.3810 -0.3192
 1579TIP3    H1 4701   6.754   4.893   0.211 -0.8333 -0.6046 -0.7258
 1579TIP3    H2 4702   6.683   4.815   0.319  1.0334 -2.7471 -0.9840
 1580TIP3   OH2 4703   5.089   3.975   1.119  0.6452  0.1269 -0.9465
 1580TIP3    H1 4704   5.183   3.979   1.104  0.7315 -0.3326 -0.5718
 1580TIP3    H2 4705   5.073   4.036   1.190  1.1980 -2.2121  1.3378
 1581TIP3   OH2 4706   2.518   4.087   5.695 -0.8847 -0.2051 -0.0223
 1581TIP3    H1 4707   2.548   4.000   5.724  2.5161  1.1649  1.0847
 1581TIP3    H2 4708   2.542   4.090   5.602  1.7070  0.4168  0.5664
 1582TIP3   OH2 4709   1.975   3.550   0.161 -0.1184 -0.0593  0.1040
 1582TIP3    H1 4710   1.949   3.624   0.105  1.2709  0.3987  0.0343
 1582TIP3    H2 4711   1.983   3.476   0.101  1.8350  0.5377 -0.4330
 1583TIP3   OH2 4712   6.041   1.451   3.340 -0.1984 -0.6952  0.9779
 1583TIP3    H1 4713   5.988   1.521   3.378 -0.3672  0.2607 -0.9151
 1583TIP3    H2 4714   5.984   1.411   3.274  1.2836  0.1595 -0.8941
 1584TIP3   OH2 4715   2.874   6.150   3.412 -0.0369 -0.5627 -0.3158
 1584TIP3    H1 4716   2.779   6.162   3.420 -0.4129 -1.5859 -2.4652
 1584TIP3    H2 4717   2.907   6.237   3.391 -0.3811 -0.0638  1.1029
 1585TIP3   OH2 4718   0.831   5.114   5.815 -0.9628 -0.5518 -0.4485
 1585TIP3    H1 4719   0.749   5.084   5.856  0.0734 -0.8197  1.5522
 1585TIP3    H2 4720   0.867   5.177   5.877  0.5022 -0.6791 -1.1395
 1586TIP3   OH2 4721   3.836   2.730   0.198  0.1003  0.0615 -0.2215
 1586TIP3    H1 4722   3.754   2.700   0.237  0.8703 -0.0050  1.4675
 1586TIP3    H2 4723   3.819   2.822   0.175 -0.5382 -0.0375 -0.1738
 1587TIP3   OH2 4724   4.199   4.211   2.046 -0.2284  0.2001 -0.1273
 1587TIP3    H1 4725   4.235   4.228   1.959 -1.1348  0.4098 -0.4841
 1587TIP3    H2 4726   4.267   4.240   2.107 -0.0826  1.2488 -0.7654
 1588TIP3   OH2 4727   5.426   3.746   1.036  0.1114 -0.0296 -0.1087
 1588TIP3    H1 4728   5.361   3.734   0.967  1.9593 -0.8537 -1.8148
 1588TIP3    H2 4729   5.508   3.713   0.998  1.5978  1.1576  1.8398
 1589TIP3   OH2 4730   4.079   5.754   4.374 -0.0889 -0.2066  0.7779
 1589TIP3    H1 4731   4.056   5.814   4.303  1.2764 -1.0107 -0.3971
 1589TIP3    H2 4732   3.995   5.722   4.406 -0.7464 -0.5175 -1.1070
 1590TIP3   OH2 4733   6.407   1.407   4.172  0.2809  0.2640 -0.7957
 1590TIP3    H1 4734   6.423   1.326   4.221  0.4036  1.1850  0.7688
 1590TIP3    H2 4735   6.487   1.421   4.121 -0.4607 -1.5542 -2.5892
 1591TIP3   OH2 4736   6.880   0.470   2.046  1.0490 -0.4473 -0.0704
 1591TIP3    H1 4737   6.799   0.465   2.096  0.5210 -0.9268 -0.9452
 1591TIP3    H2 4738   6.858   0.433   1.960  1.8512  0.5972 -0.7567
 1592TIP3   OH2 4739   1.997   0.126   4.735 -0.1957  0.2417 -0.2325
 1592TIP3    H1 4740   1.924   0.073   4.703  0.5753 -1.1816  0.2977
 1592TIP3    H2 4741   2.073   0.097   4.685  0.6979 -0.8774  1.6664
 1593TIP3   OH2 4742   5.576   0.288   4.464  0.0165 -0.0703 -0.1745
 1593TIP3    H1 4743   5.586   0.373   4.421 -1.4895 -0.6463 -1.7716
 1593TIP3    H2 4744   5.567   0.225   4.393  0.2562 -1.4765  0.9795
 1594TIP3   OH2 4745   5.238   4.875   1.010 -0.2088 -0.4001  0.0882
 1594TIP3    H1 4746   5.254   4.853   1.101 -1.5562  1.4237  0.8297
 1594TIP3    H2 4747   5.181   4.805   0.978  0.9483 -1.5047  0.3486
 1595TIP3   OH2 4748   5.905   1.445   5.320 -0.0885 -0.5388  0.5021
 1595TIP3    H1 4749   5.963   1.377   5.285  0.2117  0.3174 -0.7426
 1595TIP3    H2 4750   5.932   1.454   5.411 -1.8263 -3.8144  1.4764
 1596TIP3   OH2 4751   3.457   2.779   0.744 -0.3621  0.3562 -0.2849
 1596TIP3    H1 4752   3.497   2.745   0.824 -0.5331 -0.0517 -0.3709
 1596TIP3    H2 4753   3.374   2.733   0.737 -0.3532  0.3983 -0.6888
 1597TIP3   OH2 4754   4.403   5.414   5.586  0.0865 -0.4596  0.0816
 1597TIP3    H1 4755   4.371   5.333   5.625  1.6566 -1.0101  0.3300
 1597TIP3    H2 4756   4.471   5.444   5.647 -0.5524  1.1159  0.0510
 1598TIP3   OH2 4757   4.450   0.176   0.788 -0.1193 -0.2212  0.7323
 1598TIP3    H1 4758   4.427   0.084   0.774 -0.5702 -0.0788  0.5115
 1598TIP3    H2 4759   4.436   0.217   0.703 -0.0667  0.0801  0.8677
 1599TIP3   OH2 4760   3.765   3.293   2.810 -0.1074 -0.8061 -0.3673
 1599TIP3    H1 4761   3.704   3.229   2.846  0.8776 -0.8309  1.3959
 1599TIP3    H2 4762   3.729   3.378   2.837  0.0314 -0.7642 -0.3123
 1600TIP3   OH2 4763   4.592   1.732   5.513  0.1649 -0.3971 -0.1589
 1600TIP3    H1 4764   4.581   1.789   5.590 -0.4916 -0.5753 -0.1131
 1600TIP3    H2 4765   4.600   1.644   5.550 -1.1271 -0.5963 -0.3334
 1601TIP3   OH2 4766   1.369   2.377   4.742  0.2196 -0.1861 -0.0756
 1601TIP3    H1 4767   1.443   2.361   4.801 -0.0437  1.4600  0.7641
 1601TIP3    H2 4768   1.377   2.310   4.674  2.6431  0.1054 -0.1524
 1602TIP3   OH2 4769   2.319   6.202   4.428 -0.1049  0.0954 -0.6519
 1602TIP3    H1 4770   2.279   6.115   4.434 -0.7724  0.4659  1.0050
 1602TIP3    H2 4771   2.403   6.187   4.384 -0.6497 -1.2176 -1.2879
 1603TIP3   OH2 4772   5.534   2.499   0.826 -0.2185 -0.1833  0.4011
 1603TIP3    H1 4773   5.461   2.469   0.879 -1.3739 -1.2478 -1.6537
 1603TIP3    H2 4774   5.494   2.548   0.755  0.8054 -2.2923 -1.7885
 1604TIP3   OH2 4775   0.498   0.005   4.114  0.1016 -0.1501  0.2811
 1604TIP3    H1 4776   0.447   0.082   4.090  0.2507  0.4292  1.7523
 1604TIP3    H2 4777   0.544  -0.019   4.033 -2.6030 -0.8415 -1.2104
 1605TIP3   OH2 4778   0.402   6.003   5.870 -0.1168 -0.1110 -0.2626
 1605TIP3    H1 4779   0.476   5.958   5.911  0.6440  1.4952  0.2009
 1605TIP3    H2 4780   0.424   6.096   5.876 -1.4925  0.3251 -1.4609
 1606TIP3   OH2 4781   6.414   4.400   2.673 -0.4699  0.2145  0.0581
 1606TIP3    H1 4782   6.369   4.316   2.688 -1.5537  0.6248 -0.6865
 1606TIP3    H2 4783   6.424   4.438   2.760  0.8194 -1.0601  0.4974
 1607TIP3   OH2 4784   0.520   3.556   3.752  0.0889 -0.0546 -0.2547
 1607TIP3    H1 4785   0.610   3.562   3.720  0.8326  0.2015  1.7368
 1607TIP3    H2 4786   0.526   3.583   3.844 -2.1045  0.4146 -0.2035
 1608TIP3   OH2 4787   4.201   1.810   1.159 -0.5724 -0.1044  0.0888
 1608TIP3    H1 4788   4.149   1.736   1.190  0.0058  0.3343  2.3218
 1608TIP3    H2 4789   4.265   1.772   1.099 -0.4049 -1.3936  1.0521
 1609TIP3   OH2 4790   6.477   2.152   0.955  0.3967 -0.1215 -0.3304
 1609TIP3    H1 4791   6.540   2.136   0.884  0.2220 -0.1918 -0.4707
 1609TIP3    H2 4792   6.433   2.233   0.930  1.1749  0.5178  0.3032
 1610TIP3   OH2 4793   6.005   4.859   1.332 -0.2884  0.5683  0.0826
 1610TIP3    H1 4794   5.998   4.925   1.263 -0.7317  0.9566  0.4980
 1610TIP3    H2 4795   5.928   4.803   1.321 -0.9557  1.2909  0.9410
 1611TIP3   OH2 4796   5.696   2.656   3.875  0.4819 -0.0084 -0.3494
 1611TIP3    H1 4797   5.711   2.661   3.781  0.7359  3.0900 -0.2431
 1611TIP3    H2 4798   5.746   2.580   3.904  1.4925 -0.2326 -2.5202
 1612TIP3   OH2 4799   6.377   0.810   1.766 -0.2778 -0.1141 -0.2529
 1612TIP3    H1 4800   6.284   0.832   1.753 -0.8552 -3.0374 -1.9127
 1612TIP3    H2 4801   6.379   0.766   1.851 -0.4898 -0.3990 -0.3932
 1613TIP3   OH2 4802   7.176   2.008   3.124  0.6569 -0.4999 -0.1582
 1613TIP3    H1 4803   7.134   2.046   3.047  2.3133 -1.3432 -1.5436
 1613TIP3    H2 4804   7.139   2.057   3.198  0.3442  1.5642 -1.6029
 1614TIP3   OH2 4805   6.000   1.769   5.542  0.2130 -0.2578  0.4014
 1614TIP3    H1 4806   5.914   1.739   5.573  0.1765  0.9366  1.4953
 1614TIP3    H2 4807   5.985   1.789   5.449 -0.6926 -0.0749  0.5722
 1615TIP3   OH2 4808   5.789   2.082   3.307  0.0540  0.1940  0.7728
 1615TIP3    H1 4809   5.798   2.010   3.369 -0.2207 -1.0470 -0.5663
 1615TIP3    H2 4810   5.879   2.103   3.281  0.1187  0.1507  0.9598
 1616TIP3   OH2 4811   0.029   5.880   2.856  0.8794  1.2210 -0.5170
 1616TIP3    H1 4812  -0.007   5.831   2.783 -0.8572  0.1770  0.9392
 1616TIP3    H2 4813   0.118   5.847   2.866  0.7933  0.6647 -1.5097
 1617TIP3   OH2 4814   3.686   1.405   0.952  0.2111 -0.6388  0.0829
 1617TIP3    H1 4815   3.595   1.404   0.982  0.3738  3.5077  1.3599
 1617TIP3    H2 4816   3.736   1.422   1.032  1.6327  1.1873 -1.1349
 1618TIP3   OH2 4817   5.424   6.452   3.683  0.0808 -0.3318  0.1711
 1618TIP3    H1 4818   5.366   6.412   3.749  0.8796  0.0954  1.1443
 1618TIP3    H2 4819   5.467   6.524   3.729  0.7540 -0.1109 -0.7851
 1619TIP3   OH2 4820   3.386   5.406   0.760  0.3131 -0.4256  0.7033
 1619TIP3    H1 4821   3.338   5.345   0.816 -1.1444  1.2154  1.3484
 1619TIP3    H2 4822   3.432   5.464   0.822  0.7551 -0.1632  0.1386
 1620TIP3   OH2 4823   6.525   6.260   4.390 -0.1252 -0.0426  0.0691
 1620TIP3    H1 4824   6.616   6.263   4.420  0.2474 -0.9109 -0.9163
 1620TIP3    H2 4825   6.502   6.352   4.373  0.4954  0.1972  0.4859
 1621TIP3   OH2 4826   5.269   0.831   1.020  0.1183  0.4875 -0.1301
 1621TIP3    H1 4827   5.286   0.924   1.034  0.9330  0.5609 -1.4938
 1621TIP3    H2 4828   5.200   0.810   1.083 -0.0643  1.9982  0.2127
 1622TIP3   OH2 4829   3.219   3.451   4.522 -0.0775 -0.3651  0.1016
 1622TIP3    H1 4830   3.227   3.445   4.427  2.2562  0.8654  0.1492
 1622TIP3    H2 4831   3.235   3.543   4.542  1.4065 -0.9261  1.7983
 1623TIP3   OH2 4832   4.759   1.352   1.488 -0.4892  0.0643 -0.3207
 1623TIP3    H1 4833   4.710   1.412   1.432  0.2021 -1.7042 -2.9881
 1623TIP3    H2 4834   4.849   1.385   1.485 -0.5807  0.4148  0.4594
 1624TIP3   OH2 4835   1.822   4.510   0.687  0.0770 -0.2171 -0.2593
 1624TIP3    H1 4836   1.735   4.523   0.725  0.4042  1.8586 -0.1154
 1624TIP3    H2 4837   1.880   4.564   0.741  1.2680 -0.5835 -1.1257
 1625TIP3   OH2 4838   1.429   6.284   0.401  0.1953  0.7371  0.0433
 1625TIP3    H1 4839   1.478   6.232   0.338  1.3090  0.4021  1.1278
 1625TIP3    H2 4840   1.396   6.219   0.464 -0.1587  1.1398  0.2714
 1626TIP3   OH2 4841   1.347   6.142   3.626  0.0340 -0.2865  0.4728
 1626TIP3    H1 4842   1.340   6.199   3.702 -0.1949  1.7512 -0.9877
 1626TIP3    H2 4843   1.372   6.057   3.662 -0.0862  0.5861  2.7972
 1627TIP3   OH2 4844   3.069   5.841   0.663 -0.8519 -0.5698  0.4196
 1627TIP3    H1 4845   3.046   5.756   0.700  0.1965 -0.9799  0.1828
 1627TIP3    H2 4846   3.131   5.879   0.726 -1.1754 -0.0613  0.4365
 1628TIP3   OH2 4847   4.427   0.440   5.482 -0.4750 -0.2609  0.0758
 1628TIP3    H1 4848   4.352   0.492   5.456 -0.6608 -1.2205 -1.4573
 1628TIP3    H2 4849   4.474   0.494   5.546 -1.0101  1.4819 -0.9572
 1629TIP3   OH2 4850   2.395   0.645   4.752 -0.0848  0.0453 -0.0512
 1629TIP3    H1 4851   2.412   0.566   4.804  1.3000 -1.9160 -3.1787
 1629TIP3    H2 4852   2.304   0.636   4.723  0.3032 -0.8600 -1.0338
 1630TIP3   OH2 4853   6.788   5.039   2.090 -0.1303  0.1264 -0.4723
 1630TIP3    H1 4854   6.791   4.944   2.094 -0.1138  0.1417 -0.0367
 1630TIP3    H2 4855   6.876   5.067   2.116  0.3990  0.2304 -2.2386
 1631TIP3   OH2 4856   5.347   4.255   1.896 -0.0979 -0.1020  0.1223
 1631TIP3    H1 4857   5.307   4.279   1.980 -1.0847  0.7118 -0.5638
 1631TIP3    H2 4858   5.274   4.227   1.841  0.2492  1.3135 -1.1270
 1632TIP3   OH2 4859   1.267   5.331   0.107  0.3858 -0.2025  0.0041
 1632TIP3    H1 4860   1.266   5.318   0.012  0.6682 -0.8173  0.0796
 1632TIP3    H2 4861   1.353   5.298   0.135  1.3574  2.2719  0.1792
 1633TIP3   OH2 4862   6.848   1.209   2.121  1.1497 -0.2907 -0.0953
 1633TIP3    H1 4863   6.859   1.276   2.054 -0.0069  0.7751  0.7326
 1633TIP3    H2 4864   6.786   1.247   2.183 -1.9611 -3.2002 -1.0849
 1634TIP3   OH2 4865   7.052   5.888   1.640  0.4657  0.4227 -0.2951
 1634TIP3    H1 4866   7.061   5.913   1.732  1.2628  1.3134 -0.5932
 1634TIP3    H2 4867   7.084   5.964   1.591  1.5486 -0.6051 -1.2762
 1635TIP3   OH2 4868   1.907   6.108   4.997 -0.1053 -0.4647  1.4373
 1635TIP3    H1 4869   1.846   6.072   4.933  0.6948  0.6502  0.0043
 1635TIP3    H2 4870   1.929   6.033   5.053  1.5407 -2.3045 -1.4663
 1636TIP3   OH2 4871   4.382   2.789   0.895 -0.0059 -0.3993  0.1228
 1636TIP3    H1 4872   4.333   2.854   0.946 -0.4353  0.9481 -1.9174
 1636TIP3    H2 4873   4.453   2.839   0.855 -0.0680 -1.2645 -1.1306
 1637TIP3   OH2 4874   0.035   5.915   3.389 -0.3932 -0.0093 -0.3667
 1637TIP3    H1 4875  -0.039   5.868   3.352 -0.7620 -0.1251  0.5049
 1637TIP3    H2 4876   0.033   5.895   3.483  0.9339 -0.2903 -0.3674
 1638TIP3   OH2 4877   7.218   5.342   1.931 -0.1469 -0.5314  0.0749
 1638TIP3    H1 4878   7.210   5.284   2.007  1.2291  0.7451  1.2647
 1638TIP3    H2 4879   7.128   5.368   1.912 -0.7840 -2.8184 -0.3556
 1639TIP3   OH2 4880   3.984   0.422   2.302  0.3898  0.1035 -0.4325
 1639TIP3    H1 4881   3.925   0.496   2.317 -1.5625 -0.7700 -2.9834
 1639TIP3    H2 4882   3.979   0.371   2.382 -0.3801  1.3216  0.3280
 1640TIP3   OH2 4883   5.957   5.387   1.685  0.1716  0.2824  0.3426
 1640TIP3    H1 4884   5.892   5.342   1.632 -1.0203  0.8156  1.2960
 1640TIP3    H2 4885   6.037   5.334   1.676 -0.4043 -0.4275 -0.7851
 1641TIP3   OH2 4886   1.000   2.799   1.034  0.5634 -0.3401  0.0414
 1641TIP3    H1 4887   0.998   2.714   0.989  0.4795 -0.6367  0.5927
 1641TIP3    H2 4888   1.079   2.842   1.001  0.8949 -0.8571  0.1464
 1642TIP3   OH2 4889   3.177   5.124   4.020 -0.3865  0.5679 -0.0299
 1642TIP3    H1 4890   3.146   5.037   3.993  0.3723 -0.3752  1.9659
 1642TIP3    H2 4891   3.269   5.125   3.994 -0.2072  0.4884  0.6070
 1643TIP3   OH2 4892   4.630   5.541   1.676  0.0069  0.3103 -0.4206
 1643TIP3    H1 4893   4.714   5.499   1.655  0.4792  0.9716  0.1249
 1643TIP3    H2 4894   4.639   5.630   1.642  0.1390  0.8778  1.0563
 1644TIP3   OH2 4895   6.013   3.198   1.800  0.4922 -0.3637 -0.3695
 1644TIP3    H1 4896   5.998   3.153   1.883  1.2297  1.1613  0.6411
 1644TIP3    H2 4897   5.958   3.276   1.804  3.3183  1.7665  0.4774
 1645TIP3   OH2 4898   0.532   1.695   1.884 -0.0386 -0.0615  0.0914
 1645TIP3    H1 4899   0.452   1.650   1.912  0.1713 -0.3021  0.3100
 1645TIP3    H2 4900   0.544   1.766   1.947  0.1917 -0.3316  0.3542
 1646TIP3   OH2 4901   6.690   2.418   4.065 -0.1844 -0.0804  0.3946
 1646TIP3    H1 4902   6.743   2.349   4.103  2.5409  1.0826 -0.9816
 1646TIP3    H2 4903   6.708   2.413   3.971 -2.5322  0.4565 -0.1629
 1647TIP3   OH2 4904   3.493   4.631   4.639  0.0827 -0.5297  0.2165
 1647TIP3    H1 4905   3.537   4.582   4.708 -1.0528 -1.5170  0.2618
 1647TIP3    H2 4906   3.428   4.684   4.684 -1.3340 -1.9055 -0.1331
 1648TIP3   OH2 4907   5.912   4.038   0.166  0.3413  0.1655  0.2850
 1648TIP3    H1 4908   5.818   4.050   0.181  0.4001 -1.2826  2.2383
 1648TIP3    H2 4909   5.936   3.964   0.222  2.6260  0.3727 -0.3090
 1649TIP3   OH2 4910   0.613   1.845   4.642  0.1684  0.0595  0.2620
 1649TIP3    H1 4911   0.621   1.783   4.570 -1.0505  0.5151 -0.3008
 1649TIP3    H2 4912   0.519   1.864   4.647  0.4878  1.7308  0.5204
 1650TIP3   OH2 4913   5.718   3.161   4.308  0.2507 -0.0290  0.3038
 1650TIP3    H1 4914   5.639   3.165   4.363  0.3822  0.2280  0.4807
 1650TIP3    H2 4915   5.789   3.189   4.367  0.3091  0.8163 -0.1563
 1651TIP3   OH2 4916   7.045   2.440   0.522  0.5884 -0.0786  0.2285
 1651TIP3    H1 4917   6.978   2.376   0.547  1.6793 -1.6553 -0.6870
 1651TIP3    H2 4918   7.030   2.514   0.581 -0.6126 -1.2341  1.4692
 1652TIP3   OH2 4919   0.830   2.974   3.957  0.0201  0.4269 -0.0481
 1652TIP3    H1 4920   0.813   3.068   3.956 -1.6530  0.1517 -0.1816
 1652TIP3    H2 4921   0.911   2.964   4.007 -0.2932  1.8538  0.7851
 1653TIP3   OH2 4922   2.626   0.456   4.199  0.2973  0.6828 -0.4646
 1653TIP3    H1 4923   2.613   0.361   4.200  1.2840  0.4825 -2.6333
 1653TIP3    H2 4924   2.587   0.486   4.117 -0.3870  2.2513  0.3771
 1654TIP3   OH2 4925   2.767   5.260   5.637  0.2118 -0.2168  0.2798
 1654TIP3    H1 4926   2.717   5.179   5.647  0.3876 -0.3694 -0.0555
 1654TIP3    H2 4927   2.703   5.330   5.649 -0.5595 -0.4030 -2.2524
 1655TIP3   OH2 4928   6.148   1.627   1.974  0.5622 -0.3666  0.6374
 1655TIP3    H1 4929   6.124   1.677   1.895 -0.8891 -0.8960  0.7143
 1655TIP3    H2 4930   6.155   1.693   2.043 -0.2490 -0.1270  0.5016
 1656TIP3   OH2 4931   7.041   5.728   3.758  0.5106  0.1831 -0.3565
 1656TIP3    H1 4932   7.018   5.656   3.817 -1.5845  2.2003  1.5055
 1656TIP3    H2 4933   6.991   5.803   3.791  1.3073  2.1213 -3.1583
 1657TIP3   OH2 4934   7.094   1.346   3.164  0.1271 -0.0888 -0.4545
 1657TIP3    H1 4935   7.092   1.416   3.229 -1.1580  1.3466 -1.9309
 1657TIP3    H2 4936   7.174   1.298   3.183  0.7464  1.4066  1.0184
 1658TIP3   OH2 4937   1.462   6.704   4.377  0.3953 -0.4340  0.1232
 1658TIP3    H1 4938   1.470   6.792   4.415  1.1614 -0.5417  0.2318
 1658TIP3    H2 4939   1.549   6.686   4.340  0.5647 -1.5602  1.0165
 1659TIP3   OH2 4940   0.861   2.470   2.117  0.3480  0.0331 -0.2351
 1659TIP3    H1 4941   0.864   2.534   2.046  0.2826 -0.3668 -0.5973
 1659TIP3    H2 4942   0.933   2.410   2.099 -0.6119 -0.9735 -0.8231
 1660TIP3   OH2 4943   2.090   3.805   5.184  0.0632 -0.0906 -0.7190
 1660TIP3    H1 4944   2.097   3.714   5.212 -0.2621 -0.2246 -1.0678
 1660TIP3    H2 4945   2.002   3.812   5.147 -0.1207  0.5049 -0.1985
 1661TIP3   OH2 4946   0.742   2.812   5.425  0.2270 -0.1964 -0.4014
 1661TIP3    H1 4947   0.647   2.809   5.430  0.1601  1.4331 -0.1982
 1661TIP3    H2 4948   0.770   2.861   5.503  1.3865 -2.2691  0.5609
 1662TIP3   OH2 4949   5.086   1.621   3.226 -0.1182  0.1956 -0.3690
 1662TIP3    H1 4950   5.061   1.529   3.227 -0.9556  0.3967 -1.3649
 1662TIP3    H2 4951   5.110   1.640   3.317 -0.7092 -0.7995  0.0117
 1663TIP3   OH2 4952   3.649   2.402   1.362 -0.0400  0.0979  0.5009
 1663TIP3    H1 4953   3.710   2.330   1.343  0.4623  0.7826 -0.5628
 1663TIP3    H2 4954   3.640   2.401   1.457  3.2635  1.2604  0.9458
 1664TIP3   OH2 4955   2.713   2.931   1.520  0.1237 -0.5004  0.1728
 1664TIP3    H1 4956   2.699   2.912   1.427 -1.4405 -0.3944  0.3660
 1664TIP3    H2 4957   2.636   2.897   1.563  0.8248 -0.5183  1.4529
 1665TIP3   OH2 4958   1.329   4.938   1.325 -0.3248  0.2999 -0.3377
 1665TIP3    H1 4959   1.367   5.026   1.333 -1.4670  0.8959 -1.1890
 1665TIP3    H2 4960   1.238   4.949   1.353  0.0328 -1.0769  1.5746
 1666TIP3   OH2 4961   0.909   6.018   4.383  0.3795  0.1579  0.2876
 1666TIP3    H1 4962   0.884   5.936   4.340 -1.6251  1.6934 -1.7004
 1666TIP3    H2 4963   0.855   6.021   4.462 -0.5586  0.1540 -0.3348
 1667TIP3   OH2 4964   3.191   6.731   3.466 -0.2328  0.1499  0.2006
 1667TIP3    H1 4965   3.276   6.774   3.474 -0.2316  0.6677 -2.0315
 1667TIP3    H2 4966   3.145   6.753   3.547  1.2048  1.0899  0.7926
 1668TIP3   OH2 4967   4.365   0.233   1.334  0.2251 -0.8150 -1.0360
 1668TIP3    H1 4968   4.452   0.221   1.373 -0.3704 -0.1133  0.6263
 1668TIP3    H2 4969   4.368   0.185   1.252  1.8963 -1.5716 -0.5694
 1669TIP3   OH2 4970   1.301   6.790   1.215 -0.1365  0.1108  0.0699
 1669TIP3    H1 4971   1.354   6.863   1.182 -0.0150 -0.0676 -0.1301
 1669TIP3    H2 4972   1.343   6.712   1.180 -0.8491 -0.0084 -0.5280
 1670TIP3   OH2 4973   4.797   4.366   1.973 -0.1184 -0.2703 -0.4661
 1670TIP3    H1 4974   4.842   4.427   2.033 -0.3883 -0.3837 -0.1419
 1670TIP3    H2 4975   4.712   4.350   2.016  0.8738 -2.7997  0.7206
 1671TIP3   OH2 4976   0.275   6.250   0.447  0.4830  0.7701 -0.1732
 1671TIP3    H1 4977   0.330   6.192   0.501 -0.7077 -1.8242 -1.5805
 1671TIP3    H2 4978   0.206   6.279   0.506 -0.0511 -0.9463  0.0902
 1672TIP3   OH2 4979   4.698   2.259   2.629 -0.6858  1.1626 -0.4823
 1672TIP3    H1 4980   4.621   2.296   2.672  0.7124  2.6379  0.8936
 1672TIP3    H2 4981   4.664   2.185   2.578 -2.8775  1.2897  0.6817
 1673TIP3   OH2 4982   0.950   5.446   3.964  0.4108  0.6370 -0.3152
 1673TIP3    H1 4983   0.862   5.407   3.967  0.6742  0.0777  0.2674
 1673TIP3    H2 4984   0.989   5.424   4.048  1.2697  0.5079 -0.7377
 1674TIP3   OH2 4985   4.425   5.856   4.322  0.1502  0.8227 -0.1217
 1674TIP3    H1 4986   4.503   5.902   4.354  1.2169  0.1648 -1.6591
 1674TIP3    H2 4987   4.459   5.776   4.282 -1.4103  0.1268 -0.1299
 1675TIP3   OH2 4988   0.684   1.214   2.814  0.0348 -0.0848 -0.6023
 1675TIP3    H1 4989   0.595   1.250   2.807 -0.1551 -0.0151  1.4450
 1675TIP3    H2 4990   0.736   1.286   2.848  0.5551 -0.5503 -0.3949
 1676TIP3   OH2 4991   2.480   4.054   3.238  0.5340 -0.1037  0.3617
 1676TIP3    H1 4992   2.469   3.960   3.226  1.5666 -0.1941  0.0222
 1676TIP3    H2 4993   2.447   4.093   3.156  1.0362 -0.2442  0.0889
 1677TIP3   OH2 4994   0.276   5.086   3.732 -0.0836  0.1092  0.2263
 1677TIP3    H1 4995   0.254   5.030   3.807  1.3824 -0.3562  0.3376
 1677TIP3    H2 4996   0.306   5.026   3.665  0.7616  0.7037  0.0604
 1678TIP3   OH2 4997   0.947   6.537   5.157  0.0001  0.4069  0.1770
 1678TIP3    H1 4998   0.879   6.601   5.176 -0.7615 -0.2915 -0.1697
 1678TIP3    H2 4999   1.009   6.546   5.230 -0.3530  1.1810  0.3874
 1679TIP3   OH2 5000   2.543   0.268   5.130 -0.3324  0.0760 -0.0883
 1679TIP3    H1 5001   2.622   0.273   5.184  0.4614 -0.6551 -1.1264
 1679TIP3    H2 5002   2.527   0.358   5.102 -0.1405  0.2997  0.5116
 1680TIP3   OH2 5003   0.660   0.468   2.302 -0.4714  0.2449  0.8811
 1680TIP3    H1 5004   0.568   0.461   2.328 -0.3662 -1.7403  0.8884
 1680TIP3    H2 5005   0.682   0.380   2.270  0.5093  1.4787 -2.2279
 1681TIP3   OH2 5006   0.892   0.181   4.766  0.6334  0.6953 -0.5615
 1681TIP3    H1 5007   0.879   0.231   4.686 -0.3587  1.8673  0.3069
 1681TIP3    H2 5008   0.895   0.246   4.836 -2.4675 -0.4812  0.8249
 1682TIP3   OH2 5009   0.706   2.294   0.890 -0.1156  0.7692 -0.2798
 1682TIP3    H1 5010   0.638   2.229   0.907 -2.6492  2.9212 -1.4219
 1682TIP3    H2 5011   0.658   2.374   0.869  2.8143  2.9778  0.7233
 1683TIP3   OH2 5012   2.957   3.326   3.136 -0.8538 -0.2991  0.2601
 1683TIP3    H1 5013   2.930   3.288   3.052  1.1539  0.0218 -0.5860
 1683TIP3    H2 5014   3.014   3.261   3.175  0.3232  0.6209  0.1269
 1684TIP3   OH2 5015   1.849   5.677   4.228  0.0437 -0.5529 -0.7661
 1684TIP3    H1 5016   1.777   5.667   4.165  0.7413  0.6503 -1.8177
 1684TIP3    H2 5017   1.921   5.711   4.175  0.2473  1.8635  0.9160
 1685TIP3   OH2 5018   2.381   2.635   3.542 -0.2945  0.2355  0.4193
 1685TIP3    H1 5019   2.369   2.544   3.572 -1.6552  0.5295  0.8318
 1685TIP3    H2 5020   2.432   2.627   3.461  0.1058 -0.8487  0.7536
 1686TIP3   OH2 5021   2.415   1.684   3.861  0.3592 -0.3124 -0.1317
 1686TIP3    H1 5022   2.422   1.598   3.903 -1.4940 -0.9777 -1.0776
 1686TIP3    H2 5023   2.369   1.738   3.926  0.3654 -0.4156 -0.0407
 1687TIP3   OH2 5024   3.092   5.564   3.557 -0.3519 -0.0595  0.2669
 1687TIP3    H1 5025   3.149   5.519   3.494 -0.8518 -0.3965  0.0508
 1687TIP3    H2 5026   3.004   5.540   3.530 -0.6750  1.6831 -0.3423
 1688TIP3   OH2 5027   5.601   5.169   5.809  0.4126 -0.2312  0.0446
 1688TIP3    H1 5028   5.562   5.120   5.882  0.3714 -1.2007 -0.6186
 1688TIP3    H2 5029   5.686   5.198   5.843  0.9459 -1.7365  0.0848
 1689TIP3   OH2 5030   6.071   4.359   4.848 -0.3027 -0.0219  0.2440
 1689TIP3    H1 5031   6.083   4.445   4.808 -1.2820 -0.7021 -1.6403
 1689TIP3    H2 5032   6.141   4.352   4.912  1.6112  1.0237 -1.6224
 1690TIP3   OH2 5033   1.075   0.573   2.297  0.1115 -0.4767 -0.6926
 1690TIP3    H1 5034   1.059   0.559   2.203 -1.3241 -0.9009 -0.4137
 1690TIP3    H2 5035   1.168   0.553   2.309  0.3703 -0.1991 -2.0556
 1691TIP3   OH2 5036   2.224   3.345   2.876  0.0512 -0.3785 -0.1406
 1691TIP3    H1 5037   2.143   3.308   2.841 -0.9377  1.3022  0.2602
 1691TIP3    H2 5038   2.202   3.370   2.965  1.4409 -1.1369  0.4382
 1692TIP3   OH2 5039   3.879   0.641   1.435  0.2750  0.6106  0.0497
 1692TIP3    H1 5040   3.828   0.561   1.423  0.8428 -0.2044  2.4511
 1692TIP3    H2 5041   3.813   0.709   1.451 -0.1745  0.4737 -1.1436
 1693TIP3   OH2 5042   0.724   6.067   5.358 -0.3442 -0.1296  0.2255
 1693TIP3    H1 5043   0.747   6.132   5.424 -2.3579  0.4674  0.4262
 1693TIP3    H2 5044   0.628   6.065   5.360 -0.3672 -1.8606 -0.9955
 1694TIP3   OH2 5045   0.704   1.261   4.974  0.3790  0.0275 -0.6662
 1694TIP3    H1 5046   0.671   1.329   5.033  1.4159 -0.2478  0.2612
 1694TIP3    H2 5047   0.738   1.309   4.899 -2.0763  0.3283 -1.6931
 1695TIP3   OH2 5048   0.660   5.265   0.815  0.2772  0.3803 -0.0241
 1695TIP3    H1 5049   0.714   5.209   0.760 -0.1669  0.6834 -0.7848
 1695TIP3    H2 5050   0.570   5.238   0.795  0.0908  0.8810  0.1187
 1696TIP3   OH2 5051   1.254   0.739   1.027  0.5162  0.6186 -0.0024
 1696TIP3    H1 5052   1.277   0.809   0.966  0.6767  0.3821 -0.2123
 1696TIP3    H2 5053   1.336   0.719   1.073  0.9608 -0.7869 -1.3153
 1697TIP3   OH2 5054   1.340   2.824   2.734 -0.4408  0.2821 -0.1974
 1697TIP3    H1 5055   1.244   2.826   2.734 -0.6232  3.3218  3.6023
 1697TIP3    H2 5056   1.365   2.912   2.705  1.0293  0.4480  1.4276
 1698TIP3   OH2 5057   4.550   1.476   0.471 -0.0771 -0.6466  0.2753
 1698TIP3    H1 5058   4.542   1.424   0.551  0.0312 -0.0879  0.6498
 1698TIP3    H2 5059   4.459   1.486   0.441 -0.3606  1.0768  1.5780
 1699TIP3   OH2 5060   3.307   1.680   1.831 -0.1253 -0.5787 -0.0547
 1699TIP3    H1 5061   3.299   1.762   1.879  2.0474 -1.1642  1.4671
 1699TIP3    H2 5062   3.218   1.648   1.822 -0.7740  0.5419  1.9099
 1700TIP3   OH2 5063   4.217   4.201   2.467 -0.0015 -0.1313  0.1198
 1700TIP3    H1 5064   4.137   4.148   2.466 -0.2007 -0.0578  3.2721
 1700TIP3    H2 5065   4.284   4.145   2.428 -0.4823 -2.3263  2.1892
 1701TIP3   OH2 5066   2.844   1.829   0.929  0.1746 -0.2951 -0.4750
 1701TIP3    H1 5067   2.936   1.837   0.905  0.7457 -0.4799  1.4593
 1701TIP3    H2 5068   2.809   1.918   0.922  0.9070  0.0592  0.2115
 1702TIP3   OH2 5069   4.706   5.843   4.849  0.3658 -0.3795  0.0764
 1702TIP3    H1 5070   4.779   5.892   4.812  0.4351 -1.2156 -0.9510
 1702TIP3    H2 5071   4.643   5.910   4.874  0.4045  0.2624 -1.4004
 1703TIP3   OH2 5072   3.767   0.391   1.345  0.1959 -0.3830 -0.6940
 1703TIP3    H1 5073   3.676   0.359   1.343 -0.1538  0.5479 -0.3006
 1703TIP3    H2 5074   3.807   0.344   1.418 -1.0511  1.8677  1.5972
 1704TIP3   OH2 5075   5.708   4.193   0.540 -0.0546  0.5307  0.3384
 1704TIP3    H1 5076   5.725   4.275   0.586  1.7215 -0.1800  1.0347
 1704TIP3    H2 5077   5.757   4.201   0.458  0.5592 -0.0144  0.6398
 1705TIP3   OH2 5078   4.849   0.188   4.715 -0.2921 -0.6062 -0.3036
 1705TIP3    H1 5079   4.760   0.168   4.684 -0.1789 -2.3117  0.3831
 1705TIP3    H2 5080   4.887   0.243   4.646 -1.5045 -0.7487 -1.1121
 1706TIP3   OH2 5081   4.754   1.389   1.936  0.0535 -0.7237 -0.1497
 1706TIP3    H1 5082   4.730   1.312   1.988 -0.0081  0.3021  1.4310
 1706TIP3    H2 5083   4.846   1.404   1.955  0.7364 -1.7488 -2.3288
 1707TIP3   OH2 5084   2.909   6.663   4.253 -0.2223 -0.1844  0.5370
 1707TIP3    H1 5085   2.974   6.605   4.292 -0.1750  0.0567  0.8267
 1707TIP3    H2 5086   2.858   6.696   4.328  1.5669  2.3818  0.7857
 1708TIP3   OH2 5087   2.420   3.638   3.762 -0.2291  0.1503  0.1734
 1708TIP3    H1 5088   2.359   3.566   3.778 -0.4527  0.4206  0.5228
 1708TIP3    H2 5089   2.422   3.688   3.843 -0.5310  0.8839 -0.2591
 1709TIP3   OH2 5090   2.808   4.010   4.738 -0.9378  0.0950  0.2196
 1709TIP3    H1 5091   2.878   4.038   4.679 -2.1938 -0.4599 -1.5872
 1709TIP3    H2 5092   2.845   3.935   4.784 -0.5201 -0.5643 -1.1494
 1710TIP3   OH2 5093   6.130   4.234   4.382 -0.3196  0.0791 -0.2317
 1710TIP3    H1 5094   6.139   4.320   4.423  1.2056 -1.1376  2.2592
 1710TIP3    H2 5095   6.186   4.239   4.304  0.9422  0.9322  0.6840
 1711TIP3   OH2 5096   7.126   0.169   3.060  0.0336  0.2402 -0.4657
 1711TIP3    H1 5097   7.089   0.134   3.140  1.1435 -1.1265 -0.5206
 1711TIP3    H2 5098   7.167   0.251   3.087  2.4719 -1.3178  0.9270
 1712TIP3   OH2 5099   6.621   0.113   3.042  0.2857  0.0124 -0.4275
 1712TIP3    H1 5100   6.713   0.137   3.031  0.9899 -1.1235  2.1122
 1712TIP3    H2 5101   6.574   0.164   2.976  2.3927  3.0758  0.2419
 1713TIP3   OH2 5102   5.161   4.473   5.288  0.1249 -0.0825 -0.3449
 1713TIP3    H1 5103   5.218   4.411   5.243  1.7653  0.5941  0.7268
 1713TIP3    H2 5104   5.216   4.548   5.308 -1.0958  0.5605  0.8490
 1714TIP3   OH2 5105  -0.022   4.279   1.638 -0.2368 -0.3020  0.0575
 1714TIP3    H1 5106   0.063   4.317   1.659  0.3327 -0.6852 -1.4234
 1714TIP3    H2 5107  -0.005   4.185   1.631 -1.0109 -0.5101  0.7810
 1715TIP3   OH2 5108   3.155   0.511   0.593  0.0914  0.2554  0.3099
 1715TIP3    H1 5109   3.121   0.562   0.667 -2.7761 -1.5907  0.4252
 1715TIP3    H2 5110   3.085   0.514   0.528  1.7637  0.2345 -1.5690
 1716TIP3   OH2 5111   1.565   5.422   2.998  0.3026 -0.3368  0.0422
 1716TIP3    H1 5112   1.544   5.515   2.987 -0.6751 -0.7727 -2.6887
 1716TIP3    H2 5113   1.534   5.400   3.086 -2.6300  1.1963 -0.4880
 1717TIP3   OH2 5114   3.033   2.217   5.722 -0.1332 -0.3055  0.0713
 1717TIP3    H1 5115   2.988   2.178   5.647  0.6868 -1.6722  0.2649
 1717TIP3    H2 5116   2.979   2.191   5.797 -0.1475 -0.1951  0.0989
 1718TIP3   OH2 5117   4.733   3.850   4.494 -0.0191  0.0292  0.1814
 1718TIP3    H1 5118   4.735   3.934   4.448  0.2774  1.2390  2.2690
 1718TIP3    H2 5119   4.740   3.784   4.424 -1.0933  1.6832 -1.5875
 1719TIP3   OH2 5120   5.110   0.285   4.527 -0.3856 -0.0978  0.8703
 1719TIP3    H1 5121   5.202   0.273   4.553 -0.3937 -1.0935  0.4834
 1719TIP3    H2 5122   5.085   0.368   4.567  1.2420  1.1647 -0.5265
 1720TIP3   OH2 5123   3.155   3.391   1.948 -0.2249  0.6212 -0.2398
 1720TIP3    H1 5124   3.172   3.337   1.871 -1.5921  1.8047 -1.4202
 1720TIP3    H2 5125   3.101   3.336   2.005  1.9429 -0.7812  0.6023
 1721TIP3   OH2 5126   3.216   2.020   5.429  0.8610  0.2819 -0.8337
 1721TIP3    H1 5127   3.261   2.102   5.408  1.7886 -0.4354 -1.7376
 1721TIP3    H2 5128   3.286   1.955   5.438  0.0275 -1.0779 -3.1822
 1722TIP3   OH2 5129   3.904   3.397   2.517 -0.1594  0.0499  0.1649
 1722TIP3    H1 5130   3.856   3.371   2.596 -2.1890  0.7180 -0.7611
 1722TIP3    H2 5131   3.835   3.412   2.452  1.2602  2.0324 -0.9759
 1723TIP3   OH2 5132   1.521   4.086   1.274  0.0585  0.1341  0.2203
 1723TIP3    H1 5133   1.607   4.121   1.252  0.3845  0.2087  1.5588
 1723TIP3    H2 5134   1.532   3.991   1.271 -0.1142  0.1332 -0.6960
 1724TIP3   OH2 5135   4.233   3.589   3.171 -0.3958 -0.0137  0.2696
 1724TIP3    H1 5136   4.169   3.659   3.157 -0.4432  0.1286  1.1741
 1724TIP3    H2 5137   4.269   3.572   3.083 -1.3151  0.2392 -0.1664
 1725TIP3   OH2 5138   0.032   6.027   4.715  0.7067  0.1999  0.1498
 1725TIP3    H1 5139   0.048   5.937   4.745  0.0796  0.4291  1.2385
 1725TIP3    H2 5140   0.043   6.081   4.793  0.1188  0.9630 -0.2773
 1726TIP3   OH2 5141   1.836   4.560   2.202  0.3121 -0.0013  0.0726
 1726TIP3    H1 5142   1.912   4.611   2.229  0.1368 -0.5459  1.7104
 1726TIP3    H2 5143   1.761   4.615   2.226  0.1723  0.1027 -0.6023
 1727TIP3   OH2 5144   1.666   6.670   5.409  0.5566  0.6915 -0.6882
 1727TIP3    H1 5145   1.749   6.621   5.411  0.3932  0.4493  1.2043
 1727TIP3    H2 5146   1.670   6.718   5.326  1.3528 -1.4031 -1.9642
 1728TIP3   OH2 5147   5.107   1.299   1.000  0.0734  0.2315 -0.1086
 1728TIP3    H1 5148   5.100   1.233   0.931 -0.1064 -0.9709  1.0268
 1728TIP3    H2 5149   5.025   1.291   1.049  0.6645  0.2799  0.9139
 1729TIP3   OH2 5150   4.470   5.983   2.408 -0.0832 -0.8722  0.1777
 1729TIP3    H1 5151   4.489   6.060   2.462  0.3616 -0.6697 -0.2669
 1729TIP3    H2 5152   4.423   6.017   2.332  0.5541 -0.9697 -0.2657
 1730TIP3   OH2 5153   0.620   5.081   3.459  0.4707 -0.0326  0.4269
 1730TIP3    H1 5154   0.615   5.093   3.554  1.1518 -0.5269  0.5280
 1730TIP3    H2 5155   0.581   5.161   3.423  1.9915  1.0812  1.1172
 1731TIP3   OH2 5156   6.158   3.972   4.965  0.1899  0.1559  0.1138
 1731TIP3    H1 5157   6.118   3.939   4.885 -1.2228 -1.3790  1.3805
 1731TIP3    H2 5158   6.237   4.019   4.935  0.6612 -1.8125 -2.0227
 1732TIP3   OH2 5159   6.025   2.451   4.961 -0.0007 -0.2104  0.1095
 1732TIP3    H1 5160   6.061   2.401   5.034  0.5490  1.8900  1.3664
 1732TIP3    H2 5161   6.101   2.482   4.913 -0.3552 -1.2628 -1.1970
 1733TIP3   OH2 5162   5.025   3.833   1.428  0.3550 -0.0447  0.4208
 1733TIP3    H1 5163   5.105   3.874   1.396  0.4858 -1.2182 -0.8530
 1733TIP3    H2 5164   5.054   3.759   1.481  0.1586 -1.1018 -0.8932
 1734TIP3   OH2 5165   4.552   5.182   2.274 -0.1578 -0.3007  0.1939
 1734TIP3    H1 5166   4.611   5.184   2.349 -0.9297 -1.0922  0.8519
 1734TIP3    H2 5167   4.568   5.264   2.227  0.7231 -0.0496  0.9198
 1735TIP3   OH2 5168   6.756   5.568   0.040 -0.1700 -0.6192  0.9332
 1735TIP3    H1 5169   6.828   5.566   0.104  1.9729 -3.1351 -1.2830
 1735TIP3    H2 5170   6.708   5.487   0.056  0.2140 -1.1281 -0.3834
 1736TIP3   OH2 5171   0.343   1.896   1.661 -0.2019  0.3265 -0.2253
 1736TIP3    H1 5172   0.343   1.861   1.572 -1.4739 -0.2540 -0.0096
 1736TIP3    H2 5173   0.406   1.841   1.708 -2.1933 -1.7858  0.1202
 1737TIP3   OH2 5174   6.300   6.564   2.864 -1.1005  1.1277 -0.1266
 1737TIP3    H1 5175   6.391   6.591   2.850 -0.6706  0.0866  0.4989
 1737TIP3    H2 5176   6.258   6.573   2.779  0.1402 -0.3890 -0.9373
 1738TIP3   OH2 5177   2.174   1.221   1.609  0.3421 -0.2386 -0.5311
 1738TIP3    H1 5178   2.258   1.267   1.617 -0.2289  1.0412 -1.3999
 1738TIP3    H2 5179   2.169   1.164   1.686  1.0417  1.2657  0.6731
 1739TIP3   OH2 5180   3.050   2.048   4.628 -0.6290  0.2818  0.0948
 1739TIP3    H1 5181   2.958   2.049   4.654 -0.6372  1.8285  0.0705
 1739TIP3    H2 5182   3.051   2.089   4.542  0.0456 -0.1038 -0.0863
 1740TIP3   OH2 5183   3.811   3.601   1.837 -0.2186  0.9913  0.1730
 1740TIP3    H1 5184   3.715   3.596   1.841 -0.3432  0.1250 -1.9927
 1740TIP3    H2 5185   3.830   3.612   1.743  1.7737  2.7931  0.7143
 1741TIP3   OH2 5186   3.038   6.021   1.370  0.3744 -0.0143 -0.7174
 1741TIP3    H1 5187   3.106   6.008   1.437  1.5005  0.9707 -1.6183
 1741TIP3    H2 5188   3.076   5.984   1.291 -0.2015  0.4359 -1.2123
 1742TIP3   OH2 5189   2.971   5.070   5.340  0.2114 -0.1759  0.3098
 1742TIP3    H1 5190   2.930   5.002   5.287 -0.3669 -1.5594  2.4570
 1742TIP3    H2 5191   3.064   5.045   5.343  0.5006  0.6215 -1.0396
 1743TIP3   OH2 5192   0.895   0.223   5.148  0.0685  0.4111 -0.0289
 1743TIP3    H1 5193   0.814   0.186   5.115  0.1710  0.5060 -0.3934
 1743TIP3    H2 5194   0.915   0.296   5.088  0.4793  0.3162 -0.0130
 1744TIP3   OH2 5195   6.313   5.862   0.443  0.0358  0.3304  0.0366
 1744TIP3    H1 5196   6.368   5.926   0.489  0.3672  1.0284 -1.2832
 1744TIP3    H2 5197   6.366   5.833   0.370 -1.2533  0.8646 -1.1508
 1745TIP3   OH2 5198   2.057   4.040   5.524  0.7585  0.9108 -0.3253
 1745TIP3    H1 5199   2.041   3.947   5.539 -0.3575  0.6440 -2.7251
 1745TIP3    H2 5200   2.151   4.045   5.506  0.8904  0.3090  0.1576
 1746TIP3   OH2 5201   0.723   2.130   3.578  0.2090 -0.3933  0.1121
 1746TIP3    H1 5202   0.655   2.064   3.596 -2.3694  1.0618 -3.0911
 1746TIP3    H2 5203   0.743   2.117   3.485 -0.8523  3.5043 -0.8453
 1747TIP3   OH2 5204   6.238   5.869   5.640  0.5745  0.5277 -0.2310
 1747TIP3    H1 5205   6.283   5.943   5.600  0.5100  0.8960  0.3748
 1747TIP3    H2 5206   6.308   5.820   5.684  0.6205  0.2156 -0.6493
 1748TIP3   OH2 5207   0.391   5.574   0.726  0.0389 -0.2698 -0.2370
 1748TIP3    H1 5208   0.478   5.610   0.710 -0.0531  0.1147  0.1207
 1748TIP3    H2 5209   0.335   5.650   0.739 -0.3744 -0.5118 -0.5748
 1749TIP3   OH2 5210   5.134   1.925   1.996  0.1677  0.1557  0.2228
 1749TIP3    H1 5211   5.040   1.935   1.989  0.3272  1.3751 -0.3815
 1749TIP3    H2 5212   5.153   1.844   1.948 -0.5677 -0.1739  0.4696
 1750TIP3   OH2 5213   3.261   5.044   0.345  0.3149  0.0596  1.2184
 1750TIP3    H1 5214   3.306   5.125   0.324  1.3307 -1.0750 -1.4941
 1750TIP3    H2 5215   3.293   5.019   0.432  2.1403  1.1390  0.8869
 1751TIP3   OH2 5216   6.903   2.451   3.342 -0.0673 -1.0357 -0.5172
 1751TIP3    H1 5217   6.896   2.376   3.283  1.8258 -0.3527 -1.6972
 1751TIP3    H2 5218   6.964   2.510   3.298  1.8727 -0.7121  2.3298
 1752TIP3   OH2 5219   6.756   4.608   5.086  0.2295  0.0424  0.0598
 1752TIP3    H1 5220   6.836   4.660   5.080  0.6097 -0.5475 -0.1006
 1752TIP3    H2 5221   6.686   4.672   5.102  0.6851  0.5936 -0.1360
 1753TIP3   OH2 5222   4.741   1.076   1.086 -0.2363  0.1363 -0.1384
 1753TIP3    H1 5223   4.649   1.060   1.106  0.3769 -1.8943  1.3698
 1753TIP3    H2 5224   4.772   0.994   1.047  1.4442 -0.0384  1.4394
 1754TIP3   OH2 5225   2.838   5.686   4.950 -0.0640 -0.3364 -0.3951
 1754TIP3    H1 5226   2.840   5.780   4.930  0.6456  0.1484  1.6686
 1754TIP3    H2 5227   2.754   5.656   4.915 -1.4641  1.6182  1.0330
 1755TIP3   OH2 5228   4.799   1.749   5.066 -0.0187  0.1868  0.0158
 1755TIP3    H1 5229   4.850   1.735   4.986  1.0565 -0.0996  0.7210
 1755TIP3    H2 5230   4.713   1.775   5.036 -0.1161 -1.4543 -1.2741
 1756TIP3   OH2 5231   5.015   6.119   2.042 -0.2682  0.5571  0.3442
 1756TIP3    H1 5232   5.109   6.123   2.028 -0.4475  1.5958 -0.6965
 1756TIP3    H2 5233   5.005   6.065   2.121  1.1070 -0.7032 -0.2900
 1757TIP3   OH2 5234   0.082   6.107   4.981 -0.0335  0.1450 -0.6536
 1757TIP3    H1 5235   0.164   6.153   5.000 -0.2367  0.7807 -1.2762
 1757TIP3    H2 5236   0.028   6.122   5.058 -0.2777  1.3829 -1.0396
 1758TIP3   OH2 5237   0.668   0.030   4.822 -0.1353 -0.2324 -0.5623
 1758TIP3    H1 5238   0.762   0.044   4.807  0.3690  0.1435  2.3097
 1758TIP3    H2 5239   0.647   0.090   4.894 -2.6181 -0.3030 -1.1550
 1759TIP3   OH2 5240   1.422   3.780   4.746  0.0711  0.0449 -0.2945
 1759TIP3    H1 5241   1.403   3.850   4.684  1.7686  1.3156  0.5314
 1759TIP3    H2 5242   1.496   3.733   4.707 -0.0899 -0.3449 -0.1324
 1760TIP3   OH2 5243   4.044   5.794   1.625 -0.3403  0.1722 -0.3614
 1760TIP3    H1 5244   4.026   5.716   1.573  1.8043  0.0965 -1.0775
 1760TIP3    H2 5245   3.958   5.820   1.659 -1.1045 -2.5752  0.0730
 1761TIP3   OH2 5246   1.124   2.073   0.588  0.1170 -0.0595 -0.0429
 1761TIP3    H1 5247   1.204   2.109   0.551 -0.0326 -0.5721 -0.8816
 1761TIP3    H2 5248   1.057   2.087   0.521  0.0900 -2.0110 -0.4798
 1762TIP3   OH2 5249   3.161   3.393   0.466 -0.3425 -0.1419  0.2450
 1762TIP3    H1 5250   3.244   3.389   0.514 -0.8721  0.7191  1.2630
 1762TIP3    H2 5251   3.121   3.475   0.494 -1.0580 -0.0268 -1.0505
 1763TIP3   OH2 5252   2.071   4.402   4.723 -0.1793 -0.6786 -0.1771
 1763TIP3    H1 5253   2.097   4.318   4.684  0.8130 -0.1547 -0.6758
 1763TIP3    H2 5254   2.127   4.411   4.800  0.4638  0.0050 -0.7099
 1764TIP3   OH2 5255   0.602   4.651   1.411  0.9057  0.2580 -0.4282
 1764TIP3    H1 5256   0.612   4.746   1.417 -0.1792  0.3381  0.4207
 1764TIP3    H2 5257   0.582   4.624   1.501  2.2306 -0.9085 -0.4486
 1765TIP3   OH2 5258   3.668   2.306   0.086 -0.2506  0.3514 -0.4114
 1765TIP3    H1 5259   3.686   2.302  -0.008  0.9188 -1.5655 -0.1568
 1765TIP3    H2 5260   3.593   2.247   0.098 -0.1786  0.3275 -0.0889
 1766TIP3   OH2 5261   5.033   3.253   3.739 -0.2893 -0.2259 -0.0945
 1766TIP3    H1 5262   5.033   3.341   3.778 -1.0727 -0.0142 -0.5421
 1766TIP3    H2 5263   5.099   3.257   3.671  2.0574 -0.9911  1.9865
 1767TIP3   OH2 5264   3.393   5.262   5.879  1.1160 -0.4310 -0.4375
 1767TIP3    H1 5265   3.455   5.268   5.952  1.2751 -1.5909 -0.4503
 1767TIP3    H2 5266   3.444   5.222   5.808  0.6839 -0.2625 -0.8507
 1768TIP3   OH2 5267   5.938   1.503   2.722  0.0294  0.4259  0.6422
 1768TIP3    H1 5268   5.936   1.535   2.812  0.7997 -0.3005  0.9329
 1768TIP3    H2 5269   5.921   1.409   2.730 -0.4082  0.4390 -0.0279
 1769TIP3   OH2 5270   0.365   1.485   1.081  0.1149  0.3235 -0.0444
 1769TIP3    H1 5271   0.350   1.578   1.063  0.4431  0.1149 -1.4868
 1769TIP3    H2 5272   0.421   1.485   1.158  1.6439  1.4010 -1.0941
 1770TIP3   OH2 5273   5.453   1.748   1.657  0.3027 -0.3841  0.3656
 1770TIP3    H1 5274   5.382   1.799   1.620  0.3503 -0.2204  0.4971
 1770TIP3    H2 5275   5.507   1.723   1.582 -0.5476 -1.5539  0.1072
 1771TIP3   OH2 5276   6.603   2.706   2.882  0.1358  0.2380  0.1305
 1771TIP3    H1 5277   6.683   2.669   2.919 -0.7007 -0.8689  0.8863
 1771TIP3    H2 5278   6.536   2.641   2.901 -0.6740  0.4526 -1.8178
 1772TIP3   OH2 5279   3.314   5.006   1.942 -0.4694  0.2557  0.1594
 1772TIP3    H1 5280   3.262   4.963   1.874 -0.1077  0.7181 -0.4203
 1772TIP3    H2 5281   3.405   4.989   1.919 -0.2758  2.0804 -0.6332
 1773TIP3   OH2 5282   4.167   6.226   5.801  0.4196 -0.4477  0.3559
 1773TIP3    H1 5283   4.117   6.204   5.880 -0.0582 -0.9134 -0.0616
 1773TIP3    H2 5284   4.243   6.167   5.803  0.2235 -0.7074  0.2983
 1774TIP3   OH2 5285   5.478   6.399   2.215 -0.4514 -0.3764  0.0556
 1774TIP3    H1 5286   5.522   6.482   2.231 -1.9992  0.4137  0.3901
 1774TIP3    H2 5287   5.547   6.341   2.184  1.1197  0.3553  1.9786
 1775TIP3   OH2 5288   3.429   1.915   0.030 -0.4520  0.4529  0.3429
 1775TIP3    H1 5289   3.440   1.913   0.125  1.1199  0.3158  0.1932
 1775TIP3    H2 5290   3.504   1.865  -0.003 -1.6504 -0.5745 -0.9319
 1776TIP3   OH2 5291   4.375   3.429   4.777  0.2033  0.2266 -0.2453
 1776TIP3    H1 5292   4.290   3.439   4.819 -0.1162  0.1587 -0.8680
 1776TIP3    H2 5293   4.402   3.518   4.754  0.5705  0.3052  0.4676
 1777TIP3   OH2 5294   5.945   3.038   5.116  0.1284 -0.1645  0.2416
 1777TIP3    H1 5295   5.883   2.966   5.104  1.2054 -1.8605  3.6317
 1777TIP3    H2 5296   6.027   2.995   5.141  0.8948  2.1894  2.1714
 1778TIP3   OH2 5297   7.127   1.899   5.848 -0.0713  0.0551 -0.1013
 1778TIP3    H1 5298   7.094   1.810   5.841 -1.8548  0.8101 -2.4296
 1778TIP3    H2 5299   7.186   1.909   5.774 -1.3415  1.3247 -0.9982
 1779TIP3   OH2 5300   5.921   5.749   0.535 -0.0628  0.1272 -0.1080
 1779TIP3    H1 5301   5.982   5.823   0.528  0.7747 -0.5913 -0.6745
 1779TIP3    H2 5302   5.876   5.747   0.451 -0.3841  0.2430  0.0608
 1780TIP3   OH2 5303   3.554   1.899   3.215 -0.0874 -0.1329 -0.3619
 1780TIP3    H1 5304   3.633   1.943   3.184 -0.4308  0.1556 -0.8461
 1780TIP3    H2 5305   3.581   1.854   3.295  0.6438 -0.3001 -0.6943
 1781TIP3   OH2 5306   6.130   2.572   4.114  0.4120 -0.0681 -0.6388
 1781TIP3    H1 5307   6.206   2.541   4.064 -0.5249 -2.1391 -0.8882
 1781TIP3    H2 5308   6.128   2.517   4.192  0.1994  1.2204  0.3058
 1782TIP3   OH2 5309   0.309   4.128   3.115  0.2844  0.4075  0.0315
 1782TIP3    H1 5310   0.358   4.058   3.071  0.2876  0.8478 -0.6792
 1782TIP3    H2 5311   0.376   4.188   3.148  0.2833  0.0562  0.6820
 1783TIP3   OH2 5312   6.732   0.633   4.741  0.5151 -0.5846 -0.1784
 1783TIP3    H1 5313   6.768   0.721   4.732 -0.5388 -0.2593 -1.4194
 1783TIP3    H2 5314   6.692   0.632   4.828  0.1525  0.3207 -0.3238
 1784TIP3   OH2 5315   2.613   5.671   5.285  0.2228  0.3324 -0.3440
 1784TIP3    H1 5316   2.692   5.623   5.311 -1.0503 -1.2370  0.8504
 1784TIP3    H2 5317   2.643   5.761   5.271  2.0329  0.0088  1.1006
 1785TIP3   OH2 5318   2.630   4.716   2.693  0.0179  0.0476  0.5613
 1785TIP3    H1 5319   2.704   4.739   2.638 -0.7929  0.5809 -0.3439
 1785TIP3    H2 5320   2.606   4.627   2.665 -0.5045  0.3856 -0.0926
 1786TIP3   OH2 5321   3.572   4.251   0.968 -0.4210  0.3894  0.0989
 1786TIP3    H1 5322   3.615   4.332   0.996  0.3070  0.1242 -0.2291
 1786TIP3    H2 5323   3.643   4.193   0.942 -0.6723 -1.5387  3.2564
 1787TIP3   OH2 5324   3.594   1.664   0.353 -0.3591  0.1519 -0.5611
 1787TIP3    H1 5325   3.608   1.729   0.421 -1.1852  1.2251 -1.3922
 1787TIP3    H2 5326   3.500   1.666   0.336 -0.5253 -1.8022 -0.0844
 1788TIP3   OH2 5327   4.968   6.460   3.618  0.7255  0.2242 -0.0258
 1788TIP3    H1 5328   5.005   6.547   3.605 -1.0926  0.9754 -0.4355
 1788TIP3    H2 5329   4.958   6.452   3.713  1.2597  0.2927  0.0387
 1789TIP3   OH2 5330   1.175   1.664   1.083  0.5579 -0.6497  0.5916
 1789TIP3    H1 5331   1.228   1.587   1.102  0.4355 -0.8521  0.1473
 1789TIP3    H2 5332   1.095   1.628   1.043  1.3679 -0.2093 -1.5762
 1790TIP3   OH2 5333   1.506   1.441   4.838 -0.2069 -0.4279  0.0109
 1790TIP3    H1 5334   1.557   1.384   4.781 -0.6468 -0.0711 -0.7673
 1790TIP3    H2 5335   1.570   1.501   4.876  0.3853 -1.9783  1.5399
 1791TIP3   OH2 5336   5.595   0.334   0.477 -0.0674  0.4539  0.3003
 1791TIP3    H1 5337   5.683   0.361   0.505 -0.9592  2.3775  1.4381
 1791TIP3    H2 5338   5.586   0.370   0.389  1.0876 -1.7788 -0.8241
 1792TIP3   OH2 5339   6.414   5.147   3.567  0.2791 -0.5199  0.4186
 1792TIP3    H1 5340   6.417   5.191   3.482 -0.3516 -0.5893  0.3601
 1792TIP3    H2 5341   6.503   5.113   3.579 -0.1711 -2.4730 -1.2504
 1793TIP3   OH2 5342   4.299   1.786   0.715 -0.0647  0.1901  0.0792
 1793TIP3    H1 5343   4.279   1.715   0.776  0.7882  1.1099  1.4788
 1793TIP3    H2 5344   4.249   1.860   0.747 -2.1603 -0.0767 -2.2508
 1794TIP3   OH2 5345   6.227   4.676   2.031 -0.4933 -0.3418 -0.3859
 1794TIP3    H1 5346   6.283   4.616   2.080 -0.4742 -0.1994 -0.2286
 1794TIP3    H2 5347   6.225   4.642   1.942  0.0607 -0.1970 -0.4530
 1795TIP3   OH2 5348   3.247   4.536   4.480  0.0528  0.0390 -0.1088
 1795TIP3    H1 5349   3.238   4.585   4.398 -1.3230 -0.5704 -0.3303
 1795TIP3    H2 5350   3.334   4.562   4.513 -0.0667  1.5663 -0.9079
 1796TIP3   OH2 5351   5.280   6.056   4.483  0.2139 -0.5858  0.1524
 1796TIP3    H1 5352   5.307   5.985   4.541  0.8279 -0.2037  0.3477
 1796TIP3    H2 5353   5.221   6.015   4.420 -0.1195 -1.0920  0.7871
 1797TIP3   OH2 5354   1.568   4.969   3.682  0.1530  0.6844 -0.1104
 1797TIP3    H1 5355   1.651   5.001   3.647  0.9590 -1.9914 -0.9334
 1797TIP3    H2 5356   1.590   4.934   3.768 -0.4499  1.2703  0.2938
 1798TIP3   OH2 5357   1.066   5.607   0.934  0.3586 -0.0499  0.1081
 1798TIP3    H1 5358   1.035   5.519   0.912  1.3263 -0.2633 -0.4661
 1798TIP3    H2 5359   1.091   5.645   0.850  1.5547  0.1425  0.5363
 1799TIP3   OH2 5360   4.977   3.403   2.362  0.2036  0.1120 -0.5531
 1799TIP3    H1 5361   4.953   3.310   2.362 -1.2534  0.4249  1.3881
 1799TIP3    H2 5362   4.893   3.449   2.368  0.9803  1.5067 -0.1312
 1800TIP3   OH2 5363   5.224   1.133   0.694  0.1099  0.2331 -0.2226
 1800TIP3    H1 5364   5.188   1.106   0.610  0.2904 -0.4792 -0.0791
 1800TIP3    H2 5365   5.170   1.088   0.759  0.1670  0.5345  0.0412
 1801TIP3   OH2 5366   1.041   6.637   4.053 -0.0369 -0.0736 -0.2101
 1801TIP3    H1 5367   1.101   6.666   4.121 -0.1644  2.2089 -0.9845
 1801TIP3    H2 5368   0.961   6.614   4.099  0.3774 -0.0332  0.5351
 1802TIP3   OH2 5369   0.027   1.002   4.046 -0.4278 -0.5501  0.9401
 1802TIP3    H1 5370  -0.019   1.081   4.017 -1.0738 -1.0013  0.7055
 1802TIP3    H2 5371   0.114   1.009   4.005  0.7194  1.5892  3.4328
 1803TIP3   OH2 5372   0.917   2.951   4.338  0.3290 -0.3181  0.2261
 1803TIP3    H1 5373   0.927   2.970   4.431  0.9407  0.7331 -0.0343
 1803TIP3    H2 5374   0.866   2.870   4.335  0.5534 -0.5271  1.4732
 1804TIP3   OH2 5375   2.905   1.009  -0.005 -0.1448 -0.0406  0.5147
 1804TIP3    H1 5376   2.876   0.955   0.069  0.2732 -1.8803 -0.5890
 1804TIP3    H2 5377   2.995   1.033   0.017 -0.3548  0.2683  1.0527
 1805TIP3   OH2 5378   3.410   0.502   0.059  0.1287  0.1505 -0.0997
 1805TIP3    H1 5379   3.495   0.461   0.043  0.3231  0.8606 -0.9834
 1805TIP3    H2 5380   3.351   0.463  -0.007 -0.1200 -0.0237  0.2252
 1806TIP3   OH2 5381   0.806   0.897   5.705  0.1424  0.3778  0.2609
 1806TIP3    H1 5382   0.831   0.813   5.665 -0.6554 -0.4844  1.4831
 1806TIP3    H2 5383   0.889   0.944   5.715  0.9135 -1.1064  1.3417
 1807TIP3   OH2 5384   5.637   0.254   1.803  0.5772 -0.1352  0.3753
 1807TIP3    H1 5385   5.676   0.191   1.742  0.3256 -1.5853  1.6810
 1807TIP3    H2 5386   5.555   0.281   1.760 -0.0112 -1.7718  0.4271
 1808TIP3   OH2 5387   2.955   6.590   2.684 -0.7416 -0.1266  0.0361
 1808TIP3    H1 5388   2.919   6.655   2.744  0.0139  1.8146 -1.5133
 1808TIP3    H2 5389   2.903   6.599   2.604 -0.4118 -1.2035 -0.3161
 1809TIP3   OH2 5390   5.379   4.580   4.395  0.2274 -0.4393  0.1843
 1809TIP3    H1 5391   5.427   4.614   4.471  0.6106 -0.0714 -0.2129
 1809TIP3    H2 5392   5.432   4.607   4.319 -0.8027  0.3123 -0.2914
 1810TIP3   OH2 5393   3.834   2.004   1.837  0.1069  0.0712 -0.3818
 1810TIP3    H1 5394   3.878   1.925   1.869  1.9855  1.4201  0.5709
 1810TIP3    H2 5395   3.745   1.975   1.816  0.6547 -2.2279  0.1722
 1811TIP3   OH2 5396   3.439   5.599   2.732 -0.1611  0.1028  0.0057
 1811TIP3    H1 5397   3.348   5.631   2.736  0.0113  0.6301 -0.1721
 1811TIP3    H2 5398   3.457   5.570   2.822 -0.8953 -1.1519 -0.2260
 1812TIP3   OH2 5399   2.571   4.871   0.131 -0.6655 -0.1075  0.2213
 1812TIP3    H1 5400   2.649   4.830   0.169 -0.2668  0.7328  0.3311
 1812TIP3    H2 5401   2.591   4.964   0.130 -0.6048 -0.0869 -2.2024
 1813TIP3   OH2 5402   0.703   2.764   4.365  0.3836 -1.1247 -0.4223
 1813TIP3    H1 5403   0.718   2.681   4.410  1.9997  0.1825  1.6411
 1813TIP3    H2 5404   0.609   2.779   4.375  0.3293 -1.9710  0.5881
 1814TIP3   OH2 5405   1.665   0.772   3.610 -0.2208  0.5170  0.4075
 1814TIP3    H1 5406   1.758   0.789   3.595 -0.1495  0.2503  0.5476
 1814TIP3    H2 5407   1.620   0.830   3.548  0.0739 -0.8628 -1.1577
 1815TIP3   OH2 5408   3.670   3.843   2.000 -0.5609  0.1872  0.3145
 1815TIP3    H1 5409   3.596   3.787   1.979 -1.0813 -0.1095  2.6110
 1815TIP3    H2 5410   3.632   3.930   2.010 -0.1313  0.5466 -1.0634
 1816TIP3   OH2 5411   2.243   5.693   2.668 -0.5722 -0.0633 -0.0970
 1816TIP3    H1 5412   2.219   5.785   2.678 -0.7895  0.0269 -1.3339
 1816TIP3    H2 5413   2.185   5.660   2.600 -0.2499 -1.0281  0.0803
 1817TIP3   OH2 5414   3.963   6.274   1.311  0.1702  0.2952 -0.1302
 1817TIP3    H1 5415   4.002   6.283   1.223  0.3197 -1.0306 -0.2194
 1817TIP3    H2 5416   4.002   6.195   1.346 -1.1888 -0.1405  0.4568
 1818TIP3   OH2 5417   2.323   2.032   1.029 -0.0325  0.3040 -0.0284
 1818TIP3    H1 5418   2.233   2.032   1.062  0.3169  0.2031  0.9253
 1818TIP3    H2 5419   2.364   1.956   1.069  0.2116 -0.2440 -1.2490
 1819TIP3   OH2 5420   4.577   0.415   1.586 -0.2057  0.7635  0.1495
 1819TIP3    H1 5421   4.557   0.446   1.498  0.1497 -0.6595 -0.4681
 1819TIP3    H2 5422   4.639   0.479   1.620  0.9847  0.4760 -1.3120
 1820TIP3   OH2 5423   2.565   2.658   2.742  0.8093  0.4048  0.0292
 1820TIP3    H1 5424   2.559   2.576   2.693  0.5221  1.0570 -1.0694
 1820TIP3    H2 5425   2.648   2.653   2.789  1.0034 -0.3194 -0.3916
 1821TIP3   OH2 5426   0.076   1.693   5.428 -0.0968  0.3987  0.1653
 1821TIP3    H1 5427   0.104   1.627   5.492 -0.6649 -0.4269 -0.4276
 1821TIP3    H2 5428  -0.016   1.673   5.411 -0.2229  1.2243 -0.1759
 1822TIP3   OH2 5429   5.015   3.314   2.096  0.2696 -0.4973 -0.6671
 1822TIP3    H1 5430   5.073   3.322   2.172  0.0189 -0.8469 -0.4378
 1822TIP3    H2 5431   4.974   3.400   2.088 -0.1489 -0.6294 -0.0444
 1823TIP3   OH2 5432   1.208   5.424   2.514 -0.2468 -0.4619 -0.5950
 1823TIP3    H1 5433   1.228   5.335   2.487  1.0976 -0.1997 -0.5503
 1823TIP3    H2 5434   1.150   5.458   2.446  0.9908 -0.6621 -1.8080
 1824TIP3   OH2 5435   5.952   2.640   3.153 -0.0012  0.1311 -0.4394
 1824TIP3    H1 5436   5.950   2.702   3.226  0.9013 -0.4651  0.0983
 1824TIP3    H2 5437   6.031   2.664   3.104 -1.0617  1.1066 -1.7545
 1825TIP3   OH2 5438   4.635   5.310   4.678  0.1596 -0.5675  0.2893
 1825TIP3    H1 5439   4.683   5.382   4.721  0.8609 -1.1552  0.5064
 1825TIP3    H2 5440   4.545   5.321   4.707 -0.1701  1.4357 -1.2590
 1826TIP3   OH2 5441   5.884   6.144   1.578 -0.2158  0.4869  0.0758
 1826TIP3    H1 5442   5.841   6.090   1.645  0.6983 -0.6205 -0.2055
 1826TIP3    H2 5443   5.898   6.229   1.620  0.9584 -0.3980  1.5287
 1827TIP3   OH2 5444   1.941   3.920   4.305 -0.5108  0.3035  0.0934
 1827TIP3    H1 5445   2.028   3.956   4.290  0.4795 -1.8300  0.4573
 1827TIP3    H2 5446   1.894   3.935   4.222 -0.0044  1.9303  0.0770
 1828TIP3   OH2 5447   1.996   0.580   0.799  0.2346  0.0931  0.1085
 1828TIP3    H1 5448   2.016   0.513   0.734  1.1726 -0.4367  0.9103
 1828TIP3    H2 5449   2.016   0.539   0.883 -0.6227  0.8726  0.7158
 1829TIP3   OH2 5450   6.036   6.023   1.881 -0.2698  0.3944  0.2627
 1829TIP3    H1 5451   6.030   5.991   1.971  0.9845  1.1246  0.6401
 1829TIP3    H2 5452   6.091   5.958   1.836  0.1755  0.6922  0.3699
 1830TIP3   OH2 5453   3.930   2.911   2.565 -0.4082 -0.5892  0.1853
 1830TIP3    H1 5454   3.905   2.850   2.635  0.0309 -0.2336  0.6624
 1830TIP3    H2 5455   3.944   2.994   2.610 -0.8468 -0.1730 -0.4419
 1831TIP3   OH2 5456   2.345   3.400   3.338 -0.2182 -0.1175 -0.6989
 1831TIP3    H1 5457   2.282   3.328   3.336 -0.2275 -0.1421  0.0951
 1831TIP3    H2 5458   2.415   3.369   3.396  0.4243 -0.0020 -1.3846
 1832TIP3   OH2 5459   4.211   2.350   4.101  0.2381  0.4314 -0.4909
 1832TIP3    H1 5460   4.248   2.434   4.130  0.1470  0.2016  0.2944
 1832TIP3    H2 5461   4.263   2.284   4.146  0.1575  0.0649 -0.9314
 1833TIP3   OH2 5462   0.733   3.645   0.524  0.1817 -0.1877  0.1240
 1833TIP3    H1 5463   0.737   3.661   0.618 -0.0718  1.8766 -0.1768
 1833TIP3    H2 5464   0.644   3.610   0.510  0.1077 -0.1992  0.5950
 1834TIP3   OH2 5465   3.363   1.189   1.160 -0.1338  0.1357 -0.3218
 1834TIP3    H1 5466   3.350   1.276   1.123 -1.2216 -0.5645 -1.6975
 1834TIP3    H2 5467   3.302   1.185   1.234  0.8392  0.9601  0.5521
 1835TIP3   OH2 5468   0.353   1.823   2.296  0.0635  0.3093 -0.2364
 1835TIP3    H1 5469   0.388   1.754   2.240 -0.5781 -0.3155  0.1228
 1835TIP3    H2 5470   0.336   1.896   2.236 -2.0458 -0.8664 -1.1622
 1836TIP3   OH2 5471   5.299   6.811   3.063 -0.1225 -0.3554  0.0303
 1836TIP3    H1 5472   5.386   6.771   3.062 -0.1833 -0.6361  1.8291
 1836TIP3    H2 5473   5.247   6.759   3.003  0.4895 -1.3316  0.3306
 1837TIP3   OH2 5474   6.101   0.246   2.819  0.8891  0.5990 -0.0768
 1837TIP3    H1 5475   6.097   0.158   2.781 -2.2388  0.8779 -0.6259
 1837TIP3    H2 5476   6.064   0.236   2.907  0.7911  1.3252 -0.0319
 1838TIP3   OH2 5477   6.598   5.128   3.855  0.4662 -0.1116 -0.2316
 1838TIP3    H1 5478   6.619   5.214   3.820  0.7488 -0.4291 -0.8480
 1838TIP3    H2 5479   6.504   5.133   3.875  0.5098  0.3792 -0.1332
 1839TIP3   OH2 5480   1.471   5.861   0.672  0.3037  0.1861 -0.3324
 1839TIP3    H1 5481   1.427   5.928   0.619 -0.1512  1.1655  1.2271
 1839TIP3    H2 5482   1.557   5.899   0.691 -0.1969  0.6753  1.1139
 1840TIP3   OH2 5483   1.808   5.031   3.584 -0.1385 -0.4205  0.1296
 1840TIP3    H1 5484   1.813   5.002   3.492 -1.6038 -0.0061 -0.1086
 1840TIP3    H2 5485   1.887   4.996   3.624  1.1448  0.3766 -1.5631
 1841TIP3   OH2 5486   0.243   3.794   1.307 -0.4400  0.0633 -0.3014
 1841TIP3    H1 5487   0.179   3.783   1.237 -0.6379  1.1980 -0.3244
 1841TIP3    H2 5488   0.223   3.880   1.344  2.2977  1.3745 -1.6039
 1842TIP3   OH2 5489   1.377   2.112   2.351  0.3572 -0.0940  0.2986
 1842TIP3    H1 5490   1.472   2.118   2.363  0.1366  3.4241  1.3964
 1842TIP3    H2 5491   1.343   2.094   2.438 -0.0380 -0.8983 -0.0120
 1843TIP3   OH2 5492   6.625   2.776   2.593  0.8313 -0.1699 -0.6396
 1843TIP3    H1 5493   6.608   2.741   2.680  0.8524 -1.4276 -1.1112
 1843TIP3    H2 5494   6.670   2.705   2.547  0.3956  0.2868 -1.8251
 1844TIP3   OH2 5495   6.298   2.811   4.770 -0.0773  0.0724  0.3302
 1844TIP3    H1 5496   6.351   2.794   4.692 -0.8134 -0.2102 -0.1091
 1844TIP3    H2 5497   6.248   2.890   4.749 -0.0407  0.1826  0.6439
 1845TIP3   OH2 5498   3.823   5.710   1.054  0.1975 -0.3262 -0.3804
 1845TIP3    H1 5499   3.892   5.764   1.015 -0.0477  0.1159 -0.1999
 1845TIP3    H2 5500   3.753   5.771   1.076 -0.0235 -0.6952 -0.0363
 1846TIP3   OH2 5501   2.781   5.530   1.811 -0.1108  0.0662 -0.4411
 1846TIP3    H1 5502   2.809   5.608   1.858 -0.6538 -0.2447  0.4192
 1846TIP3    H2 5503   2.862   5.494   1.773  0.6371 -0.5941  1.6527
 1847TIP3   OH2 5504   5.641   1.014   2.659  0.0347  0.0742  0.5126
 1847TIP3    H1 5505   5.578   1.087   2.657 -0.5689 -0.2790  3.0013
 1847TIP3    H2 5506   5.630   0.971   2.575 -2.8603  0.2514  0.6896
 1848TIP3   OH2 5507   5.734   4.814   5.840 -0.0418 -0.1687 -0.1850
 1848TIP3    H1 5508   5.796   4.848   5.775  1.1398 -3.6820 -1.1009
 1848TIP3    H2 5509   5.649   4.847   5.811  0.5600 -0.7911 -3.0108
 1849TIP3   OH2 5510   1.730   4.676   4.561 -0.3243  1.5882 -0.2417
 1849TIP3    H1 5511   1.642   4.668   4.598 -1.0223  1.6635 -1.8245
 1849TIP3    H2 5512   1.719   4.725   4.481  1.1264  1.3106 -0.6520
 1850TIP3   OH2 5513   6.509   4.570   4.663 -0.0739  0.9800 -0.3031
 1850TIP3    H1 5514   6.486   4.491   4.711  0.5702  1.4149  0.7553
 1850TIP3    H2 5515   6.515   4.542   4.572  0.4335 -0.2540  0.0887
 1851TIP3   OH2 5516   2.317   6.168   3.967  0.3698 -0.6229  0.4513
 1851TIP3    H1 5517   2.300   6.151   3.874  0.2951 -0.1678  0.3836
 1851TIP3    H2 5518   2.237   6.208   3.999 -0.4594 -2.7294  1.2332
 1852TIP3   OH2 5519   0.781   3.929   1.628  0.0399 -0.1770  0.5268
 1852TIP3    H1 5520   0.698   3.955   1.666 -0.1340 -2.0266  1.5224
 1852TIP3    H2 5521   0.778   3.964   1.538 -2.2599 -1.0445  0.1960
 1853TIP3   OH2 5522   0.319   2.488   3.959 -0.2435  0.0757 -0.3045
 1853TIP3    H1 5523   0.375   2.563   3.940  1.8309 -1.7328 -1.8765
 1853TIP3    H2 5524   0.255   2.488   3.888 -0.7057  0.7092  0.0945
 1854TIP3   OH2 5525   0.506   2.703   3.934 -0.2736  0.6785 -0.1550
 1854TIP3    H1 5526   0.599   2.686   3.951 -0.5749 -1.2803 -0.2474
 1854TIP3    H2 5527   0.504   2.794   3.906  1.5411  0.9522  0.4200
 1855TIP3   OH2 5528   0.365   2.461   4.917 -0.2363 -0.1928  0.2898
 1855TIP3    H1 5529   0.381   2.512   4.997  0.8697  0.3760 -0.2674
 1855TIP3    H2 5530   0.308   2.518   4.864 -1.0074 -0.5890  0.6651
 1856TIP3   OH2 5531   5.000   1.503   1.484  0.1122 -0.7283  0.1935
 1856TIP3    H1 5532   5.015   1.526   1.392  1.7552  0.2992  0.6687
 1856TIP3    H2 5533   4.949   1.576   1.519  1.6491  0.1824  0.6592
 1857TIP3   OH2 5534   5.446   1.192   0.820 -0.3679 -0.6390  0.2163
 1857TIP3    H1 5535   5.508   1.123   0.798 -0.3440 -0.5128 -0.1218
 1857TIP3    H2 5536   5.362   1.160   0.790 -0.3950 -0.6168  0.2672
 1858TIP3   OH2 5537   0.736   3.849   0.353 -0.1683 -0.0164  0.0612
 1858TIP3    H1 5538   0.721   3.777   0.413 -1.4554  0.3900  0.2478
 1858TIP3    H2 5539   0.651   3.892   0.343 -0.0739 -0.2055 -2.2343
 1859TIP3   OH2 5540   3.579   1.468   3.079  0.0452 -0.0317  0.3844
 1859TIP3    H1 5541   3.537   1.382   3.077  0.4902 -0.3111  1.7539
 1859TIP3    H2 5542   3.630   1.472   2.998 -0.2410 -0.9155  0.1486
 1860TIP3   OH2 5543   1.200   2.520   0.677  0.2523  0.0162 -0.3577
 1860TIP3    H1 5544   1.187   2.578   0.753  2.0604 -0.7679  0.5962
 1860TIP3    H2 5545   1.119   2.470   0.671 -0.0311  0.2892  0.8976
 1861TIP3   OH2 5546   4.822   0.436   0.474 -0.5151 -0.7308  0.2403
 1861TIP3    H1 5547   4.842   0.346   0.499 -0.1073 -2.1598 -4.2802
 1861TIP3    H2 5548   4.752   0.428   0.409  1.5440  1.7362 -2.6083
 1862TIP3   OH2 5549   3.277   6.021   4.645  0.4714  0.3380 -0.6401
 1862TIP3    H1 5550   3.289   5.935   4.685 -3.7423 -1.5628 -2.8262
 1862TIP3    H2 5551   3.243   6.076   4.716  1.0475 -0.4241  0.2492
 1863TIP3   OH2 5552   5.818   1.853   0.113 -0.5960  0.0439 -0.1372
 1863TIP3    H1 5553   5.782   1.926   0.164 -1.4762  0.7378 -1.6912
 1863TIP3    H2 5554   5.862   1.895   0.039 -1.1839 -1.0050 -1.1099
 1864TIP3   OH2 5555   5.512   3.023   3.792  0.1943  0.8879 -0.2049
 1864TIP3    H1 5556   5.548   3.020   3.881  0.4844  2.2710 -0.2553
 1864TIP3    H2 5557   5.426   2.982   3.800  0.8903 -0.5420  0.3489
 1865TIP3   OH2 5558   3.827   1.904   0.792  0.4137  0.0010 -0.1457
 1865TIP3    H1 5559   3.860   1.817   0.769 -0.0738 -0.1238 -0.4019
 1865TIP3    H2 5560   3.879   1.964   0.740 -1.0415 -0.3107 -2.0634
 1866TIP3   OH2 5561   5.742   6.722   4.722 -0.5550  0.2849  0.5527
 1866TIP3    H1 5562   5.752   6.817   4.722  1.1958  0.1627  2.2263
 1866TIP3    H2 5563   5.788   6.693   4.644 -0.8023  0.7888  0.2169
 1867TIP3   OH2 5564   2.269   2.254   5.255  0.2994  0.1234  0.1315
 1867TIP3    H1 5565   2.221   2.335   5.271  0.7231  0.3817  0.1267
 1867TIP3    H2 5566   2.298   2.226   5.342 -1.1026 -0.8306  0.3185
 1868TIP3   OH2 5567   1.792   5.632   1.855 -0.0809 -0.0498  0.9943
 1868TIP3    H1 5568   1.831   5.680   1.782 -1.4274 -0.9290 -0.3740
 1868TIP3    H2 5569   1.729   5.693   1.893 -0.9275 -0.2682  0.0094
 1869TIP3   OH2 5570   3.491   4.635   0.590 -0.1940 -0.4881 -0.5779
 1869TIP3    H1 5571   3.562   4.577   0.615 -0.3159  0.0522  1.1884
 1869TIP3    H2 5572   3.452   4.595   0.512  1.5322 -1.1983 -1.1027
 1870TIP3   OH2 5573   7.101   6.116   0.831 -0.1317  0.4464 -0.3973
 1870TIP3    H1 5574   7.180   6.071   0.802  0.3135  0.5862  0.5533
 1870TIP3    H2 5575   7.130   6.172   0.903 -1.3521 -0.6181  0.9698
 1871TIP3   OH2 5576   6.999   5.995   4.246 -0.5341 -0.0294  0.4098
 1871TIP3    H1 5577   6.989   6.011   4.340 -1.7057  0.5320  0.2116
 1871TIP3    H2 5578   6.926   6.041   4.206 -0.7997 -1.3265 -0.6835
 1872TIP3   OH2 5579   2.050   3.836   3.161  0.1743  0.2102 -0.9559
 1872TIP3    H1 5580   1.984   3.812   3.226  1.1879 -0.5949 -0.1916
 1872TIP3    H2 5581   2.007   3.821   3.077 -0.5619 -0.4511 -0.4749
 1873TIP3   OH2 5582   6.108   5.261   0.857 -0.2983 -0.0377  0.3833
 1873TIP3    H1 5583   6.030   5.223   0.897 -0.2333 -1.2510 -0.5770
 1873TIP3    H2 5584   6.149   5.312   0.927 -0.7213 -1.2650  1.5509
 1874TIP3   OH2 5585   2.265   0.364   4.439  0.1086  0.0651  0.3204
 1874TIP3    H1 5586   2.173   0.338   4.439 -0.4357  1.8167 -0.2828
 1874TIP3    H2 5587   2.296   0.347   4.528 -1.5839  1.9392  1.3449
 1875TIP3   OH2 5588   2.176   4.420   0.220 -0.3430 -0.2515  0.5351
 1875TIP3    H1 5589   2.081   4.415   0.211 -0.3258  0.8686 -0.5089
 1875TIP3    H2 5590   2.205   4.329   0.213 -1.3453 -0.6296  1.1085
 1876TIP3   OH2 5591   6.649   4.730   0.781  0.4985  0.1825  0.2201
 1876TIP3    H1 5592   6.560   4.750   0.810  0.7489  1.4471  0.1668
 1876TIP3    H2 5593   6.697   4.715   0.863  0.3939  0.2188  0.2885
 1877TIP3   OH2 5594   6.616   1.831   1.048  0.3542 -0.4594 -0.0560
 1877TIP3    H1 5595   6.638   1.847   0.956  1.1619  1.3893  0.3880
 1877TIP3    H2 5596   6.636   1.739   1.063  1.9722 -0.3485 -1.2970
 1878TIP3   OH2 5597   2.523   1.844   3.562  0.4417 -0.7995  0.0911
 1878TIP3    H1 5598   2.565   1.910   3.506  2.1559 -2.0701 -0.1883
 1878TIP3    H2 5599   2.430   1.851   3.540  0.7628  0.5007 -1.0295
 1879TIP3   OH2 5600   6.121   3.250   1.202 -0.0593 -0.1580 -0.1211
 1879TIP3    H1 5601   6.109   3.171   1.254 -0.8860  0.8102  1.2487
 1879TIP3    H2 5602   6.044   3.303   1.222  1.3503  1.7850  0.4886
 1880TIP3   OH2 5603   6.387   4.915   2.316  0.2720 -0.0230 -0.1070
 1880TIP3    H1 5604   6.425   4.861   2.385  1.9589  0.3726 -0.6744
 1880TIP3    H2 5605   6.328   4.855   2.269 -0.9347 -0.2870  1.6276
 1881TIP3   OH2 5606   4.332   3.507   2.371  0.1869 -0.0248  0.6560
 1881TIP3    H1 5607   4.375   3.431   2.411 -1.1999 -1.2531 -0.0726
 1881TIP3    H2 5608   4.312   3.479   2.282  0.3383  1.5002  0.1126
 1882TIP3   OH2 5609   4.754   3.109   0.279 -0.6342  0.7516 -0.1692
 1882TIP3    H1 5610   4.825   3.141   0.223 -0.7764  0.1216 -0.7138
 1882TIP3    H2 5611   4.757   3.166   0.356  1.9877 -0.7529  0.9295
 1883TIP3   OH2 5612   3.380   0.903   5.483 -0.1000 -0.0671  0.2066
 1883TIP3    H1 5613   3.394   0.994   5.456 -2.1736 -0.0195 -0.8685
 1883TIP3    H2 5614   3.465   0.860   5.469  1.2578  1.9072  1.8245
 1884TIP3   OH2 5615   1.338   3.974   3.774 -0.2154 -0.2639 -0.1315
 1884TIP3    H1 5616   1.253   4.017   3.787 -0.4710 -0.5295 -0.8785
 1884TIP3    H2 5617   1.383   3.985   3.857 -1.2836 -0.7653  0.5426
 1885TIP3   OH2 5618   3.146   0.716   5.788  0.2808  0.0927 -0.5113
 1885TIP3    H1 5619   3.123   0.805   5.760  0.9405  0.1476 -0.9025
 1885TIP3    H2 5620   3.115   0.659   5.718 -0.2036  0.0045 -0.2282
 1886TIP3   OH2 5621   0.084   4.106   0.022 -0.2089 -0.1505 -0.0394
 1886TIP3    H1 5622   0.025   4.179   0.005 -0.0174 -0.1644 -0.8234
 1886TIP3    H2 5623   0.027   4.036   0.055 -0.4182  0.2871  0.5462
 1887TIP3   OH2 5624   2.811   3.910   4.335  0.2638  0.2945  0.4251
 1887TIP3    H1 5625   2.845   3.826   4.365  0.1447 -0.8689 -2.4467
 1887TIP3    H2 5626   2.886   3.955   4.297 -0.2634  0.0678 -0.9490
 1888TIP3   OH2 5627   6.436   0.664   3.222 -0.0372 -0.6519  0.2326
 1888TIP3    H1 5628   6.353   0.682   3.177  0.7867 -1.1102 -1.5691
 1888TIP3    H2 5629   6.489   0.742   3.206  0.1634 -0.6960  0.6887
 1889TIP3   OH2 5630   0.844   2.862   0.377 -0.0450  0.1327 -0.4903
 1889TIP3    H1 5631   0.779   2.889   0.442 -0.3641  1.9492 -1.4857
 1889TIP3    H2 5632   0.897   2.797   0.422 -2.9203 -1.9753  0.1681
 1890TIP3   OH2 5633   0.786   3.932   1.350 -0.2807  0.4322  0.1494
 1890TIP3    H1 5634   0.750   3.861   1.297 -1.5429  0.6374  0.6817
 1890TIP3    H2 5635   0.881   3.919   1.348 -0.5107 -2.3792  1.7189
 1891TIP3   OH2 5636   6.409   6.518   4.308  0.9197 -0.2021 -0.0676
 1891TIP3    H1 5637   6.480   6.570   4.270  0.3887  0.8803  0.3834
 1891TIP3    H2 5638   6.338   6.526   4.245  0.5802  0.2485  0.3712
 1892TIP3   OH2 5639   5.649   2.853   5.801  0.5991 -0.3920 -0.6663
 1892TIP3    H1 5640   5.627   2.890   5.886  2.7291  0.2085 -0.3195
 1892TIP3    H2 5641   5.708   2.780   5.820 -1.2396 -2.1902 -1.5122
 1893TIP3   OH2 5642   0.112   2.256   2.941 -0.2178 -0.0324 -0.3084
 1893TIP3    H1 5643   0.137   2.319   2.873 -0.5764  0.8707  0.3779
 1893TIP3    H2 5644   0.112   2.171   2.896 -0.6251  0.5653 -1.4718
 1894TIP3   OH2 5645   3.341   1.545   4.233 -0.1108 -0.7846 -0.4110
 1894TIP3    H1 5646   3.281   1.475   4.210  0.5492 -0.9079 -1.9007
 1894TIP3    H2 5647   3.410   1.502   4.283 -0.2637 -0.9980 -0.3821
 1895TIP3   OH2 5648   2.295   2.607   2.089 -0.1495 -0.2904 -0.2472
 1895TIP3    H1 5649   2.362   2.546   2.118  2.1609  1.4733 -1.4949
 1895TIP3    H2 5650   2.272   2.578   2.001 -0.5238 -0.4817 -0.0898
 1896TIP3   OH2 5651   2.930   1.195   4.237 -0.1260 -0.3178 -0.0006
 1896TIP3    H1 5652   2.941   1.123   4.175  0.2594 -1.6297  1.5002
 1896TIP3    H2 5653   2.915   1.151   4.321 -2.0673  1.3860  0.6230
 1897TIP3   OH2 5654   1.771   6.216   5.569 -0.2603 -0.6701 -0.3785
 1897TIP3    H1 5655   1.686   6.208   5.526 -0.0263 -3.4031 -0.5146
 1897TIP3    H2 5656   1.828   6.156   5.520  0.9094 -1.2680  1.6032
 1898TIP3   OH2 5657   5.819   3.611   3.292 -0.8440  0.2152  1.1587
 1898TIP3    H1 5658   5.860   3.697   3.287 -1.4740  0.4806  0.0464
 1898TIP3    H2 5659   5.837   3.580   3.380  1.3410  0.5056  0.8613
 1899TIP3   OH2 5660   6.827   0.583   3.136  0.4583  0.0118 -0.2519
 1899TIP3    H1 5661   6.825   0.574   3.041  0.7989 -1.0840 -0.1669
 1899TIP3    H2 5662   6.763   0.652   3.155  2.7837  2.7369 -1.5249
 1900TIP3   OH2 5663   2.156   5.041   5.266  0.3777 -0.2939  0.1803
 1900TIP3    H1 5664   2.224   5.089   5.218  0.3489 -1.4965 -1.1403
 1900TIP3    H2 5665   2.076   5.058   5.217 -0.7362  2.5560  2.7156
 1901TIP3   OH2 5666   6.776   1.800   4.861  0.0456  0.4006 -0.4853
 1901TIP3    H1 5667   6.710   1.762   4.802  0.5279 -0.1853 -0.6575
 1901TIP3    H2 5668   6.822   1.724   4.897  0.4469  0.7970 -0.1537
 1902TIP3   OH2 5669   3.781   4.759   1.688  0.5469 -0.3784 -0.4641
 1902TIP3    H1 5670   3.727   4.681   1.671  1.5359 -1.6702  1.7463
 1902TIP3    H2 5671   3.802   4.793   1.601 -2.8799 -0.3974 -1.4626
 1903TIP3   OH2 5672   0.838   0.322   2.752  0.0455  0.9312  0.0532
 1903TIP3    H1 5673   0.873   0.315   2.663  0.1077  0.3396  0.1195
 1903TIP3    H2 5674   0.789   0.240   2.765 -1.0930  1.5917  0.0801
 1904TIP3   OH2 5675   7.159   1.223   2.801 -0.2168  0.4580 -0.0404
 1904TIP3    H1 5676   7.243   1.262   2.824  0.1723 -0.5763  0.3549
 1904TIP3    H2 5677   7.142   1.254   2.712  0.6749  0.5368 -0.1959
 1905TIP3   OH2 5678   2.556   3.100   5.298  0.3148  0.6897  0.2379
 1905TIP3    H1 5679   2.520   3.164   5.237  0.6627  0.1439 -0.5655
 1905TIP3    H2 5680   2.481   3.046   5.323  0.1922  0.8326  0.1765
 1906TIP3   OH2 5681   3.721   3.342   0.102 -0.0971  0.4324  0.9520
 1906TIP3    H1 5682   3.809   3.305   0.108  0.0394  0.4951 -0.3203
 1906TIP3    H2 5683   3.685   3.332   0.190  0.3727 -1.6049  0.9599
 1907TIP3   OH2 5684   0.862   0.792   3.577  0.3491 -0.4099 -0.6912
 1907TIP3    H1 5685   0.774   0.823   3.598  1.1800  1.0086  0.9157
 1907TIP3    H2 5686   0.860   0.780   3.482 -2.0555 -2.0718 -0.5283
 1908TIP3   OH2 5687   2.067   5.633   3.546  0.4202 -0.5626 -0.4542
 1908TIP3    H1 5688   2.131   5.568   3.516  0.5569 -1.0152  0.7639
 1908TIP3    H2 5689   2.116   5.688   3.608 -0.3919 -0.9963  0.5918
 1909TIP3   OH2 5690   7.014   3.210   4.201  0.3196  0.4934  0.0231
 1909TIP3    H1 5691   6.992   3.301   4.183  1.6486  0.5007 -1.9067
 1909TIP3    H2 5692   7.026   3.171   4.114  0.1364 -1.4325  0.8143
 1910TIP3   OH2 5693   2.161   5.103   2.630 -0.0971  0.2973  0.6682
 1910TIP3    H1 5694   2.239   5.047   2.627 -0.0318  0.4094  0.1336
 1910TIP3    H2 5695   2.183   5.176   2.573 -0.7609  0.1195  0.1798
 1911TIP3   OH2 5696   4.630   2.617   5.655 -0.7784 -0.0326 -0.0239
 1911TIP3    H1 5697   4.603   2.707   5.672  1.1334  0.5500  0.1353
 1911TIP3    H2 5698   4.655   2.583   5.741  0.4375 -0.0080 -0.3433
 1912TIP3   OH2 5699   0.679   0.509   1.194 -0.3824  0.7061 -0.1389
 1912TIP3    H1 5700   0.757   0.468   1.156 -0.1181 -0.1925  1.3055
 1912TIP3    H2 5701   0.710   0.594   1.224  0.3003  0.0095  1.2228
 1913TIP3   OH2 5702   4.073   2.918   1.027 -0.2318 -0.2101  0.1904
 1913TIP3    H1 5703   4.013   2.889   0.958 -0.4464 -0.7675  0.6003
 1913TIP3    H2 5704   4.015   2.950   1.096  0.0109  1.7611 -0.4743
 1914TIP3   OH2 5705   3.408   0.052   5.579 -0.2903 -0.0515 -0.2239
 1914TIP3    H1 5706   3.427  -0.042   5.578  2.4728  0.4290 -0.9141
 1914TIP3    H2 5707   3.353   0.066   5.502 -2.1183 -1.2825  0.7832
 1915TIP3   OH2 5708   3.467   2.219   5.148  0.2651 -0.4783  0.1193
 1915TIP3    H1 5709   3.450   2.244   5.057 -0.1748 -0.2548  0.2591
 1915TIP3    H2 5710   3.499   2.129   5.143 -1.7697 -1.2453 -0.1031
 1916TIP3   OH2 5711   4.488   5.395   3.849 -0.1521  0.0799 -0.2544
 1916TIP3    H1 5712   4.403   5.433   3.871  0.1387  0.2441  0.6795
 1916TIP3    H2 5713   4.522   5.364   3.933 -0.1587 -1.8394 -0.9179
 1917TIP3   OH2 5714   6.787   4.007   1.960  0.2412 -0.0424 -0.5719
 1917TIP3    H1 5715   6.852   3.963   2.014  0.7432 -0.6364 -1.6213
 1917TIP3    H2 5716   6.838   4.049   1.890 -0.4710 -0.3704 -1.3134
 1918TIP3   OH2 5717   6.347   6.769   1.872 -0.2367 -0.0069  0.5590
 1918TIP3    H1 5718   6.306   6.828   1.936  1.3212 -0.2887  1.8602
 1918TIP3    H2 5719   6.273   6.722   1.833 -1.2866  0.7367  1.5714
 1919TIP3   OH2 5720   4.897   4.861   4.953 -0.2835 -0.1263  0.0331
 1919TIP3    H1 5721   4.896   4.799   4.879  1.6958 -1.1644  0.7843
 1919TIP3    H2 5722   4.821   4.836   5.005 -2.0926  1.0248 -1.8775
 1920TIP3   OH2 5723   1.827   4.359   1.391 -0.3955  0.3104  0.1090
 1920TIP3    H1 5724   1.885   4.416   1.442  0.9939  0.8564 -1.9400
 1920TIP3    H2 5725   1.757   4.417   1.361 -1.6192 -0.1665  1.8880
 1921TIP3   OH2 5726   5.122   4.596   5.852  0.1158  0.1234 -0.1854
 1921TIP3    H1 5727   5.194   4.533   5.853 -0.2947 -0.3445  0.1717
 1921TIP3    H2 5728   5.110   4.616   5.759 -0.5301 -1.2354 -0.4219
 1922TIP3   OH2 5729   4.355   5.940   5.058  0.3893  0.5339  0.0222
 1922TIP3    H1 5730   4.316   5.970   5.140  1.5572  1.9338  0.0944
 1922TIP3    H2 5731   4.416   5.870   5.084  0.1662  0.4154  0.2371
 1923TIP3   OH2 5732   2.097   1.786   0.655  0.2038  0.4047 -0.3347
 1923TIP3    H1 5733   2.077   1.824   0.570  0.9596 -0.8212 -1.0771
 1923TIP3    H2 5734   2.155   1.712   0.637 -1.0310 -0.9949  1.0573
 1924TIP3   OH2 5735   2.365   0.451   1.660 -0.5118  0.0815  0.1486
 1924TIP3    H1 5736   2.321   0.366   1.659 -1.4645  0.5277  1.2677
 1924TIP3    H2 5737   2.457   0.430   1.670 -0.5689 -0.8515 -1.0903
 1925TIP3   OH2 5738   3.354   3.214   2.313  0.4451  0.0275  0.2134
 1925TIP3    H1 5739   3.322   3.168   2.390 -1.0330 -0.4572 -0.6415
 1925TIP3    H2 5740   3.382   3.300   2.345  0.4523 -0.3946  1.3655
 1926TIP3   OH2 5741   3.672   0.273   0.641 -0.4865  0.2103  0.2969
 1926TIP3    H1 5742   3.668   0.181   0.614  1.2245  0.5423 -1.2488
 1926TIP3    H2 5743   3.583   0.306   0.627 -0.9707 -1.0341  0.3051
 1927TIP3   OH2 5744   2.063   4.573   5.535  0.3379  0.1459 -0.4363
 1927TIP3    H1 5745   2.106   4.488   5.544 -0.2363 -0.1106 -0.1148
 1927TIP3    H2 5746   2.136   4.635   5.527  0.7807 -0.2053  0.7218
 1928TIP3   OH2 5747   6.286   5.891   4.920 -0.1443 -0.3108 -0.2149
 1928TIP3    H1 5748   6.209   5.881   4.865 -0.3187  1.9066 -0.4594
 1928TIP3    H2 5749   6.296   5.985   4.931  1.7728 -0.5840  0.9008
 1929TIP3   OH2 5750   0.818   0.761   2.992 -0.2127 -0.6155 -0.3453
 1929TIP3    H1 5751   0.868   0.707   2.932  1.0105  0.6387 -0.5118
 1929TIP3    H2 5752   0.776   0.826   2.936 -1.0423 -0.9135 -0.0791
 1930TIP3   OH2 5753   1.372   4.373   2.628 -0.6997 -0.6427  0.1609
 1930TIP3    H1 5754   1.457   4.408   2.653 -1.1895  0.1845  0.7424
 1930TIP3    H2 5755   1.387   4.280   2.613  0.3088 -0.4926  0.2111
 1931TIP3   OH2 5756   6.484   1.226   2.637 -0.0528  0.3185  0.1961
 1931TIP3    H1 5757   6.464   1.213   2.730  0.6962 -0.8723  0.2153
 1931TIP3    H2 5758   6.517   1.141   2.608 -2.0110  0.0970 -1.6426
 1932TIP3   OH2 5759   2.337   0.006   2.066  0.3903  0.1017  0.6949
 1932TIP3    H1 5760   2.365   0.017   1.975 -2.5701 -0.2486 -0.3557
 1932TIP3    H2 5761   2.310   0.094   2.094  1.6814  0.2898  1.4242
 1933TIP3   OH2 5762   5.340   0.953   1.469 -0.1714 -0.5895 -0.3670
 1933TIP3    H1 5763   5.426   0.942   1.429 -1.0830 -0.5736 -2.4412
 1933TIP3    H2 5764   5.354   1.018   1.538  1.2512  0.2617 -1.4061
 1934TIP3   OH2 5765   5.752   5.800   4.549  0.2234 -0.1721 -0.4991
 1934TIP3    H1 5766   5.845   5.783   4.530 -0.0763 -0.9279 -1.3126
 1934TIP3    H2 5767   5.730   5.875   4.494  0.3983  0.1530 -0.1367
 1935TIP3   OH2 5768   3.787   0.359   4.670  0.2078 -0.1939  0.1127
 1935TIP3    H1 5769   3.816   0.419   4.739  0.6219  0.0965 -0.3073
 1935TIP3    H2 5770   3.760   0.416   4.598  0.4588 -0.5075 -0.2347
 1936TIP3   OH2 5771   6.978   6.358   5.362 -0.1482 -0.1700  0.5455
 1936TIP3    H1 5772   6.915   6.359   5.290  1.5056  1.3537 -0.9802
 1936TIP3    H2 5773   7.055   6.402   5.327  0.1487  2.2718  3.7890
 1937TIP3   OH2 5774   5.676   2.895   1.751 -0.3778  1.0197 -0.4116
 1937TIP3    H1 5775   5.681   2.971   1.693  1.9957  0.8825 -0.4838
 1937TIP3    H2 5776   5.638   2.929   1.832 -1.0136  1.8585 -1.0493
 1938TIP3   OH2 5777   1.444   2.533   3.512 -0.3879  0.1009  0.3282
 1938TIP3    H1 5778   1.370   2.559   3.456  1.1682  0.7261 -1.5940
 1938TIP3    H2 5779   1.513   2.508   3.450  0.7680 -1.2267  2.0517
 1939TIP3   OH2 5780   5.724   1.950   2.433 -0.2236 -0.6567 -0.0904
 1939TIP3    H1 5781   5.674   1.972   2.355 -0.2100  0.2321  0.1464
 1939TIP3    H2 5782   5.770   1.869   2.409  0.6227  0.1619 -1.3987
 1940TIP3   OH2 5783   3.670   1.694   5.843  0.3186  0.5901 -0.2425
 1940TIP3    H1 5784   3.634   1.665   5.927  1.1409 -0.2263 -0.1624
 1940TIP3    H2 5785   3.675   1.790   5.850  1.1675  0.4702  0.9650
 1941TIP3   OH2 5786   6.676   4.776   4.131  0.5695  0.1641  0.2104
 1941TIP3    H1 5787   6.691   4.724   4.052  0.1762 -0.4771  0.5502
 1941TIP3    H2 5788   6.592   4.745   4.164 -0.9815  2.7830 -0.9554
 1942TIP3   OH2 5789   5.629   4.033   5.365 -1.0714  0.7187 -0.1890
 1942TIP3    H1 5790   5.563   4.101   5.352 -2.1346 -0.3839 -0.6842
 1942TIP3    H2 5791   5.606   3.965   5.302 -0.5261 -0.4694  0.8667
 1943TIP3   OH2 5792   1.619   6.164   1.390  0.1676 -0.1805 -0.4491
 1943TIP3    H1 5793   1.569   6.127   1.463 -1.4215 -2.5886 -2.5934
 1943TIP3    H2 5794   1.682   6.095   1.368  0.5512  0.4669 -1.4187
 1944TIP3   OH2 5795   0.863   5.707   3.246  0.0737  0.2959  0.1125
 1944TIP3    H1 5796   0.948   5.725   3.206 -0.5226  0.4366 -1.1430
 1944TIP3    H2 5797   0.801   5.760   3.195 -0.7855  0.0709  0.8999
 1945TIP3   OH2 5798   0.908   4.686   3.025 -0.6777 -0.4934 -0.2787
 1945TIP3    H1 5799   0.916   4.597   3.060 -0.5010  0.4973  2.3914
 1945TIP3    H2 5800   0.997   4.721   3.030 -1.1336  0.5459  0.7986
 1946TIP3   OH2 5801   5.934   3.212   1.534 -0.1693  0.0815 -0.1152
 1946TIP3    H1 5802   5.929   3.304   1.558 -1.0123  0.3229 -1.1191
 1946TIP3    H2 5803   5.976   3.169   1.609  0.8628  1.3764  0.0775
 1947TIP3   OH2 5804   3.149   0.926   2.294  0.2756  0.3996 -0.1096
 1947TIP3    H1 5805   3.099   0.962   2.368  0.9138  0.2412  0.4074
 1947TIP3    H2 5806   3.240   0.932   2.322  0.4989  0.0058 -0.7456
 1948TIP3   OH2 5807   1.521   5.900   1.028  0.2876 -0.4195  0.2062
 1948TIP3    H1 5808   1.568   5.829   0.984 -0.6090 -0.3040 -0.9906
 1948TIP3    H2 5809   1.588   5.966   1.044  0.6535 -0.4658 -1.0172
 1949TIP3   OH2 5810   3.774   2.824   5.468  0.1068 -0.1948 -0.0457
 1949TIP3    H1 5811   3.683   2.854   5.467  0.0524 -0.1898  1.6970
 1949TIP3    H2 5812   3.825   2.899   5.436 -0.3972  0.2442  0.1757
 1950TIP3   OH2 5813   3.138   4.174   5.109 -0.7042 -0.0951 -0.6228
 1950TIP3    H1 5814   3.234   4.173   5.111 -0.5611  1.5365 -3.2731
 1950TIP3    H2 5815   3.114   4.245   5.169 -0.2322 -0.0412 -0.4880
 1951TIP3   OH2 5816   5.178   6.728   3.547 -0.5481 -0.1977 -0.1343
 1951TIP3    H1 5817   5.189   6.804   3.490  0.0021 -1.0068 -1.1383
 1951TIP3    H2 5818   5.178   6.765   3.636 -1.1124  1.0472 -0.6325
 1952TIP3   OH2 5819   0.665   0.918   4.161 -0.8056  0.2636 -0.0091
 1952TIP3    H1 5820   0.638   0.857   4.230 -0.5553  1.4484  1.1753
 1952TIP3    H2 5821   0.617   0.889   4.083 -0.6073 -1.4938  0.4901
 1953TIP3   OH2 5822   5.581   0.409   2.578  0.3651 -0.5219 -0.1255
 1953TIP3    H1 5823   5.649   0.344   2.597 -0.2487 -0.6600  1.8245
 1953TIP3    H2 5824   5.520   0.363   2.521  1.6369 -0.5440 -1.5097
 1954TIP3   OH2 5825   3.899   2.121   3.932 -0.2943 -0.2141 -0.7054
 1954TIP3    H1 5826   3.976   2.156   3.887 -1.4639  1.5472 -1.4609
 1954TIP3    H2 5827   3.904   2.158   4.020  0.2083 -0.8594 -0.4636
 1955TIP3   OH2 5828   4.421   4.352   1.071  0.3832  0.5321  0.0937
 1955TIP3    H1 5829   4.427   4.339   1.166  1.4123 -0.1011 -0.0348
 1955TIP3    H2 5830   4.468   4.434   1.055  0.7216  0.3404  0.0814
 1956TIP3   OH2 5831   3.772   2.733   5.078 -0.2519  0.1905  0.1639
 1956TIP3    H1 5832   3.698   2.685   5.115  1.7195 -0.4704  3.6218
 1956TIP3    H2 5833   3.846   2.673   5.086  1.2777  1.9164 -0.2928
 1957TIP3   OH2 5834   3.547   6.441   4.349 -0.1852  1.0514 -0.0638
 1957TIP3    H1 5835   3.463   6.486   4.338 -0.7424 -0.1108 -0.7868
 1957TIP3    H2 5836   3.523   6.351   4.372  0.8177  0.3761 -1.4871
 1958TIP3   OH2 5837   5.064   3.144   0.792  0.3966  0.1911 -0.1096
 1958TIP3    H1 5838   4.974   3.167   0.768 -0.1986 -0.7769  1.0636
 1958TIP3    H2 5839   5.119   3.201   0.738 -0.9302  1.6068 -0.0290
 1959TIP3   OH2 5840   6.199   2.810   1.938  0.1331  0.5984  0.6814
 1959TIP3    H1 5841   6.168   2.821   2.028  0.9566 -0.4967  1.1236
 1959TIP3    H2 5842   6.283   2.765   1.947 -1.5176 -3.2386 -0.7175
 1960TIP3   OH2 5843   6.124   3.044   3.442 -0.1428 -0.5774 -0.2879
 1960TIP3    H1 5844   6.212   3.071   3.418 -0.1859 -0.2229 -0.0609
 1960TIP3    H2 5845   6.123   3.045   3.538 -0.9104  1.1956 -0.2728
 1961TIP3   OH2 5846   4.986   1.649   1.774 -0.3180  0.8268  0.0750
 1961TIP3    H1 5847   4.979   1.559   1.805  0.6979  0.0414 -1.8250
 1961TIP3    H2 5848   5.071   1.680   1.807  0.0224  0.5471 -0.5176
 1962TIP3   OH2 5849   0.957   6.274   2.770  0.1794  0.4108 -0.2154
 1962TIP3    H1 5850   0.968   6.341   2.703 -0.6927 -0.6200 -1.4497
 1962TIP3    H2 5851   0.865   6.279   2.795  0.3380  0.3290  0.4108
 1963TIP3   OH2 5852   0.806   4.339   4.287  0.5692  0.0631 -0.7598
 1963TIP3    H1 5853   0.755   4.352   4.367 -0.8528 -2.6670 -1.0936
 1963TIP3    H2 5854   0.886   4.390   4.300 -1.2716  2.7854  0.7159
 1964TIP3   OH2 5855   6.122   5.866   0.088  0.5590 -0.4851 -0.8534
 1964TIP3    H1 5856   6.198   5.854   0.145  1.7298 -1.3697 -2.5054
 1964TIP3    H2 5857   6.143   5.943   0.035  0.0372 -0.3867 -0.9250
 1965TIP3   OH2 5858   2.712   4.282   2.919 -0.2381  0.9165 -0.0542
 1965TIP3    H1 5859   2.679   4.371   2.933  0.7729  0.8889  3.5826
 1965TIP3    H2 5860   2.748   4.257   3.004 -0.5733 -3.0426 -0.9109
 1966TIP3   OH2 5861   4.152   1.083   4.421 -0.5429 -0.1633 -0.7354
 1966TIP3    H1 5862   4.208   1.152   4.458 -0.0309 -1.1210  0.3127
 1966TIP3    H2 5863   4.065   1.101   4.457  0.1901 -1.8556  2.1641
 1967TIP3   OH2 5864   4.523   2.606   3.856 -0.0265 -0.4097 -0.1237
 1967TIP3    H1 5865   4.591   2.560   3.807  0.3611  0.6186 -0.5980
 1967TIP3    H2 5866   4.520   2.693   3.815  0.4615  0.5607  1.8082
 1968TIP3   OH2 5867   1.931   1.588   5.204 -0.1698 -0.4997  0.1219
 1968TIP3    H1 5868   1.968   1.670   5.237 -0.9941  0.6423 -1.6116
 1968TIP3    H2 5869   1.965   1.520   5.263 -1.0370  1.2682  2.8501
 1969TIP3   OH2 5870   1.449   3.571   2.832  0.5320  0.0129  0.3487
 1969TIP3    H1 5871   1.488   3.484   2.825  0.5228 -0.0094  0.5702
 1969TIP3    H2 5872   1.383   3.562   2.901 -1.5719 -0.5969 -1.5879
 1970TIP3   OH2 5873   2.050   2.970   2.102 -0.3756 -0.0947  0.2761
 1970TIP3    H1 5874   2.144   2.973   2.121 -0.5428  0.8156  1.0228
 1970TIP3    H2 5875   2.045   2.941   2.011  0.5898 -1.0341  0.5087
 1971TIP3   OH2 5876   2.361   4.423   1.974 -0.3095  0.7853  0.4866
 1971TIP3    H1 5877   2.369   4.406   1.880 -1.0100  0.5969  0.4614
 1971TIP3    H2 5878   2.446   4.461   1.998  0.2936 -0.2177  0.0159
 1972TIP3   OH2 5879   4.066   6.514   1.637  0.1097  0.6071  0.1250
 1972TIP3    H1 5880   4.070   6.568   1.716 -0.7991 -0.3394  0.8355
 1972TIP3    H2 5881   4.082   6.576   1.565  1.4091  1.4057  1.0500
 1973TIP3   OH2 5882   5.709   5.050   0.877 -0.2652 -0.3575 -0.5936
 1973TIP3    H1 5883   5.753   5.130   0.848  0.2450  0.2757  1.7224
 1973TIP3    H2 5884   5.730   5.043   0.970 -2.1973 -1.9499 -0.2035
 1974TIP3   OH2 5885   2.346   1.999   2.934  0.1303  0.5228 -0.3054
 1974TIP3    H1 5886   2.406   1.950   2.878 -0.1480  1.1176 -1.1590
 1974TIP3    H2 5887   2.333   2.082   2.887  0.3289  1.2767  0.9218
 1975TIP3   OH2 5888   1.137   6.251   3.165 -0.2932 -0.0087  0.2747
 1975TIP3    H1 5889   1.186   6.252   3.247  1.2681 -0.8051 -0.6081
 1975TIP3    H2 5890   1.184   6.313   3.109 -0.0911 -1.0092 -0.6899
 1976TIP3   OH2 5891   4.862   3.857   2.781  0.2099  0.0316  0.2402
 1976TIP3    H1 5892   4.908   3.790   2.731  0.9249  0.0722  0.8323
 1976TIP3    H2 5893   4.770   3.846   2.757 -0.3203 -3.6203  2.9635
 1977TIP3   OH2 5894   3.078   0.299   5.757  0.4155  0.0793 -0.1486
 1977TIP3    H1 5895   3.057   0.366   5.691  1.7503  0.2645 -0.4092
 1977TIP3    H2 5896   3.146   0.338   5.811 -1.1715  0.2308  1.8892
 1978TIP3   OH2 5897   1.678   1.277   3.504 -0.5750  0.0708  0.4109
 1978TIP3    H1 5898   1.589   1.243   3.492 -0.3807 -0.8409  1.3788
 1978TIP3    H2 5899   1.666   1.360   3.549 -0.9688  0.2229  0.0246
 1979TIP3   OH2 5900   6.719   5.748   3.983 -0.2285  0.7637 -0.0472
 1979TIP3    H1 5901   6.784   5.810   3.951  0.6494 -0.3545 -0.5225
 1979TIP3    H2 5902   6.727   5.751   4.078  0.2121  0.9589 -0.0865
 1980TIP3   OH2 5903   6.289   0.443   2.026 -0.4535 -0.0081 -0.0002
 1980TIP3    H1 5904   6.249   0.530   2.033 -1.5694 -0.5186  0.0774
 1980TIP3    H2 5905   6.237   0.388   2.084 -0.5059 -0.9911 -0.9414
 1981TIP3   OH2 5906   4.211   1.284   1.260 -0.4028  0.3223  0.3397
 1981TIP3    H1 5907   4.292   1.255   1.301 -0.5912 -0.3673  0.2435
 1981TIP3    H2 5908   4.145   1.220   1.289 -1.4270  2.1610  2.2781
 1982TIP3   OH2 5909   3.855   1.360   4.301 -0.5352  0.3965  0.3296
 1982TIP3    H1 5910   3.875   1.442   4.346  1.2153 -0.5813  1.4424
 1982TIP3    H2 5911   3.830   1.387   4.212 -0.0956  2.1301  0.6898
 1983TIP3   OH2 5912   3.174   1.888   5.663  0.0977 -0.0381  0.5966
 1983TIP3    H1 5913   3.153   1.963   5.608 -3.5354 -2.4820 -1.8346
 1983TIP3    H2 5914   3.261   1.860   5.634  0.8478  2.2214  0.4954
 1984TIP3   OH2 5915   5.194   3.541   2.475 -0.1221 -0.1532  0.7934
 1984TIP3    H1 5916   5.120   3.484   2.457 -0.5360  0.9742 -1.4166
 1984TIP3    H2 5917   5.172   3.624   2.432  2.0394  0.4760  0.7659
 1985TIP3   OH2 5918   7.123   3.779   5.489 -0.0268 -0.4728 -0.0121
 1985TIP3    H1 5919   7.043   3.816   5.452  0.1009  1.0937  1.1558
 1985TIP3    H2 5920   7.172   3.748   5.414  0.9678  4.0192 -1.5245
 1986TIP3   OH2 5921   0.568   6.385   4.076  0.0823  0.0181  0.3732
 1986TIP3    H1 5922   0.541   6.374   3.985  3.0850  1.6339 -0.8464
 1986TIP3    H2 5923   0.502   6.444   4.114 -0.4778  0.4359 -1.1799
 1987TIP3   OH2 5924   2.921   1.695   4.217  0.1497  0.3026  0.9496
 1987TIP3    H1 5925   2.886   1.756   4.152 -0.8996 -0.9080  0.3263
 1987TIP3    H2 5926   2.943   1.616   4.166 -0.7993 -0.7068  2.0566
 1988TIP3   OH2 5927   2.712   2.365   1.779  0.4707 -0.0952 -0.1876
 1988TIP3    H1 5928   2.649   2.293   1.789 -0.8401  1.0256 -0.1084
 1988TIP3    H2 5929   2.764   2.340   1.703  0.8986 -1.7337  0.5869
 1989TIP3   OH2 5930   5.877   5.448   0.996 -0.2413 -0.2808  0.3303
 1989TIP3    H1 5931   5.804   5.473   1.053 -0.3190 -1.0343  0.5754
 1989TIP3    H2 5932   5.955   5.477   1.042 -0.4093  1.5580 -0.4576
 1990TIP3   OH2 5933   5.834   5.659   4.129 -0.5984  0.1744 -0.0946
 1990TIP3    H1 5934   5.806   5.606   4.054 -0.5845 -1.2318  0.8562
 1990TIP3    H2 5935   5.758   5.661   4.187  0.1663 -0.9001  0.9991
 1991TIP3   OH2 5936   0.523   4.897   4.262  0.2526 -0.6410 -0.2618
 1991TIP3    H1 5937   0.506   4.975   4.314 -0.4003 -1.1286  0.2635
 1991TIP3    H2 5938   0.454   4.835   4.287  0.2671 -1.0938 -1.2753
 1992TIP3   OH2 5939   6.024   5.183   0.513 -0.5018 -0.0960 -0.0059
 1992TIP3    H1 5940   6.089   5.112   0.507 -1.0667 -0.5946 -0.4172
 1992TIP3    H2 5941   5.987   5.174   0.601  1.1581  1.2654  0.8914
 1993TIP3   OH2 5942   4.224   5.853   1.262 -0.1074 -0.1490  0.4329
 1993TIP3    H1 5943   4.193   5.796   1.191  0.7061  0.0006 -0.0483
 1993TIP3    H2 5944   4.282   5.797   1.314  3.1561  0.9249 -1.7382
 1994TIP3   OH2 5945   6.360   6.358   0.241 -0.0566  0.6236 -0.1635
 1994TIP3    H1 5946   6.429   6.303   0.277  0.0280  0.8062 -0.0443
 1994TIP3    H2 5947   6.370   6.442   0.286 -0.4251  0.6172 -0.0667
 1995TIP3   OH2 5948   0.930   0.966   4.231 -0.0211 -0.1952  0.1299
 1995TIP3    H1 5949   0.928   1.061   4.238  0.4814 -0.2123  0.5799
 1995TIP3    H2 5950   0.841   0.942   4.206 -0.4422  0.3259  1.0491
 1996TIP3   OH2 5951   3.467   4.143   3.296 -0.0180 -0.5904 -0.1293
 1996TIP3    H1 5952   3.381   4.114   3.326 -1.3865  3.9079  1.0623
 1996TIP3    H2 5953   3.463   4.135   3.201 -2.0625  0.1458 -0.1476
 1997TIP3   OH2 5954   2.288   1.043   2.627  0.9325 -0.4931 -0.2913
 1997TIP3    H1 5955   2.313   1.135   2.617 -0.5709 -0.1421 -1.1337
 1997TIP3    H2 5956   2.235   1.040   2.706 -2.3534  0.1903 -2.3034
 1998TIP3   OH2 5957   1.502   6.144   5.787 -0.0617 -0.1413 -0.2815
 1998TIP3    H1 5958   1.492   6.179   5.876 -0.2315 -2.7167  0.7952
 1998TIP3    H2 5959   1.496   6.221   5.731  0.2385  1.6131  1.9275
 1999TIP3   OH2 5960   0.844   5.230   4.397 -0.1933  0.1958 -0.3297
 1999TIP3    H1 5961   0.861   5.167   4.467 -0.8496  0.5738  0.1900
 1999TIP3    H2 5962   0.800   5.303   4.441  0.7602  1.1272 -0.8727
 2000TIP3   OH2 5963   4.919   5.883   0.595  0.1437  0.4802 -0.1519
 2000TIP3    H1 5964   4.977   5.807   0.597 -3.5803 -2.6965  0.1419
 2000TIP3    H2 5965   4.910   5.904   0.502 -1.2030 -1.7521 -0.6306
 2001TIP3   OH2 5966   0.940   0.548   0.217 -0.4638  0.2467  0.1849
 2001TIP3    H1 5967   0.975   0.608   0.283  0.1759  0.3753 -0.2616
 2001TIP3    H2 5968   1.015   0.526   0.162 -0.8395 -0.4197 -0.0767
 2002TIP3   OH2 5969   4.289   3.977   5.267 -0.5430 -0.4574  0.4407
 2002TIP3    H1 5970   4.216   4.028   5.232  1.2375  1.3855 -0.8784
 2002TIP3    H2 5971   4.332   3.941   5.190  0.7914 -0.2092  1.0301
 2003TIP3   OH2 5972   4.094   6.156   5.495 -0.3110  0.0709 -0.3805
 2003TIP3    H1 5973   4.160   6.166   5.563  1.3268  0.5813 -1.9819
 2003TIP3    H2 5974   4.025   6.102   5.536  1.3952 -1.0768  1.1199
 2004TIP3   OH2 5975   2.312   1.879   4.023  0.0616 -0.3302 -0.2434
 2004TIP3    H1 5976   2.235   1.929   3.996  0.9936  1.2382 -0.1503
 2004TIP3    H2 5977   2.306   1.874   4.118  0.0424 -0.2653 -0.2419
 2005TIP3   OH2 5978   4.724   3.473   3.529 -0.0350 -0.2416 -0.5266
 2005TIP3    H1 5979   4.721   3.386   3.570  1.3247 -0.0605 -0.0018
 2005TIP3    H2 5980   4.723   3.454   3.435 -0.3406 -0.7950 -0.4194
 2006TIP3   OH2 5981   4.128   3.249   1.075 -0.5378 -0.9657 -0.6763
 2006TIP3    H1 5982   4.091   3.188   1.139  0.7487 -0.4698  0.5828
 2006TIP3    H2 5983   4.055   3.309   1.055 -1.2763 -1.7977 -0.5436
 2007TIP3   OH2 5984   2.822   5.313   2.662 -0.0104  0.1236 -0.2334
 2007TIP3    H1 5985   2.848   5.250   2.729 -0.7294  1.3907  1.3227
 2007TIP3    H2 5986   2.777   5.262   2.596  0.1715 -1.0961  0.5607
 2008TIP3   OH2 5987   3.810   1.653   4.212 -0.5162  0.1513 -0.3158
 2008TIP3    H1 5988   3.895   1.647   4.168 -0.5333  5.9194 -2.0265
 2008TIP3    H2 5989   3.832   1.666   4.304  0.7587  2.6462 -0.8662
 2009TIP3   OH2 5990   2.902   0.830   2.502 -0.8369  0.0193  0.2354
 2009TIP3    H1 5991   2.953   0.750   2.514 -0.4951  0.2597  0.4092
 2009TIP3    H2 5992   2.954   0.898   2.546 -0.5523  0.5511 -0.8900
 2010TIP3   OH2 5993   3.656   6.203   1.159  0.1974  0.1126 -0.1438
 2010TIP3    H1 5994   3.663   6.238   1.070  0.9639  0.8688  0.1896
 2010TIP3    H2 5995   3.723   6.251   1.208 -0.4736 -0.0094  0.9296
 2011TIP3   OH2 5996   4.222   3.630   0.442 -0.2884  0.8254  0.3250
 2011TIP3    H1 5997   4.180   3.611   0.358 -1.4186  0.5644  0.9233
 2011TIP3    H2 5998   4.291   3.565   0.451 -0.4229  0.6068 -0.2260
 2012TIP3   OH2 5999   0.197   5.625   5.211 -0.1705 -0.2406 -0.3280
 2012TIP3    H1 6000   0.154   5.697   5.164  1.8221  0.1919 -1.6222
 2012TIP3    H2 6001   0.231   5.665   5.291  0.9212  0.3030 -1.0380
 2013TIP3   OH2 6002   0.927   1.586   0.517  0.0504  0.3860 -0.3506
 2013TIP3    H1 6003   1.003   1.596   0.574 -0.7107  0.9401  0.5955
 2013TIP3    H2 6004   0.943   1.648   0.446  0.3288  0.7383  0.0119
 2014TIP3   OH2 6005   5.639   6.781   2.116  0.0033 -0.0216  0.3166
 2014TIP3    H1 6006   5.577   6.775   2.189 -1.1545  0.6070 -0.5721
 2014TIP3    H2 6007   5.587   6.761   2.039  1.2993 -1.0707 -0.3173
 2015TIP3   OH2 6008   6.604   2.183   1.931 -0.7286  0.2154  0.3932
 2015TIP3    H1 6009   6.627   2.092   1.915  0.6865  0.8079 -1.1633
 2015TIP3    H2 6010   6.558   2.181   2.016 -0.5151 -1.8745  0.5226
 2016TIP3   OH2 6011   0.849   6.276   0.538 -0.2071 -0.5720  0.1134
 2016TIP3    H1 6012   0.877   6.215   0.606  1.9432 -0.2665 -0.4145
 2016TIP3    H2 6013   0.873   6.233   0.456  2.2752  1.2802 -0.2557
 2017TIP3   OH2 6014   4.393   4.866   1.821 -0.2830  0.3498 -0.0878
 2017TIP3    H1 6015   4.367   4.949   1.862 -1.7654 -0.1601  0.0554
 2017TIP3    H2 6016   4.467   4.835   1.874 -0.1084  1.2799  0.2228
 2018TIP3   OH2 6017   4.361   2.212   5.028  0.2147 -0.1861  0.6898
 2018TIP3    H1 6018   4.317   2.170   4.955 -0.0106  1.3554 -0.1200
 2018TIP3    H2 6019   4.303   2.198   5.103 -0.7621  0.2402  0.0400
 2019TIP3   OH2 6020   5.344   1.639   4.073 -0.1191 -0.4260 -0.0139
 2019TIP3    H1 6021   5.263   1.611   4.030 -1.9565  1.3908  1.9817
 2019TIP3    H2 6022   5.389   1.692   4.007 -3.5848  3.6084  0.3975
 2020TIP3   OH2 6023   1.102   0.925   5.439  0.6083 -0.8703 -0.0551
 2020TIP3    H1 6024   1.177   0.983   5.447  0.3747 -0.5334 -0.2925
 2020TIP3    H2 6025   1.085   0.920   5.345 -1.3382  1.2397  0.1005
 2021TIP3   OH2 6026   2.989   1.994   1.173  0.0014 -0.3851  0.5457
 2021TIP3    H1 6027   3.019   2.083   1.192 -0.0574 -0.2073 -0.1647
 2021TIP3    H2 6028   2.961   1.998   1.082 -1.1619 -0.8169  0.8673
 2022TIP3   OH2 6029   5.228   4.040   4.892 -0.5320  0.2362  0.2316
 2022TIP3    H1 6030   5.196   4.094   4.964 -1.0358  0.8421 -0.4255
 2022TIP3    H2 6031   5.197   3.952   4.913  0.4202  0.1516  1.3889
 2023TIP3   OH2 6032   3.356   3.068   5.093  0.1131 -0.0408 -0.3573
 2023TIP3    H1 6033   3.397   3.086   5.008  1.7816  0.5238  0.5329
 2023TIP3    H2 6034   3.265   3.098   5.082  1.0951  3.1008 -0.9577
 2024TIP3   OH2 6035   7.168   0.438   4.913  0.0390 -0.2074  0.1295
 2024TIP3    H1 6036   7.134   0.421   4.825  0.0991 -0.4719  0.1584
 2024TIP3    H2 6037   7.139   0.363   4.965 -0.9761  0.4946  0.6089
 2025TIP3   OH2 6038   4.845   5.205   3.980 -0.1001 -0.3279  0.3416
 2025TIP3    H1 6039   4.918   5.208   4.042 -0.1539 -1.6300  0.5023
 2025TIP3    H2 6040   4.767   5.195   4.035 -0.1154 -1.8721  0.0870
 2026TIP3   OH2 6041   6.081   3.534   0.316  0.0095 -0.0360 -0.3242
 2026TIP3    H1 6042   6.136   3.545   0.239  0.2436 -0.9141 -0.2862
 2026TIP3    H2 6043   6.142   3.515   0.387 -0.0698  2.0332  0.3842
 2027TIP3   OH2 6044   3.064   4.693   1.597  0.4116  0.0918  0.2866
 2027TIP3    H1 6045   3.061   4.748   1.519  0.5147 -0.7584 -0.3308
 2027TIP3    H2 6046   3.001   4.623   1.581  0.0084  0.2217  1.2192
 2028TIP3   OH2 6047   6.627   4.931   0.061  0.4623  0.6187  0.4830
 2028TIP3    H1 6048   6.602   4.967  -0.024 -0.1285  0.3783  0.5520
 2028TIP3    H2 6049   6.545   4.927   0.111  1.0431  2.4497  1.7274
 2029TIP3   OH2 6050   6.849   6.354   0.143  0.0874 -0.3312  0.4392
 2029TIP3    H1 6051   6.908   6.403   0.086  0.2753 -0.7578  0.2681
 2029TIP3    H2 6052   6.837   6.270   0.100  0.0733 -0.5851  0.9274
 2030TIP3   OH2 6053   2.591   5.789   3.199 -0.6642 -0.2815  0.3500
 2030TIP3    H1 6054   2.607   5.809   3.291 -0.0767 -0.6457  0.3348
 2030TIP3    H2 6055   2.593   5.875   3.155  0.5174 -0.2283  0.4720
 2031TIP3   OH2 6056   0.474   1.622   4.245 -0.7962 -0.3358 -0.3257
 2031TIP3    H1 6057   0.464   1.706   4.288  0.5933 -0.5179  0.4092
 2031TIP3    H2 6058   0.568   1.614   4.228 -0.9120 -1.6839 -0.4841
 2032TIP3   OH2 6059   0.951   3.627   4.781  0.3933 -0.0225 -0.2856
 2032TIP3    H1 6060   1.019   3.611   4.716  0.1980  0.2296 -0.5588
 2032TIP3    H2 6061   0.869   3.613   4.733  0.2509 -0.6393  0.1231
 2033TIP3   OH2 6062   0.216   2.028   2.166 -0.6468  0.1493 -0.2966
 2033TIP3    H1 6063   0.187   2.118   2.175 -1.2897  0.0366 -1.0962
 2033TIP3    H2 6064   0.237   2.019   2.073 -1.4892 -0.7748 -0.4169
 2034TIP3   OH2 6065   3.527   0.265   1.391  0.1595  0.0179  0.1307
 2034TIP3    H1 6066   3.440   0.262   1.352  0.3594 -0.3106 -0.2922
 2034TIP3    H2 6067   3.528   0.192   1.453  1.0470 -1.7188 -1.8158
 2035TIP3   OH2 6068   5.211   4.058   0.676  0.5927  0.4543 -0.0586
 2035TIP3    H1 6069   5.178   3.983   0.725  0.8440  0.0862 -0.4509
 2035TIP3    H2 6070   5.304   4.041   0.665  0.6785  0.8953 -0.0247
 2036TIP3   OH2 6071   2.001   4.809   2.208 -0.0170 -0.3516 -0.0481
 2036TIP3    H1 6072   1.973   4.900   2.219 -1.8034 -0.9377  0.6005
 2036TIP3    H2 6073   2.091   4.807   2.242 -0.2553  1.0037  0.7203
 2037TIP3   OH2 6074   5.987   0.078   4.082 -0.6117  0.1008  0.6398
 2037TIP3    H1 6075   5.971   0.061   4.175  0.0165  0.1106  0.7545
 2037TIP3    H2 6076   6.082   0.071   4.072 -0.7020 -0.1948 -0.0643
 2038TIP3   OH2 6077   6.479   0.546   5.127 -0.0938 -0.0330  0.2375
 2038TIP3    H1 6078   6.438   0.562   5.042  0.9412  0.5068 -0.1776
 2038TIP3    H2 6079   6.489   0.633   5.166 -0.6014 -0.2785  0.9410
 2039TIP3   OH2 6080   6.850   0.204   2.924  0.1530  0.0954 -0.2299
 2039TIP3    H1 6081   6.866   0.297   2.906 -0.1113  0.1117 -0.3864
 2039TIP3    H2 6082   6.937   0.166   2.934  0.3085  0.1362 -1.2758
 2040TIP3   OH2 6083   0.716   1.216   2.480  0.2559  0.1101 -0.4838
 2040TIP3    H1 6084   0.752   1.138   2.437  0.7209  0.3624 -0.5599
 2040TIP3    H2 6085   0.720   1.195   2.574 -1.4897 -0.7550 -0.5660
 2041TIP3   OH2 6086   5.986   4.637   2.575 -0.1906 -0.5991  0.1187
 2041TIP3    H1 6087   6.018   4.603   2.492  0.5973 -1.7197  0.8545
 2041TIP3    H2 6088   6.009   4.730   2.573 -0.3180 -0.5844 -0.9714
 2042TIP3   OH2 6089   6.860   0.175   3.772 -0.1499  0.2108 -1.1149
 2042TIP3    H1 6090   6.891   0.207   3.687 -1.3529  1.7751 -0.9999
 2042TIP3    H2 6091   6.823   0.252   3.815 -2.0301 -1.0844 -0.2838
 2043TIP3   OH2 6092   4.538   2.464   3.249  0.0904  0.0473  0.0806
 2043TIP3    H1 6093   4.459   2.498   3.292 -0.9202  0.2089 -1.8211
 2043TIP3    H2 6094   4.550   2.377   3.287 -0.7391  0.1884  0.7049
 2044TIP3   OH2 6095   3.104   3.757   5.484 -0.0945  0.3471 -0.4934
 2044TIP3    H1 6096   3.117   3.748   5.389  1.6852 -2.1847 -0.1049
 2044TIP3    H2 6097   3.190   3.781   5.517 -0.9066  2.1340  0.4684
 2045TIP3   OH2 6098   4.302   1.409   4.077  0.3943  0.2278 -0.6100
 2045TIP3    H1 6099   4.359   1.464   4.023 -0.1467  0.5869 -0.8309
 2045TIP3    H2 6100   4.361   1.369   4.142  0.7482  1.3867 -0.1870
 2046TIP3   OH2 6101   4.564   3.157   5.836  0.3785 -0.4890 -0.7814
 2046TIP3    H1 6102   4.479   3.191   5.808 -0.5899 -2.6231 -0.6035
 2046TIP3    H2 6103   4.601   3.118   5.758  1.7429  1.3250 -1.1224
 2047TIP3   OH2 6104   4.716   2.379   2.987 -0.4829 -0.8937 -0.3939
 2047TIP3    H1 6105   4.790   2.318   2.982 -0.3924 -0.8801  0.5320
 2047TIP3    H2 6106   4.654   2.347   2.921  0.2307 -1.0616 -0.9926
 2048TIP3   OH2 6107   0.578   2.833   2.287  0.1900  0.0658 -0.1347
 2048TIP3    H1 6108   0.646   2.867   2.345 -0.2128  0.5518  0.0554
 2048TIP3    H2 6109   0.520   2.783   2.345  0.4020 -0.3797 -0.3025
 2049TIP3   OH2 6110   0.596   2.458   3.419 -0.3745 -0.9398 -0.4248
 2049TIP3    H1 6111   0.674   2.491   3.375  1.5639 -3.4903  0.8194
 2049TIP3    H2 6112   0.609   2.481   3.511 -1.3259 -1.0229 -0.2574
 2050TIP3   OH2 6113   1.517   4.283   5.808  0.2493 -0.4898 -0.4176
 2050TIP3    H1 6114   1.488   4.278   5.900 -1.0436  2.2150 -0.5933
 2050TIP3    H2 6115   1.607   4.314   5.814  0.0368  0.0763 -0.0626
 2051TIP3   OH2 6116   5.306   2.445   4.824  0.5224 -0.0067 -0.3831
 2051TIP3    H1 6117   5.256   2.427   4.745  0.4645  0.1597 -0.3852
 2051TIP3    H2 6118   5.242   2.478   4.887  0.3290 -1.4037  0.1911
 2052TIP3   OH2 6119   3.941   4.861   0.024 -0.6315  0.7889  0.8736
 2052TIP3    H1 6120   3.919   4.940   0.072  3.0144  1.6160  1.4709
 2052TIP3    H2 6121   3.988   4.806   0.087  1.0087  0.2586 -0.6893
 2053TIP3   OH2 6122   4.848   0.278   1.783  0.2177  0.5708  0.4932
 2053TIP3    H1 6123   4.900   0.356   1.801 -0.6237  1.8066 -1.9792
 2053TIP3    H2 6124   4.757   0.308   1.788 -0.1061  0.1787 -1.8502
 2054TIP3   OH2 6125   5.643   5.646   3.424  0.2363 -0.4245 -0.1384
 2054TIP3    H1 6126   5.674   5.735   3.440  1.5655 -0.9116  0.0655
 2054TIP3    H2 6127   5.674   5.596   3.499 -0.2597 -1.1248 -0.3915
 2055TIP3   OH2 6128   1.210   5.843   2.510  0.5895 -0.1908  0.0928
 2055TIP3    H1 6129   1.204   5.769   2.571  0.1473 -1.0105 -0.9225
 2055TIP3    H2 6130   1.238   5.916   2.565  1.0693 -1.1085  1.1195
 2056TIP3   OH2 6131   2.798   2.914   0.293 -0.1239 -0.1489 -0.3464
 2056TIP3    H1 6132   2.745   2.994   0.293 -0.9491 -0.6761 -0.8468
 2056TIP3    H2 6133   2.865   2.929   0.360 -0.2912  0.9379 -0.4050
 2057TIP3   OH2 6134   2.110   5.347   1.825 -0.9501  0.1347 -0.2210
 2057TIP3    H1 6135   2.033   5.318   1.777 -1.2927 -1.8303  1.3849
 2057TIP3    H2 6136   2.139   5.270   1.873 -0.3964  1.8187  2.3816
 2058TIP3   OH2 6137   4.979   0.930   3.684 -0.2704 -0.7162  0.0311
 2058TIP3    H1 6138   4.990   0.930   3.779  0.6990 -1.4290 -0.0706
 2058TIP3    H2 6139   4.978   1.023   3.660  2.3190 -0.5137  0.4506
 2059TIP3   OH2 6140   5.464   5.215   4.939  0.3911  0.1025  0.2998
 2059TIP3    H1 6141   5.431   5.286   4.883 -0.9422 -0.3809  0.4431
 2059TIP3    H2 6142   5.409   5.219   5.017  0.8581 -0.5666  0.6675
 2060TIP3   OH2 6143   1.871   5.585   0.569 -0.3849  0.3760  0.0313
 2060TIP3    H1 6144   1.781   5.596   0.541 -0.3733  0.3682 -0.0092
 2060TIP3    H2 6145   1.882   5.490   0.577  0.4234  0.1542 -2.6384
 2061TIP3   OH2 6146   1.428   1.583   4.609 -0.2719 -0.4069  0.8378
 2061TIP3    H1 6147   1.337   1.609   4.598 -0.7895 -1.3341  2.5018
 2061TIP3    H2 6148   1.437   1.569   4.703  1.6268 -0.2345  0.7165
 2062TIP3   OH2 6149   7.153   3.407   3.051  0.8906  0.4596  0.0322
 2062TIP3    H1 6150   7.081   3.410   2.989  0.5502  0.2246  0.4107
 2062TIP3    H2 6151   7.177   3.314   3.057  0.4658  0.3837  0.7569
 2063TIP3   OH2 6152   6.160   4.538   1.279 -0.1382 -0.2951  0.0479
 2063TIP3    H1 6153   6.151   4.466   1.341  1.5435  0.1498  0.8388
 2063TIP3    H2 6154   6.079   4.588   1.290 -1.3604 -2.0435 -0.5515
 2064TIP3   OH2 6155   2.632   0.209   5.779  0.0044  0.0709  0.1407
 2064TIP3    H1 6156   2.656   0.271   5.848 -0.6722  1.2586 -0.6466
 2064TIP3    H2 6157   2.610   0.265   5.704 -0.8505 -1.1326 -0.5313
 2065TIP3   OH2 6158   4.322   4.773   0.783  0.2029  0.2565  0.6462
 2065TIP3    H1 6159   4.300   4.681   0.770 -1.3813  0.7796 -0.6650
 2065TIP3    H2 6160   4.382   4.793   0.711 -1.1311  0.7570 -0.3625
 2066TIP3   OH2 6161   1.200   3.200   3.020  0.0169 -0.4528  0.1692
 2066TIP3    H1 6162   1.175   3.110   3.038 -0.4126 -0.0083  2.1679
 2066TIP3    H2 6163   1.131   3.252   3.062  1.5569  0.7921  1.2966
 2067TIP3   OH2 6164   1.605   1.984   3.488 -0.1159 -0.2354 -0.3588
 2067TIP3    H1 6165   1.580   2.054   3.429 -2.8173 -0.6186  0.2100
 2067TIP3    H2 6166   1.699   1.971   3.472  0.1272  2.4398 -1.5244
 2068TIP3   OH2 6167   0.549   4.689   1.677 -0.5073 -0.6685  0.2437
 2068TIP3    H1 6168   0.473   4.746   1.663  0.9648  1.4811  0.4956
 2068TIP3    H2 6169   0.527   4.639   1.755 -1.2131  0.7451  0.9912
 2069TIP3   OH2 6170   1.931   5.290   4.413 -0.3830  0.1348 -0.0718
 2069TIP3    H1 6171   1.863   5.346   4.450 -0.4651 -0.4791  0.7271
 2069TIP3    H2 6172   1.978   5.256   4.488  1.6219  1.4828 -0.6348
 2070TIP3   OH2 6173   4.259   4.021   0.666  0.8180 -0.2831  0.6084
 2070TIP3    H1 6174   4.206   4.040   0.744 -0.0654  0.8780 -0.2520
 2070TIP3    H2 6175   4.284   4.106   0.631  4.1952 -0.7392  1.5228
 2071TIP3   OH2 6176   0.243   6.423   0.890  0.0176  0.0436 -0.5469
 2071TIP3    H1 6177   0.266   6.366   0.964 -0.1093  0.6842  0.0020
 2071TIP3    H2 6178   0.315   6.412   0.828 -0.8693 -2.1263 -1.3202
 2072TIP3   OH2 6179   3.723   5.667   4.783 -0.1352  0.3623 -0.2481
 2072TIP3    H1 6180   3.787   5.720   4.830  0.1473  1.6129 -1.9608
 2072TIP3    H2 6181   3.666   5.632   4.851  0.7712  1.3847  1.0829
 2073TIP3   OH2 6182   6.905   2.898   0.344  0.0988  0.0813  0.1944
 2073TIP3    H1 6183   6.906   2.992   0.359  0.9618  0.0378  0.4694
 2073TIP3    H2 6184   6.815   2.871   0.366 -0.0942  0.8036  0.3043
 2074TIP3   OH2 6185   5.790   2.564   4.221 -0.4122  0.3164 -0.1166
 2074TIP3    H1 6186   5.883   2.562   4.241 -0.3579 -0.4353 -0.4353
 2074TIP3    H2 6187   5.784   2.536   4.129 -0.9517  0.3423 -0.0942
 2075TIP3   OH2 6188   4.075   5.657   0.563 -0.0121 -1.0149 -0.2724
 2075TIP3    H1 6189   4.135   5.600   0.612  1.2865  2.2695  2.3929
 2075TIP3    H2 6190   4.125   5.683   0.486  1.0703 -0.3180  0.6268
 2076TIP3   OH2 6191   3.296   5.331   1.809  0.3165  0.3107  0.9719
 2076TIP3    H1 6192   3.363   5.272   1.843  0.9870  1.7559  2.2908
 2076TIP3    H2 6193   3.312   5.335   1.715  0.9848 -0.6885  1.0328
 2077TIP3   OH2 6194   0.366   2.060   4.626  0.2537  0.1307  0.1278
 2077TIP3    H1 6195   0.287   2.100   4.591 -1.2864 -2.2191  0.6367
 2077TIP3    H2 6196   0.391   2.115   4.700  0.5330  2.2319 -1.4550
 2078TIP3   OH2 6197   5.578   1.577   2.695 -0.1799 -0.1294 -0.4910
 2078TIP3    H1 6198   5.568   1.667   2.664 -0.1209  0.5150  1.2909
 2078TIP3    H2 6199   5.673   1.562   2.694 -0.2543 -0.8462 -2.4935
 2079TIP3   OH2 6200   7.170   0.352   4.025 -0.8719  0.5215 -0.0037
 2079TIP3    H1 6201   7.082   0.355   3.988 -1.3810  0.9433  1.1929
 2079TIP3    H2 6202   7.188   0.442   4.052 -0.2554  0.3455  0.1938
 2080TIP3   OH2 6203   4.016   0.877   3.629  0.0660  0.2329  0.9300
 2080TIP3    H1 6204   4.031   0.963   3.668  1.4903  0.2145  0.4796
 2080TIP3    H2 6205   4.104   0.842   3.614 -0.4904 -1.0546  0.5614
 2081TIP3   OH2 6206   0.180   2.171   3.993 -0.0062 -0.2346  0.5202
 2081TIP3    H1 6207   0.109   2.234   3.982  0.9857  0.6624 -1.3964
 2081TIP3    H2 6208   0.212   2.157   3.904  0.9223 -2.1703  1.1057
 2082TIP3   OH2 6209   2.943   1.876   4.899 -0.1916  0.0661 -0.0091
 2082TIP3    H1 6210   2.939   1.845   4.989  0.7980 -0.6856 -0.2062
 2082TIP3    H2 6211   2.857   1.853   4.862  0.4170 -2.4118 -0.1029
 2083TIP3   OH2 6212   1.160   5.686   3.646 -0.2454 -0.3958 -0.2830
 2083TIP3    H1 6213   1.161   5.654   3.556  0.3926 -0.0457 -0.4043
 2083TIP3    H2 6214   1.191   5.612   3.698  1.2577  0.0194 -0.5661
 2084TIP3   OH2 6215   1.654   2.018   3.758 -0.0402 -0.0831 -0.1452
 2084TIP3    H1 6216   1.576   2.025   3.814  0.9850  1.7644  1.1793
 2084TIP3    H2 6217   1.622   2.033   3.669 -1.4370 -1.1942  0.1369
 2085TIP3   OH2 6218   4.789   4.208   3.827  0.7041  0.0617  0.3858
 2085TIP3    H1 6219   4.727   4.143   3.793  1.1688 -0.7154  0.9783
 2085TIP3    H2 6220   4.748   4.292   3.809 -0.5408 -0.4377  0.8064
 2086TIP3   OH2 6221   5.200   0.894   3.050 -0.3229 -0.5750 -0.3583
 2086TIP3    H1 6222   5.143   0.819   3.032 -0.6559 -0.6688  1.0222
 2086TIP3    H2 6223   5.280   0.856   3.085 -0.2441 -0.3174 -0.2592
 2087TIP3   OH2 6224   5.476   0.044   4.135  0.0843 -0.0013 -0.2456
 2087TIP3    H1 6225   5.390   0.004   4.143  0.2905 -0.4548 -0.2964
 2087TIP3    H2 6226   5.465   0.133   4.170 -0.3498 -0.1303 -0.0578
 2088TIP3   OH2 6227   0.649   1.079   0.857 -0.3709 -0.3685 -0.1355
 2088TIP3    H1 6228   0.620   1.030   0.934 -0.8042  0.7933  0.4562
 2088TIP3    H2 6229   0.618   1.168   0.872 -0.5711 -0.1437 -1.7177
 2089TIP3   OH2 6230   0.628   4.057   3.491  0.9695 -0.3590  0.6804
 2089TIP3    H1 6231   0.554   4.026   3.543  0.2136  0.5865  0.2078
 2089TIP3    H2 6232   0.642   3.989   3.426  0.4273 -0.5023  0.7072
 2090TIP3   OH2 6233   6.762   0.956   5.199  0.2458  0.2462  0.2686
 2090TIP3    H1 6234   6.789   0.967   5.290 -1.0429  1.1391  0.5671
 2090TIP3    H2 6235   6.672   0.924   5.204 -0.0311  0.8210 -0.6879
 2091TIP3   OH2 6236   4.271   2.190   4.345  0.2249  0.7227 -0.4032
 2091TIP3    H1 6237   4.214   2.267   4.348  1.4300  1.6443  0.1111
 2091TIP3    H2 6238   4.262   2.151   4.431  0.6130  1.0669 -0.2017
 2092TIP3   OH2 6239   5.363   0.203   3.351 -0.1592 -0.1130  0.0909
 2092TIP3    H1 6240   5.319   0.123   3.382 -2.6340  1.5053  1.1039
 2092TIP3    H2 6241   5.291   0.262   3.328  1.4098  3.0201  2.4793
 2093TIP3   OH2 6242   4.999   4.797   2.095  0.1999 -0.5705 -0.2370
 2093TIP3    H1 6243   5.041   4.812   2.180 -0.7991 -2.5924  0.6885
 2093TIP3    H2 6244   4.910   4.831   2.106  0.1260 -0.6568 -0.5547
 2094TIP3   OH2 6245   0.169   2.783   4.456 -0.0525  0.2928  0.1850
 2094TIP3    H1 6246   0.158   2.802   4.363 -0.4482 -0.2360  0.1191
 2094TIP3    H2 6247   0.090   2.816   4.498  0.2466  0.7807  0.3808
 2095TIP3   OH2 6248   0.049   5.368   3.363 -0.2325 -0.0080 -0.1100
 2095TIP3    H1 6249   0.013   5.399   3.280  0.4240 -1.0434 -0.7844
 2095TIP3    H2 6250  -0.008   5.408   3.429 -1.3252  0.0906 -1.0789
 2096TIP3   OH2 6251   6.217   4.692   4.372  0.1647 -0.2450  1.0309
 2096TIP3    H1 6252   6.225   4.771   4.425  0.2185  0.6774 -0.3253
 2096TIP3    H2 6253   6.123   4.681   4.359  0.1927  2.0772 -2.3001
 2097TIP3   OH2 6254   1.048   1.586   3.672  0.2515  0.4472  0.6608
 2097TIP3    H1 6255   1.143   1.600   3.672  0.0694  1.7725  0.2589
 2097TIP3    H2 6256   1.014   1.654   3.730 -0.6761  1.7871 -1.3513
 2098TIP3   OH2 6257   4.746   5.927   4.320  0.0541  0.3409 -0.4180
 2098TIP3    H1 6258   4.798   5.874   4.379 -2.6976 -2.6332 -0.4083
 2098TIP3    H2 6259   4.690   5.980   4.377  0.6813  1.0450 -0.4350
 2099TIP3   OH2 6260   3.080   0.114   5.137  0.7544  0.5629 -0.4245
 2099TIP3    H1 6261   3.058   0.075   5.053  1.6609 -0.1282 -0.3580
 2099TIP3    H2 6262   3.003   0.101   5.191  0.3441  0.5857 -1.0014
 2100TIP3   OH2 6263   2.470   3.146   0.961  0.1337 -0.0704  0.3471
 2100TIP3    H1 6264   2.473   3.213   1.029 -0.6862  1.1660 -0.7643
 2100TIP3    H2 6265   2.434   3.192   0.885  0.3932 -1.5675 -0.7209
 2101TIP3   OH2 6266   1.195   4.302   0.372  0.4669  0.5830 -0.2316
 2101TIP3    H1 6267   1.249   4.234   0.332 -0.5821 -0.6043  0.3383
 2101TIP3    H2 6268   1.109   4.292   0.332 -0.4908 -0.3347  1.9269
 2102TIP3   OH2 6269   5.167   4.101   4.460 -1.2099  0.3163 -0.3932
 2102TIP3    H1 6270   5.124   4.110   4.545  1.2034 -1.1467  1.0878
 2102TIP3    H2 6271   5.260   4.116   4.477 -0.0562 -3.7621 -1.9165
 2103TIP3   OH2 6272   5.423   5.427   4.734 -0.2125  0.1091 -0.3115
 2103TIP3    H1 6273   5.343   5.391   4.695 -0.2024 -0.5387  0.2442
 2103TIP3    H2 6274   5.464   5.476   4.663 -0.6100 -0.3724 -0.8831
 2104TIP3   OH2 6275   5.498   4.673   4.642 -0.0183  0.2702  0.2375
 2104TIP3    H1 6276   5.582   4.703   4.607 -0.5420  1.0099 -0.4069
 2104TIP3    H2 6277   5.522   4.604   4.704  1.1252  1.0292  0.6851
 2105TIP3   OH2 6278   6.820   2.332   3.793 -0.1775 -0.1575  0.0552
 2105TIP3    H1 6279   6.865   2.259   3.750 -0.8414  0.3023 -1.4981
 2105TIP3    H2 6280   6.727   2.314   3.780 -0.3554  1.2074 -0.8568
 2106TIP3   OH2 6281   0.434   1.951   2.643  0.2448 -0.3044  0.3288
 2106TIP3    H1 6282   0.418   1.994   2.559 -0.8698  0.3075  0.8311
 2106TIP3    H2 6283   0.374   1.877   2.644 -0.7700  0.4878  1.1319
 2107TIP3   OH2 6284   5.528   1.400   0.623 -0.0519 -0.4168 -0.2210
 2107TIP3    H1 6285   5.616   1.428   0.646 -0.2125 -0.5380  0.5679
 2107TIP3    H2 6286   5.503   1.337   0.692 -1.2849  0.6762  0.3900
 2108TIP3   OH2 6287   6.163   0.397   1.699 -0.2887  0.4599 -0.4883
 2108TIP3    H1 6288   6.179   0.313   1.742  1.2112  0.3356 -1.2294
 2108TIP3    H2 6289   6.146   0.458   1.771  1.4398  0.1058  0.2575
 2109TIP3   OH2 6290   2.550   5.546   2.233  0.0462 -0.1402  0.2386
 2109TIP3    H1 6291   2.478   5.607   2.218 -0.7269 -1.1857 -0.4666
 2109TIP3    H2 6292   2.536   5.477   2.168  1.4805 -0.5546  0.3381
 2110TIP3   OH2 6293   5.047   5.393   0.196  0.0509 -0.4529 -0.4060
 2110TIP3    H1 6294   5.034   5.414   0.103 -1.0893 -2.2085 -0.6867
 2110TIP3    H2 6295   4.964   5.355   0.223  0.6227 -0.6342  1.1567
 2111TIP3   OH2 6296   4.711   5.562   4.771 -0.4784  0.3453 -0.6193
 2111TIP3    H1 6297   4.754   5.647   4.758 -1.2187  0.7434 -0.5782
 2111TIP3    H2 6298   4.629   5.584   4.815 -1.2653 -0.2470 -1.7244
 2112TIP3   OH2 6299   3.347   4.408   5.607 -0.0017  0.5038  0.3702
 2112TIP3    H1 6300   3.372   4.451   5.689 -0.4532 -0.7752  1.1927
 2112TIP3    H2 6301   3.298   4.331   5.633  1.0910 -0.7488 -1.0567
 2113TIP3   OH2 6302   1.102   4.043   2.713 -0.1774 -0.0776  0.2976
 2113TIP3    H1 6303   1.162   4.010   2.780 -0.4900 -1.2128  0.0345
 2113TIP3    H2 6304   1.015   4.029   2.749 -0.3346 -0.1390 -0.0988
 2114TIP3   OH2 6305   4.907   6.773   3.924  0.5781  0.4275  0.0866
 2114TIP3    H1 6306   4.820   6.768   3.884  0.3635 -0.4378  0.6348
 2114TIP3    H2 6307   4.890   6.790   4.017  1.0903  3.2325 -0.2518
 2115TIP3   OH2 6308   4.015   2.289   2.157 -0.4682 -0.1261 -0.3154
 2115TIP3    H1 6309   3.962   2.225   2.204 -1.0163 -1.0200 -2.0733
 2115TIP3    H2 6310   4.067   2.332   2.226  0.0202 -2.5245  0.9398
 2116TIP3   OH2 6311   4.675   4.045   2.515  0.5413 -0.3194  0.3549
 2116TIP3    H1 6312   4.717   4.066   2.598  0.5831 -0.4508  0.3666
 2116TIP3    H2 6313   4.699   4.117   2.457  0.4863 -0.2120  0.4654
 2117TIP3   OH2 6314   6.375   1.986   0.097  0.2651 -0.0876 -0.6600
 2117TIP3    H1 6315   6.408   1.902   0.129  3.7218 -0.1779 -3.7966
 2117TIP3    H2 6316   6.288   1.966   0.063 -0.6178 -1.4137  2.0990
 2118TIP3   OH2 6317   2.366   0.194   4.700 -0.1812 -0.1317  0.7229
 2118TIP3    H1 6318   2.332   0.106   4.687  0.7610 -0.6835  1.8683
 2118TIP3    H2 6319   2.454   0.191   4.662 -0.1315  0.3150  0.7965
 2119TIP3   OH2 6320   1.265   3.066   4.882  0.2959 -0.2536 -0.6136
 2119TIP3    H1 6321   1.277   3.116   4.963  2.2861  0.0300 -1.0307
 2119TIP3    H2 6322   1.221   2.986   4.909  1.4450 -0.4155  0.8550
 2120TIP3   OH2 6323   2.716   4.635   2.940  0.0274  0.1416  0.7764
 2120TIP3    H1 6324   2.638   4.581   2.954  0.4414 -1.2115 -1.6074
 2120TIP3    H2 6325   2.690   4.699   2.874  0.5910  0.4908  0.8825
 2121TIP3   OH2 6326   0.117   0.682   4.077  0.7826  0.3861  0.4165
 2121TIP3    H1 6327   0.128   0.765   4.123  0.9987  0.8727 -0.4906
 2121TIP3    H2 6328   0.024   0.681   4.051  0.2015 -0.7029  2.3641
 2122TIP3   OH2 6329   2.413   5.984   4.848  0.2107  0.3972 -0.4292
 2122TIP3    H1 6330   2.356   5.908   4.860  1.0810 -0.4145 -1.2733
 2122TIP3    H2 6331   2.466   5.962   4.772  2.1720  0.8259  0.7585
 2123TIP3   OH2 6332   3.802   0.352   5.016  0.1680 -0.1030 -0.2815
 2123TIP3    H1 6333   3.876   0.413   5.026  0.4052 -0.5595  0.8770
 2123TIP3    H2 6334   3.725   0.405   5.032  0.2757  0.2304 -0.8357
 2124TIP3   OH2 6335   3.612   2.032   4.828  0.4776  0.1526  0.0006
 2124TIP3    H1 6336   3.596   2.028   4.922  1.6657 -0.5111  0.1881
 2124TIP3    H2 6337   3.705   2.052   4.820  0.1343  1.5103 -1.0484
 2125TIP3   OH2 6338   2.934   0.613   2.978  0.3175  0.4985 -1.1630
 2125TIP3    H1 6339   2.982   0.623   2.896  0.2402  0.4284 -1.2169
 2125TIP3    H2 6340   3.001   0.618   3.046  0.3919  0.4747 -1.2343
 2126TIP3   OH2 6341   6.785   4.003   4.355 -0.2936 -0.4592 -0.0555
 2126TIP3    H1 6342   6.723   4.066   4.319  0.6572 -0.1760 -1.2618
 2126TIP3    H2 6343   6.737   3.920   4.357 -0.9226 -0.1122 -0.3316
 2127TIP3   OH2 6344   3.717   0.972   5.600  0.0159  0.4581 -0.1607
 2127TIP3    H1 6345   3.693   0.944   5.511 -0.2295  0.3899 -0.0741
 2127TIP3    H2 6346   3.645   0.940   5.655  0.1700  0.4966  0.0628
 2128TIP3   OH2 6347   1.210   0.985   3.704  0.2881 -0.5795  0.8042
 2128TIP3    H1 6348   1.203   0.891   3.686  1.2643 -0.4127 -0.6237
 2128TIP3    H2 6349   1.298   0.997   3.738  0.0924 -0.1952  1.1957
 2129TIP3   OH2 6350   1.507   2.765   3.219 -0.7948 -0.2205 -0.3955
 2129TIP3    H1 6351   1.513   2.821   3.297 -0.6051  0.0158 -0.5779
 2129TIP3    H2 6352   1.457   2.817   3.156  1.2488  0.6976 -1.3670
 2130TIP3   OH2 6353   1.354   4.006   4.500  0.0020  0.4308 -0.0075
 2130TIP3    H1 6354   1.294   4.030   4.429  0.4235 -0.7150 -0.7721
 2130TIP3    H2 6355   1.357   4.084   4.555 -0.8470  1.1174 -0.8834
 2131TIP3   OH2 6356   6.939   0.205   2.180  0.6605 -0.0098  1.0728
 2131TIP3    H1 6357   6.893   0.255   2.113 -0.2962 -0.9773  0.9889
 2131TIP3    H2 6358   6.872   0.179   2.243  1.1545 -0.9952  1.2311
 2132TIP3   OH2 6359   1.962   1.429   4.232 -0.0768 -0.2976  0.0149
 2132TIP3    H1 6360   1.899   1.357   4.225 -2.4375  1.5525  1.0132
 2132TIP3    H2 6361   1.911   1.503   4.263  1.7834  2.4803 -2.9089
 2133TIP3   OH2 6362   3.346   1.326   5.298  0.2367 -0.5628 -0.1379
 2133TIP3    H1 6363   3.294   1.388   5.348 -0.6662 -0.1321 -1.5465
 2133TIP3    H2 6364   3.437   1.354   5.310 -0.1676  1.2062 -0.9330
 2134TIP3   OH2 6365   3.626   2.211   4.609  0.8469  0.6207  0.0342
 2134TIP3    H1 6366   3.664   2.277   4.668  1.0027 -0.2394  0.9235
 2134TIP3    H2 6367   3.646   2.128   4.651 -2.9501  0.1101  1.1317
 2135TIP3   OH2 6368   4.750   4.294   2.397 -0.5771  0.1712  0.0111
 2135TIP3    H1 6369   4.669   4.344   2.385 -0.4050  0.7811  1.2401
 2135TIP3    H2 6370   4.786   4.326   2.480  0.5257 -0.6486 -0.1278
 2136TIP3   OH2 6371   6.285   1.955   1.812  0.4725 -0.5065 -0.3724
 2136TIP3    H1 6372   6.274   2.046   1.784  1.5004 -0.2634 -0.0309
 2136TIP3    H2 6373   6.342   1.916   1.745 -1.8078 -1.5797 -1.8188
 2137TIP3   OH2 6374   6.801   6.443   2.133 -0.4230 -0.0810  0.6206
 2137TIP3    H1 6375   6.836   6.531   2.123 -0.2057 -0.2737 -0.5447
 2137TIP3    H2 6376   6.868   6.386   2.094 -1.4106 -0.5692 -0.4150
 2138TIP3   OH2 6377   2.586   1.294   5.713  0.0593  0.4356  0.1821
 2138TIP3    H1 6378   2.603   1.302   5.807  0.8346 -0.0583  0.0931
 2138TIP3    H2 6379   2.588   1.200   5.696  1.1432  0.5693 -0.5331
 2139TIP3   OH2 6380   6.763   4.558   3.249  0.1811 -0.6037  0.0992
 2139TIP3    H1 6381   6.722   4.492   3.304  1.4328 -0.3834  1.3520
 2139TIP3    H2 6382   6.797   4.509   3.174 -1.9021 -0.8434 -0.7779
 2140TIP3   OH2 6383   0.875   1.906   5.504 -0.1379 -0.2958  0.5855
 2140TIP3    H1 6384   0.926   1.925   5.426  0.9281 -2.6512  0.6265
 2140TIP3    H2 6385   0.848   1.815   5.494 -2.9295  0.3497  1.3941
 2141TIP3   OH2 6386   5.999   5.459   2.387  0.3312 -0.3445  0.0321
 2141TIP3    H1 6387   5.905   5.466   2.377  0.0481 -1.9096  1.1209
 2141TIP3    H2 6388   6.021   5.376   2.344  1.3731  0.4344 -1.0137
 2142TIP3   OH2 6389   3.536   4.402   5.417 -0.2072 -0.0841  0.2064
 2142TIP3    H1 6390   3.466   4.411   5.482  0.9663  2.7125  1.2261
 2142TIP3    H2 6391   3.617   4.408   5.467  0.7505  0.5653 -1.3335
 2143TIP3   OH2 6392   4.479   6.115   4.051 -0.2796 -0.4255  0.4479
 2143TIP3    H1 6393   4.573   6.122   4.040 -0.2206 -1.9364 -0.2723
 2143TIP3    H2 6394   4.461   6.161   4.133  0.9658  0.5484  0.1983
 2144TIP3   OH2 6395   2.646   6.144   1.528  0.6774 -0.1630 -0.1000
 2144TIP3    H1 6396   2.619   6.214   1.588 -1.0311 -0.5953 -0.3209
 2144TIP3    H2 6397   2.725   6.178   1.486 -1.2738  2.6500 -1.8222
 2145TIP3   OH2 6398   3.583   5.841   1.529 -0.4512  0.5074  0.2008
 2145TIP3    H1 6399   3.549   5.905   1.467 -1.4941  1.0113  1.2519
 2145TIP3    H2 6400   3.658   5.885   1.570  0.7275 -0.1175 -1.2012
 2146TIP3   OH2 6401   1.648   2.859   5.090 -0.3951  0.3634 -0.3043
 2146TIP3    H1 6402   1.618   2.834   5.177  2.3648  1.4671  1.1027
 2146TIP3    H2 6403   1.668   2.953   5.097  0.7717  0.2736 -1.8089
 2147TIP3   OH2 6404   3.985   0.162   4.971 -0.3582  0.0472 -0.9058
 2147TIP3    H1 6405   4.017   0.190   4.885  1.5630  0.8201  0.0002
 2147TIP3    H2 6406   3.909   0.217   4.988  0.0662  0.8588 -1.5396
 2148TIP3   OH2 6407   1.871   2.320   2.122 -0.4337 -0.2483 -0.3733
 2148TIP3    H1 6408   1.902   2.321   2.031  0.0907 -0.0703 -0.1970
 2148TIP3    H2 6409   1.950   2.331   2.174 -0.9411  1.9170  0.0378
 2149TIP3   OH2 6410   3.934   3.513   0.591  0.0881  0.1759 -0.4397
 2149TIP3    H1 6411   4.004   3.570   0.624 -0.2375  0.6829 -0.6061
 2149TIP3    H2 6412   3.968   3.479   0.508  1.3522 -1.9513  0.8569
 2150TIP3   OH2 6413   4.303   1.912   3.142 -0.4450  0.3204 -0.1624
 2150TIP3    H1 6414   4.314   1.907   3.237 -1.5447  0.0046 -0.0416
 2150TIP3    H2 6415   4.376   1.860   3.107 -0.4386 -0.1529  0.5333
 2151TIP3   OH2 6416   5.915   1.501   2.018 -0.2910  0.4278 -0.2829
 2151TIP3    H1 6417   5.999   1.543   1.996 -0.1597  0.7768  0.8033
 2151TIP3    H2 6418   5.849   1.565   1.991 -0.0675  1.9337  2.3441
 2152TIP3   OH2 6419   2.507   1.354   5.467  0.2579 -0.0205  0.4385
 2152TIP3    H1 6420   2.567   1.304   5.521 -0.3760  1.4024  2.5688
 2152TIP3    H2 6421   2.436   1.379   5.526 -1.4452  0.0540 -1.5054
 2153TIP3   OH2 6422   5.415   1.996   1.113  0.0952  0.0972  0.4232
 2153TIP3    H1 6423   5.400   2.009   1.019  0.0564 -0.3949  0.3581
 2153TIP3    H2 6424   5.466   2.072   1.140 -1.4181  1.1704  0.3827
 2154TIP3   OH2 6425   2.733   6.395   5.727  0.0948 -0.2438  0.1288
 2154TIP3    H1 6426   2.759   6.323   5.669  0.3274 -0.3052  0.3082
 2154TIP3    H2 6427   2.815   6.441   5.746 -0.4300  2.7826 -3.5108
 2155TIP3   OH2 6428   3.665   0.792   1.773 -0.3632 -0.0234 -0.1250
 2155TIP3    H1 6429   3.689   0.800   1.681  0.9755 -1.3368  0.0588
 2155TIP3    H2 6430   3.735   0.739   1.811 -1.9532 -1.2936  1.2008
 2156TIP3   OH2 6431   3.985   5.933   0.114  0.0115 -0.0742  0.7625
 2156TIP3    H1 6432   4.065   5.931   0.063 -2.8399 -0.8298 -4.3532
 2156TIP3    H2 6433   3.945   6.017   0.094 -1.1222 -0.2459  2.1060
 2157TIP3   OH2 6434   5.458   4.217   4.915  0.3550  0.0885  0.0629
 2157TIP3    H1 6435   5.390   4.200   4.850 -0.2936  0.2460  0.6988
 2157TIP3    H2 6436   5.498   4.132   4.932 -1.1212 -0.3864  1.2839
 2158TIP3   OH2 6437   6.420   2.498   5.718 -0.6166 -0.7856 -0.5857
 2158TIP3    H1 6438   6.509   2.515   5.687 -1.0795  2.3904 -0.4551
 2158TIP3    H2 6439   6.420   2.527   5.809 -1.2445 -2.9866  0.1822
 2159TIP3   OH2 6440   6.021   3.740   5.354  0.4246 -1.0372 -0.1071
 2159TIP3    H1 6441   5.992   3.818   5.306 -1.4193 -1.9525 -0.6004
 2159TIP3    H2 6442   6.072   3.691   5.290  1.5567 -0.2933  0.1919
 2160TIP3   OH2 6443   4.076   0.235   3.578 -0.4077 -0.7020  0.5830
 2160TIP3    H1 6444   4.100   0.190   3.660  2.5471 -1.2164 -0.4321
 2160TIP3    H2 6445   4.116   0.322   3.587  0.3180 -0.9128 -0.4289
 2161TIP3   OH2 6446   5.511   0.095   2.383 -0.5536  0.2019 -0.2169
 2161TIP3    H1 6447   5.597   0.138   2.377 -0.0910 -0.5857  0.5563
 2161TIP3    H2 6448   5.455   0.148   2.326  0.3827  0.8676 -0.5691
 2162TIP3   OH2 6449   0.529   4.599   0.955  0.2870  0.6544  0.6579
 2162TIP3    H1 6450   0.623   4.587   0.965  0.0745  0.5237  3.3488
 2162TIP3    H2 6451   0.518   4.692   0.936  0.9910  0.3763 -1.2972
 2163TIP3   OH2 6452   0.470   2.886   5.400  0.0756 -0.7605 -0.0684
 2163TIP3    H1 6453   0.491   2.889   5.307  2.6869  1.5671  0.4712
 2163TIP3    H2 6454   0.427   2.969   5.418 -1.1065 -1.5075  0.7134
 2164TIP3   OH2 6455   1.467   0.040   1.555  0.3191 -0.5555  0.1565
 2164TIP3    H1 6456   1.408  -0.024   1.514  1.2899 -1.7491  0.5762
 2164TIP3    H2 6457   1.415   0.079   1.624 -0.4235 -0.5801 -0.3731
 2165TIP3   OH2 6458   1.240   2.483   2.017  0.1641 -0.1550 -0.2984
 2165TIP3    H1 6459   1.171   2.417   2.024  0.6946 -0.6486  0.3677
 2165TIP3    H2 6460   1.213   2.537   1.942  0.6644 -2.2319 -2.0655
 2166TIP3   OH2 6461   0.007   6.251   4.447  0.5848 -0.0494  0.3284
 2166TIP3    H1 6462  -0.069   6.255   4.505 -0.0356  1.4802 -0.5381
 2166TIP3    H2 6463   0.065   6.188   4.489 -0.1416  0.4740  2.2400
 2167TIP3   OH2 6464   1.986   5.707   1.404  0.1859 -0.1563 -0.1312
 2167TIP3    H1 6465   1.914   5.701   1.341 -0.1503  2.0986 -0.0373
 2167TIP3    H2 6466   2.065   5.708   1.350  0.1028 -1.3563 -0.3043
 2168TIP3   OH2 6467   6.327   4.248   2.006 -0.6739 -0.9485 -0.1152
 2168TIP3    H1 6468   6.336   4.312   1.935 -0.3014  0.4296  1.1199
 2168TIP3    H2 6469   6.377   4.172   1.976  0.6080  0.1055 -0.7755
 2169TIP3   OH2 6470   7.017   5.264   3.584  0.2435  0.1055 -0.1497
 2169TIP3    H1 6471   7.081   5.318   3.631 -1.2562 -0.4155  2.7029
 2169TIP3    H2 6472   7.067   5.189   3.553  1.1794  0.0801  1.3258
 2170TIP3   OH2 6473   1.737   1.154   2.823  0.0831 -0.3561  0.2389
 2170TIP3    H1 6474   1.660   1.115   2.866 -0.9292  1.5248  0.2595
 2170TIP3    H2 6475   1.767   1.087   2.762  0.4950 -2.4278  2.5970
 2171TIP3   OH2 6476   2.597   3.511   5.515  0.3232  0.4366 -0.2023
 2171TIP3    H1 6477   2.651   3.521   5.437 -0.7376 -1.2844 -1.2063
 2171TIP3    H2 6478   2.602   3.418   5.536 -0.7264  0.5939  0.8094
 2172TIP3   OH2 6479   6.777   5.657   5.298 -0.3554 -0.0087 -0.5000
 2172TIP3    H1 6480   6.705   5.680   5.239 -0.7950  1.3331  0.4861
 2172TIP3    H2 6481   6.734   5.635   5.380  0.3056 -0.4470 -0.2676
 2173TIP3   OH2 6482   1.217   5.179   3.762  0.1015 -0.2348  0.1849
 2173TIP3    H1 6483   1.247   5.142   3.679 -0.5899 -2.3546  0.8077
 2173TIP3    H2 6484   1.121   5.171   3.759  0.1057 -1.0556  1.4719
 2174TIP3   OH2 6485   5.898   4.312   3.022 -0.1023  0.2212 -0.0643
 2174TIP3    H1 6486   5.980   4.269   2.999  0.7690  1.1219  1.2275
 2174TIP3    H2 6487   5.882   4.375   2.952  0.3944  0.1632 -0.2280
 2175TIP3   OH2 6488   4.204   5.221   0.505 -0.7845  0.0865  0.1978
 2175TIP3    H1 6489   4.287   5.222   0.458 -0.8728 -0.3690  0.0214
 2175TIP3    H2 6490   4.219   5.274   0.583 -0.3756  0.1300  0.0887
 2176TIP3   OH2 6491   6.799   2.782   4.860  0.0324 -0.4548  0.3362
 2176TIP3    H1 6492   6.770   2.840   4.930 -0.4401  2.6113 -2.1524
 2176TIP3    H2 6493   6.723   2.725   4.844 -1.8195  2.1033 -0.7715
 2177TIP3   OH2 6494   3.077   2.545   5.834  0.1639  0.1083 -0.0413
 2177TIP3    H1 6495   3.121   2.470   5.795 -3.2123 -2.5525  0.8002
 2177TIP3    H2 6496   3.009   2.569   5.770 -0.6216  0.5487  0.9166
 2178TIP3   OH2 6497   5.525   3.941   3.993 -0.2759 -0.0458 -0.7193
 2178TIP3    H1 6498   5.562   3.854   4.008  0.2037  0.2380 -0.2247
 2178TIP3    H2 6499   5.578   3.999   4.047 -0.0684  0.6799 -1.6807
 2179TIP3   OH2 6500   6.928   5.023   1.028  0.4621 -0.3180 -0.7855
 2179TIP3    H1 6501   6.933   4.937   0.986  0.9554 -1.3950  1.3542
 2179TIP3    H2 6502   6.977   5.080   0.969  0.6110 -1.6054 -1.9801
 2180TIP3   OH2 6503   6.595   0.758   4.966  0.0735  0.3100  0.0652
 2180TIP3    H1 6504   6.559   0.789   4.883  1.2393  0.6911 -0.3217
 2180TIP3    H2 6505   6.578   0.829   5.028 -2.4736 -0.7197  0.6782
 2181TIP3   OH2 6506   0.996   6.480   3.259 -0.6624  0.4099  0.0358
 2181TIP3    H1 6507   0.910   6.455   3.224 -0.5773  3.0465 -2.3594
 2181TIP3    H2 6508   1.054   6.409   3.232 -1.4073  0.4042 -1.6766
 2182TIP3   OH2 6509   5.105   4.185   5.080 -0.1179  0.1307  0.0044
 2182TIP3    H1 6510   5.127   4.134   5.158 -1.2604 -0.7807 -0.2367
 2182TIP3    H2 6511   5.009   4.180   5.075 -0.6534  4.6847  1.5609
 2183TIP3   OH2 6512   5.673   4.407   1.557 -0.0466  0.0735 -0.6745
 2183TIP3    H1 6513   5.595   4.426   1.504  1.0208 -2.7271 -3.6149
 2183TIP3    H2 6514   5.638   4.372   1.639 -2.2226 -3.6174 -2.8442
 2184TIP3   OH2 6515   4.092   6.563   1.019 -0.0192 -0.3730 -0.9479
 2184TIP3    H1 6516   4.017   6.602   0.975 -1.3130 -0.0821  1.3762
 2184TIP3    H2 6517   4.074   6.469   1.019 -1.0474 -0.2010  0.6904
 2185TIP3   OH2 6518   1.267   1.134   1.255 -0.9479  0.0137  0.0812
 2185TIP3    H1 6519   1.198   1.068   1.251 -0.6041 -0.2893 -1.5558
 2185TIP3    H2 6520   1.348   1.084   1.253 -0.6663  0.4227  0.8301
 2186TIP3   OH2 6521   4.162   5.595   5.031 -0.5250 -0.1594  0.6729
 2186TIP3    H1 6522   4.139   5.678   5.072 -1.3146 -0.5320  1.0054
 2186TIP3    H2 6523   4.080   5.560   4.998 -0.2118 -0.8327  0.5762
 2187TIP3   OH2 6524   1.960   1.652   5.573  0.4673  0.3088  0.3980
 2187TIP3    H1 6525   2.051   1.622   5.567  0.9867  1.2670  2.4450
 2187TIP3    H2 6526   1.916   1.585   5.626  0.2181  0.3660  0.2661
 2188TIP3   OH2 6527   1.868   6.425   1.242 -0.3091 -0.2653  0.2859
 2188TIP3    H1 6528   1.855   6.462   1.154 -1.4933 -1.0737  0.1042
 2188TIP3    H2 6529   1.892   6.500   1.296  2.3928 -0.0193 -1.0884
 2189TIP3   OH2 6530   1.659   1.609   5.452  0.1033  0.1185  0.1896
 2189TIP3    H1 6531   1.754   1.617   5.461  0.3366 -1.3890 -0.6570
 2189TIP3    H2 6532   1.640   1.641   5.364  0.1087 -1.3518 -0.3796
 2190TIP3   OH2 6533   5.651   5.542   4.563 -0.2649 -0.4475 -0.4149
 2190TIP3    H1 6534   5.661   5.637   4.559  2.4719 -0.6026  0.6738
 2190TIP3    H2 6535   5.654   5.514   4.471  1.9598  0.3492 -0.6496
 2191TIP3   OH2 6536   1.141   0.578   4.908  0.1604  0.1959  0.4279
 2191TIP3    H1 6537   1.165   0.524   4.833 -1.6318  0.0279 -0.0465
 2191TIP3    H2 6538   1.214   0.639   4.917 -0.0789  0.9629 -2.1425
 2192TIP3   OH2 6539   4.429   1.108   3.186 -0.0129 -0.0747 -0.3133
 2192TIP3    H1 6540   4.374   1.063   3.122 -0.5776 -1.7459  1.2735
 2192TIP3    H2 6541   4.471   1.038   3.236  2.8530  1.1636 -0.8235
 2193TIP3   OH2 6542   3.384   3.910   0.923  0.3681 -0.2556  0.3033
 2193TIP3    H1 6543   3.316   3.843   0.915 -1.8578  2.0116 -2.8066
 2193TIP3    H2 6544   3.354   3.966   0.994  1.1880 -1.4180  1.5970
 2194TIP3   OH2 6545   6.925   6.767   3.058  0.1754 -0.2910 -0.1782
 2194TIP3    H1 6546   6.916   6.674   3.080  0.6030 -0.0683  1.0251
 2194TIP3    H2 6547   6.900   6.773   2.966 -0.2522 -1.5339 -0.1557
 2195TIP3   OH2 6548   3.288   6.779   4.328  0.1359  0.4228  0.7521
 2195TIP3    H1 6549   3.246   6.734   4.255  0.0665 -0.8575  1.5500
 2195TIP3    H2 6550   3.234   6.757   4.404  0.4725  1.3465  1.2787
 2196TIP3   OH2 6551   1.077   3.000   0.071  0.3622  0.2286 -0.5085
 2196TIP3    H1 6552   1.123   2.939   0.013  0.4404 -0.2154  0.0124
 2196TIP3    H2 6553   1.119   3.084   0.057 -0.0206  0.2575 -1.5484
 2197TIP3   OH2 6554   2.045   1.291   1.389 -0.2737 -0.3174  0.2310
 2197TIP3    H1 6555   2.104   1.351   1.344  0.3662 -1.1648 -0.1037
 2197TIP3    H2 6556   2.093   1.267   1.469  1.1870 -3.1419 -1.3091
 2198TIP3   OH2 6557   7.036   5.801   3.253  0.6817 -0.6410  0.2542
 2198TIP3    H1 6558   7.021   5.790   3.159 -1.6631  0.0472  0.4892
 2198TIP3    H2 6559   7.033   5.712   3.287  1.1927 -0.8643 -0.2528
 2199TIP3   OH2 6560   2.935   1.856   1.404 -0.4727 -0.5768 -0.2012
 2199TIP3    H1 6561   2.955   1.903   1.323  0.3809  0.4684  0.5917
 2199TIP3    H2 6562   2.873   1.788   1.377  0.1081 -0.5192 -1.8012
 2200TIP3   OH2 6563   1.737   5.225   3.306 -0.6555  0.1826  0.0502
 2200TIP3    H1 6564   1.786   5.143   3.297  0.3430  0.6192  1.2768
 2200TIP3    H2 6565   1.651   5.205   3.269 -0.3823 -1.3833  0.1837
 2201TIP3   OH2 6566   3.283   2.386   1.528  0.3007  0.4441 -0.2737
 2201TIP3    H1 6567   3.343   2.437   1.474  0.6276 -0.6010 -0.9474
 2201TIP3    H2 6568   3.301   2.295   1.504  0.5466 -0.0780  1.7077
 2202TIP3   OH2 6569   3.480   5.622   0.090 -0.0727  0.0687 -0.2358
 2202TIP3    H1 6570   3.489   5.566   0.166  1.1885 -0.2777 -0.6078
 2202TIP3    H2 6571   3.444   5.704   0.124  0.7105  0.0112  0.7848
 2203TIP3   OH2 6572   2.708   1.624   2.397  0.3059 -0.4669  0.6678
 2203TIP3    H1 6573   2.649   1.548   2.402  1.1522 -1.1813  0.2067
 2203TIP3    H2 6574   2.792   1.591   2.431  0.8504  0.0815 -0.1102
 2204TIP3   OH2 6575   7.028   1.819   4.416  0.0762  0.3990 -0.1744
 2204TIP3    H1 6576   7.037   1.914   4.418  1.1833  0.3456  2.7974
 2204TIP3    H2 6577   6.955   1.800   4.474  1.6158 -0.5805  1.5799
 2205TIP3   OH2 6578   1.053   1.098   2.863 -0.3507 -0.0727 -0.6392
 2205TIP3    H1 6579   1.065   1.013   2.823 -2.1170 -0.3526 -0.6621
 2205TIP3    H2 6580   0.997   1.081   2.939 -2.8729  1.3407 -2.0622
 2206TIP3   OH2 6581   1.444   0.246   1.335  0.1832 -0.1202  0.4760
 2206TIP3    H1 6582   1.428   0.215   1.246 -0.5355  3.6169 -0.8930
 2206TIP3    H2 6583   1.414   0.175   1.391 -0.7244 -2.0398 -2.2318
 2207TIP3   OH2 6584   2.892   6.685   5.153 -0.0485 -0.2141  0.8024
 2207TIP3    H1 6585   2.824   6.742   5.117  1.9968  1.6396 -0.3071
 2207TIP3    H2 6586   2.909   6.621   5.084 -0.1292 -0.2487  0.8127
 2208TIP3   OH2 6587   4.796   3.449   1.491 -0.0673 -0.0028 -0.7054
 2208TIP3    H1 6588   4.813   3.530   1.538  0.2127  0.7101 -2.0016
 2208TIP3    H2 6589   4.870   3.392   1.515 -0.9251 -0.3812  1.2181
 2209TIP3   OH2 6590   2.451   0.867   4.197  0.5826  0.0437  0.0070
 2209TIP3    H1 6591   2.479   0.908   4.115  0.7316  0.9017  0.4740
 2209TIP3    H2 6592   2.362   0.899   4.210 -0.1301 -1.5571 -0.7495
 2210TIP3   OH2 6593   6.906   2.680   1.401  0.0870  0.2908  0.1419
 2210TIP3    H1 6594   6.994   2.672   1.440  0.4872  0.3712 -0.7242
 2210TIP3    H2 6595   6.869   2.593   1.408 -0.3848  0.5923  1.9116
 2211TIP3   OH2 6596   5.479   4.154   2.312 -0.7112  0.7543 -0.3411
 2211TIP3    H1 6597   5.553   4.114   2.358 -2.0630  0.0317  1.3059
 2211TIP3    H2 6598   5.465   4.098   2.235  0.2008  0.6708 -0.4536
 2212TIP3   OH2 6599   5.866   0.400   2.630 -0.7349 -0.3626  0.0960
 2212TIP3    H1 6600   5.932   0.346   2.673  1.2349  0.1618 -2.1177
 2212TIP3    H2 6601   5.862   0.480   2.682  2.0000  0.4910 -0.8799
 2213TIP3   OH2 6602   3.105   6.324   2.670 -0.3807  0.3251  0.2183
 2213TIP3    H1 6603   3.090   6.285   2.756 -0.8557 -1.5830 -0.6737
 2213TIP3    H2 6604   3.037   6.391   2.662  0.4782  1.4610  1.8128
 2214TIP3   OH2 6605   4.648   4.108   5.250 -0.0003  0.0108 -0.2361
 2214TIP3    H1 6606   4.654   4.045   5.322  0.3055 -1.0738 -1.1737
 2214TIP3    H2 6607   4.678   4.191   5.287  1.6234 -0.8609  0.4981
 2215TIP3   OH2 6608   3.378   6.013   5.507 -0.2484  0.2851 -0.2436
 2215TIP3    H1 6609   3.385   5.933   5.560 -0.8215  0.0870 -0.4614
 2215TIP3    H2 6610   3.285   6.035   5.508  0.0715  1.6820  0.8627
 2216TIP3   OH2 6611   4.451   5.889   3.242 -0.1937 -0.0366 -0.1743
 2216TIP3    H1 6612   4.473   5.982   3.252 -1.8909  0.3175  0.5253
 2216TIP3    H2 6613   4.478   5.849   3.325  1.0438 -0.3047 -0.6812
 2217TIP3   OH2 6614   4.604   2.750   1.517  0.1389 -0.1080  0.3875
 2217TIP3    H1 6615   4.682   2.745   1.461 -0.6552 -1.0505 -0.6704
 2217TIP3    H2 6616   4.532   2.767   1.456 -0.2073  3.8144  1.5903
 2218TIP3   OH2 6617   4.440   1.789   0.476  0.0622  0.1741 -0.2713
 2218TIP3    H1 6618   4.373   1.792   0.545 -0.0051 -0.1708 -0.3210
 2218TIP3    H2 6619   4.523   1.796   0.524 -0.0155  2.7029 -0.3265
 2219TIP3   OH2 6620   6.045   4.378   5.236 -0.3830 -0.5108 -0.3940
 2219TIP3    H1 6621   6.019   4.318   5.305  1.2227 -0.8375 -0.0391
 2219TIP3    H2 6622   6.136   4.355   5.217 -0.1314  0.9728 -1.1275
 2220TIP3   OH2 6623   1.017   3.288   5.419 -0.7715  0.2969 -0.4520
 2220TIP3    H1 6624   0.954   3.233   5.467 -0.0546 -0.0759  0.0889
 2220TIP3    H2 6625   1.053   3.346   5.486  2.4767 -2.2220  0.2525
 2221TIP3   OH2 6626   6.275   5.287   4.219  0.3267  0.4022 -0.9186
 2221TIP3    H1 6627   6.182   5.298   4.242  0.5631  0.4846  0.0815
 2221TIP3    H2 6628   6.317   5.268   4.303  0.9017 -1.8583 -1.6684
 2222TIP3   OH2 6629   4.061   0.799   1.282 -0.0705 -0.6980 -0.6910
 2222TIP3    H1 6630   4.121   0.726   1.266  1.5942  0.0143  1.7475
 2222TIP3    H2 6631   3.987   0.759   1.329 -0.2258 -1.1376 -1.2956
 2223TIP3   OH2 6632   2.990   5.911   3.569  0.6198  0.0479  0.3530
 2223TIP3    H1 6633   3.011   5.842   3.505  0.8216 -0.2315  0.7161
 2223TIP3    H2 6634   2.974   5.989   3.515  2.7146  0.3255  0.0168
 2224TIP3   OH2 6635   0.031   0.545   1.502 -0.6018  0.1715 -0.0002
 2224TIP3    H1 6636   0.094   0.593   1.555  0.1817 -0.4635 -0.3414
 2224TIP3    H2 6637   0.044   0.577   1.413 -0.0414 -0.6945 -0.2372
 2225TIP3   OH2 6638   2.856   2.940   1.770  0.1673  0.2858 -0.1073
 2225TIP3    H1 6639   2.834   2.891   1.690  1.0938  1.6047 -1.2243
 2225TIP3    H2 6640   2.951   2.946   1.768  0.2005  0.2596  1.1708
 2226TIP3   OH2 6641   5.468   2.519   2.550  0.7652 -0.0960  0.4650
 2226TIP3    H1 6642   5.442   2.466   2.626 -0.6414  1.7665  1.3788
 2226TIP3    H2 6643   5.394   2.513   2.490  1.5589 -0.9600 -0.4420
 2227TIP3   OH2 6644   6.873   1.561   2.336  0.1432 -0.1762 -0.0699
 2227TIP3    H1 6645   6.926   1.589   2.261 -2.4174  1.2234 -1.5018
 2227TIP3    H2 6646   6.838   1.476   2.310  0.0554 -0.1566 -0.0149
 2228TIP3   OH2 6647   0.698   0.131   1.808 -0.0499  0.0603  0.7556
 2228TIP3    H1 6648   0.706   0.038   1.831  0.2049 -0.4906 -1.2704
 2228TIP3    H2 6649   0.719   0.133   1.714  0.7215  2.3007  0.9432
 2229TIP3   OH2 6650   5.729   6.575   5.681 -0.0386  0.1946 -0.1385
 2229TIP3    H1 6651   5.664   6.534   5.738 -1.2429  2.0349 -0.0920
 2229TIP3    H2 6652   5.803   6.593   5.739 -0.1890 -0.3233  0.2221
 2230TIP3   OH2 6653   2.358   0.729   0.195 -0.6637  0.0631 -0.1615
 2230TIP3    H1 6654   2.291   0.766   0.138  0.0773  1.4236 -0.1780
 2230TIP3    H2 6655   2.441   0.758   0.158 -0.1227 -0.1984  0.8106
 2231TIP3   OH2 6656   1.088   6.283   1.424  0.0829  0.5368 -0.0104
 2231TIP3    H1 6657   1.100   6.377   1.439  0.0041  0.4876  0.3661
 2231TIP3    H2 6658   1.164   6.257   1.372 -0.4199  1.0147 -1.0299
 2232TIP3   OH2 6659   6.715   2.984   4.652  0.2438 -0.4653 -0.6067
 2232TIP3    H1 6660   6.718   2.905   4.598  1.0655 -0.5768 -0.4051
 2232TIP3    H2 6661   6.656   2.960   4.724  0.3392 -0.8267 -0.6467
 2233TIP3   OH2 6662   2.423   0.734   3.704 -0.0360 -0.5702 -0.0063
 2233TIP3    H1 6663   2.356   0.673   3.736  0.4830 -0.8302  0.6162
 2233TIP3    H2 6664   2.476   0.682   3.644 -1.4806  0.1204 -2.0032
 2234TIP3   OH2 6665   6.411   5.801   1.273  0.2535  0.7406  0.0652
 2234TIP3    H1 6666   6.416   5.739   1.345  3.0859 -0.3197 -0.9246
 2234TIP3    H2 6667   6.434   5.885   1.313  0.5257  0.4011  0.6408
 2235TIP3   OH2 6668   6.096   5.689   0.822  0.3994  0.5042 -0.4196
 2235TIP3    H1 6669   6.012   5.708   0.781  0.4409  2.1471  0.1873
 2235TIP3    H2 6670   6.160   5.693   0.750  0.0675  0.0113 -0.7471
 2236TIP3   OH2 6671   1.927   4.460   4.461 -0.0613  0.3742  0.1807
 2236TIP3    H1 6672   1.942   4.437   4.552  0.7584  3.7515  1.0325
 2236TIP3    H2 6673   1.849   4.516   4.462  0.2208  0.8376 -1.1139
 2237TIP3   OH2 6674   4.634   6.285   5.849  0.4198 -0.4027 -0.7327
 2237TIP3    H1 6675   4.572   6.343   5.893  0.3378  0.3437 -1.8032
 2237TIP3    H2 6676   4.653   6.217   5.913 -0.6861 -0.0480 -0.0145
 2238TIP3   OH2 6677   0.325   0.968   3.900  0.1555 -0.6314 -0.3853
 2238TIP3    H1 6678   0.320   1.056   3.862  0.0290 -0.9137 -1.0458
 2238TIP3    H2 6679   0.291   0.911   3.831 -4.0764 -0.8355  1.5432
 2239TIP3   OH2 6680   0.149   0.948   5.486  0.1498  0.0011 -0.0832
 2239TIP3    H1 6681   0.058   0.974   5.503 -0.3525 -1.2648 -0.7029
 2239TIP3    H2 6682   0.150   0.924   5.394  1.4534  1.2443 -0.4341
 2240TIP3   OH2 6683   6.338   0.055   4.518 -0.0061 -0.0550 -0.2694
 2240TIP3    H1 6684   6.277  -0.012   4.487  0.4988 -0.4860 -0.3414
 2240TIP3    H2 6685   6.290   0.101   4.587 -0.9280  0.5427 -1.2833
 2241TIP3   OH2 6686   1.721   0.723   5.702  0.2555 -0.3388 -0.0990
 2241TIP3    H1 6687   1.668   0.789   5.656 -0.2479 -0.8487 -0.2684
 2241TIP3    H2 6688   1.659   0.681   5.761  0.6257 -0.5124  0.1662
 2242TIP3   OH2 6689   2.502   2.743   0.196  0.1849  0.1601  0.1772
 2242TIP3    H1 6690   2.569   2.781   0.139 -0.3607  1.8402  0.6006
 2242TIP3    H2 6691   2.439   2.704   0.135 -0.0766  1.3963 -0.3679
 2243TIP3   OH2 6692   2.164   4.885   5.744  0.2723 -0.3326 -0.1197
 2243TIP3    H1 6693   2.072   4.911   5.753  0.1323 -0.6997 -0.5107
 2243TIP3    H2 6694   2.185   4.900   5.652  0.9124  0.7550  0.1812
 2244TIP3   OH2 6695   0.312   6.383   1.327  0.1125 -0.5534 -0.2430
 2244TIP3    H1 6696   0.341   6.305   1.375  1.2784 -0.4267 -0.7237
 2244TIP3    H2 6697   0.293   6.352   1.239 -0.2996 -0.4579 -0.1892
 2245TIP3   OH2 6698   0.151   5.554   1.986 -0.2663 -0.3566 -0.8266
 2245TIP3    H1 6699   0.124   5.466   1.961 -0.3895 -1.1922  1.9848
 2245TIP3    H2 6700   0.077   5.590   2.034  1.1506 -0.2581  1.4451
 2246TIP3   OH2 6701   7.141   0.644   0.842  0.3083  0.5403  0.0757
 2246TIP3    H1 6702   7.184   0.678   0.763 -2.1097 -1.3463 -2.2537
 2246TIP3    H2 6703   7.190   0.564   0.863 -0.8973 -0.7710 -1.6613
 2247TIP3   OH2 6704   1.164   4.804   1.688 -0.1041 -0.2282  0.1491
 2247TIP3    H1 6705   1.175   4.720   1.732  3.3894 -0.1692 -0.3028
 2247TIP3    H2 6706   1.152   4.868   1.758  0.8187 -0.6957  0.7474
 2248TIP3   OH2 6707   2.183   2.215   4.157 -0.5279  0.1160 -0.2331
 2248TIP3    H1 6708   2.127   2.177   4.090  0.3439 -2.1626  0.2341
 2248TIP3    H2 6709   2.213   2.140   4.209 -0.4834  1.7019  2.1930
 2249TIP3   OH2 6710   2.383   3.513   0.137 -0.0161  0.4845  0.5287
 2249TIP3    H1 6711   2.312   3.483   0.082  2.0586 -0.3097 -1.9284
 2249TIP3    H2 6712   2.380   3.608   0.130 -1.5645  0.5399  1.5274
 2250TIP3   OH2 6713   5.735   0.680   4.146  0.5339  0.3107  0.1012
 2250TIP3    H1 6714   5.826   0.662   4.124  0.6598 -0.7585  1.3635
 2250TIP3    H2 6715   5.718   0.627   4.225 -0.8912  1.2256  0.4549
 2251TIP3   OH2 6716   0.474   0.673   1.525  0.6242  0.1786  0.3738
 2251TIP3    H1 6717   0.524   0.597   1.555  1.1416  1.0196  1.7623
 2251TIP3    H2 6718   0.438   0.647   1.440  1.1471 -1.4430  0.6199
 2252TIP3   OH2 6719   3.570   2.791   4.837 -0.1252 -0.6433  0.5762
 2252TIP3    H1 6720   3.477   2.778   4.821  0.2109 -0.2053 -2.1401
 2252TIP3    H2 6721   3.575   2.881   4.871 -0.5292  0.3747 -1.8617
 2253TIP3   OH2 6722   0.305   2.605   3.295  0.6429 -0.4137 -0.3287
 2253TIP3    H1 6723   0.266   2.619   3.381 -0.6510  1.1381 -1.1178
 2253TIP3    H2 6724   0.242   2.549   3.250 -0.4873  1.6148 -1.4076
 2254TIP3   OH2 6725   0.207   0.845   2.434 -0.7350 -0.2181  0.1421
 2254TIP3    H1 6726   0.137   0.806   2.487  0.3510 -1.9743  0.3590
 2254TIP3    H2 6727   0.272   0.776   2.425  1.1621  1.4553  0.2408
 2255TIP3   OH2 6728   1.561   1.067   3.309  0.1998  0.3086 -0.2467
 2255TIP3    H1 6729   1.596   1.091   3.224  0.3401 -0.9954 -0.5702
 2255TIP3    H2 6730   1.576   0.973   3.316 -1.4831  0.0496  0.4242
 2256TIP3   OH2 6731   0.561   2.314   4.561 -0.3920  0.6805 -0.0766
 2256TIP3    H1 6732   0.615   2.392   4.574 -1.0963  0.9174  1.7418
 2256TIP3    H2 6733   0.472   2.348   4.551 -0.3615  0.2502 -2.2893
 2257TIP3   OH2 6734   5.252   6.560   2.512 -0.5352  0.4869  0.3283
 2257TIP3    H1 6735   5.254   6.465   2.521 -2.2872  0.4331  0.5385
 2257TIP3    H2 6736   5.159   6.583   2.518 -0.0673  2.3288  1.4367
 2258TIP3   OH2 6737   1.211   4.411   0.621 -0.9613 -0.2871  0.2959
 2258TIP3    H1 6738   1.303   4.393   0.637 -1.0856  0.0892  1.5147
 2258TIP3    H2 6739   1.197   4.385   0.530  0.9778  2.0717 -0.7934
 2259TIP3   OH2 6740   4.393   6.102   1.430 -0.1033  0.1047  0.0318
 2259TIP3    H1 6741   4.392   6.037   1.499  0.9307  0.7946  0.7277
 2259TIP3    H2 6742   4.415   6.184   1.474  0.9732  0.4994 -1.1522
 2260TIP3   OH2 6743   0.170   4.453   5.709  0.5688 -0.6931  0.1858
 2260TIP3    H1 6744   0.231   4.497   5.767 -0.8012 -0.2547  1.3465
 2260TIP3    H2 6745   0.207   4.365   5.697  1.5246 -0.3655  0.6532
 2261TIP3   OH2 6746   4.629   2.774   2.467  0.1006 -0.0661 -0.5322
 2261TIP3    H1 6747   4.567   2.785   2.395 -2.8786 -0.9743  1.7393
 2261TIP3    H2 6748   4.587   2.713   2.527  1.5865  2.0070  2.9123
 2262TIP3   OH2 6749   5.816   3.188   1.009 -0.7480 -0.3424  0.4570
 2262TIP3    H1 6750   5.823   3.229   0.922 -3.2726  0.1971  0.4375
 2262TIP3    H2 6751   5.833   3.095   0.993 -1.4294 -0.2889 -0.6775
 2263TIP3   OH2 6752   2.649   5.815   1.652 -0.0893 -0.0381 -0.2072
 2263TIP3    H1 6753   2.732   5.832   1.695 -0.7227 -0.0532  1.0684
 2263TIP3    H2 6754   2.583   5.825   1.721 -1.1606  0.0927 -1.2102
 2264TIP3   OH2 6755   0.056   5.581   4.594  0.1722 -0.3590 -0.6257
 2264TIP3    H1 6756   0.140   5.627   4.600 -0.4452  0.8904 -1.2915
 2264TIP3    H2 6757   0.006   5.611   4.669 -0.0552 -0.3204 -0.7907
 2265TIP3   OH2 6758   6.541   1.973   4.640 -0.5919 -0.4604 -0.4814
 2265TIP3    H1 6759   6.492   2.049   4.609 -1.3119 -1.0520 -0.8208
 2265TIP3    H2 6760   6.594   1.946   4.565  0.8605  0.6407  0.1182
 2266TIP3   OH2 6761   1.193   5.711   2.918  0.0564  0.6731 -0.3464
 2266TIP3    H1 6762   1.175   5.714   3.012 -0.5493  1.0644 -0.4698
 2266TIP3    H2 6763   1.113   5.676   2.879  0.2651  0.6152 -0.7299
 2267TIP3   OH2 6764   6.959   6.479   1.281  0.1700  0.0508  0.2265
 2267TIP3    H1 6765   6.940   6.458   1.373  0.0605 -1.0350 -0.0305
 2267TIP3    H2 6766   6.900   6.422   1.231  2.6807 -2.0337 -0.5729
 2268TIP3   OH2 6767   2.071   2.414  -0.006 -0.3057  0.4744 -0.0258
 2268TIP3    H1 6768   1.995   2.471   0.003 -1.4070 -0.8624 -0.6100
 2268TIP3    H2 6769   2.037   2.326   0.008  1.1681 -0.1482 -0.1665
 2269TIP3   OH2 6770   1.694   5.382   0.815 -0.1123 -0.0252 -0.7047
 2269TIP3    H1 6771   1.632   5.317   0.780 -1.4171 -0.4740  2.1460
 2269TIP3    H2 6772   1.655   5.467   0.791 -1.3158 -0.3110  0.1459
 2270TIP3   OH2 6773   0.751   1.705   4.427 -0.4633  0.2929  0.3398
 2270TIP3    H1 6774   0.791   1.676   4.344  0.6483  1.1502  0.5551
 2270TIP3    H2 6775   0.824   1.711   4.488 -1.2390 -0.0746  1.3246
 2271TIP3   OH2 6776   3.053   6.216   2.099 -0.7771  0.0408  0.1496
 2271TIP3    H1 6777   3.092   6.297   2.132 -0.9077 -0.4086  1.5003
 2271TIP3    H2 6778   2.959   6.229   2.111 -0.7895 -0.3513  0.4806
 2272TIP3   OH2 6779   2.574   3.096   4.551  0.3547  0.1779 -0.6131
 2272TIP3    H1 6780   2.527   3.047   4.484 -0.2153 -0.5520  0.3036
 2272TIP3    H2 6781   2.595   3.031   4.619  3.2702  0.3059 -1.2521
 2273TIP3   OH2 6782   4.012   2.629   2.444 -0.1390  0.2508 -0.2315
 2273TIP3    H1 6783   4.054   2.546   2.422 -1.8742 -0.9029  0.5222
 2273TIP3    H2 6784   3.991   2.621   2.538  0.4545  1.9237  0.0711
 2274TIP3   OH2 6785   5.580   2.765   4.083  0.5207 -0.4148 -0.0379
 2274TIP3    H1 6786   5.627   2.735   4.006  1.3950 -1.9863  1.0492
 2274TIP3    H2 6787   5.641   2.823   4.128 -0.6076  1.9293 -1.3310
 2275TIP3   OH2 6788   0.129   1.340   1.066  0.1765 -0.0558 -0.5300
 2275TIP3    H1 6789   0.101   1.384   0.985 -0.5908 -0.5096 -0.5247
 2275TIP3    H2 6790   0.205   1.390   1.095 -0.6036  1.2230 -0.5667
 2276TIP3   OH2 6791   6.826   4.782   1.775  0.8554 -0.4743  0.1287
 2276TIP3    H1 6792   6.815   4.688   1.765  1.5499 -0.4964 -0.5217
 2276TIP3    H2 6793   6.859   4.811   1.690 -0.5077  0.5410 -0.0973
 2277TIP3   OH2 6794   2.906   4.587   3.112 -0.3412  0.8162  0.0666
 2277TIP3    H1 6795   2.924   4.677   3.141 -0.9571  0.5374  1.3853
 2277TIP3    H2 6796   2.841   4.596   3.043  0.1700  1.4268 -0.3420
 2278TIP3   OH2 6797   6.963   6.223   1.655 -0.1878  0.0950  0.2627
 2278TIP3    H1 6798   7.042   6.169   1.659 -1.3035 -1.7158 -0.7852
 2278TIP3    H2 6799   6.932   6.215   1.565 -2.2104 -0.2693  0.9258
 2279TIP3   OH2 6800   1.751   2.832   4.701 -0.0122 -0.1620  0.0015
 2279TIP3    H1 6801   1.796   2.815   4.619 -0.1455 -1.5657  0.1844
 2279TIP3    H2 6802   1.724   2.924   4.696  0.6182 -0.0272 -1.1946
 2280TIP3   OH2 6803   4.656   0.859   1.451  0.1307  0.0494  0.1500
 2280TIP3    H1 6804   4.599   0.935   1.467  2.2692  1.6386  0.7750
 2280TIP3    H2 6805   4.623   0.791   1.509 -0.9938  0.9929  0.6437
 2281TIP3   OH2 6806   3.316   2.763   4.638  0.3086  0.5751  0.5025
 2281TIP3    H1 6807   3.281   2.835   4.585 -0.7279  1.6571  2.5356
 2281TIP3    H2 6808   3.410   2.764   4.621 -0.0974 -0.0362 -2.3076
 2282TIP3   OH2 6809   1.228   1.702   4.741 -0.8703  0.1751 -0.0335
 2282TIP3    H1 6810   1.300   1.756   4.774 -0.5661 -0.1644 -0.1436
 2282TIP3    H2 6811   1.152   1.730   4.792 -0.3689 -0.4892  1.1175
 2283TIP3   OH2 6812   4.283   6.505   5.225  0.3897  0.3829  0.1882
 2283TIP3    H1 6813   4.292   6.461   5.309  0.2137 -0.5917 -0.2925
 2283TIP3    H2 6814   4.365   6.488   5.180  0.5176  0.9743  0.1797
 2284TIP3   OH2 6815   4.890   6.075   3.112  0.2626 -0.1123 -0.1679
 2284TIP3    H1 6816   4.827   6.114   3.052  0.0833  1.3854  0.9288
 2284TIP3    H2 6817   4.913   5.991   3.072 -2.3781 -0.7062 -0.6356
 2285TIP3   OH2 6818   4.285   5.771   3.728 -0.1926 -0.2073  0.1203
 2285TIP3    H1 6819   4.219   5.826   3.684 -0.9465 -2.7516 -2.2395
 2285TIP3    H2 6820   4.249   5.755   3.815 -2.0804 -0.4342 -0.6563
 2286TIP3   OH2 6821   6.537   6.166   0.328 -0.0329  0.4200  0.5710
 2286TIP3    H1 6822   6.547   6.141   0.236  0.2811 -1.3528  1.0614
 2286TIP3    H2 6823   6.612   6.128   0.372 -0.1996  1.2278  1.5828
 2287TIP3   OH2 6824   5.622   4.695   1.729 -0.0090  0.8403 -0.5777
 2287TIP3    H1 6825   5.607   4.719   1.820  1.1719  0.0489 -0.1497
 2287TIP3    H2 6826   5.558   4.626   1.711  0.0466  0.7006 -0.2257
 2288TIP3   OH2 6827   4.275   0.356   2.693 -0.0304 -0.0580  0.3189
 2288TIP3    H1 6828   4.180   0.364   2.696  0.0730  1.0576  1.2899
 2288TIP3    H2 6829   4.292   0.265   2.716 -0.9508 -1.1736 -2.8383
 2289TIP3   OH2 6830   4.233   5.177   5.211  0.0274  0.1205  0.1181
 2289TIP3    H1 6831   4.310   5.199   5.264 -0.2727 -0.6434  0.8919
 2289TIP3    H2 6832   4.196   5.099   5.253  0.4584 -1.2723 -1.8810
 2290TIP3   OH2 6833   4.586   2.908   1.948  0.3456 -0.2834  0.0448
 2290TIP3    H1 6834   4.559   2.984   1.896  1.3503  1.1841  1.5419
 2290TIP3    H2 6835   4.590   2.836   1.886 -0.6948  0.8657 -1.4315
 2291TIP3   OH2 6836   4.148   6.220   3.406 -0.6345 -0.5667  0.1181
 2291TIP3    H1 6837   4.065   6.182   3.435 -0.9244  0.1414  0.2346
 2291TIP3    H2 6838   4.140   6.225   3.311 -1.2760  0.7246  0.2213
 2292TIP3   OH2 6839   3.104   0.636   2.462 -0.4440  0.5676  0.1195
 2292TIP3    H1 6840   3.071   0.634   2.372 -1.9920  1.4980  0.6293
 2292TIP3    H2 6841   3.173   0.569   2.464 -0.5666  0.3434 -1.6756
 2293TIP3   OH2 6842   0.054   4.854   5.091  0.4229 -0.0285 -0.2901
 2293TIP3    H1 6843   0.042   4.851   5.186  2.6410 -0.7017  0.0128
 2293TIP3    H2 6844  -0.033   4.875   5.057 -0.8444 -1.5393  1.7875
 2294TIP3   OH2 6845   3.692   0.492   0.097 -0.4398  0.5373 -0.0183
 2294TIP3    H1 6846   3.732   0.569   0.058  0.7464 -0.7955 -1.5872
 2294TIP3    H2 6847   3.712   0.421   0.036  0.2917 -1.4219  2.3440
 2295TIP3   OH2 6848   3.304   4.625   0.373 -0.1664 -0.4823  0.2724
 2295TIP3    H1 6849   3.376   4.630   0.311  0.2278  1.0976  0.8096
 2295TIP3    H2 6850   3.233   4.675   0.332 -0.3724 -0.5858  0.4940
 2296TIP3   OH2 6851   4.104   2.845   2.145 -0.0539 -0.4798  0.2207
 2296TIP3    H1 6852   4.043   2.883   2.082  0.7884  1.4363  0.5058
 2296TIP3    H2 6853   4.154   2.781   2.094  0.8929  1.3170 -1.2274
 2297TIP3   OH2 6854   4.940   3.005   5.164 -0.3058  0.1696 -0.6109
 2297TIP3    H1 6855   4.846   2.990   5.157 -0.0850 -0.6317 -2.3362
 2297TIP3    H2 6856   4.964   3.050   5.083  0.9643 -0.6053 -0.7057
 2298TIP3   OH2 6857   4.072   2.258   5.741 -0.0555  0.1875 -0.0890
 2298TIP3    H1 6858   4.084   2.290   5.830  0.9313  0.0382 -0.1592
 2298TIP3    H2 6859   4.007   2.189   5.749  0.4567 -0.2296  0.6167
 2299TIP3   OH2 6860   5.737   2.633   0.995 -0.4947  0.0470 -0.3442
 2299TIP3    H1 6861   5.731   2.596   1.083 -0.4320  2.4833  0.7747
 2299TIP3    H2 6862   5.667   2.590   0.945 -0.3696 -1.5520  0.8002
 2300TIP3   OH2 6863   1.356   4.045   2.012 -0.0710  0.0661 -0.6756
 2300TIP3    H1 6864   1.336   3.994   2.091 -0.5885 -0.2080 -0.9731
 2300TIP3    H2 6865   1.270   4.065   1.975 -0.2473  4.6340  1.5150
 2301TIP3   OH2 6866   3.159   6.629   5.473 -0.0769  0.2784  0.1782
 2301TIP3    H1 6867   3.193   6.662   5.556  2.5881  1.1420 -1.1255
 2301TIP3    H2 6868   3.127   6.541   5.493  0.7440  0.3633  2.0523
 2302TIP3   OH2 6869   1.410   4.489   0.960 -0.4533  0.0416 -0.0235
 2302TIP3    H1 6870   1.485   4.434   0.980  0.8289  1.2580 -1.2887
 2302TIP3    H2 6871   1.361   4.440   0.894  0.1096 -0.0380 -0.3864
 2303TIP3   OH2 6872   3.539   1.367   1.734  0.0744  0.0024 -0.1861
 2303TIP3    H1 6873   3.521   1.351   1.826  0.5844  0.2640 -0.0360
 2303TIP3    H2 6874   3.529   1.281   1.692 -1.1822  0.0661 -0.0724
 2304TIP3   OH2 6875   4.216   3.292   5.694  0.1193  0.3622 -0.1405
 2304TIP3    H1 6876   4.207   3.269   5.786 -0.8694  1.3428  0.0279
 2304TIP3    H2 6877   4.291   3.351   5.690  0.1197  0.3725  0.0411
 2305TIP3   OH2 6878   4.696   1.883   5.323  0.2412 -0.0962  0.5534
 2305TIP3    H1 6879   4.676   1.825   5.396  2.5888  0.1277  1.4514
 2305TIP3    H2 6880   4.761   1.835   5.271 -0.6065  0.1916 -0.8362
 2306TIP3   OH2 6881   2.301   1.587   1.721  0.4519 -0.5235 -0.0512
 2306TIP3    H1 6882   2.299   1.606   1.627  0.1446  0.6108  0.1763
 2306TIP3    H2 6883   2.350   1.660   1.760  0.5354 -0.9564  0.6789
 2307TIP3   OH2 6884   2.459   3.393   1.147 -0.4378 -0.1289 -0.6118
 2307TIP3    H1 6885   2.502   3.400   1.232 -0.6389  0.5776 -0.5629
 2307TIP3    H2 6886   2.477   3.476   1.104 -1.1513 -0.1064 -0.8772
 2308TIP3   OH2 6887   4.326   5.490   0.313  0.2151 -0.5110  0.0118
 2308TIP3    H1 6888   4.409   5.445   0.327 -0.7298 -1.8361  1.7045
 2308TIP3    H2 6889   4.271   5.426   0.267 -0.3185 -0.1481  0.1255
 2309TIP3   OH2 6890   6.795   6.067   4.620  0.1911 -0.0995  0.6445
 2309TIP3    H1 6891   6.743   6.004   4.570  0.5126  0.1252  0.0130
 2309TIP3    H2 6892   6.752   6.071   4.706 -1.4904  0.8889 -0.1868
 2310TIP3   OH2 6893   3.186   1.750   5.261 -0.0058 -0.3799 -0.5769
 2310TIP3    H1 6894   3.185   1.728   5.355  0.5612 -0.3441 -0.5582
 2310TIP3    H2 6895   3.129   1.685   5.221  2.3445 -2.5535 -0.6545
 2311TIP3   OH2 6896   3.898   0.082   3.405 -0.0178  0.1948 -0.0214
 2311TIP3    H1 6897   3.967   0.140   3.438 -0.1203  0.7105 -0.6914
 2311TIP3    H2 6898   3.833   0.142   3.369 -0.0568 -0.3537 -0.8746
 2312TIP3   OH2 6899   1.139   6.524   2.927 -0.3968 -0.1488  0.2044
 2312TIP3    H1 6900   1.180   6.554   2.846  1.6598 -3.3982 -0.1417
 2312TIP3    H2 6901   1.063   6.473   2.899  0.2823 -1.2274  0.2851
 2313TIP3   OH2 6902   0.079   3.141   4.547  0.2843  0.5039 -0.6329
 2313TIP3    H1 6903   0.140   3.126   4.620  0.7394 -0.5917 -1.2056
 2313TIP3    H2 6904  -0.007   3.122   4.584  0.7421 -3.6060 -1.1452
 2314TIP3   OH2 6905   3.376   1.501   0.295  0.1666 -0.1698 -0.4877
 2314TIP3    H1 6906   3.337   1.448   0.364  1.1318  1.0441  1.0505
 2314TIP3    H2 6907   3.314   1.495   0.222 -0.2182 -2.5893 -0.0374
 2315TIP3   OH2 6908   2.219   6.376   5.869 -0.2312 -0.1823  0.1951
 2315TIP3    H1 6909   2.175   6.301   5.909 -0.3230  0.5895  1.5875
 2315TIP3    H2 6910   2.153   6.416   5.813 -0.3741 -0.7650 -0.0633
 2316TIP3   OH2 6911   4.442   4.395   4.004  0.0921  0.7326 -0.4587
 2316TIP3    H1 6912   4.466   4.303   3.997  1.3178  0.8668  1.3910
 2316TIP3    H2 6913   4.347   4.396   3.994 -0.4130 -1.2137  2.6830
 2317TIP3   OH2 6914   3.480   0.339   5.525  0.3251 -0.0854 -0.3374
 2317TIP3    H1 6915   3.388   0.329   5.498 -0.1587 -1.3728  1.5582
 2317TIP3    H2 6916   3.505   0.252   5.558  1.8305  0.5501  0.2966
 2318TIP3   OH2 6917   5.770   5.958   1.011 -0.1695  0.4372  0.3520
 2318TIP3    H1 6918   5.859   5.992   1.003 -0.3389  1.9546  3.2725
 2318TIP3    H2 6919   5.754   5.912   0.929  3.7468 -1.0396  0.2135
 2319TIP3   OH2 6920   3.194   5.599   4.483  0.5357 -0.1569  0.0642
 2319TIP3    H1 6921   3.250   5.662   4.437 -0.8638  1.0430 -0.0579
 2319TIP3    H2 6922   3.133   5.568   4.416 -1.3324  1.3874  0.9444
 2320TIP3   OH2 6923   2.358   0.513   3.344  0.1395  0.2145  0.3307
 2320TIP3    H1 6924   2.375   0.452   3.273 -1.1583  1.9354 -1.5765
 2320TIP3    H2 6925   2.444   0.534   3.379  0.9273  0.0846 -1.4387
 2321TIP3   OH2 6926   3.535   6.167   5.764  0.3887 -0.2778 -0.1358
 2321TIP3    H1 6927   3.550   6.073   5.752  0.8294 -0.1319 -0.7497
 2321TIP3    H2 6928   3.622   6.206   5.759  0.1736  0.1996 -0.1760
 2322TIP3   OH2 6929   2.979   4.347   3.012  0.0718  0.2626 -0.4512
 2322TIP3    H1 6930   2.952   4.437   3.026  0.8615  0.6592 -1.3928
 2322TIP3    H2 6931   3.040   4.329   3.084  0.4918  0.7309 -0.6861
 2323TIP3   OH2 6932   7.154   6.795   3.518 -0.3632  0.3281  0.3321
 2323TIP3    H1 6933   7.223   6.799   3.452 -0.5990  0.1420  0.0720
 2323TIP3    H2 6934   7.200   6.796   3.602  0.3656 -4.5062  0.2917
 2324TIP3   OH2 6935   1.137   2.713   3.536 -0.2820 -0.1049 -0.0953
 2324TIP3    H1 6936   1.186   2.672   3.465  0.9076  1.0285  0.0272
 2324TIP3    H2 6937   1.087   2.641   3.576  1.8242 -1.4806  0.2141
 2325TIP3   OH2 6938   5.512   6.486   2.650  0.7392  0.1959  0.2364
 2325TIP3    H1 6939   5.519   6.512   2.742  0.0878 -0.3076  0.4440
 2325TIP3    H2 6940   5.552   6.557   2.601  0.2933  0.8932  0.8596
 2326TIP3   OH2 6941   1.222   3.001   0.940 -0.0721 -0.5407 -0.0097
 2326TIP3    H1 6942   1.254   3.092   0.939  1.8597 -1.1643 -0.1981
 2326TIP3    H2 6943   1.237   2.972   1.030  1.5717 -1.3456 -0.4865
 2327TIP3   OH2 6944   4.538   1.152   5.248  0.4378 -0.1089 -0.2947
 2327TIP3    H1 6945   4.584   1.086   5.197  1.2255  0.2401 -0.0415
 2327TIP3    H2 6946   4.546   1.124   5.339  0.7047  0.2897 -0.1925
 2328TIP3   OH2 6947   6.748   6.537   4.616 -0.3985 -0.0838  1.0290
 2328TIP3    H1 6948   6.718   6.476   4.684 -0.7174  0.3834  1.3162
 2328TIP3    H2 6949   6.831   6.571   4.648 -0.2498 -0.3244  0.8974
 2329TIP3   OH2 6950   5.315   2.522   0.467  0.2079  0.3408 -0.2077
 2329TIP3    H1 6951   5.344   2.579   0.538  0.1434 -1.8756  1.7231
 2329TIP3    H2 6952   5.291   2.582   0.396 -0.0535  2.6794  1.7298
 2330TIP3   OH2 6953   4.804   2.710   2.184 -0.3244  0.1036 -0.0842
 2330TIP3    H1 6954   4.827   2.764   2.109 -0.8991  1.6750  0.8279
 2330TIP3    H2 6955   4.843   2.755   2.259  0.9343 -1.8568  0.5162
 2331TIP3   OH2 6956   1.198   2.685   3.032  0.2619 -0.3464  0.1503
 2331TIP3    H1 6957   1.122   2.633   3.004  1.1054 -0.5457 -1.9338
 2331TIP3    H2 6958   1.261   2.620   3.062  0.4945 -0.3714 -0.3844
 2332TIP3   OH2 6959   2.004   1.495   3.295  0.4556  0.7332  0.2372
 2332TIP3    H1 6960   1.920   1.496   3.341 -0.1382  1.4306 -0.8097
 2332TIP3    H2 6961   2.061   1.552   3.347  0.7960 -0.9406  1.8052
 2333TIP3   OH2 6962   4.370   0.606   3.890 -0.5791  0.0099 -0.5031
 2333TIP3    H1 6963   4.367   0.658   3.971 -0.6702 -0.1454 -0.4045
 2333TIP3    H2 6964   4.311   0.651   3.830 -1.0592 -0.2635 -0.2444
 2334TIP3   OH2 6965   2.262   5.579   0.404 -0.1038  0.1684 -0.3877
 2334TIP3    H1 6966   2.261   5.505   0.344 -0.0472 -0.0797 -0.0827
 2334TIP3    H2 6967   2.355   5.598   0.417 -0.0751 -0.5533  0.5697
 2335TIP3   OH2 6968   1.486   3.304   3.345 -0.2125 -0.0033 -0.4026
 2335TIP3    H1 6969   1.549   3.336   3.281  0.1128 -0.0755 -0.1197
 2335TIP3    H2 6970   1.512   3.213   3.362 -0.0425  0.1440  0.1426
 2336TIP3   OH2 6971   5.416   2.234   2.537  0.2665  0.5437 -0.3637
 2336TIP3    H1 6972   5.333   2.209   2.495  0.3208 -0.7021  0.2297
 2336TIP3    H2 6973   5.390   2.267   2.623  0.4463 -1.4883  0.5402
 2337TIP3   OH2 6974   0.376   1.353   4.837  0.8439  0.4908 -0.5941
 2337TIP3    H1 6975   0.370   1.406   4.758  0.0072  0.5452 -0.5040
 2337TIP3    H2 6976   0.310   1.390   4.896  2.3469  1.3050  0.6490
 2338TIP3   OH2 6977   5.503   3.273   2.030 -0.2960  0.0801 -0.4874
 2338TIP3    H1 6978   5.424   3.261   2.082 -1.0026  0.4273 -1.4418
 2338TIP3    H2 6979   5.536   3.184   2.014 -0.1611 -0.0337  0.3888
 2339TIP3   OH2 6980   6.627   4.335   3.896 -0.1746 -0.0539 -0.2470
 2339TIP3    H1 6981   6.561   4.279   3.937  0.1942 -1.8186 -1.8668
 2339TIP3    H2 6982   6.582   4.417   3.878 -1.2539 -0.4181  0.7216
 2340TIP3   OH2 6983   6.082   5.832   3.680 -0.3403 -0.0933  0.7206
 2340TIP3    H1 6984   6.146   5.801   3.744 -1.9839  1.2029  3.1681
 2340TIP3    H2 6985   6.006   5.857   3.733 -2.0027  0.6044 -1.8248
 2341TIP3   OH2 6986   1.936   3.961   1.864  0.2341  0.0241  0.0295
 2341TIP3    H1 6987   1.888   4.041   1.844  1.0619  0.4610 -0.2793
 2341TIP3    H2 6988   2.017   3.968   1.813  1.5022  0.2251  1.9583
 2342TIP3   OH2 6989   3.303   5.267   4.413  0.0838  0.0987  0.3710
 2342TIP3    H1 6990   3.338   5.180   4.432 -1.1070 -1.0870 -2.3283
 2342TIP3    H2 6991   3.371   5.310   4.361 -0.2723 -0.1791 -0.3438
 2343TIP3   OH2 6992   6.966   2.093   4.499 -0.0722  0.4400 -0.4140
 2343TIP3    H1 6993   7.000   2.124   4.583  0.1435  1.3500 -0.8244
 2343TIP3    H2 6994   7.020   2.138   4.433  0.0141 -0.5462 -1.0403
 2344TIP3   OH2 6995   0.813   5.768   2.796  0.4578 -0.4550 -0.7826
 2344TIP3    H1 6996   0.885   5.830   2.799  1.4296 -1.5737  1.8586
 2344TIP3    H2 6997   0.734   5.823   2.792  1.3564  0.8379 -1.2563
 2345TIP3   OH2 6998   4.153   0.884   1.609 -0.0579 -0.2670  0.0187
 2345TIP3    H1 6999   4.114   0.812   1.659 -1.9590 -0.5355 -1.7043
 2345TIP3    H2 7000   4.222   0.918   1.666  0.3432 -2.8778  1.2439
 2346TIP3   OH2 7001   3.115   0.777   5.130 -0.4238 -0.5964 -0.0529
 2346TIP3    H1 7002   3.039   0.788   5.073 -1.4667  0.1484  1.4237
 2346TIP3    H2 7003   3.172   0.850   5.108 -0.5811 -0.6035 -0.4993
 2347TIP3   OH2 7004   0.791   0.321   4.523  0.2954  0.0995  0.1361
 2347TIP3    H1 7005   0.784   0.416   4.531  0.5084  0.0847  0.5440
 2347TIP3    H2 7006   0.737   0.299   4.447  2.2141  0.8330 -1.5761
 2348TIP3   OH2 7007   5.454   0.325   3.840 -0.3438  0.4458  0.2118
 2348TIP3    H1 7008   5.499   0.249   3.803 -0.6796  1.2662 -2.0293
 2348TIP3    H2 7009   5.522   0.391   3.850 -0.5823  0.8836 -0.8964
 2349TIP3   OH2 7010   5.638   2.207   2.096  0.7211 -0.3323 -0.5303
 2349TIP3    H1 7011   5.623   2.270   2.166  1.0596 -1.2200  0.3594
 2349TIP3    H2 7012   5.558   2.211   2.043 -0.5185 -1.2519  1.1854
 2350TIP3   OH2 7013   1.272   4.037   3.172 -0.1671  0.3507  0.5091
 2350TIP3    H1 7014   1.218   3.978   3.225  1.0838 -0.4077  0.9837
 2350TIP3    H2 7015   1.360   4.027   3.207  1.1095 -1.5386 -2.7915
 2351TIP3   OH2 7016   4.997   4.861   0.464 -0.5188  0.2829 -0.0287
 2351TIP3    H1 7017   5.040   4.946   0.458 -1.4286  0.8070  0.6672
 2351TIP3    H2 7018   4.906   4.881   0.485 -0.4917 -0.8909  1.3917
 2352TIP3   OH2 7019   6.110   4.576   0.180 -0.2230 -0.6326  0.6958
 2352TIP3    H1 7020   6.145   4.660   0.151  0.7588 -1.3569 -0.3389
 2352TIP3    H2 7021   6.105   4.523   0.100 -1.7006 -1.2665  1.1747
 2353TIP3   OH2 7022   1.201   4.119   0.131  0.3552  0.7249 -0.0865
 2353TIP3    H1 7023   1.150   4.088   0.206 -0.0908  2.4225  0.3468
 2353TIP3    H2 7024   1.135   4.132   0.062  0.6406  0.0335 -0.4987
 2354TIP3   OH2 7025   1.567   1.727   0.250 -0.2254  0.1664 -0.5169
 2354TIP3    H1 7026   1.548   1.793   0.316 -0.4882  0.3249 -0.7506
 2354TIP3    H2 7027   1.591   1.649   0.300 -0.9644  0.1193 -0.2327
 2355TIP3   OH2 7028   2.293   1.352   0.708 -0.3833 -0.3150  0.3292
 2355TIP3    H1 7029   2.298   1.354   0.804  0.9944  1.3547  0.2817
 2355TIP3    H2 7030   2.351   1.423   0.680 -0.7357 -0.7868 -1.7557
 2356TIP3   OH2 7031   0.816   2.926   3.542  0.0393 -0.2697 -0.1482
 2356TIP3    H1 7032   0.904   2.944   3.508 -0.2367  0.5078 -0.4644
 2356TIP3    H2 7033   0.785   2.853   3.488  0.9077 -1.3070  0.7036
 2357TIP3   OH2 7034   0.922   1.356   0.109  0.2707  0.0863 -0.3201
 2357TIP3    H1 7035   0.905   1.342   0.202  0.5344  0.3834 -0.2270
 2357TIP3    H2 7036   0.850   1.412   0.079  1.5298  2.1258  0.2812
 2358TIP3   OH2 7037   4.266   5.705   3.093  0.3377  0.4847 -0.3266
 2358TIP3    H1 7038   4.320   5.779   3.122  0.5638  0.2226 -0.0853
 2358TIP3    H2 7039   4.195   5.747   3.043  0.6251  0.8449 -0.4441
 2359TIP3   OH2 7040   1.116   6.241   1.939  0.1837  0.1626 -0.3379
 2359TIP3    H1 7041   1.205   6.238   1.905  0.3667 -1.1087  0.1856
 2359TIP3    H2 7042   1.064   6.278   1.867  0.6218 -2.1056 -1.9572
 2360TIP3   OH2 7043   1.999   6.294   0.103  0.3892 -0.7714  0.3240
 2360TIP3    H1 7044   1.993   6.199   0.111 -0.5325 -0.9094 -1.5290
 2360TIP3    H2 7045   1.995   6.311   0.009 -2.2780  1.2375  0.6695
 2361TIP3   OH2 7046   3.127   3.376   2.264 -0.4216  0.2585  0.0067
 2361TIP3    H1 7047   3.091   3.427   2.336  0.2761 -0.0054  0.5563
 2361TIP3    H2 7048   3.177   3.306   2.307 -1.7385 -1.1980 -0.7083
 2362TIP3   OH2 7049   3.111   5.700   1.046  0.0843 -0.1138  0.4125
 2362TIP3    H1 7050   3.017   5.717   1.032 -0.0637  0.4351  1.9325
 2362TIP3    H2 7051   3.145   5.783   1.078  1.2787 -0.0806 -0.8407
 2363TIP3   OH2 7052   2.115   3.664   0.357 -0.1230  0.0037  0.4401
 2363TIP3    H1 7053   2.078   3.609   0.288  2.2688  0.2961 -1.1896
 2363TIP3    H2 7054   2.047   3.668   0.424 -2.3503 -0.7131 -1.6607
 2364TIP3   OH2 7055   2.781   3.873   5.202 -0.6424  0.6732  0.3476
 2364TIP3    H1 7056   2.781   3.901   5.293  1.0609 -0.4266  0.7422
 2364TIP3    H2 7057   2.859   3.914   5.164 -2.3550  2.6680 -1.1821
 2365TIP3   OH2 7058   1.744   1.674   4.623  0.1745  0.0940  0.0995
 2365TIP3    H1 7059   1.811   1.624   4.669  0.4309 -0.1289 -0.4973
 2365TIP3    H2 7060   1.704   1.611   4.563 -0.7473  0.1628  0.6299
 2366TIP3   OH2 7061   0.176   2.685   1.904  0.2635 -0.5644  0.2406
 2366TIP3    H1 7062   0.137   2.639   1.829  2.1760 -3.5070  0.8486
 2366TIP3    H2 7063   0.235   2.748   1.865  0.5704 -1.4426 -0.7714
 2367TIP3   OH2 7064   1.401   6.149   2.840 -0.6344  0.5481  0.1387
 2367TIP3    H1 7065   1.315   6.191   2.850 -1.2805 -0.1032 -2.0618
 2367TIP3    H2 7066   1.412   6.140   2.746  0.5027 -2.1382  0.4442
 2368TIP3   OH2 7067   1.707   2.871   5.677 -0.7203  0.5959 -0.1173
 2368TIP3    H1 7068   1.755   2.854   5.596 -0.9820  0.1357 -0.1782
 2368TIP3    H2 7069   1.775   2.887   5.742 -0.4897  0.2543 -0.2710
 2369TIP3   OH2 7070   5.550   4.468   4.825  0.2551 -0.3713  0.1177
 2369TIP3    H1 7071   5.504   4.387   4.848  0.8264 -0.4731  0.9329
 2369TIP3    H2 7072   5.628   4.439   4.778  0.1168 -0.2557 -0.1866
 2370TIP3   OH2 7073   4.567   6.445   4.427  0.1214  0.1050  0.7605
 2370TIP3    H1 7074   4.506   6.514   4.402  1.0782  0.6493 -0.1138
 2370TIP3    H2 7075   4.601   6.472   4.512 -0.3013  0.1569  0.9182
 2371TIP3   OH2 7076   4.838   1.313   1.134 -0.6151  0.1765 -0.2493
 2371TIP3    H1 7077   4.798   1.226   1.129 -0.0557 -0.3108  2.3446
 2371TIP3    H2 7078   4.794   1.356   1.207 -0.4077  1.8505 -1.0529
 2372TIP3   OH2 7079   6.202   0.996   0.259 -0.3781 -0.2656 -0.5342
 2372TIP3    H1 7080   6.217   1.008   0.352 -0.3667  1.0025 -0.6816
 2372TIP3    H2 7081   6.201   0.901   0.246  0.2452 -0.4428  0.6473
 2373TIP3   OH2 7082   3.816   0.412   3.772 -0.0926 -0.1168  0.3383
 2373TIP3    H1 7083   3.761   0.450   3.840  0.3046 -1.1955  1.3122
 2373TIP3    H2 7084   3.889   0.473   3.763 -0.1835  0.0679  0.8433
 2374TIP3   OH2 7085   2.411   5.765   1.399 -0.1362  0.3176  0.1040
 2374TIP3    H1 7086   2.380   5.696   1.458 -0.6100  0.2556 -0.2058
 2374TIP3    H2 7087   2.337   5.780   1.340 -0.8960  2.6539  1.5357
 2375TIP3   OH2 7088   2.620   4.700   4.851  0.2160 -0.3178 -0.2159
 2375TIP3    H1 7089   2.548   4.638   4.843  1.6350 -2.1620  0.3648
 2375TIP3    H2 7090   2.634   4.732   4.762 -0.8037 -0.5480 -0.4646
 2376TIP3   OH2 7091   6.982   1.402   4.445 -0.2607  0.6085  0.4159
 2376TIP3    H1 7092   6.942   1.418   4.530  0.7202 -0.2458  1.0556
 2376TIP3    H2 7093   6.982   1.307   4.436  2.1133  0.5081  0.7135
 2377TIP3   OH2 7094   6.194   2.182   4.000  0.0752 -0.3885  0.3330
 2377TIP3    H1 7095   6.223   2.145   4.084 -0.3861  0.9737  1.1205
 2377TIP3    H2 7096   6.103   2.155   3.993 -0.3343  0.7501  1.0269
 2378TIP3   OH2 7097   6.591   1.310   5.497  0.5190  0.1583  0.4170
 2378TIP3    H1 7098   6.627   1.222   5.510  0.5141  0.2088  0.8084
 2378TIP3    H2 7099   6.526   1.319   5.567  0.2049  0.3098  0.1100
 2379TIP3   OH2 7100   0.576   4.282   2.675  0.1401  0.0024  0.8167
 2379TIP3    H1 7101   0.594   4.357   2.617 -0.3257  1.2098  2.1763
 2379TIP3    H2 7102   0.595   4.315   2.763  0.9594 -1.8315  1.3767
 2380TIP3   OH2 7103   1.520   1.314   4.116 -0.0512 -0.2616  0.2809
 2380TIP3    H1 7104   1.598   1.324   4.171 -0.4227 -1.5261  1.0929
 2380TIP3    H2 7105   1.526   1.224   4.082 -0.4760  0.0785 -0.7425
 2381TIP3   OH2 7106   6.267   3.861   3.793  0.2673 -0.4486 -0.2227
 2381TIP3    H1 7107   6.196   3.805   3.827 -1.1633  0.7616 -1.1041
 2381TIP3    H2 7108   6.342   3.841   3.850 -0.5438 -2.3285  0.2692
 2382TIP3   OH2 7109   1.039   1.841   4.236  0.4944 -0.0940 -0.2325
 2382TIP3    H1 7110   0.982   1.908   4.197  0.7038 -0.2273 -0.7762
 2382TIP3    H2 7111   1.078   1.884   4.312  1.5854  0.8267 -1.2731
 2383TIP3   OH2 7112   0.944   1.655   4.638  0.1496 -0.1050  0.4179
 2383TIP3    H1 7113   1.033   1.621   4.641 -0.0683 -0.6385  0.9389
 2383TIP3    H2 7114   0.935   1.706   4.718 -0.1459 -0.3888  0.5676
 2384TIP3   OH2 7115   4.244   0.754   2.055  0.3887 -0.5163 -0.2814
 2384TIP3    H1 7116   4.248   0.817   2.127 -0.9491 -0.3165 -0.3531
 2384TIP3    H2 7117   4.241   0.669   2.098  0.8263 -0.4639 -0.1423
 2385TIP3   OH2 7118   1.839   2.853   1.609  0.0368 -0.1436  0.0079
 2385TIP3    H1 7119   1.792   2.929   1.643  1.1899  1.4269 -1.6550
 2385TIP3    H2 7120   1.778   2.781   1.617 -1.2705  1.0415  1.2655
 2386TIP3   OH2 7121   7.019   1.474   0.291  0.0201 -0.2353  0.3620
 2386TIP3    H1 7122   6.994   1.399   0.237 -0.9002  0.5931 -0.3848
 2386TIP3    H2 7123   7.028   1.546   0.229 -0.3302  0.5651  1.2276
 2387TIP3   OH2 7124   1.393   5.461   2.723 -0.1183  0.6959 -0.2020
 2387TIP3    H1 7125   1.344   5.461   2.641 -0.9085 -2.6921  0.1187
 2387TIP3    H2 7126   1.433   5.374   2.727  0.3900  0.9600  2.7152
 2388TIP3   OH2 7127   5.601   6.631   1.389 -0.0231 -0.7654  0.0408
 2388TIP3    H1 7128   5.550   6.619   1.469  0.5184 -0.4315  0.4393
 2388TIP3    H2 7129   5.557   6.702   1.342  1.0687  0.7265  1.2112
 2389TIP3   OH2 7130   6.378   0.071   4.920  0.5998 -0.3558 -0.0009
 2389TIP3    H1 7131   6.452   0.030   4.875  0.7631  0.5792 -0.6147
 2389TIP3    H2 7132   6.321  -0.002   4.943  2.0825 -1.1907  1.2006
 2390TIP3   OH2 7133   2.678   1.741   4.852  0.3789  0.3146  0.6632
 2390TIP3    H1 7134   2.694   1.721   4.944  2.2637 -0.0115  0.2955
 2390TIP3    H2 7135   2.680   1.656   4.808  2.5084  0.6999 -0.0716
 2391TIP3   OH2 7136   2.420   4.480   4.212  0.3292 -0.0183  0.4294
 2391TIP3    H1 7137   2.352   4.502   4.276 -0.0760  0.6416 -0.2149
 2391TIP3    H2 7138   2.465   4.405   4.250 -2.6740 -2.5067 -0.4457
 2392TIP3   OH2 7139   6.078   4.523   3.221  0.4486 -0.3204  0.0047
 2392TIP3    H1 7140   6.041   4.604   3.185  1.9120  0.9187  1.1135
 2392TIP3    H2 7141   6.002   4.471   3.247 -0.5342  1.0864  0.0495
 2393TIP3   OH2 7142   4.115   6.479   4.285 -0.0789  0.0834 -0.1646
 2393TIP3    H1 7143   4.161   6.456   4.366 -1.3116  0.3893  0.6499
 2393TIP3    H2 7144   4.041   6.418   4.281 -0.0934  0.1341 -1.0225
 2394TIP3   OH2 7145   5.506   4.897   5.720  0.3489  0.1388 -0.4841
 2394TIP3    H1 7146   5.422   4.939   5.740  0.2627  0.1244 -0.8074
 2394TIP3    H2 7147   5.484   4.830   5.655  0.6161  0.1453 -0.5814
 2395TIP3   OH2 7148   5.298   6.394   4.295  0.8841 -0.2991  0.4984
 2395TIP3    H1 7149   5.249   6.432   4.222  0.7216 -0.5570  0.4710
 2395TIP3    H2 7150   5.249   6.314   4.317  2.2796 -1.5694 -0.7464
 2396TIP3   OH2 7151   3.717   1.432   4.823  0.3336 -0.2537  0.4857
 2396TIP3    H1 7152   3.636   1.409   4.779  1.6496 -0.2772 -2.1301
 2396TIP3    H2 7153   3.724   1.527   4.814 -0.7395  0.1938  3.3263
 2397TIP3   OH2 7154   3.785   4.876   3.501  0.2437 -0.2449 -0.0142
 2397TIP3    H1 7155   3.709   4.893   3.446  0.7222  0.2630 -0.5192
 2397TIP3    H2 7156   3.860   4.891   3.445  0.7279 -0.5397  0.5417
 2398TIP3   OH2 7157   0.506   0.969   1.983 -0.3853  0.1315  0.1403
 2398TIP3    H1 7158   0.531   0.935   2.069  1.1155 -0.3126 -0.4449
 2398TIP3    H2 7159   0.561   1.047   1.971  0.1836 -0.4048 -0.8483
 2399TIP3   OH2 7160   3.359   3.262   5.316  0.2056  0.9487 -0.4898
 2399TIP3    H1 7161   3.398   3.193   5.262 -0.5410  0.5592 -0.5576
 2399TIP3    H2 7162   3.414   3.338   5.301  0.6314  0.5561 -0.9805
 2400TIP3   OH2 7163   5.250   3.242   5.865 -0.1817 -0.3755 -0.4308
 2400TIP3    H1 7164   5.294   3.191   5.797 -0.1380 -0.7146 -0.1533
 2400TIP3    H2 7165   5.255   3.333   5.834  2.5715 -0.0860  0.5398
 2401TIP3   OH2 7166   5.877   6.662   1.395  0.1798  0.1177  0.0142
 2401TIP3    H1 7167   5.904   6.743   1.438 -1.0912  0.4319  0.2742
 2401TIP3    H2 7168   5.784   6.675   1.377  0.0136 -1.1895 -0.1518
 2402TIP3   OH2 7169   0.682   5.969   2.635 -0.7045 -0.3163  0.0310
 2402TIP3    H1 7170   0.658   5.940   2.547  1.9740  0.1264 -0.9459
 2402TIP3    H2 7171   0.625   6.044   2.652 -1.2108 -0.3640 -1.3584
 2403TIP3   OH2 7172   2.477   4.502   2.986  0.0823 -0.3122  0.7163
 2403TIP3    H1 7173   2.407   4.558   2.953 -0.2142 -0.5200  0.9915
 2403TIP3    H2 7174   2.448   4.476   3.074  0.5424 -0.3259  0.8696
 2404TIP3   OH2 7175   6.310   5.322   1.061  0.3617  0.1273  0.4477
 2404TIP3    H1 7176   6.398   5.319   1.099  0.6219 -2.5469 -0.2326
 2404TIP3    H2 7177   6.252   5.297   1.133  0.4353 -0.7384  0.2118
 2405TIP3   OH2 7178   6.884   1.102   4.603  0.5942 -0.5610  0.5661
 2405TIP3    H1 7179   6.954   1.103   4.538 -0.4637 -0.3201 -0.6153
 2405TIP3    H2 7180   6.877   1.193   4.633 -0.6722 -0.1029 -0.9901
 2406TIP3   OH2 7181   1.223   6.623   4.267 -0.3042  0.3556  0.0016
 2406TIP3    H1 7182   1.311   6.635   4.302 -0.2033  2.0780 -0.7555
 2406TIP3    H2 7183   1.215   6.528   4.254  0.7383 -0.0275  1.7824
 2407TIP3   OH2 7184   0.852   5.368   3.111 -0.2457 -0.3589 -0.1357
 2407TIP3    H1 7185   0.770   5.328   3.139  0.0390 -1.1819 -0.4392
 2407TIP3    H2 7186   0.840   5.386   3.018 -0.1540 -0.2770 -0.1330
 2408TIP3   OH2 7187   4.586   0.526   3.120  0.0225  0.0564 -0.1077
 2408TIP3    H1 7188   4.650   0.494   3.056  1.0378  1.2807  0.2516
 2408TIP3    H2 7189   4.532   0.588   3.070 -0.0695 -0.0287 -0.1130
 2409TIP3   OH2 7190   4.330   0.103   2.770 -0.0553 -0.6437 -0.3056
 2409TIP3    H1 7191   4.297   0.014   2.775  1.7255 -1.4241 -1.4428
 2409TIP3    H2 7192   4.422   0.093   2.744  0.6677  1.4435  1.1887
 2410TIP3   OH2 7193   5.683   6.081   5.428 -0.6341 -0.0599  0.1713
 2410TIP3    H1 7194   5.675   6.145   5.499 -0.8527  1.0544 -0.8342
 2410TIP3    H2 7195   5.686   6.134   5.348 -1.0541 -1.3149 -0.6996
 2411TIP3   OH2 7196   3.083   5.686   1.791  0.1274  0.3394 -0.4984
 2411TIP3    H1 7197   3.153   5.651   1.846 -0.6088  0.0435  0.2686
 2411TIP3    H2 7198   3.100   5.780   1.788  1.5544  0.0635 -1.7680
 2412TIP3   OH2 7199   6.089   3.727   2.091  0.5448 -0.1502 -0.5051
 2412TIP3    H1 7200   6.128   3.813   2.075 -0.3096  0.0091 -1.9319
 2412TIP3    H2 7201   6.144   3.688   2.159  2.1028  0.7466 -1.1971
 2413TIP3   OH2 7202   6.793   3.215   5.885  0.0592 -0.2380  0.3783
 2413TIP3    H1 7203   6.879   3.230   5.847 -0.7086  0.3288 -1.2389
 2413TIP3    H2 7204   6.757   3.141   5.836 -1.0100  0.5891 -0.1446
 2414TIP3   OH2 7205   4.844   1.343   0.048  0.0166  0.0832  0.3248
 2414TIP3    H1 7206   4.920   1.398   0.070  0.4692 -0.6379  0.6132
 2414TIP3    H2 7207   4.781   1.361   0.117  0.4510 -0.2924  0.8313
 2415TIP3   OH2 7208   6.448   0.611   0.115  0.2728 -0.3832  0.3101
 2415TIP3    H1 7209   6.396   0.581   0.040 -1.7062 -2.1535  2.2407
 2415TIP3    H2 7210   6.524   0.653   0.076 -1.3463  0.0637 -2.6871
 2416TIP3   OH2 7211   6.644   0.938   1.339  0.2364  0.0312  0.1793
 2416TIP3    H1 7212   6.650   0.989   1.420  0.4319 -0.0286  0.2039
 2416TIP3    H2 7213   6.551   0.937   1.318  0.3335  1.1660 -0.3221
 2417TIP3   OH2 7214   2.203   6.505   0.217 -0.7993 -0.3948 -0.0267
 2417TIP3    H1 7215   2.275   6.451   0.251 -0.4214  0.2339  0.1778
 2417TIP3    H2 7216   2.157   6.447   0.156  1.2833 -0.1166 -2.0079
 2418TIP3   OH2 7217   3.176   1.293   1.886 -0.2254 -0.4123  0.2194
 2418TIP3    H1 7218   3.212   1.334   1.807 -0.4201 -1.1827 -0.2846
 2418TIP3    H2 7219   3.088   1.330   1.893  0.1391  0.3936  0.6379
 2419TIP3   OH2 7220   2.663   1.036   0.913 -0.2150 -0.9212 -0.0718
 2419TIP3    H1 7221   2.588   1.012   0.858  0.9329 -1.0550 -1.6696
 2419TIP3    H2 7222   2.649   1.128   0.934 -0.6767 -0.8523 -0.6442
 2420TIP3   OH2 7223   2.642   6.754   1.003  0.3159  0.1114  0.4944
 2420TIP3    H1 7224   2.721   6.710   1.035  1.2610  1.9486  0.8261
 2420TIP3    H2 7225   2.674   6.814   0.936 -0.6756  1.4347  1.1578
 2421TIP3   OH2 7226   0.971   2.019   5.248 -0.3034 -0.1514 -0.6790
 2421TIP3    H1 7227   0.930   1.958   5.187  0.4413 -0.1295 -1.2206
 2421TIP3    H2 7228   1.064   2.019   5.224  0.1343 -0.6286  0.8699
 2422TIP3   OH2 7229   4.150   2.273   3.849  0.7455 -0.5144  0.2985
 2422TIP3    H1 7230   4.181   2.184   3.835  0.1122 -0.9793  1.6593
 2422TIP3    H2 7231   4.165   2.289   3.942  2.6870  1.5482 -0.2629
 2423TIP3   OH2 7232   1.399   4.108   2.663  0.2752  0.0944 -0.4622
 2423TIP3    H1 7233   1.389   4.054   2.741  1.9945  0.3071 -0.0429
 2423TIP3    H2 7234   1.400   4.046   2.590 -0.4477 -0.1874 -0.2322
 2424TIP3   OH2 7235   1.204   3.329   0.764  0.0021  0.2832 -0.1061
 2424TIP3    H1 7236   1.215   3.310   0.857  0.3340 -0.2916 -0.2583
 2424TIP3    H2 7237   1.215   3.244   0.720 -0.5895  0.4692 -0.6324
 2425TIP3   OH2 7238   3.508   0.539   1.406 -0.3222 -0.7194 -0.3939
 2425TIP3    H1 7239   3.522   0.445   1.419  0.3193 -0.8564 -1.9255
 2425TIP3    H2 7240   3.466   0.568   1.487  2.4253 -1.6707  1.5103
 2426TIP3   OH2 7241   1.208   0.724   5.192  0.0954  0.6482 -0.4572
 2426TIP3    H1 7242   1.260   0.716   5.112 -1.1023  1.7526 -1.4131
 2426TIP3    H2 7243   1.122   0.689   5.168  0.2244 -0.7187  0.9362
 2427TIP3   OH2 7244   3.458   5.838   2.589  0.0201 -0.2679 -0.2829
 2427TIP3    H1 7245   3.414   5.772   2.643 -1.5144  0.3248 -0.7620
 2427TIP3    H2 7246   3.392   5.865   2.525  0.7378  1.4328 -0.3626
 2428TIP3   OH2 7247   5.319   4.277   5.615  0.0093  0.3596 -0.2818
 2428TIP3    H1 7248   5.328   4.360   5.661  1.0189 -0.3232  0.8279
 2428TIP3    H2 7249   5.387   4.221   5.654 -0.2224 -0.7785 -1.4461
 2429TIP3   OH2 7250   5.068   0.902   0.259  0.2645  0.1947 -0.4678
 2429TIP3    H1 7251   4.978   0.874   0.274  0.1502  0.5862 -0.4131
 2429TIP3    H2 7252   5.060   0.991   0.224  0.6303  0.2436 -0.4307
 2430TIP3   OH2 7253   0.218   2.026   1.894  0.0184  0.5605 -0.0350
 2430TIP3    H1 7254   0.260   2.110   1.874  0.3779  0.8174  1.6685
 2430TIP3    H2 7255   0.236   1.972   1.817 -1.0904  2.3229 -1.6274
 2431TIP3   OH2 7256   1.023   3.560   1.571  0.1310  0.3765  0.6217
 2431TIP3    H1 7257   1.012   3.650   1.602 -0.1816 -0.1114  1.9688
 2431TIP3    H2 7258   1.046   3.510   1.649  2.9292 -0.2990 -0.4996
 2432TIP3   OH2 7259   2.615   0.812   1.933  0.2991 -0.5077 -0.5668
 2432TIP3    H1 7260   2.574   0.887   1.977 -1.8131 -0.6411 -2.1413
 2432TIP3    H2 7261   2.674   0.775   1.999 -1.0762  0.5782  1.3854
 2433TIP3   OH2 7262   0.533   4.774   2.260  0.2262  0.7188 -0.0904
 2433TIP3    H1 7263   0.460   4.811   2.210  0.1925  0.8556  0.0576
 2433TIP3    H2 7264   0.562   4.846   2.316  2.3239  1.5665 -2.1337
 2434TIP3   OH2 7265   1.926   0.838   4.304 -0.1828  0.0239 -0.8146
 2434TIP3    H1 7266   1.861   0.795   4.360 -0.7766  1.2150 -0.5757
 2434TIP3    H2 7267   1.881   0.853   4.222 -0.1231  0.6196 -0.7377
 2435TIP3   OH2 7268   4.593   3.483   0.129 -0.5179  0.3400  0.2185
 2435TIP3    H1 7269   4.652   3.531   0.187 -0.3163  1.4277 -0.8316
 2435TIP3    H2 7270   4.642   3.405   0.103  0.4612  1.1955 -0.5834
 2436TIP3   OH2 7271   0.145   5.820   1.840 -0.0850 -0.1986  0.5901
 2436TIP3    H1 7272   0.135   5.745   1.899  1.0759  0.0746  1.1552
 2436TIP3    H2 7273   0.135   5.782   1.752  0.3967 -1.0078  0.8764
 2437TIP3   OH2 7274   6.631   3.718   4.725 -0.5669 -0.5282  0.5461
 2437TIP3    H1 7275   6.563   3.662   4.689 -0.6419  0.2361 -0.5596
 2437TIP3    H2 7276   6.685   3.660   4.779  0.2351 -2.0145 -1.6929
 2438TIP3   OH2 7277   6.149   1.943   5.140  0.0103 -0.0599  0.3356
 2438TIP3    H1 7278   6.117   1.853   5.141  0.3181 -0.1747  0.1517
 2438TIP3    H2 7279   6.198   1.952   5.222  2.3581 -0.9558 -0.8716
 2439TIP3   OH2 7280   5.961   3.098   2.439 -0.3264 -0.1619 -0.5765
 2439TIP3    H1 7281   6.041   3.143   2.409 -1.9789  1.1841 -3.4457
 2439TIP3    H2 7282   5.933   3.149   2.515  0.6044  0.4324 -0.6026
 2440TIP3   OH2 7283   0.277   1.486   4.371  0.0952  0.3319  0.5881
 2440TIP3    H1 7284   0.364   1.526   4.367  0.3274 -0.1141  1.0281
 2440TIP3    H2 7285   0.251   1.493   4.463  0.3190 -0.8684  0.7622
 2441TIP3   OH2 7286   0.977   5.467   5.267  0.1602 -0.3151  0.4825
 2441TIP3    H1 7287   0.929   5.541   5.230  0.8409  0.6954  1.5271
 2441TIP3    H2 7288   1.006   5.498   5.353  0.9690 -1.5978  0.7077
 2442TIP3   OH2 7289   0.653   3.307   3.966  0.4682  0.6562 -0.3510
 2442TIP3    H1 7290   0.628   3.286   3.876  1.3811 -0.6832 -0.3334
 2442TIP3    H2 7291   0.733   3.359   3.957 -0.0665  1.4879 -0.3300
 2443TIP3   OH2 7292   2.408   1.742   0.153 -0.0249 -0.0956  0.4519
 2443TIP3    H1 7293   2.369   1.654   0.159  0.7442 -0.6178 -1.5033
 2443TIP3    H2 7294   2.473   1.744   0.223  0.5289 -1.4104  0.0069
 2444TIP3   OH2 7295   1.454   1.664   5.600  0.2125  0.3985  0.3468
 2444TIP3    H1 7296   1.379   1.703   5.556 -0.4638  0.2143  1.3047
 2444TIP3    H2 7297   1.513   1.638   5.529 -1.9711 -2.2572 -0.6592
 2445TIP3   OH2 7298   3.630   6.026   3.093  0.1387 -0.2986 -0.8385
 2445TIP3    H1 7299   3.547   5.991   3.060 -0.9430 -0.9944  2.3142
 2445TIP3    H2 7300   3.695   5.959   3.068 -0.6680 -0.9599 -1.2131
 2446TIP3   OH2 7301   4.301   6.409   0.602  0.9286 -0.0501  0.0655
 2446TIP3    H1 7302   4.262   6.322   0.602  3.4559 -1.3065  1.2431
 2446TIP3    H2 7303   4.344   6.416   0.516 -0.8283  0.8874 -0.7932
 2447TIP3   OH2 7304   5.847   0.895   5.257  0.3346  0.2523 -0.0668
 2447TIP3    H1 7305   5.852   0.932   5.345  0.2411  3.1513 -1.1779
 2447TIP3    H2 7306   5.763   0.848   5.255  0.4524 -0.0516  1.4274
 2448TIP3   OH2 7307   5.607   0.620   3.193  0.6804  0.3923  0.1064
 2448TIP3    H1 7308   5.632   0.534   3.226 -0.0709 -0.4749 -1.4478
 2448TIP3    H2 7309   5.680   0.647   3.138  1.0881  0.9470  0.9041
 2449TIP3   OH2 7310   6.820   3.210   2.008  0.4269 -0.5321  0.5905
 2449TIP3    H1 7311   6.831   3.181   1.917  0.9839 -1.6779  0.9977
 2449TIP3    H2 7312   6.909   3.222   2.041  0.2342  2.3138  0.2968
 2450TIP3   OH2 7313   1.752   5.682   5.172 -0.0088 -0.0593  0.7621
 2450TIP3    H1 7314   1.752   5.617   5.242  0.3280 -0.6392  0.2305
 2450TIP3    H2 7315   1.741   5.631   5.092 -0.5117  0.6093  0.3952
 2451TIP3   OH2 7316   3.708   4.533   2.624 -0.1532 -0.7094  0.1437
 2451TIP3    H1 7317   3.690   4.626   2.639 -0.1825 -0.7297  0.2376
 2451TIP3    H2 7318   3.796   4.519   2.658 -0.0454 -0.6570 -0.1146
 2452TIP3   OH2 7319   1.090   3.408   1.798 -0.2857  0.8665 -0.4786
 2452TIP3    H1 7320   1.147   3.348   1.846 -1.0866  1.5403  1.4420
 2452TIP3    H2 7321   1.044   3.456   1.867 -2.2604  1.2076 -1.9614
 2453TIP3   OH2 7322   2.612   0.809   4.829 -0.1681  0.3361 -0.4058
 2453TIP3    H1 7323   2.542   0.747   4.813 -1.6926  2.0371 -0.6701
 2453TIP3    H2 7324   2.608   0.870   4.755  1.4708  0.6126 -0.3199
 2454TIP3   OH2 7325   5.016   3.573   5.271  0.6532 -0.1665  0.0334
 2454TIP3    H1 7326   5.010   3.653   5.219 -0.5636  0.9121  1.7157
 2454TIP3    H2 7327   5.094   3.585   5.325 -0.8626  1.1206  2.0872
 2455TIP3   OH2 7328   6.058   2.165   1.970 -0.3508 -0.1590 -0.1011
 2455TIP3    H1 7329   6.111   2.177   1.892 -0.4830  0.6469 -0.0730
 2455TIP3    H2 7330   5.969   2.186   1.942 -0.8095 -2.2289 -0.3448
 2456TIP3   OH2 7331   3.912   3.072   1.921  0.6542  0.1651 -0.2540
 2456TIP3    H1 7332   3.818   3.069   1.902  0.7700  0.2344 -0.8640
 2456TIP3    H2 7333   3.940   2.981   1.918  0.8665  0.2493 -1.4873
 2457TIP3   OH2 7334   6.003   5.782   4.993 -0.2249 -0.4312 -0.3316
 2457TIP3    H1 7335   5.986   5.857   5.049  1.2037 -0.8705  0.7364
 2457TIP3    H2 7336   5.975   5.810   4.906 -2.1391  0.3889  0.5000
 2458TIP3   OH2 7337   2.605   3.303   3.824  0.3521  0.3768  0.1654
 2458TIP3    H1 7338   2.539   3.278   3.889  0.7585  0.8464  0.7642
 2458TIP3    H2 7339   2.647   3.381   3.861  0.9375  0.3457 -0.4211
 2459TIP3   OH2 7340   6.560   6.629   2.797 -0.6080  0.3925  0.2600
 2459TIP3    H1 7341   6.631   6.684   2.831  0.4507 -1.1333  0.5885
 2459TIP3    H2 7342   6.551   6.656   2.705 -0.1327  1.1387  0.4228
 2460TIP3   OH2 7343   5.172   5.265   4.628  0.5929 -0.3395  0.8816
 2460TIP3    H1 7344   5.098   5.212   4.658 -1.1983  0.2922 -1.9928
 2460TIP3    H2 7345   5.226   5.205   4.577 -0.5923  0.0990 -1.0277
 2461TIP3   OH2 7346   4.002   1.119   1.508  0.8501  0.3593  0.0423
 2461TIP3    H1 7347   4.041   1.038   1.541  0.1451 -0.1935 -0.4679
 2461TIP3    H2 7348   3.968   1.097   1.421 -0.1898  0.9310  0.2772
 2462TIP3   OH2 7349   0.384   2.617   5.196 -0.3601  0.8246 -0.0153
 2462TIP3    H1 7350   0.459   2.601   5.254 -0.2688  0.6877 -0.1693
 2462TIP3    H2 7351   0.310   2.624   5.255  0.0639  3.0886  0.3143
 2463TIP3   OH2 7352   4.751   5.401   3.788  0.1745 -0.3149 -0.2414
 2463TIP3    H1 7353   4.656   5.396   3.784  0.1871  0.1687 -2.3649
 2463TIP3    H2 7354   4.776   5.333   3.850 -1.6391  1.4107  2.6454
 2464TIP3   OH2 7355   6.142   6.752   2.379  0.3122  0.4576  0.5249
 2464TIP3    H1 7356   6.115   6.666   2.350  1.3401  0.4751 -0.5580
 2464TIP3    H2 7357   6.111   6.758   2.469 -0.9244 -0.5104  0.1862
 2465TIP3   OH2 7358   4.025   5.188   1.460 -0.9389 -0.4121  0.5113
 2465TIP3    H1 7359   4.073   5.180   1.542  0.1276  2.3169  0.2571
 2465TIP3    H2 7360   4.077   5.249   1.407 -1.0642 -2.7958 -2.6509
 2466TIP3   OH2 7361   4.320   4.530   1.967  0.3735  0.7926  0.1984
 2466TIP3    H1 7362   4.356   4.607   1.921  3.3188 -2.1667 -3.1355
 2466TIP3    H2 7363   4.274   4.481   1.899 -1.3469 -0.5176  2.1890
 2467TIP3   OH2 7364   4.337   0.041   5.079 -0.1343 -0.0348  0.3967
 2467TIP3    H1 7365   4.396   0.092   5.025 -0.0605  1.3114  1.6851
 2467TIP3    H2 7366   4.259   0.096   5.089 -0.3852 -0.5035  1.1576
 2468TIP3   OH2 7367   0.632   0.163   4.328  0.5055  0.0164 -0.5838
 2468TIP3    H1 7368   0.616   0.079   4.285 -0.0535 -0.1393 -0.0823
 2468TIP3    H2 7369   0.654   0.223   4.256 -0.5652 -0.2025 -1.1044
 2469TIP3   OH2 7370   3.948   3.147   3.281  0.1983 -0.1298  0.1213
 2469TIP3    H1 7371   3.945   3.120   3.189 -2.1945  0.4350 -0.0170
 2469TIP3    H2 7372   4.008   3.222   3.282  1.2150 -0.9026 -0.7258
 2470TIP3   OH2 7373   0.320   0.898   3.577  0.1991 -0.0379  0.0274
 2470TIP3    H1 7374   0.330   0.807   3.604 -2.3481  0.1343  1.8967
 2470TIP3    H2 7375   0.250   0.896   3.512 -1.0138  0.7121  1.2676
 2471TIP3   OH2 7376   1.182   4.258   3.011 -0.4685 -0.2978  0.2174
 2471TIP3    H1 7377   1.239   4.236   3.083  2.6953  1.1920 -1.6230
 2471TIP3    H2 7378   1.214   4.206   2.937 -0.5131  1.6038 -1.2304
 2472TIP3   OH2 7379   4.642   2.639   5.368  0.0012 -0.2093  0.2724
 2472TIP3    H1 7380   4.635   2.631   5.463 -2.3791 -0.2926  0.1547
 2472TIP3    H2 7381   4.562   2.599   5.335  0.3013  0.7262 -1.7243
 2473TIP3   OH2 7382   0.747   5.947   1.458 -0.3769 -0.2643 -0.0364
 2473TIP3    H1 7383   0.721   5.911   1.542 -0.2194  1.2227  0.6752
 2473TIP3    H2 7384   0.735   5.875   1.396 -2.4563 -0.7706  0.8948
 2474TIP3   OH2 7385   2.876   5.719   4.595  0.4133  0.6476  0.0432
 2474TIP3    H1 7386   2.818   5.647   4.620  1.9851 -0.6097  0.2086
 2474TIP3    H2 7387   2.951   5.677   4.553  1.8127  2.0937  0.9381
 2475TIP3   OH2 7388   5.141   4.938   2.851 -0.0910 -0.0538  0.2163
 2475TIP3    H1 7389   5.094   4.922   2.933 -0.9824  0.9902 -0.0776
 2475TIP3    H2 7390   5.232   4.950   2.878 -0.5907  1.7449  1.2476
 2476TIP3   OH2 7391   1.804   4.326   4.256  0.1305  0.3010 -0.5537
 2476TIP3    H1 7392   1.862   4.329   4.332 -1.3619 -2.6319  0.8944
 2476TIP3    H2 7393   1.817   4.410   4.212  2.9508  1.0907  1.5007
 2477TIP3   OH2 7394   3.421   3.924   4.665  0.4754 -0.3983  0.1648
 2477TIP3    H1 7395   3.494   3.863   4.674  1.5444  0.9643  0.9837
 2477TIP3    H2 7396   3.409   3.932   4.570  2.7116  0.8304 -0.0810
 2478TIP3   OH2 7397   4.261   3.477   2.085 -0.5958  0.4103  0.3241
 2478TIP3    H1 7398   4.260   3.481   1.989 -0.6787  0.0564  0.3085
 2478TIP3    H2 7399   4.175   3.511   2.111 -0.5363  0.5976  0.2765
 2479TIP3   OH2 7400   4.127   3.771   0.643 -0.3900  0.0446  0.5324
 2479TIP3    H1 7401   4.174   3.854   0.631  2.4965 -1.3497  1.3013
 2479TIP3    H2 7402   4.160   3.715   0.573 -0.1743 -1.2965  1.6755
 2480TIP3   OH2 7403   2.388   5.991   1.624 -0.5286 -0.2630 -0.3184
 2480TIP3    H1 7404   2.421   6.054   1.687  2.1342 -0.9173 -0.9197
 2480TIP3    H2 7405   2.293   5.996   1.632 -0.3285  1.2855  2.0929
 2481TIP3   OH2 7406   4.802   6.315   2.134  0.0540  0.1448  0.3009
 2481TIP3    H1 7407   4.768   6.366   2.060 -0.4047  0.7221  0.8949
 2481TIP3    H2 7408   4.897   6.318   2.123 -0.0353 -0.5427 -0.7574
 2482TIP3   OH2 7409   2.766   0.629   2.141  0.1079 -0.3183 -0.0596
 2482TIP3    H1 7410   2.750   0.545   2.099  0.4932  0.0957 -1.0682
 2482TIP3    H2 7411   2.862   0.634   2.150  0.3493  1.1540 -2.5401
 2483TIP3   OH2 7412   4.406   3.933   3.333  0.0953 -0.4013  0.5566
 2483TIP3    H1 7413   4.352   3.902   3.261 -1.0947  0.7761  0.9044
 2483TIP3    H2 7414   4.481   3.975   3.291  0.3782 -1.3804  0.0571
 2484TIP3   OH2 7415   3.099   2.642   2.303  0.0403 -0.1840 -0.2746
 2484TIP3    H1 7416   3.118   2.644   2.397  0.3274 -0.4231 -0.3266
 2484TIP3    H2 7417   3.115   2.732   2.274 -2.4391  0.5457  0.3551
 2485TIP3   OH2 7418   0.070   4.568   1.712  0.3859 -0.6388  0.0659
 2485TIP3    H1 7419   0.116   4.652   1.711 -0.8624  0.0892  0.6859
 2485TIP3    H2 7420   0.091   4.529   1.797 -1.9074  0.7793  1.3864
 2486TIP3   OH2 7421   7.066   2.408   2.093  0.0406  0.0097  0.1454
 2486TIP3    H1 7422   7.132   2.456   2.044  0.4456  0.5570  1.2138
 2486TIP3    H2 7423   6.991   2.404   2.034  1.3932 -1.6784 -1.5858
 2487TIP3   OH2 7424   6.184   2.154   5.711  0.3112 -0.2570  0.2183
 2487TIP3    H1 7425   6.165   2.234   5.662 -0.0792  0.1695  1.0595
 2487TIP3    H2 7426   6.279   2.157   5.725  0.2521  0.2217  0.5295
 2488TIP3   OH2 7427   4.402   4.522   4.804  0.0158 -0.2107  0.1408
 2488TIP3    H1 7428   4.351   4.596   4.836 -0.9308 -1.0992  0.7575
 2488TIP3    H2 7429   4.433   4.550   4.718 -0.9119  0.6418  0.0590
 2489TIP3   OH2 7430   2.104   3.631   4.025  0.2763  0.6524  0.1964
 2489TIP3    H1 7431   2.092   3.537   4.039 -0.4254  0.8200  0.7802
 2489TIP3    H2 7432   2.122   3.667   4.112  1.4064  0.9491 -0.1416
 2490TIP3   OH2 7433   3.051   1.681   5.507  0.4221  0.2900  0.0964
 2490TIP3    H1 7434   2.963   1.682   5.469  0.7037  0.3225 -0.5643
 2490TIP3    H2 7435   3.053   1.755   5.567  0.5489  1.3475 -1.1703
 2491TIP3   OH2 7436   0.445   2.221   3.351  0.3959  0.0491 -0.5287
 2491TIP3    H1 7437   0.503   2.289   3.386  2.6703 -1.5008 -1.0231
 2491TIP3    H2 7438   0.490   2.190   3.272 -0.8049 -1.6478 -0.5938
 2492TIP3   OH2 7439   2.862   3.303   5.199  0.0043 -0.3217 -0.1167
 2492TIP3    H1 7440   2.930   3.325   5.262  0.3610  1.8478 -1.1881
 2492TIP3    H2 7441   2.783   3.345   5.233  0.1754  0.7740 -1.0137
 2493TIP3   OH2 7442   4.004   4.577   3.690 -0.2090 -0.0354 -0.3589
 2493TIP3    H1 7443   4.044   4.656   3.653 -0.9711 -0.6764 -2.7048
 2493TIP3    H2 7444   3.915   4.603   3.712  0.8516  0.9593  3.3802
 2494TIP3   OH2 7445   0.211   6.518   3.353  0.5086 -0.0951  0.4239
 2494TIP3    H1 7446   0.130   6.547   3.311  0.3955  0.0245  0.7221
 2494TIP3    H2 7447   0.280   6.548   3.295  0.2756 -1.8154 -0.8231
 2495TIP3   OH2 7448   4.248   6.203   0.345  0.3749  0.0968  0.0130
 2495TIP3    H1 7449   4.248   6.193   0.440 -0.3052  0.7118  0.0856
 2495TIP3    H2 7450   4.160   6.234   0.324  0.6119  0.2513 -0.7868
 2496TIP3   OH2 7451   0.514   5.670   0.268  0.1146  0.5565  0.1901
 2496TIP3    H1 7452   0.444   5.610   0.293 -0.2399  0.8052 -0.2156
 2496TIP3    H2 7453   0.500   5.688   0.176  2.7584 -2.2007 -0.9425
 2497TIP3   OH2 7454   6.850   2.606   5.307  0.5159 -0.6961 -0.0579
 2497TIP3    H1 7455   6.786   2.632   5.240  1.0711  1.8094  0.3003
 2497TIP3    H2 7456   6.925   2.572   5.257  0.5679  0.3117 -0.6832
 2498TIP3   OH2 7457   0.373   4.050   5.484 -0.6084  0.1718  0.6230
 2498TIP3    H1 7458   0.459   4.011   5.468 -0.8971 -0.6305  0.9663
 2498TIP3    H2 7459   0.353   4.097   5.403 -0.4837 -0.8580 -0.0318
 2499TIP3   OH2 7460   3.066   4.638   4.705 -1.0466  0.3380  0.1633
 2499TIP3    H1 7461   3.105   4.611   4.622 -1.0079 -0.1091  0.3248
 2499TIP3    H2 7462   2.990   4.581   4.716 -0.4661 -0.3033  0.9314
 2500TIP3   OH2 7463   2.405   4.491   1.386  0.6876 -0.6194 -0.4416
 2500TIP3    H1 7464   2.432   4.400   1.403  0.9856 -0.4985 -0.2700
 2500TIP3    H2 7465   2.322   4.500   1.434  0.9254 -0.6415 -0.0195
 2501TIP3   OH2 7466   6.637   2.550   1.589  0.0279 -0.2796  0.1784
 2501TIP3    H1 7467   6.599   2.581   1.671 -1.7533  0.6614 -0.9183
 2501TIP3    H2 7468   6.600   2.609   1.523  1.5858 -0.8662 -1.2727
 2502TIP3   OH2 7469   6.676   0.478   2.417  0.1515  0.1478  0.6830
 2502TIP3    H1 7470   6.640   0.391   2.397 -1.6819  1.0375 -0.1467
 2502TIP3    H2 7471   6.759   0.480   2.370 -0.5812 -0.5674 -0.7156
 2503TIP3   OH2 7472   4.453   2.345   0.290  0.3943  0.3303  0.4402
 2503TIP3    H1 7473   4.427   2.255   0.272 -2.0240  0.8990  0.7393
 2503TIP3    H2 7474   4.516   2.338   0.362 -0.5439 -1.0622  1.1718
 2504TIP3   OH2 7475   6.989   2.435   0.250  0.8268  0.1580 -0.7109
 2504TIP3    H1 7476   7.026   2.454   0.336  0.3079 -0.8164 -0.2681
 2504TIP3    H2 7477   6.992   2.519   0.204  2.0752  0.4619 -0.1195
 2505TIP3   OH2 7478   4.497   4.992   0.151  0.6614 -0.0078 -0.3289
 2505TIP3    H1 7479   4.511   5.039   0.069 -3.5838  1.8437 -0.2463
 2505TIP3    H2 7480   4.437   4.921   0.129 -0.0836  0.1662  1.0081
 2506TIP3   OH2 7481   5.838   4.816   2.838  0.0515  0.3905  0.1207
 2506TIP3    H1 7482   5.874   4.850   2.756 -1.1005 -1.0268 -1.0212
 2506TIP3    H2 7483   5.796   4.892   2.879 -2.0924  0.5817 -2.1620
 2507TIP3   OH2 7484   4.633   2.018   4.517  0.0021 -0.4869  0.4063
 2507TIP3    H1 7485   4.634   2.113   4.504  1.5628  0.1705  4.0750
 2507TIP3    H2 7486   4.557   1.988   4.468  0.0767  2.4366 -1.7975
 2508TIP3   OH2 7487   1.454   5.657   2.905  0.0163 -0.1230  0.1770
 2508TIP3    H1 7488   1.365   5.683   2.928 -0.1727  0.2769 -0.9443
 2508TIP3    H2 7489   1.443   5.588   2.839  0.5241  0.5074 -0.5882
 2509TIP3   OH2 7490   0.550   2.475   0.127 -0.6060  0.2834 -0.0864
 2509TIP3    H1 7491   0.579   2.518   0.208 -1.0759  0.0490  0.2091
 2509TIP3    H2 7492   0.558   2.543   0.060  0.8051  0.1785 -0.0601
 2510TIP3   OH2 7493   2.445   0.304   2.602  0.2580 -0.3862 -0.2307
 2510TIP3    H1 7494   2.498   0.317   2.680  1.2607  0.9975 -1.0804
 2510TIP3    H2 7495   2.420   0.392   2.575  0.7796 -0.7306 -1.9943
 2511TIP3   OH2 7496   4.340   4.164   5.519 -0.0634 -0.0335  0.1346
 2511TIP3    H1 7497   4.317   4.159   5.426  0.2277  1.1917 -0.0132
 2511TIP3    H2 7498   4.274   4.222   5.557  0.6582  0.6096  0.4156
 2512TIP3   OH2 7499   0.028   0.664   2.205  0.0373  0.7117  0.7670
 2512TIP3    H1 7500   0.106   0.687   2.156  1.4221 -2.7186  1.0934
 2512TIP3    H2 7501   0.002   0.579   2.170 -3.6332  1.7000  0.6832
 2513TIP3   OH2 7502   0.857   2.429   3.319  0.8235 -0.3449  0.1736
 2513TIP3    H1 7503   0.905   2.411   3.238  0.2782  1.1127 -0.5066
 2513TIP3    H2 7504   0.854   2.345   3.364  0.8583 -1.2807 -1.4890
 2514TIP3   OH2 7505   2.002   2.115   0.784  0.1690  0.5571 -0.0952
 2514TIP3    H1 7506   2.082   2.103   0.732 -0.4597 -1.3136 -0.6946
 2514TIP3    H2 7507   1.947   2.040   0.762 -0.6097  0.2818  2.4357
 2515TIP3   OH2 7508   2.752   4.062   0.366 -0.6584  0.0056  0.5869
 2515TIP3    H1 7509   2.793   4.142   0.334 -0.2291 -0.3179  0.3135
 2515TIP3    H2 7510   2.676   4.050   0.308 -0.7234  0.2089  0.6278
 2516TIP3   OH2 7511   0.281   3.966   0.715  0.0645 -0.1515  0.3185
 2516TIP3    H1 7512   0.204   4.024   0.718  0.6320  0.6404 -0.1949
 2516TIP3    H2 7513   0.288   3.940   0.624 -0.8907 -2.0451  0.7251
 2517TIP3   OH2 7514   1.701   3.549   2.197 -0.1149 -0.2169 -0.2232
 2517TIP3    H1 7515   1.750   3.624   2.162 -0.2055  0.4657  1.0579
 2517TIP3    H2 7516   1.634   3.532   2.131  1.8117 -1.1832 -2.0265
 2518TIP3   OH2 7517   4.681   3.096   1.392 -0.2956  0.4058 -0.2124
 2518TIP3    H1 7518   4.686   3.185   1.425  0.4801  0.0842  0.5811
 2518TIP3    H2 7519   4.741   3.094   1.317 -0.9022  0.7357 -0.7219
 2519TIP3   OH2 7520   3.403   3.509   5.234 -0.2010 -0.2516  0.2134
 2519TIP3    H1 7521   3.327   3.554   5.268 -0.0451  0.7562 -0.7304
 2519TIP3    H2 7522   3.393   3.512   5.139  1.5686  0.9595  0.0022
 2520TIP3   OH2 7523   5.879   0.636   4.603  0.2907  0.0055  0.4223
 2520TIP3    H1 7524   5.787   0.663   4.594  0.3186 -0.3128 -1.2133
 2520TIP3    H2 7525   5.877   0.565   4.668 -0.9189 -1.1985 -0.8522
 2521TIP3   OH2 7526   0.595   2.842   5.811  0.0226  0.4341 -0.1049
 2521TIP3    H1 7527   0.641   2.843   5.727 -0.6209 -3.3920 -0.6876
 2521TIP3    H2 7528   0.657   2.801   5.871  1.4384  5.2127  2.1765
 2522TIP3   OH2 7529   5.395   4.798   2.507  0.2796 -0.1131 -0.1803
 2522TIP3    H1 7530   5.482   4.758   2.498  0.9248  0.4238  2.6912
 2522TIP3    H2 7531   5.345   4.737   2.560 -0.6660  0.2110 -0.6815
 2523TIP3   OH2 7532   3.251   4.343   1.454 -0.4399  0.2961  0.0799
 2523TIP3    H1 7533   3.204   4.377   1.531 -0.2467  1.1736 -0.1762
 2523TIP3    H2 7534   3.186   4.344   1.384 -0.2326  0.8817 -0.1127
 2524TIP3   OH2 7535   6.178   0.545   3.647 -0.3926  0.3405  0.4817
 2524TIP3    H1 7536   6.212   0.456   3.645  0.1762  0.5625  0.1537
 2524TIP3    H2 7537   6.245   0.598   3.602 -1.5198  0.6620 -0.8956
 2525TIP3   OH2 7538   2.579   3.409   1.399 -0.7901 -0.1545 -0.0430
 2525TIP3    H1 7539   2.615   3.451   1.477  0.5575 -0.9594 -0.2053
 2525TIP3    H2 7540   2.639   3.337   1.381 -1.9348 -0.9074 -0.9470
 2526TIP3   OH2 7541   5.560   1.640   3.226 -0.0778 -0.2487 -0.4910
 2526TIP3    H1 7542   5.538   1.625   3.317  0.6726 -0.5403 -0.3462
 2526TIP3    H2 7543   5.640   1.693   3.229  0.4537 -1.0014 -0.9615
 2527TIP3   OH2 7544   3.068   0.715   1.702  0.3206 -0.2804 -0.1751
 2527TIP3    H1 7545   3.152   0.679   1.671  0.5647 -0.6500  0.8805
 2527TIP3    H2 7546   3.051   0.669   1.784 -0.7926 -0.0125 -0.2380
 2528TIP3   OH2 7547   4.650   5.257   0.010  0.0394  0.0580  0.0954
 2528TIP3    H1 7548   4.563   5.294   0.025 -1.5840 -3.8628  1.9033
 2528TIP3    H2 7549   4.700   5.282   0.089 -0.5965 -0.4881  0.6814
 2529TIP3   OH2 7550   0.181   0.609   1.026  0.2902  0.1220  0.0990
 2529TIP3    H1 7551   0.262   0.562   1.048  0.0085  0.0692  1.0724
 2529TIP3    H2 7552   0.112   0.542   1.034  0.0713  0.3349 -0.0179
 2530TIP3   OH2 7553   6.993   5.594   2.918  0.3891  0.0278 -0.7437
 2530TIP3    H1 7554   6.903   5.579   2.889  0.5950 -2.0955 -0.4137
 2530TIP3    H2 7555   6.999   5.689   2.926 -1.6238  0.2690 -1.3787
 2531TIP3   OH2 7556   7.007   4.056   4.541 -0.1597  0.3063  0.0727
 2531TIP3    H1 7557   7.068   3.985   4.519 -1.4225 -0.2894 -1.7938
 2531TIP3    H2 7558   6.925   4.012   4.561  0.0141  1.0857  2.8587
 2532TIP3   OH2 7559   5.464   0.357   5.771  0.2180 -0.3013  0.0384
 2532TIP3    H1 7560   5.502   0.422   5.831 -0.6265 -1.0452  1.4512
 2532TIP3    H2 7561   5.511   0.369   5.689  2.2442 -0.0117  1.1842
 2533TIP3   OH2 7562   3.774   4.964   1.176 -0.4008 -0.1222 -0.0044
 2533TIP3    H1 7563   3.754   5.057   1.185 -0.5244 -0.0364 -1.1080
 2533TIP3    H2 7564   3.807   4.939   1.263  0.7070  1.2055  0.0018
 2534TIP3   OH2 7565   1.079   4.766   2.660  0.2423  0.2150 -0.3988
 2534TIP3    H1 7566   1.110   4.835   2.718  0.2156  0.2780 -0.4594
 2534TIP3    H2 7567   1.093   4.801   2.572 -1.4161  0.8645 -0.4234
 2535TIP3   OH2 7568   0.744   6.572   4.729  0.5331 -0.2553  0.0819
 2535TIP3    H1 7569   0.796   6.653   4.720  1.4850 -0.8378  0.2161
 2535TIP3    H2 7570   0.800   6.503   4.694 -0.7353 -0.7144 -1.1228
 2536TIP3   OH2 7571   7.178   3.049   1.119 -0.6902  0.6386  0.0471
 2536TIP3    H1 7572   7.242   3.091   1.062  0.5749 -1.0314  0.1313
 2536TIP3    H2 7573   7.102   3.034   1.064  0.9177 -2.0271 -1.7059
 2537TIP3   OH2 7574   5.799   4.223   4.444  0.6901  0.1502  0.3026
 2537TIP3    H1 7575   5.778   4.130   4.454  0.9716 -0.1017 -1.2331
 2537TIP3    H2 7576   5.889   4.224   4.412  0.9741  0.9953  1.0923
 2538TIP3   OH2 7577   4.751   1.874   2.651  0.1388 -0.0014  0.4752
 2538TIP3    H1 7578   4.692   1.890   2.724  1.1786  1.0347  1.1231
 2538TIP3    H2 7579   4.715   1.796   2.607 -1.6815  0.5968  0.8324
 2539TIP3   OH2 7580   1.978   4.624   5.829 -0.2833  1.1542 -0.4909
 2539TIP3    H1 7581   2.042   4.665   5.770  0.6222  0.8483  0.2611
 2539TIP3    H2 7582   1.992   4.530   5.817  0.3387  1.0926  0.6710
 2540TIP3   OH2 7583   2.976   3.267   5.573 -0.3111  0.1698  0.2158
 2540TIP3    H1 7584   3.046   3.254   5.637 -0.5130  3.6537  1.3695
 2540TIP3    H2 7585   3.020   3.308   5.498 -0.6207 -0.8269 -0.5375
 2541TIP3   OH2 7586   6.798   4.710   3.893 -0.2228  0.0561  0.0173
 2541TIP3    H1 7587   6.741   4.665   3.830 -0.8149  0.8548 -0.0237
 2541TIP3    H2 7588   6.885   4.708   3.853  0.4289 -3.4990  1.2170
 2542TIP3   OH2 7589   4.215   0.302   5.865 -0.1780  0.2385  0.0753
 2542TIP3    H1 7590   4.267   0.227   5.893  1.3614  0.9082 -0.8295
 2542TIP3    H2 7591   4.259   0.377   5.905  0.3624  0.9398 -1.7428
 2543TIP3   OH2 7592   0.858   3.606   3.843 -0.7605 -0.2577 -0.2659
 2543TIP3    H1 7593   0.926   3.549   3.877  0.1122  0.2323 -1.1474
 2543TIP3    H2 7594   0.837   3.570   3.757 -2.3598 -1.0068  0.3938
 2544TIP3   OH2 7595   0.256   0.508   5.145  0.0622 -0.0430 -0.1267
 2544TIP3    H1 7596   0.301   0.578   5.192 -1.4559  1.7672 -1.2027
 2544TIP3    H2 7597   0.316   0.484   5.075  0.6297  0.1464  0.2847
 2545TIP3   OH2 7598   7.035   2.870   4.015  0.0836 -0.2726  0.4376
 2545TIP3    H1 7599   7.109   2.825   4.055 -0.2266 -1.9129 -0.7475
 2545TIP3    H2 7600   6.964   2.806   4.018 -0.4349  0.1867 -1.1115
 2546TIP3   OH2 7601   5.962   4.951   1.791  0.6712  0.1085  0.2830
 2546TIP3    H1 7602   5.947   4.899   1.870  0.8364 -0.7042 -0.2129
 2546TIP3    H2 7603   5.992   4.888   1.726 -0.2795  0.6243 -0.6867
 2547TIP3   OH2 7604   1.894   5.588   5.404 -0.4525 -0.0693 -0.1871
 2547TIP3    H1 7605   1.840   5.652   5.450 -0.2412 -0.3427  0.4438
 2547TIP3    H2 7606   1.919   5.524   5.470  3.3668  1.7502  0.4402
 2548TIP3   OH2 7607   5.108   3.461   4.186  0.0927 -0.1437  0.3866
 2548TIP3    H1 7608   5.093   3.461   4.280  0.3183  2.5290  0.5132
 2548TIP3    H2 7609   5.188   3.410   4.174  0.4714  0.1114  1.7319
 2549TIP3   OH2 7610   6.998   1.277   0.567  0.6196  0.3117 -0.9080
 2549TIP3    H1 7611   6.945   1.342   0.521  1.4566  1.3966 -0.3776
 2549TIP3    H2 7612   7.086   1.314   0.569  0.9764 -0.5241  0.0139
 2550TIP3   OH2 7613   2.906   0.385   0.236  0.0183 -0.2139 -0.4819
 2550TIP3    H1 7614   2.968   0.433   0.181  0.1240 -1.6870 -1.7342
 2550TIP3    H2 7615   2.960   0.327   0.289 -0.2083 -0.4106 -0.4634
 2551TIP3   OH2 7616   7.126   4.432   3.343 -0.5202 -0.5759 -0.2147
 2551TIP3    H1 7617   7.198   4.373   3.367 -0.7977 -0.9177 -0.2137
 2551TIP3    H2 7618   7.162   4.487   3.273  0.4802  0.7898  1.2976
 2552TIP3   OH2 7619   3.303   1.050   1.865  0.0552  0.0306  0.2654
 2552TIP3    H1 7620   3.230   1.112   1.864 -0.9695 -1.1062  0.9989
 2552TIP3    H2 7621   3.380   1.104   1.880 -0.9304  1.0360  2.0662
 2553TIP3   OH2 7622   3.115   4.753   2.882 -0.2086  0.5713 -0.1287
 2553TIP3    H1 7623   3.121   4.838   2.926  1.8248  0.7723 -0.6780
 2553TIP3    H2 7624   3.153   4.691   2.944 -0.6964  0.2379 -0.1608
 2554TIP3   OH2 7625   3.174   4.074   1.052 -0.2252 -0.1422 -0.5335
 2554TIP3    H1 7626   3.118   4.103   0.980 -0.9866 -0.2683 -0.0042
 2554TIP3    H2 7627   3.131   3.995   1.086  0.1263 -0.0922  0.0536
 2555TIP3   OH2 7628   2.559   0.252   0.374  0.1044  0.0013  0.4815
 2555TIP3    H1 7629   2.597   0.196   0.307 -1.7422 -0.7531  0.0071
 2555TIP3    H2 7630   2.507   0.193   0.428  0.3062  0.8499  1.6366
 2556TIP3   OH2 7631   3.132   2.098   3.845  0.0167 -0.0683  0.3451
 2556TIP3    H1 7632   3.167   2.090   3.933 -1.0407  1.2621  0.9281
 2556TIP3    H2 7633   3.194   2.051   3.789  1.9332  0.9942  1.4812
 2557TIP3   OH2 7634   3.717   5.624   2.326 -0.3623 -0.3676  0.1695
 2557TIP3    H1 7635   3.688   5.590   2.242 -1.1223 -0.4571  0.4611
 2557TIP3    H2 7636   3.808   5.649   2.312  0.0291 -1.9176 -0.2362
 2558TIP3   OH2 7637   0.682   6.147   0.880 -0.1059  0.1997 -0.6234
 2558TIP3    H1 7638   0.592   6.151   0.913  0.5010 -1.8620  1.5782
 2558TIP3    H2 7639   0.728   6.091   0.943  2.2284 -0.5558 -2.8340
 2559TIP3   OH2 7640   3.013   5.340   3.980 -0.3197  0.9077 -0.2041
 2559TIP3    H1 7641   3.078   5.388   4.032  1.1941 -0.0329 -1.1482
 2559TIP3    H2 7642   3.044   5.250   3.981 -2.1419  0.2507  0.0590
 2560TIP3   OH2 7643   2.950   3.829   2.655 -0.3815 -0.5336  0.4022
 2560TIP3    H1 7644   2.891   3.900   2.684 -0.8931 -0.8893  0.2459
 2560TIP3    H2 7645   2.897   3.750   2.661 -0.8237 -0.5279 -2.3339
 2561TIP3   OH2 7646   1.548   6.602   1.436  0.0714  0.6009 -0.4945
 2561TIP3    H1 7647   1.621   6.541   1.450 -0.1427  0.6547  1.0924
 2561TIP3    H2 7648   1.584   6.671   1.380  1.3411  0.7673  0.4757
 2562TIP3   OH2 7649   2.159   1.478   3.062 -0.5319 -0.2102 -0.0837
 2562TIP3    H1 7650   2.104   1.488   3.139  0.3698 -1.3342  0.7613
 2562TIP3    H2 7651   2.220   1.551   3.066 -0.0448 -0.6357  0.6943
 2563TIP3   OH2 7652   1.919   5.771   1.688  0.0215  0.4447 -0.3698
 2563TIP3    H1 7653   1.924   5.743   1.596  0.1273  1.0659 -0.5597
 2563TIP3    H2 7654   1.907   5.866   1.683 -0.7797  0.3863  0.2449
 2564TIP3   OH2 7655   5.357   2.785   1.859  0.0923 -0.1286  0.5563
 2564TIP3    H1 7656   5.344   2.828   1.943 -0.0711  1.0858 -0.0762
 2564TIP3    H2 7657   5.447   2.753   1.863 -0.6038 -2.1098  2.0581
 2565TIP3   OH2 7658   2.803   3.824   0.961 -0.3641 -0.1647  0.1454
 2565TIP3    H1 7659   2.760   3.906   0.938 -0.0712  0.0120  0.2133
 2565TIP3    H2 7660   2.733   3.767   0.991 -0.5215  0.1993  0.4803
 2566TIP3   OH2 7661   5.022   0.617   0.804  0.7968  1.3522  0.4536
 2566TIP3    H1 7662   4.954   0.672   0.766 -0.2239  1.1001  1.8435
 2566TIP3    H2 7663   5.039   0.655   0.890  0.6300 -0.0360  1.1313
 2567TIP3   OH2 7664   2.125   4.289   2.921  0.3120 -0.9395 -0.0565
 2567TIP3    H1 7665   2.050   4.232   2.909  0.2726 -0.9326  0.1475
 2567TIP3    H2 7666   2.177   4.246   2.989 -0.3002 -0.1536  0.9340
 2568TIP3   OH2 7667   0.528   5.523   4.152 -0.6170 -0.0909  0.0166
 2568TIP3    H1 7668   0.432   5.529   4.151 -0.6542  1.2580  2.8674
 2568TIP3    H2 7669   0.556   5.592   4.211  2.1033 -1.0264 -0.0281
 2569TIP3   OH2 7670   4.513   6.137   0.881 -0.4042  0.3885  0.3640
 2569TIP3    H1 7671   4.451   6.109   0.948 -0.1274 -2.0226 -0.3117
 2569TIP3    H2 7672   4.597   6.145   0.927 -0.5484  0.3610  0.6288
 2570TIP3   OH2 7673   5.189   0.556   0.535  0.0766 -0.6086 -0.1268
 2570TIP3    H1 7674   5.098   0.587   0.531  1.3442  3.5570 -1.9692
 2570TIP3    H2 7675   5.195   0.490   0.466 -1.6773 -1.6694  0.6515
 2571TIP3   OH2 7676   5.842   4.607   1.278  0.0102  0.2447  0.1221
 2571TIP3    H1 7677   5.787   4.538   1.242  1.2977 -1.1645  0.7681
 2571TIP3    H2 7678   5.786   4.652   1.341 -1.1777  0.5244 -1.0898
 2572TIP3   OH2 7679   6.358   1.158   3.934  0.1769 -0.2689  0.1650
 2572TIP3    H1 7680   6.271   1.191   3.954 -0.5093 -0.9935 -1.4925
 2572TIP3    H2 7681   6.371   1.177   3.841  2.0415  0.3549  0.5082
 2573TIP3   OH2 7682   0.480   6.005   5.443  1.0624  0.1232  0.3867
 2573TIP3    H1 7683   0.426   6.083   5.454 -0.6550 -0.4357 -2.7406
 2573TIP3    H2 7684   0.454   5.946   5.513 -2.7574 -0.2100 -1.0884
 2574TIP3   OH2 7685   1.794   4.260   3.333  0.1758  0.4805  0.2706
 2574TIP3    H1 7686   1.875   4.305   3.355 -1.0711  2.3679  1.2414
 2574TIP3    H2 7687   1.774   4.209   3.412 -0.5044  1.4858  0.7725
 2575TIP3   OH2 7688   3.768   1.754   1.981 -0.6039 -0.0343 -0.0018
 2575TIP3    H1 7689   3.784   1.692   2.052  1.6178 -0.8848 -1.1460
 2575TIP3    H2 7690   3.698   1.714   1.930 -0.2320 -0.8616  0.1227
 2576TIP3   OH2 7691   1.892   6.541   2.533  0.3071  0.0519  0.0706
 2576TIP3    H1 7692   1.944   6.596   2.592  0.1338 -1.2207  1.4829
 2576TIP3    H2 7693   1.841   6.484   2.592 -1.3288  0.0217 -1.2970
 2577TIP3   OH2 7694   3.509   4.914   4.224 -0.1489  0.2760 -0.2382
 2577TIP3    H1 7695   3.455   4.949   4.295 -0.5590 -2.4777  0.9369
 2577TIP3    H2 7696   3.450   4.855   4.177  1.1881 -0.9939 -0.3707
 2578TIP3   OH2 7697   3.188   4.655   3.135 -0.1843  0.3154 -0.3847
 2578TIP3    H1 7698   3.180   4.735   3.187  0.3391  0.3761 -0.3895
 2578TIP3    H2 7699   3.099   4.619   3.132  0.0010 -0.5210  1.8991
 2579TIP3   OH2 7700   1.781   2.195   3.151  0.3925  0.3099  0.1348
 2579TIP3    H1 7701   1.832   2.275   3.156  0.6264  0.1078  1.7247
 2579TIP3    H2 7702   1.707   2.210   3.210 -0.2421 -0.1919 -0.5100
 2580TIP3   OH2 7703   6.121   5.768   4.027  0.0417 -0.1585 -0.1951
 2580TIP3    H1 7704   6.197   5.759   3.969  1.0540  0.3075  1.0060
 2580TIP3    H2 7705   6.073   5.687   4.016  1.5155 -1.1089  0.0994
 2581TIP3   OH2 7706   3.584   1.279   4.018 -0.1871  0.0504  0.4802
 2581TIP3    H1 7707   3.611   1.194   3.983  0.0242 -0.1062  0.9968
 2581TIP3    H2 7708   3.657   1.338   3.999 -0.9733  0.5165 -1.2475
 2582TIP3   OH2 7709   4.385   0.746   4.127  0.5041  0.4337  0.2212
 2582TIP3    H1 7710   4.461   0.732   4.182  0.3641 -2.1846 -0.1088
 2582TIP3    H2 7711   4.310   0.727   4.183  0.3720 -2.6707 -0.7834
 2583TIP3   OH2 7712   2.926   2.434   0.453 -0.4341  0.1413  0.1648
 2583TIP3    H1 7713   2.869   2.510   0.442 -0.7548 -0.2520 -1.0584
 2583TIP3    H2 7714   2.921   2.414   0.546  0.3346  2.1206  0.6833
 2584TIP3   OH2 7715   5.082   1.916   0.765 -0.4729  0.6100  0.2684
 2584TIP3    H1 7716   5.012   1.927   0.700  0.1128 -0.7325 -0.6438
 2584TIP3    H2 7717   5.038   1.875   0.840 -1.3496  3.0270  1.1800
 2585TIP3   OH2 7718   5.770   3.838   0.632  0.0098  0.2344  0.5828
 2585TIP3    H1 7719   5.848   3.872   0.589 -0.1786  0.6210  0.5409
 2585TIP3    H2 7720   5.720   3.796   0.562 -0.2734  0.8204  0.4229
 2586TIP3   OH2 7721   1.700   4.587   3.484 -0.2810 -0.0677  0.3042
 2586TIP3    H1 7722   1.693   4.682   3.482  0.6029  0.0153  0.5731
 2586TIP3    H2 7723   1.701   4.560   3.392 -0.7618  0.1614  0.2313
 2587TIP3   OH2 7724   0.400   5.463   5.116  0.3338 -0.2001 -0.3790
 2587TIP3    H1 7725   0.419   5.466   5.022  1.6981 -2.0805 -0.2130
 2587TIP3    H2 7726   0.310   5.495   5.123 -0.0934 -0.8158 -2.4362
 2588TIP3   OH2 7727   5.175   6.131   1.384 -0.2525  0.6911 -0.2323
 2588TIP3    H1 7728   5.115   6.167   1.319  0.8826  0.4876 -1.4390
 2588TIP3    H2 7729   5.262   6.141   1.344  0.6779  2.1182  1.9651
 2589TIP3   OH2 7730   4.578   3.235   4.899  0.0884 -0.3829  0.1781
 2589TIP3    H1 7731   4.544   3.297   4.834  1.2905 -0.4993 -0.5882
 2589TIP3    H2 7732   4.505   3.221   4.959 -0.9034  0.0987 -0.8793
 2590TIP3   OH2 7733   0.798   5.112   0.662  0.0585  0.0975  0.2154
 2590TIP3    H1 7734   0.888   5.080   0.647 -0.2024 -0.3723 -0.4024
 2590TIP3    H2 7735   0.763   5.124   0.574  0.3003  2.6080  0.4089
 2591TIP3   OH2 7736   3.202   0.451   0.236 -0.2384  0.5911 -0.0138
 2591TIP3    H1 7737   3.284   0.470   0.191 -0.2703 -2.2885 -1.5080
 2591TIP3    H2 7738   3.167   0.537   0.259  2.6597  1.9461 -0.2256
 2592TIP3   OH2 7739   2.255   2.069   3.601  0.3446  0.3589  0.3800
 2592TIP3    H1 7740   2.166   2.098   3.618 -0.0552 -0.3259 -0.4468
 2592TIP3    H2 7741   2.301   2.081   3.684 -0.0892  2.2162  0.3995
 2593TIP3   OH2 7742   0.655   6.363   0.105  0.3038 -0.3478 -0.2435
 2593TIP3    H1 7743   0.568   6.329   0.085  1.2515 -2.5981 -0.8208
 2593TIP3    H2 7744   0.690   6.303   0.170  1.8416 -0.1664 -0.8683
 2594TIP3   OH2 7745   6.624   5.217   4.180  0.4016 -0.4352 -0.3752
 2594TIP3    H1 7746   6.625   5.230   4.085 -1.2242 -1.9285 -0.6661
 2594TIP3    H2 7747   6.698   5.159   4.197  2.0977  1.6143 -0.3401
 2595TIP3   OH2 7748   5.582   6.061   0.199  0.6203  0.0060  0.8464
 2595TIP3    H1 7749   5.666   6.029   0.167  0.1621  0.1528 -0.5350
 2595TIP3    H2 7750   5.525   6.061   0.123 -0.4757  0.4882  1.6373
 2596TIP3   OH2 7751   0.153   6.604   2.200  0.1564 -0.0217 -0.3568
 2596TIP3    H1 7752   0.195   6.599   2.285 -0.9239 -0.4082  0.1724
 2596TIP3    H2 7753   0.090   6.676   2.209 -0.7869 -0.8183 -0.4404
 2597TIP3   OH2 7754   6.077   2.664   5.230 -0.3167 -0.6043 -0.2193
 2597TIP3    H1 7755   6.142   2.732   5.214 -2.0020  0.9500 -0.8041
 2597TIP3    H2 7756   6.053   2.633   5.143 -0.3038 -1.2413 -0.0041
 2598TIP3   OH2 7757   7.121   2.573   1.207 -0.6313 -0.3862  0.4048
 2598TIP3    H1 7758   7.104   2.525   1.289  2.6574  2.0837  2.8265
 2598TIP3    H2 7759   7.035   2.605   1.180 -1.9308 -1.7117  2.6244
 2599TIP3   OH2 7760   0.310   3.095   4.702  0.1025 -0.2338 -1.0898
 2599TIP3    H1 7761   0.266   3.132   4.778 -0.6355 -0.2712 -1.4969
 2599TIP3    H2 7762   0.316   3.001   4.720 -0.4299 -0.3005 -1.2531
 2600TIP3   OH2 7763   4.612   6.125   1.236 -0.1743 -0.2619  0.1028
 2600TIP3    H1 7764   4.668   6.048   1.239  1.7359  1.0859  1.8439
 2600TIP3    H2 7765   4.553   6.115   1.311  0.7541  0.3815  0.9537
 2601TIP3   OH2 7766   1.443   6.141   1.591  0.3303  0.8176 -0.7004
 2601TIP3    H1 7767   1.385   6.094   1.650  0.5735  1.2441 -0.1154
 2601TIP3    H2 7768   1.396   6.220   1.567 -0.0284  0.3505 -1.5905
 2602TIP3   OH2 7769   3.165   0.724   4.691 -0.2190 -0.1934  0.3848
 2602TIP3    H1 7770   3.088   0.742   4.745 -1.5066 -0.6091 -1.2514
 2602TIP3    H2 7771   3.132   0.720   4.601  2.0261  1.5551 -0.6150
 2603TIP3   OH2 7772   3.625   6.207   5.475  0.3905  0.5564 -0.4872
 2603TIP3    H1 7773   3.556   6.274   5.475 -0.4733 -0.2987  0.7388
 2603TIP3    H2 7774   3.596   6.143   5.540  2.0081 -0.1801 -0.4550
 2604TIP3   OH2 7775   3.274   2.761   4.958  0.0234 -0.6888 -0.0978
 2604TIP3    H1 7776   3.342   2.801   5.012  1.1020 -0.9918 -1.1707
 2604TIP3    H2 7777   3.197   2.816   4.971  0.5374 -0.1974  0.9674
 2605TIP3   OH2 7778   1.815   6.384   4.374  0.0142 -0.0021  0.2778
 2605TIP3    H1 7779   1.730   6.362   4.337  0.2016 -0.7241  0.2579
 2605TIP3    H2 7780   1.859   6.435   4.306 -0.3849  0.3426  0.2761
 2606TIP3   OH2 7781   2.275   4.168   0.200  0.0697 -0.0262 -0.2566
 2606TIP3    H1 7782   2.246   4.085   0.238 -0.1654 -1.3666 -3.0407
 2606TIP3    H2 7783   2.370   4.159   0.191  0.2718  0.7474  0.9929
 2607TIP3   OH2 7784   6.157   4.195   1.184  0.3516  0.1283  0.0126
 2607TIP3    H1 7785   6.119   4.259   1.124  0.0596 -0.2064 -0.1666
 2607TIP3    H2 7786   6.087   4.130   1.197  0.2126  0.4934  1.1659
 2608TIP3   OH2 7787   6.337   4.360   4.981  0.1058 -0.1722  0.1542
 2608TIP3    H1 7788   6.355   4.452   4.961 -2.7144  0.3193 -0.5270
 2608TIP3    H2 7789   6.353   4.352   5.075  1.1811  0.7696  0.0774
 2609TIP3   OH2 7790   1.238   0.245   5.185 -0.5659  0.2019  0.4046
 2609TIP3    H1 7791   1.246   0.308   5.257  0.2798 -0.2680  0.7404
 2609TIP3    H2 7792   1.170   0.185   5.213  0.4221 -0.5455  1.2723
 2610TIP3   OH2 7793   0.888   1.175   4.526 -0.0740 -0.2338  0.6722
 2610TIP3    H1 7794   0.959   1.127   4.568  0.4940  1.4130  1.7309
 2610TIP3    H2 7795   0.931   1.228   4.459 -0.6701 -1.0794 -0.4029
 2611TIP3   OH2 7796   5.663   6.583   4.961 -0.4518  0.5265 -0.1202
 2611TIP3    H1 7797   5.694   6.620   4.878 -2.0990 -1.6207 -1.8161
 2611TIP3    H2 7798   5.598   6.518   4.935 -1.0203 -0.2469  2.9003
 2612TIP3   OH2 7799   4.728   6.461   0.229 -0.1239 -0.6729  0.4279
 2612TIP3    H1 7800   4.721   6.461   0.134 -0.2117  1.6576  0.3783
 2612TIP3    H2 7801   4.766   6.375   0.251  2.5478 -0.2426 -1.9187
 2613TIP3   OH2 7802   0.882   1.025   0.410  0.7383  0.5409  0.4079
 2613TIP3    H1 7803   0.844   1.076   0.481  1.3173 -1.1908  2.0529
 2613TIP3    H2 7804   0.933   0.956   0.454  2.8953  0.6562 -1.6727
 2614TIP3   OH2 7805   4.451   1.826   4.162  0.8484  0.2047 -0.4435
 2614TIP3    H1 7806   4.446   1.908   4.112  0.8816  0.4178 -0.1017
 2614TIP3    H2 7807   4.510   1.771   4.110  0.4534  0.2199 -0.9187
 2615TIP3   OH2 7808   2.780   4.880   5.891  0.0964  0.6144  0.0145
 2615TIP3    H1 7809   2.759   4.805   5.834 -0.0491  0.7632 -0.1272
 2615TIP3    H2 7810   2.830   4.939   5.836  2.2702 -0.4220  0.7574
 2616TIP3   OH2 7811   0.653   6.661   1.377  0.1021  0.3627  0.3232
 2616TIP3    H1 7812   0.568   6.655   1.419  0.8629  0.2925  1.9370
 2616TIP3    H2 7813   0.701   6.584   1.407  1.0434  0.8756  0.1872
 2617TIP3   OH2 7814   4.708   2.870   4.929 -0.3060 -0.2154 -0.0579
 2617TIP3    H1 7815   4.764   2.797   4.905 -0.6413 -1.1026  1.6785
 2617TIP3    H2 7816   4.760   2.948   4.911  0.8990 -0.9613  0.1245
 2618TIP3   OH2 7817   2.710   4.073   0.905  0.1857  0.1290  0.5346
 2618TIP3    H1 7818   2.673   4.074   0.817 -1.6354 -1.7681  1.1934
 2618TIP3    H2 7819   2.797   4.112   0.895 -0.9237  2.3502 -1.5983
 2619TIP3   OH2 7820   4.022   1.582   3.895 -0.8496 -0.2411 -0.1495
 2619TIP3    H1 7821   3.962   1.656   3.885  0.2487  0.5787 -0.9119
 2619TIP3    H2 7822   4.105   1.622   3.921 -0.7599 -1.4141  1.5319
 2620TIP3   OH2 7823   6.388   1.877   2.678  0.0734 -0.1459  0.3419
 2620TIP3    H1 7824   6.296   1.851   2.670 -0.2965 -0.0965  3.1879
 2620TIP3    H2 7825   6.437   1.796   2.667 -0.1142  0.0685 -2.7550
 2621TIP3   OH2 7826   1.019   5.890   3.770 -0.1202 -0.0243  0.0259
 2621TIP3    H1 7827   0.955   5.838   3.818  0.2149 -0.8486 -0.3978
 2621TIP3    H2 7828   1.070   5.825   3.720  1.1204  0.5975  0.4558
 2622TIP3   OH2 7829   2.912   2.910   2.177 -0.0016 -0.5380  0.0281
 2622TIP3    H1 7830   2.852   2.842   2.144  1.1735 -1.4108 -0.3958
 2622TIP3    H2 7831   2.999   2.878   2.153  0.7280  0.1208  1.6427
 2623TIP3   OH2 7832   5.513   6.694   5.135 -0.3747 -0.0989 -0.5253
 2623TIP3    H1 7833   5.577   6.682   5.065  0.0199  0.1978 -0.2181
 2623TIP3    H2 7834   5.514   6.612   5.184 -1.1502 -0.5655 -1.2700
 2624TIP3   OH2 7835   5.538   2.423   5.757  0.7823 -0.3275  0.1361
 2624TIP3    H1 7836   5.591   2.492   5.717  0.8362 -0.3489  0.1705
 2624TIP3    H2 7837   5.553   2.347   5.701  0.7967 -0.3362  0.1517
 2625TIP3   OH2 7838   3.247   3.719   0.714 -0.4005  0.0588 -0.0556
 2625TIP3    H1 7839   3.152   3.710   0.721 -0.3170 -0.1949  0.9137
 2625TIP3    H2 7840   3.260   3.808   0.683 -0.9472  0.1886  0.0764
 2626TIP3   OH2 7841   1.640   4.259   3.844 -0.3695 -0.5310  0.3227
 2626TIP3    H1 7842   1.609   4.311   3.770 -0.5479 -2.0518 -0.7177
 2626TIP3    H2 7843   1.689   4.187   3.804 -1.3427 -1.9894  1.6175
 2627TIP3   OH2 7844   3.248   4.018   3.743  0.1645  0.4389 -0.8675
 2627TIP3    H1 7845   3.310   3.964   3.695  2.0253  0.3066  1.5178
 2627TIP3    H2 7846   3.170   3.963   3.752  0.6032 -0.3595 -1.7920
 2628TIP3   OH2 7847   7.044   2.875   5.300 -0.7829 -0.0036  0.5851
 2628TIP3    H1 7848   6.969   2.903   5.249  0.6861  3.2624 -0.0592
 2628TIP3    H2 7849   7.098   2.824   5.240 -1.1130  0.1536  0.1581
 2629TIP3   OH2 7850   4.851   5.168   2.085 -0.1662 -0.0337 -0.2341
 2629TIP3    H1 7851   4.772   5.222   2.073 -0.4311 -0.6669 -1.5209
 2629TIP3    H2 7852   4.890   5.163   1.998  0.8141 -0.4811  0.2135
 2630TIP3   OH2 7853   0.237   1.980   3.147  0.3281 -0.6738  0.1429
 2630TIP3    H1 7854   0.145   1.984   3.122  0.3116 -0.4809  0.2287
 2630TIP3    H2 7855   0.278   1.928   3.078  0.1888 -0.5948 -0.0014
 2631TIP3   OH2 7856   0.316   4.230   2.654  0.3150 -0.0213  0.0274
 2631TIP3    H1 7857   0.412   4.226   2.648  0.4162  2.6750 -2.9528
 2631TIP3    H2 7858   0.298   4.316   2.691 -1.0220 -0.8317  1.3656
 2632TIP3   OH2 7859   0.967   2.366   0.644  0.5387 -0.4563 -0.1784
 2632TIP3    H1 7860   0.961   2.333   0.733  0.0392 -0.3019 -0.1517
 2632TIP3    H2 7861   0.906   2.311   0.594 -1.6954  1.5300  0.2049
 2633TIP3   OH2 7862   2.793   3.374   4.441  0.0188  0.1784 -0.0012
 2633TIP3    H1 7863   2.828   3.462   4.423  0.3963  0.7423  2.9705
 2633TIP3    H2 7864   2.725   3.389   4.506 -1.5580 -1.5655 -1.1703
 2634TIP3   OH2 7865   6.793   5.925   2.558 -0.6273  0.0005 -0.0114
 2634TIP3    H1 7866   6.714   5.891   2.515  0.1516 -1.7808 -0.1231
 2634TIP3    H2 7867   6.760   5.968   2.637 -1.7349 -0.4687 -0.1950
 2635TIP3   OH2 7868   1.005   0.118   3.633 -0.0971  0.1939  0.0303
 2635TIP3    H1 7869   1.032   0.134   3.723  1.2905 -0.7113 -0.1896
 2635TIP3    H2 7870   1.087   0.111   3.584 -0.8251  0.5568 -1.2872
 2636TIP3   OH2 7871   5.333   3.998   3.810  0.2209  0.1509  0.2590
 2636TIP3    H1 7872   5.400   3.960   3.866  0.4530  0.0878 -0.0569
 2636TIP3    H2 7873   5.274   4.043   3.870  0.6371  0.3431  0.5294
 2637TIP3   OH2 7874   2.523   6.160   2.628 -0.5578 -0.0775  0.0884
 2637TIP3    H1 7875   2.544   6.249   2.654  2.0959 -0.3822 -0.7415
 2637TIP3    H2 7876   2.593   6.106   2.665  0.0620 -1.2615 -2.5554
 2638TIP3   OH2 7877   6.651   6.327   1.612 -0.5151 -0.5103 -0.5699
 2638TIP3    H1 7878   6.696   6.397   1.565 -1.4488  0.2966 -0.3125
 2638TIP3    H2 7879   6.687   6.246   1.576  0.6924  0.0972 -0.7786
 2639TIP3   OH2 7880   3.939   0.593   2.959 -0.1725 -0.1758 -0.0012
 2639TIP3    H1 7881   3.950   0.652   2.884  1.2742  1.1952  1.2190
 2639TIP3    H2 7882   3.980   0.640   3.032 -3.6538 -0.3478  2.2557
 2640TIP3   OH2 7883   3.841   2.374   4.508  0.2139 -0.8627  0.3822
 2640TIP3    H1 7884   3.897   2.362   4.585 -0.5854 -1.0169  0.9491
 2640TIP3    H2 7885   3.804   2.462   4.518 -2.0849 -1.8849  1.6782
 2641TIP3   OH2 7886   5.323   6.531   3.432 -0.5013  0.0151  0.0344
 2641TIP3    H1 7887   5.246   6.583   3.455 -1.3410 -1.1674 -0.0431
 2641TIP3    H2 7888   5.357   6.500   3.516 -0.1874  0.4067  0.0566
 2642TIP3   OH2 7889   1.732   1.525   5.738  0.1174 -0.1035  0.2230
 2642TIP3    H1 7890   1.685   1.540   5.656  0.1435  1.1231  0.4123
 2642TIP3    H2 7891   1.663   1.524   5.805  0.1655 -0.3834  0.2692
 2643TIP3   OH2 7892   6.741   0.023   1.580  0.2528 -0.3558 -0.1467
 2643TIP3    H1 7893   6.768   0.035   1.671 -1.1798 -0.3965  0.2964
 2643TIP3    H2 7894   6.766   0.104   1.536  1.2146 -0.4492  0.1950
 2644TIP3   OH2 7895   2.693   2.077   0.651 -0.1837 -0.5368  0.6069
 2644TIP3    H1 7896   2.788   2.087   0.660 -0.2636 -0.7880  2.0138
 2644TIP3    H2 7897   2.683   2.016   0.578  0.6484  0.8696 -0.7488
 2645TIP3   OH2 7898   3.150   3.854   1.870  0.1762 -0.4743  0.3986
 2645TIP3    H1 7899   3.076   3.856   1.932 -0.3706  1.6157 -0.2316
 2645TIP3    H2 7900   3.189   3.941   1.877  0.9613 -0.6712 -1.2036
 2646TIP3   OH2 7901   3.333   3.802   3.276 -0.1140 -0.2020 -0.2455
 2646TIP3    H1 7902   3.265   3.823   3.341 -0.2479 -0.3445 -0.3386
 2646TIP3    H2 7903   3.284   3.789   3.195  0.1521  1.1141 -0.6407
 2647TIP3   OH2 7904   1.644   0.332   1.514 -0.3184 -0.1559  0.2053
 2647TIP3    H1 7905   1.643   0.299   1.603 -1.1200  0.0813  0.2866
 2647TIP3    H2 7906   1.603   0.263   1.462  0.1335 -0.2872  0.0116
 2648TIP3   OH2 7907   2.261   5.952   5.740 -0.3624 -0.2845 -0.2960
 2648TIP3    H1 7908   2.289   5.971   5.650 -2.3930  0.2672 -0.8569
 2648TIP3    H2 7909   2.300   6.022   5.792 -0.5807  0.3955 -1.0239
 2649TIP3   OH2 7910   1.559   4.966   5.876 -0.3427  0.5480 -0.1114
 2649TIP3    H1 7911   1.594   4.885   5.838 -1.4657 -0.5895  1.1560
 2649TIP3    H2 7912   1.605   4.975   5.959  1.6005  2.6474 -1.2867
 2650TIP3   OH2 7913   2.817   1.610   0.245 -0.2820  0.2273 -0.1618
 2650TIP3    H1 7914   2.739   1.625   0.300 -0.8073  2.7051 -1.4512
 2650TIP3    H2 7915   2.783   1.571   0.165 -0.0708  0.4416 -0.3567
 2651TIP3   OH2 7916   4.745   4.559   0.886 -0.0181 -0.2885  0.5489
 2651TIP3    H1 7917   4.751   4.617   0.962 -0.2865  0.9288 -0.3319
 2651TIP3    H2 7918   4.755   4.617   0.811 -1.0666 -1.2868 -0.3941
 2652TIP3   OH2 7919   6.809   2.315   3.015  0.6605 -0.3504  0.5913
 2652TIP3    H1 7920   6.901   2.323   3.040  0.2377 -0.6016  2.3760
 2652TIP3    H2 7921   6.811   2.282   2.925  2.2952  1.0422  0.0727
 2653TIP3   OH2 7922   6.319   4.897   0.724  0.1815  0.0211  0.3560
 2653TIP3    H1 7923   6.289   4.930   0.640 -0.1629  3.1997  1.5740
 2653TIP3    H2 7924   6.259   4.935   0.788  2.5235  0.8117  2.2867
 2654TIP3   OH2 7925   3.151   3.021   0.832  0.0083  0.2167  0.2613
 2654TIP3    H1 7926   3.111   3.072   0.761 -1.3300 -1.4418 -0.2568
 2654TIP3    H2 7927   3.243   3.014   0.807 -0.5280 -0.7762 -1.6463
 2655TIP3   OH2 7928   3.578   1.640   1.826 -0.0700  0.0554  0.0807
 2655TIP3    H1 7929   3.604   1.552   1.799  0.2034 -0.0651  0.7065
 2655TIP3    H2 7930   3.485   1.646   1.807 -0.5913 -1.1604  2.0465
 2656TIP3   OH2 7931   2.888   5.613   0.226 -0.2737 -0.0620 -1.0338
 2656TIP3    H1 7932   2.945   5.538   0.207 -0.5704 -0.1178 -1.7542
 2656TIP3    H2 7933   2.889   5.621   0.321  1.2213  0.1533 -1.0423
 2657TIP3   OH2 7934   6.799   0.697   3.803 -0.3283  0.4062 -0.1708
 2657TIP3    H1 7935   6.881   0.746   3.816  1.3974 -2.0429 -1.0505
 2657TIP3    H2 7936   6.747   0.716   3.881  1.6959  0.8994  1.1414
 2658TIP3   OH2 7937   6.554   1.525   1.948  0.6477  0.2620 -0.3946
 2658TIP3    H1 7938   6.522   1.593   1.888 -2.2635 -1.6034 -1.1683
 2658TIP3    H2 7939   6.605   1.573   2.014 -0.3179  3.0332 -1.5238
 2659TIP3   OH2 7940   3.011   0.272   3.588 -0.5653 -0.5447 -0.0986
 2659TIP3    H1 7941   3.073   0.293   3.658  0.3553 -0.3415 -0.9447
 2659TIP3    H2 7942   3.066   0.242   3.515 -1.5573 -1.5574 -0.4605
 2660TIP3   OH2 7943   1.560   5.847   5.001  0.4742  0.0473 -0.1811
 2660TIP3    H1 7944   1.526   5.761   4.975 -0.8084  0.7097 -0.7819
 2660TIP3    H2 7945   1.621   5.828   5.072  0.5275 -1.3915 -0.5781
 2661TIP3   OH2 7946   3.911   0.951   5.351 -0.1167 -0.9499  0.7576
 2661TIP3    H1 7947   3.864   0.876   5.387 -0.2631 -1.1782  0.1020
 2661TIP3    H2 7948   3.864   0.973   5.271  0.3672 -0.6270  0.5536
 2662TIP3   OH2 7949   6.400   4.824   1.317  0.0277  0.0949  0.0985
 2662TIP3    H1 7950   6.354   4.850   1.237  1.8481 -2.9327 -2.1020
 2662TIP3    H2 7951   6.492   4.839   1.298  0.3907  1.7640  2.7184
 2663TIP3   OH2 7952   4.323   0.567   0.185 -0.4387 -0.1990  0.4865
 2663TIP3    H1 7953   4.405   0.518   0.186  0.0112  0.4810 -0.8901
 2663TIP3    H2 7954   4.257   0.502   0.210  0.5151 -0.6938  1.8532
 2664TIP3   OH2 7955   6.522   2.338   2.683 -0.0356 -0.1041  0.2499
 2664TIP3    H1 7956   6.603   2.316   2.730  0.7209  0.6300 -0.6453
 2664TIP3    H2 7957   6.464   2.264   2.699  0.8440 -0.6866  0.8649
 2665TIP3   OH2 7958   0.991   0.674   0.970  0.4673 -0.1524  0.0794
 2665TIP3    H1 7959   1.084   0.693   0.965  0.4927 -0.5534 -2.1896
 2665TIP3    H2 7960   0.986   0.583   0.998  0.7245  0.0951  0.9349
 2666TIP3   OH2 7961   0.069   3.214   5.515  0.3543 -0.0536 -0.5691
 2666TIP3    H1 7962   0.099   3.293   5.560 -0.9936  0.0012  0.2868
 2666TIP3    H2 7963   0.150   3.170   5.488  1.2970 -0.3059  2.3048
 2667TIP3   OH2 7964   2.224   5.831   0.239 -0.3892  0.1887  0.4479
 2667TIP3    H1 7965   2.216   5.785   0.155  1.1507  0.8891 -0.1177
 2667TIP3    H2 7966   2.277   5.774   0.294  0.1269  0.5374  0.3166
 2668TIP3   OH2 7967   3.037   0.683   0.787  0.8961 -0.4680  0.4794
 2668TIP3    H1 7968   3.115   0.660   0.837  1.0141  1.0046  1.0087
 2668TIP3    H2 7969   2.982   0.732   0.849 -0.0488 -0.7168 -0.1403
 2669TIP3   OH2 7970   3.900   4.157   2.588 -0.0756  0.1278  0.0694
 2669TIP3    H1 7971   3.817   4.113   2.569 -0.8530  1.7729 -0.5098
 2669TIP3    H2 7972   3.967   4.093   2.563 -1.1469 -1.1431  0.3245
 2670TIP3   OH2 7973   5.088   4.562   2.359 -0.2553  0.1062  0.2339
 2670TIP3    H1 7974   5.004   4.544   2.317 -0.1239 -0.5655  0.2462
 2670TIP3    H2 7975   5.074   4.644   2.406 -0.9935 -0.1442  0.4655
 2671TIP3   OH2 7976   6.937   2.023   4.889 -0.1093 -0.0516  0.0538
 2671TIP3    H1 7977   6.870   1.956   4.878 -0.2138  0.0722 -0.0787
 2671TIP3    H2 7978   6.953   2.026   4.984 -0.1706 -0.1983  0.0684
 2672TIP3   OH2 7979   6.290   1.417   2.082 -0.8020 -0.2717  0.6799
 2672TIP3    H1 7980   6.236   1.487   2.046 -1.2292  0.0629  1.9261
 2672TIP3    H2 7981   6.378   1.454   2.085 -0.3845 -0.9392 -1.6816
 2673TIP3   OH2 7982   3.268  -0.017   5.300 -0.1305  0.4744  0.3818
 2673TIP3    H1 7983   3.336   0.046   5.276 -1.9758  2.3062 -0.3467
 2673TIP3    H2 7984   3.191   0.012   5.252 -1.2508 -2.0243  0.5203
 2674TIP3   OH2 7985   6.362   6.663   0.884 -0.2019  0.1850 -0.0412
 2674TIP3    H1 7986   6.348   6.671   0.790  0.5242 -0.3936 -0.2105
 2674TIP3    H2 7987   6.453   6.636   0.893 -0.1810  0.4957  0.8454
 2675TIP3   OH2 7988   5.171   5.977   4.194  0.0448  0.2161 -0.1348
 2675TIP3    H1 7989   5.081   5.947   4.201 -0.3510  0.6176 -2.5366
 2675TIP3    H2 7990   5.164   6.069   4.170  1.0561  0.1031 -0.9576
 2676TIP3   OH2 7991   4.271   6.395   2.317 -0.0833  0.0314  0.0783
 2676TIP3    H1 7992   4.296   6.318   2.265 -0.7594 -1.2064  1.4996
 2676TIP3    H2 7993   4.190   6.369   2.360  0.5580  0.9082  1.9148
 2677TIP3   OH2 7994   1.108   4.617   0.032  0.1958 -0.1885  0.2306
 2677TIP3    H1 7995   1.146   4.657   0.111  0.8066  0.0287 -0.1658
 2677TIP3    H2 7996   1.029   4.668   0.016  0.4681  0.2550  0.2742
 2678TIP3   OH2 7997   6.293   2.762   0.995  0.4100  0.0253  0.5083
 2678TIP3    H1 7998   6.291   2.849   0.956 -2.0938 -0.2956 -0.3278
 2678TIP3    H2 7999   6.339   2.708   0.931 -0.6011  0.1998 -0.3962
 2679TIP3   OH2 8000   1.692   3.781   0.210 -0.7033  0.3277 -0.6696
 2679TIP3    H1 8001   1.755   3.849   0.235 -1.5225  1.0371 -0.4452
 2679TIP3    H2 8002   1.669   3.738   0.292 -0.6312  0.1876 -0.7239
 2680TIP3   OH2 8003   6.854   4.844   3.223 -0.4266 -0.1444  0.1609
 2680TIP3    H1 8004   6.878   4.754   3.244  1.2477 -0.0661 -1.1464
 2680TIP3    H2 8005   6.842   4.844   3.128  0.6560  1.2001 -0.0142
 2681TIP3   OH2 8006   1.339   3.641   4.044 -0.0005 -0.2894 -0.3196
 2681TIP3    H1 8007   1.419   3.680   4.010  0.4574 -1.6649 -0.9018
 2681TIP3    H2 8008   1.368   3.561   4.088 -0.8482  0.2102  1.2319
 2682TIP3   OH2 8009   5.585   4.856   3.892  0.0721  0.7898 -0.1409
 2682TIP3    H1 8010   5.520   4.786   3.891  1.0123 -0.0955 -0.4204
 2682TIP3    H2 8011   5.660   4.821   3.844  0.6624  1.8952 -0.0696
 2683TIP3   OH2 8012   5.909   3.979   2.079 -0.1266  0.0738 -0.1166
 2683TIP3    H1 8013   5.984   4.011   2.129  2.0608 -4.4423  0.0548
 2683TIP3    H2 8014   5.857   3.930   2.143  0.1202 -1.7533 -1.2208
 2684TIP3   OH2 8015   0.826   3.479   2.355  0.5464  0.2082 -0.5380
 2684TIP3    H1 8016   0.748   3.515   2.397 -0.6289  0.0047 -2.4198
 2684TIP3    H2 8017   0.886   3.554   2.348  0.6279  0.3335  1.0332
 2685TIP3   OH2 8018   0.950   0.078   5.863  0.2679 -0.6559  0.3341
 2685TIP3    H1 8019   0.876   0.116   5.816  1.9101  0.6495 -1.3259
 2685TIP3    H2 8020   1.004   0.153   5.889  1.0070 -1.5682  1.5878
 2686TIP3   OH2 8021   1.950   0.263   1.227 -0.0105  0.8152  0.2042
 2686TIP3    H1 8022   1.911   0.230   1.146 -1.3048  0.3871  0.9640
 2686TIP3    H2 8023   2.023   0.318   1.199  0.1704 -0.1152 -1.2016
 2687TIP3   OH2 8024   0.806   4.943   3.080  0.2806 -0.6465  0.1680
 2687TIP3    H1 8025   0.807   4.847   3.078  1.6867 -0.6578  0.3818
 2687TIP3    H2 8026   0.887   4.968   3.035 -0.0586  0.4419  0.1484
 2688TIP3   OH2 8027   5.944   5.747   3.137  0.0423  0.3538  0.0628
 2688TIP3    H1 8028   6.006   5.716   3.203 -0.3081  0.3069  0.3764
 2688TIP3    H2 8029   5.906   5.826   3.176 -0.1688  0.3242 -0.0815
 2689TIP3   OH2 8030   0.333   4.650   3.648  0.4212  0.5122  0.1883
 2689TIP3    H1 8031   0.317   4.703   3.570 -0.8168 -0.8163 -0.5373
 2689TIP3    H2 8032   0.260   4.587   3.648 -0.9965  1.8948  3.7104
 2690TIP3   OH2 8033   7.141   1.499   3.402  0.5064 -0.2649 -0.2677
 2690TIP3    H1 8034   7.169   1.588   3.381  2.1253 -0.5648  0.4684
 2690TIP3    H2 8035   7.081   1.510   3.476  0.5312  0.2431 -0.3207
 2691TIP3   OH2 8036   1.184   0.627   2.680 -0.7416  0.0049 -0.3721
 2691TIP3    H1 8037   1.181   0.549   2.735 -0.5459 -0.3607 -0.8738
 2691TIP3    H2 8038   1.246   0.606   2.611 -1.1480  0.3756 -0.8621
 2692TIP3   OH2 8039   4.770   3.690   4.278  0.5662  0.5271  0.0964
 2692TIP3    H1 8040   4.768   3.752   4.205 -1.8705 -1.1778 -1.4524
 2692TIP3    H2 8041   4.800   3.608   4.239  1.0595  0.0340  1.4624
 2693TIP3   OH2 8042   7.093   0.592   1.945 -0.4303  0.2976 -0.1121
 2693TIP3    H1 8043   7.014   0.550   1.979 -1.1610  0.5465 -1.4319
 2693TIP3    H2 8044   7.151   0.520   1.921 -0.2047  0.1130  0.9359
 2694TIP3   OH2 8045   0.052   1.143   0.680  0.0579  0.2334  0.5340
 2694TIP3    H1 8046   0.100   1.204   0.623  0.3500 -0.4269  0.0709
 2694TIP3    H2 8047   0.118   1.082   0.711 -0.3257 -0.1604  0.5841
 2695TIP3   OH2 8048   0.347   0.519   1.840  0.0888 -0.6801  0.3895
 2695TIP3    H1 8049   0.344   0.518   1.745  1.3870  0.5780  0.3030
 2695TIP3    H2 8050   0.422   0.464   1.862 -0.3521 -1.1625  0.7054
 2696TIP3   OH2 8051   2.529   2.512   5.849 -0.2340 -0.0291 -0.0809
 2696TIP3    H1 8052   2.530   2.443   5.915  1.3555  0.4768  0.4660
 2696TIP3    H2 8053   2.509   2.592   5.898 -0.8906  0.0869 -0.5249
 2697TIP3   OH2 8054   5.893   3.434   4.234 -0.1229 -0.5543  0.5309
 2697TIP3    H1 8055   5.870   3.522   4.204  0.7610 -0.5507 -0.1682
 2697TIP3    H2 8056   5.828   3.377   4.193 -0.4210 -0.2830  0.6211
 2698TIP3   OH2 8057   6.936   1.392   1.102 -0.4732  0.2281  0.1243
 2698TIP3    H1 8058   6.985   1.437   1.170 -0.5691 -0.0232  0.3592
 2698TIP3    H2 8059   6.877   1.333   1.149 -0.7250  0.2461 -0.1662
 2699TIP3   OH2 8060   5.142   6.551   4.533 -0.5212 -0.3042  0.0176
 2699TIP3    H1 8061   5.144   6.456   4.547 -1.2323 -0.1298  1.5243
 2699TIP3    H2 8062   5.204   6.585   4.598 -0.8814  0.3057  0.0426
 2700TIP3   OH2 8063   2.489   4.330   3.771 -0.0737  0.2579  0.0717
 2700TIP3    H1 8064   2.401   4.352   3.804  1.0571  1.8308  2.3243
 2700TIP3    H2 8065   2.527   4.414   3.747  1.4046 -0.1823  0.7734
 2701TIP3   OH2 8066   6.156   3.281   4.585  0.4628 -0.1522  0.8525
 2701TIP3    H1 8067   6.136   3.263   4.493  2.2599  0.7353  0.2386
 2701TIP3    H2 8068   6.153   3.196   4.627  1.3021 -0.8451 -0.4036
 2702TIP3   OH2 8069   1.698   5.424   4.476 -0.0887 -0.3852  0.3016
 2702TIP3    H1 8070   1.649   5.441   4.396  0.6435  0.5166  0.0188
 2702TIP3    H2 8071   1.662   5.342   4.510 -1.4563  0.0105 -0.1289
 2703TIP3   OH2 8072   3.253   5.276   5.289 -0.0171  0.0084  0.0468
 2703TIP3    H1 8073   3.308   5.268   5.367  0.0739 -0.4796 -0.0639
 2703TIP3    H2 8074   3.250   5.188   5.252 -0.1261  0.2181 -0.4580
 2704TIP3   OH2 8075   3.706   0.188   3.159 -0.6845 -0.0846 -0.0629
 2704TIP3    H1 8076   3.612   0.172   3.159 -0.6269 -0.5135  0.8608
 2704TIP3    H2 8077   3.715   0.273   3.203 -0.5975 -0.4122  0.5634
 2705TIP3   OH2 8078   1.985   1.943   5.627  0.1200 -0.3318 -0.3154
 2705TIP3    H1 8079   2.011   1.870   5.570  1.1986 -0.6923  0.6132
 2705TIP3    H2 8080   1.890   1.934   5.636  0.3818 -2.4913  0.9234
 2706TIP3   OH2 8081   5.242   5.211   0.088  0.2094  0.0119 -0.1866
 2706TIP3    H1 8082   5.160   5.241   0.127 -1.4596 -1.1238 -2.6191
 2706TIP3    H2 8083   5.276   5.147   0.151  0.3373  1.8632  1.7741
 2707TIP3   OH2 8084   0.451   6.047   4.957 -0.1347  0.3025  0.3793
 2707TIP3    H1 8085   0.447   6.122   5.016 -2.2245 -0.0650  0.8083
 2707TIP3    H2 8086   0.473   5.973   5.014  0.5158  0.3589  0.2063
 2708TIP3   OH2 8087   5.763   2.336   4.914  0.1298 -0.2504 -0.3478
 2708TIP3    H1 8088   5.720   2.354   4.998 -0.3966 -0.3509 -0.5938
 2708TIP3    H2 8089   5.846   2.383   4.920 -0.2165  0.3503 -0.0528
 2709TIP3   OH2 8090   0.396   4.933   5.492  0.0770 -0.2613  0.7106
 2709TIP3    H1 8091   0.382   4.841   5.513  0.0462 -0.8254 -1.4810
 2709TIP3    H2 8092   0.408   4.934   5.397  1.8306  1.7902  0.8716
 2710TIP3   OH2 8093   3.864   5.204   4.214 -0.5832 -0.6798  0.2555
 2710TIP3    H1 8094   3.901   5.149   4.283 -1.2766  0.3125  1.4521
 2710TIP3    H2 8095   3.819   5.275   4.260 -0.9681  0.0893 -1.2172
 2711TIP3   OH2 8096   4.646   3.328   0.974  0.5653  0.2727 -0.4601
 2711TIP3    H1 8097   4.559   3.327   0.936 -0.4316 -2.0880  1.6475
 2711TIP3    H2 8098   4.643   3.400   1.037  0.0366  0.0186 -0.1894
 2712TIP3   OH2 8099   2.509   1.104   0.172 -0.2974 -0.2948 -0.3530
 2712TIP3    H1 8100   2.453   1.120   0.096  0.1123  0.2072 -0.5576
 2712TIP3    H2 8101   2.597   1.095   0.135 -0.3071 -1.6623 -0.1000
 2713TIP3   OH2 8102   5.364   5.820   4.615 -0.2330 -0.1100  0.1191
 2713TIP3    H1 8103   5.373   5.728   4.591  1.3042 -0.4198  1.6760
 2713TIP3    H2 8104   5.422   5.831   4.690 -1.0351  1.9431  0.5083
 2714TIP3   OH2 8105   3.615   6.438   3.380 -0.4677 -0.1604  0.1091
 2714TIP3    H1 8106   3.681   6.432   3.310  0.2731 -1.5668  0.8810
 2714TIP3    H2 8107   3.640   6.370   3.442 -2.5922 -0.6545  0.4964
 2715TIP3   OH2 8108   4.923   4.286   0.380  0.3139 -0.2984 -0.0096
 2715TIP3    H1 8109   4.926   4.352   0.311 -1.1927  0.7319  0.8412
 2715TIP3    H2 8110   4.889   4.208   0.336  1.2982 -0.2851 -0.8420
 2716TIP3   OH2 8111   4.574   4.038   3.722 -0.1761 -0.7065 -0.9101
 2716TIP3    H1 8112   4.564   4.061   3.629  0.0920  1.3022 -0.4826
 2716TIP3    H2 8113   4.549   3.946   3.726 -1.2115 -0.5710 -2.8096
 2717TIP3   OH2 8114   5.452   2.130   0.125 -0.2250  0.1489  0.1117
 2717TIP3    H1 8115   5.363   2.136   0.090  0.0130 -0.4063 -0.6182
 2717TIP3    H2 8116   5.443   2.081   0.207 -0.1866 -3.2681 -1.7526
 2718TIP3   OH2 8117   4.586   3.568   2.596 -0.7355  0.5006  0.2435
 2718TIP3    H1 8118   4.524   3.622   2.644 -1.7818 -0.9137  0.5693
 2718TIP3    H2 8119   4.533   3.497   2.560  0.3289  0.5344 -1.4992
 2719TIP3   OH2 8120   2.138   5.386   5.736 -0.3898 -0.1396  0.0808
 2719TIP3    H1 8121   2.125   5.386   5.641  0.7714 -0.5097 -0.0931
 2719TIP3    H2 8122   2.105   5.471   5.764  0.8790  0.7445 -0.9197
 2720TIP3   OH2 8123   2.613   1.247   3.940 -0.2787  0.2041  0.3314
 2720TIP3    H1 8124   2.599   1.255   3.846 -0.4890 -0.4947  0.2941
 2720TIP3    H2 8125   2.708   1.256   3.951 -0.4015  1.9108  0.2435
 2721TIP3   OH2 8126   5.516   4.438   2.629  0.5141 -0.6252  0.0472
 2721TIP3    H1 8127   5.451   4.501   2.660  1.6224  0.1001  0.9848
 2721TIP3    H2 8128   5.485   4.354   2.661  1.6217  0.0923  3.3277
 2722TIP3   OH2 8129   6.868   5.360   4.979  0.3770 -0.0052 -0.9087
 2722TIP3    H1 8130   6.939   5.371   5.042 -0.1483  0.2921 -0.3599
 2722TIP3    H2 8131   6.792   5.335   5.032  0.0714 -0.3361 -1.4875
 2723TIP3   OH2 8132   1.299   5.420   1.001  0.4232  0.1507  0.2324
 2723TIP3    H1 8133   1.255   5.480   0.941 -1.0763 -0.4123  0.7222
 2723TIP3    H2 8134   1.283   5.333   0.964  2.4691 -0.0233 -0.4085
 2724TIP3   OH2 8135   5.698   6.120   0.440  0.4276  0.7489  0.5035
 2724TIP3    H1 8136   5.675   6.079   0.357  0.6968 -0.5259  1.0332
 2724TIP3    H2 8137   5.615   6.127   0.488  0.6124 -0.8054  1.0968
 2725TIP3   OH2 8138   3.044   2.063   2.861  0.0525 -0.8217 -0.6383
 2725TIP3    H1 8139   3.092   2.127   2.808  0.4220  0.5701  1.2738
 2725TIP3    H2 8140   3.101   1.985   2.862  1.4923  0.1963  0.1660
 2726TIP3   OH2 8141   0.641   0.180   5.057 -0.0844 -0.7450  0.0294
 2726TIP3    H1 8142   0.586   0.136   5.122 -1.5872 -0.0794 -0.7345
 2726TIP3    H2 8143   0.582   0.241   5.014  1.5150  0.7242 -0.1727
 2727TIP3   OH2 8144   0.854   3.880   3.901  0.9735  0.2345 -0.2483
 2727TIP3    H1 8145   0.878   3.788   3.888 -1.2158 -0.1947 -1.6643
 2727TIP3    H2 8146   0.759   3.882   3.894  0.8331  2.4112  1.2875
 2728TIP3   OH2 8147   0.959   2.001   0.389  0.0793  0.1402 -0.1814
 2728TIP3    H1 8148   0.987   1.910   0.390  1.0278  0.4045  1.6103
 2728TIP3    H2 8149   0.864   1.997   0.400  0.0335 -0.6254 -0.7432
 2729TIP3   OH2 8150   0.540   2.464   1.229  0.2282  0.2432 -0.6021
 2729TIP3    H1 8151   0.490   2.542   1.206  0.3451  0.7694  0.8140
 2729TIP3    H2 8152   0.525   2.452   1.323 -1.8689 -2.9834 -1.1918
 2730TIP3   OH2 8153   0.698   1.669   1.152 -0.1550  0.2522  0.1152
 2730TIP3    H1 8154   0.749   1.645   1.075  2.6528  1.4746  1.4747
 2730TIP3    H2 8155   0.663   1.756   1.133 -0.4430  0.0684 -0.2059
 2731TIP3   OH2 8156   1.352   4.010   5.521 -0.4587 -0.0095  0.1214
 2731TIP3    H1 8157   1.431   4.059   5.496  0.0660 -1.3884 -1.0246
 2731TIP3    H2 8158   1.283   4.076   5.519  0.6529  1.2777  1.3391
 2732TIP3   OH2 8159   4.247   6.705  -0.010 -0.3156 -0.2257 -0.0671
 2732TIP3    H1 8160   4.212   6.768   0.053 -0.3003 -2.4900  2.3551
 2732TIP3    H2 8161   4.328   6.674   0.031 -0.5248 -2.0813 -0.9771
 2733TIP3   OH2 8162   4.811   5.641   5.772 -0.2399  0.0284  0.3619
 2733TIP3    H1 8163   4.741   5.683   5.722 -0.5947  0.3685  1.1241
 2733TIP3    H2 8164   4.813   5.551   5.739 -0.3532  0.2881 -0.3724
 2734TIP3   OH2 8165   1.344   3.415   4.819 -0.3594 -0.1171  0.0830
 2734TIP3    H1 8166   1.291   3.476   4.768  1.0207 -0.5286 -1.9917
 2734TIP3    H2 8167   1.330   3.330   4.776  2.2488 -0.1579 -0.8748
 2735TIP3   OH2 8168   5.690   0.036   0.112  0.2937  0.0371 -0.4829
 2735TIP3    H1 8169   5.599   0.007   0.116  0.4998 -0.8184 -1.6169
 2735TIP3    H2 8170   5.685   0.130   0.128 -0.4631 -0.4118  2.5572
 2736TIP3   OH2 8171   6.797   6.703   2.438  0.0247  0.1613  0.4806
 2736TIP3    H1 8172   6.839   6.705   2.352  0.4077  0.6282  0.6771
 2736TIP3    H2 8173   6.867   6.722   2.500 -0.0713 -0.9922  0.9805
 2737TIP3   OH2 8174   3.277   3.783   2.474 -0.3269 -0.3051  0.0644
 2737TIP3    H1 8175   3.204   3.836   2.440  1.6962  2.5843 -0.1456
 2737TIP3    H2 8176   3.295   3.819   2.560  1.1709 -0.5885 -0.1014
 2738TIP3   OH2 8177   6.375   2.167   4.490  0.3503 -0.1565  0.1817
 2738TIP3    H1 8178   6.435   2.205   4.426  0.8792 -0.3661  0.5456
 2738TIP3    H2 8179   6.318   2.110   4.439 -0.3216  0.9543 -0.3416
 2739TIP3   OH2 8180   1.799   2.995   0.403 -0.1897 -0.4691  0.0752
 2739TIP3    H1 8181   1.739   3.012   0.330  2.2231 -0.9518 -2.1865
 2739TIP3    H2 8182   1.793   3.073   0.458 -0.6235  0.8421 -1.7467
 2740TIP3   OH2 8183   6.273   4.996   1.816 -0.1840 -0.1402  0.1680
 2740TIP3    H1 8184   6.215   5.048   1.761  0.9883  0.1167 -0.8681
 2740TIP3    H2 8185   6.331   4.952   1.754 -1.2254 -2.8499  0.9738
 2741TIP3   OH2 8186   5.345   2.506   3.217  0.0566  0.0757 -1.1558
 2741TIP3    H1 8187   5.260   2.534   3.253  0.2041  1.3603 -1.7369
 2741TIP3    H2 8188   5.325   2.427   3.168 -0.7742  0.2540 -1.1244
 2742TIP3   OH2 8189   1.885   2.440   3.204  0.3504 -0.1604  0.0821
 2742TIP3    H1 8190   1.971   2.442   3.247  0.8951  0.2859 -0.9963
 2742TIP3    H2 8191   1.885   2.518   3.148 -0.5180 -0.5032 -0.4055
 2743TIP3   OH2 8192   7.161   4.660   2.479  0.5064 -0.4754 -0.1133
 2743TIP3    H1 8193   7.174   4.754   2.469  0.8180 -0.6676 -1.7169
 2743TIP3    H2 8194   7.078   4.652   2.527 -0.1042  0.6154 -0.9449
 2744TIP3   OH2 8195   3.433   5.128   2.278  0.0721 -0.2850  0.0435
 2744TIP3    H1 8196   3.351   5.081   2.261 -0.0011  0.0065 -0.4045
 2744TIP3    H2 8197   3.406   5.207   2.325  0.1463 -0.4292  0.3327
 2745TIP3   OH2 8198   1.413   3.850   0.160  0.3114  0.3063 -0.5450
 2745TIP3    H1 8199   1.506   3.839   0.182  0.2795 -0.8269 -0.9272
 2745TIP3    H2 8200   1.398   3.944   0.170  0.7905  0.1861  2.3235
 2746TIP3   OH2 8201   5.703   5.064   1.169 -0.8538 -0.0572 -0.0079
 2746TIP3    H1 8202   5.684   5.119   1.245  0.1915 -1.5024  1.3791
 2746TIP3    H2 8203   5.642   4.991   1.178 -2.4685  0.9632 -2.0158
 2747TIP3   OH2 8204   2.787   1.910   4.112  0.3463 -0.4162 -0.2099
 2747TIP3    H1 8205   2.716   1.957   4.069 -0.0461 -1.3268 -0.5887
 2747TIP3    H2 8206   2.857   1.975   4.121 -1.0685  0.9822  1.6406
 2748TIP3   OH2 8207   6.206   5.558   4.601  0.9984 -0.1988 -0.6401
 2748TIP3    H1 8208   6.169   5.503   4.532  0.7435  1.2411 -1.7203
 2748TIP3    H2 8209   6.136   5.569   4.664  0.5774  0.0270 -1.1386
 2749TIP3   OH2 8210   3.121   5.147   0.709  0.1588 -0.4371 -0.2332
 2749TIP3    H1 8211   3.145   5.194   0.789 -1.3719  0.7841 -0.4469
 2749TIP3    H2 8212   3.201   5.103   0.682  1.4450  1.3599  0.4749
 2750TIP3   OH2 8213   6.966   2.057   4.036 -0.1259  0.2599  0.1524
 2750TIP3    H1 8214   7.000   2.093   3.954  0.7452 -0.1665  0.3159
 2750TIP3    H2 8215   7.043   2.018   4.079 -1.0135 -1.8515 -0.0461
 2751TIP3   OH2 8216   0.231   4.531   0.974  0.1618 -0.5665  0.1161
 2751TIP3    H1 8217   0.322   4.525   1.002  0.7880 -2.3531 -2.0510
 2751TIP3    H2 8218   0.198   4.441   0.980 -0.8740 -0.2813 -0.9247
 2752TIP3   OH2 8219   6.803   5.934   3.371 -0.0452 -0.7691  0.1804
 2752TIP3    H1 8220   6.790   5.982   3.289  1.3332 -0.6336  0.0148
 2752TIP3    H2 8221   6.891   5.897   3.364  0.5107  0.0789  2.0042
 2753TIP3   OH2 8222   4.790   3.338   5.047  0.0336 -0.4890  0.6502
 2753TIP3    H1 8223   4.713   3.295   5.009  0.8058 -1.4972  0.2003
 2753TIP3    H2 8224   4.803   3.415   4.992 -0.3667 -0.5750  0.4282
 2754TIP3   OH2 8225   1.614   4.394   1.684 -0.1305 -0.1475 -0.1098
 2754TIP3    H1 8226   1.588   4.413   1.594 -3.2895 -1.0203  0.5090
 2754TIP3    H2 8227   1.635   4.479   1.722  0.1675  0.3547 -1.3552
 2755TIP3   OH2 8228   1.952   0.087   4.097 -0.2693 -0.1913 -0.7415
 2755TIP3    H1 8229   1.935   0.159   4.036 -1.9208 -0.4348 -0.6078
 2755TIP3    H2 8230   2.047   0.088   4.110  0.1071  0.0677 -3.0719
 2756TIP3   OH2 8231   4.426   1.582   3.426  0.4483 -0.3172 -0.2080
 2756TIP3    H1 8232   4.471   1.499   3.437 -0.3067 -0.6713  0.2838
 2756TIP3    H2 8233   4.381   1.574   3.342 -2.8178 -1.9929  1.5261
 2757TIP3   OH2 8234   6.154   1.623   3.643  0.2473  0.1474  0.6525
 2757TIP3    H1 8235   6.216   1.693   3.622 -0.4198  0.5667  0.0664
 2757TIP3    H2 8236   6.210   1.548   3.665  0.9665  0.4446 -0.1011
 2758TIP3   OH2 8237   7.080   2.155   1.409 -0.0623 -0.1235 -0.1142
 2758TIP3    H1 8238   7.157   2.157   1.352  0.2322 -2.6945  0.0948
 2758TIP3    H2 8239   7.008   2.130   1.351 -0.5643  1.1993 -0.0931
 2759TIP3   OH2 8240   6.453   2.840   4.250  0.0992 -0.3087  0.6357
 2759TIP3    H1 8241   6.494   2.923   4.226  1.2569 -1.0447 -0.0010
 2759TIP3    H2 8242   6.524   2.776   4.246 -0.7275 -1.2945  1.3446
 2760TIP3   OH2 8243   2.112   3.904   2.599  0.0252  0.1958  0.2358
 2760TIP3    H1 8244   2.186   3.921   2.657  1.2939 -0.2403 -1.2160
 2760TIP3    H2 8245   2.078   3.992   2.578  0.6376  0.4509  0.2856
 2761TIP3   OH2 8246   6.335   5.112   2.496 -0.1752  0.4895  0.6581
 2761TIP3    H1 8247   6.330   5.076   2.407 -1.9817 -0.2926  1.0356
 2761TIP3    H2 8248   6.377   5.197   2.485  0.3324  0.0821 -0.8302
 2762TIP3   OH2 8249   1.940   4.314   0.554  0.2033  0.1813  0.5648
 2762TIP3    H1 8250   1.893   4.351   0.480  0.1368  0.5064  0.7689
 2762TIP3    H2 8251   1.916   4.369   0.629 -0.2414 -0.5283  0.9632
 2763TIP3   OH2 8252   3.921   5.743   1.334  0.0991 -0.6097 -0.2406
 2763TIP3    H1 8253   3.854   5.759   1.267  1.1668 -0.8927 -1.4187
 2763TIP3    H2 8254   3.968   5.826   1.342 -0.9995 -0.0918  1.3418
 2764TIP3   OH2 8255   4.703   4.335   5.699  0.3408  0.0257 -0.3347
 2764TIP3    H1 8256   4.653   4.377   5.629 -0.9810  0.2282  0.6787
 2764TIP3    H2 8257   4.689   4.241   5.685 -1.7813  0.0923  0.8683
 2765TIP3   OH2 8258   1.680   1.914   4.966  0.2640  0.4683  0.4294
 2765TIP3    H1 8259   1.667   1.994   4.914  0.2461  0.7366  0.8454
 2765TIP3    H2 8260   1.769   1.887   4.947 -0.5712 -0.9941 -1.9088
 2766TIP3   OH2 8261   5.123   4.657   0.871  0.4847 -0.1088 -0.1398
 2766TIP3    H1 8262   5.064   4.660   0.796 -0.3524  2.5889  0.4988
 2766TIP3    H2 8263   5.093   4.582   0.922 -0.1715 -0.8341 -1.5314
 2767TIP3   OH2 8264   3.489   5.547   5.786 -0.3372  0.5061 -0.5195
 2767TIP3    H1 8265   3.535   5.463   5.792 -0.2097  0.5507 -0.8849
 2767TIP3    H2 8266   3.445   5.556   5.871 -1.2364 -0.4445 -0.8635
 2768TIP3   OH2 8267   3.285   0.414   2.554 -0.2777  0.8804 -0.4900
 2768TIP3    H1 8268   3.377   0.407   2.529 -0.3606 -1.7516 -0.3737
 2768TIP3    H2 8269   3.285   0.409   2.649 -0.5628  0.6280 -0.5028
 2769TIP3   OH2 8270   3.437   6.543   0.863  0.1666 -0.0874  0.8309
 2769TIP3    H1 8271   3.376   6.610   0.894 -0.3013  0.5583 -1.3075
 2769TIP3    H2 8272   3.391   6.500   0.791  1.9502 -0.0398 -0.3962
 2770TIP3   OH2 8273   1.694   3.565   4.137  0.4907 -0.3806  0.1446
 2770TIP3    H1 8274   1.678   3.644   4.084 -1.2817  0.4166  1.7737
 2770TIP3    H2 8275   1.748   3.596   4.210  1.6358 -1.1706 -0.3331
 2771TIP3   OH2 8276   5.668   3.725   1.744  0.4584 -0.0467 -0.1313
 2771TIP3    H1 8277   5.648   3.705   1.836  1.4532  0.7748  0.2881
 2771TIP3    H2 8278   5.743   3.785   1.749  0.2769  0.3105 -1.4714
 2772TIP3   OH2 8279   7.080   3.945   1.462  0.1375 -0.4730  0.3340
 2772TIP3    H1 8280   7.081   3.956   1.367 -0.0030 -0.9778  0.2701
 2772TIP3    H2 8281   6.995   3.906   1.481  0.2802 -0.6439  0.6368
 2773TIP3   OH2 8282   1.138   0.980   1.684  0.3333 -0.2902 -0.0397
 2773TIP3    H1 8283   1.130   0.885   1.691 -1.0143 -0.1388  0.9257
 2773TIP3    H2 8284   1.227   1.000   1.714  0.6246 -1.2362 -0.2585
 2774TIP3   OH2 8285   1.696   2.901   1.987 -0.2146  0.1764 -0.2583
 2774TIP3    H1 8286   1.675   2.898   2.081  1.3147  1.3618  0.1759
 2774TIP3    H2 8287   1.757   2.828   1.973  0.5069  0.7216 -0.0362
 2775TIP3   OH2 8288   5.972   3.462   5.199 -0.0891  0.2235  0.1577
 2775TIP3    H1 8289   5.900   3.432   5.143  0.0542  0.4418 -0.1426
 2775TIP3    H2 8290   5.935   3.460   5.288 -1.0049  1.9527 -0.1535
 2776TIP3   OH2 8291   7.138   3.937   0.685  0.7484 -0.2990  0.4450
 2776TIP3    H1 8292   7.101   3.972   0.604  0.1921 -0.7391  0.5017
 2776TIP3    H2 8293   7.198   4.005   0.715 -0.1664  0.5358  0.4484
 2777TIP3   OH2 8294   1.498   1.053   0.989 -0.4499 -0.0475  0.3026
 2777TIP3    H1 8295   1.468   1.017   1.072 -0.1452 -1.3273 -0.1267
 2777TIP3    H2 8296   1.549   1.130   1.014  0.8696 -1.2343  1.4145
 2778TIP3   OH2 8297   3.294   3.532   3.984  0.0615  0.3216 -0.0248
 2778TIP3    H1 8298   3.238   3.521   3.908 -0.3867  0.1449  0.3257
 2778TIP3    H2 8299   3.382   3.543   3.948 -0.0432 -0.4685 -0.5501
 2779TIP3   OH2 8300   5.876   4.344   3.686  0.4872  0.7071  0.2345
 2779TIP3    H1 8301   5.781   4.349   3.681  0.5536  1.1511 -2.8624
 2779TIP3    H2 8302   5.894   4.254   3.712 -0.7772  0.5748  0.7198
 2780TIP3   OH2 8303   6.526   3.115   4.362  0.2309 -0.5908  0.4777
 2780TIP3    H1 8304   6.510   3.210   4.365  2.4288 -0.1185 -0.6279
 2780TIP3    H2 8305   6.602   3.106   4.305 -0.3080 -3.1046  0.0561
 2781TIP3   OH2 8306   0.264   6.763   1.581 -0.0621  0.2612  0.2477
 2781TIP3    H1 8307   0.218   6.842   1.553 -1.3676 -1.1322 -1.8013
 2781TIP3    H2 8308   0.277   6.713   1.501  2.8494 -0.5842  1.1408
 2782TIP3   OH2 8309   2.399   6.560   0.977 -0.1815 -0.8005  0.2114
 2782TIP3    H1 8310   2.340   6.538   1.049 -1.9481 -0.3594 -1.0155
 2782TIP3    H2 8311   2.474   6.601   1.018 -1.4463  0.0612  1.7648
 2783TIP3   OH2 8312   5.357   3.665   4.081 -0.2111 -0.2216  0.3111
 2783TIP3    H1 8313   5.399   3.738   4.127 -0.7511  0.2061  0.1257
 2783TIP3    H2 8314   5.276   3.701   4.047 -0.4510 -0.8943  0.1576
 2784TIP3   OH2 8315   6.836   2.052   3.284  0.4579  0.0337 -0.0694
 2784TIP3    H1 8316   6.761   2.111   3.292 -0.1164 -0.5212 -1.1657
 2784TIP3    H2 8317   6.911   2.105   3.309 -0.2279  0.7632  0.5083
 2785TIP3   OH2 8318   4.854   5.643   2.689  0.1057  0.1414  0.1158
 2785TIP3    H1 8319   4.785   5.650   2.756 -0.0238 -0.2507  0.0219
 2785TIP3    H2 8320   4.807   5.624   2.608  0.1276  1.9904 -0.3796
 2786TIP3   OH2 8321   6.925   1.504   3.626 -0.6129  0.2398  0.3744
 2786TIP3    H1 8322   6.843   1.466   3.592 -0.5987 -0.2116  0.8233
 2786TIP3    H2 8323   6.916   1.496   3.721 -0.7499  1.6871  0.4978
 2787TIP3   OH2 8324   3.824   2.409   3.104  0.2515 -0.0736  0.6370
 2787TIP3    H1 8325   3.882   2.355   3.157 -0.0526 -0.6050  0.4353
 2787TIP3    H2 8326   3.813   2.360   3.022 -0.5482 -0.0246  0.7072
 2788TIP3   OH2 8327   0.854   5.296   1.775 -0.6604  0.2604  0.2169
 2788TIP3    H1 8328   0.817   5.313   1.862 -0.9969 -0.1391  0.1602
 2788TIP3    H2 8329   0.942   5.333   1.778 -0.2397 -0.7469  1.1195
 2789TIP3   OH2 8330   5.037   1.909   4.111  0.3250  0.4271  0.3561
 2789TIP3    H1 8331   5.125   1.933   4.143  0.1190  0.7030  0.7236
 2789TIP3    H2 8332   4.977   1.957   4.168 -0.1107 -1.0650  1.2252
 2790TIP3   OH2 8333   2.337   3.233   1.972 -0.3991  0.9485  0.2345
 2790TIP3    H1 8334   2.262   3.280   2.011 -1.1422 -0.4367  0.5313
 2790TIP3    H2 8335   2.373   3.181   2.044 -0.3501  0.1360 -0.3650
 2791TIP3   OH2 8336   6.171   5.112   3.111 -0.6454 -0.0050 -0.4508
 2791TIP3    H1 8337   6.081   5.138   3.092  0.4755  3.7706 -1.4148
 2791TIP3    H2 8338   6.211   5.098   3.025  0.7066  2.7418 -0.3836
 2792TIP3   OH2 8339   1.245   2.745   0.861 -0.1121 -0.0833 -0.7785
 2792TIP3    H1 8340   1.332   2.713   0.838  0.6502  1.0330  0.3970
 2792TIP3    H2 8341   1.258   2.839   0.878 -1.7911  0.3714 -1.7704
 2793TIP3   OH2 8342   2.174   1.508   2.016  0.3111  0.1125  0.0383
 2793TIP3    H1 8343   2.116   1.501   1.940  0.1900  2.7083 -0.1719
 2793TIP3    H2 8344   2.260   1.479   1.983 -0.4857 -2.4170 -0.0082
 2794TIP3   OH2 8345   2.989   2.194   2.440 -0.2067  0.3986 -0.3577
 2794TIP3    H1 8346   2.988   2.275   2.389 -0.1930  0.6658  0.0658
 2794TIP3    H2 8347   2.896   2.175   2.456 -0.2288  0.1191 -0.7806
 2795TIP3   OH2 8348   2.182   1.399   0.962 -0.3671 -0.4105  0.4373
 2795TIP3    H1 8349   2.116   1.333   0.986  0.2271 -1.3076 -0.3278
 2795TIP3    H2 8350   2.132   1.479   0.948 -1.0820 -0.6259  1.5995
 2796TIP3   OH2 8351   4.487   2.272   1.209  0.1457  0.1065  0.5042
 2796TIP3    H1 8352   4.478   2.253   1.116 -0.0382  0.3838  0.4660
 2796TIP3    H2 8353   4.509   2.188   1.249  0.2202 -0.0118  0.2115
 2797TIP3   OH2 8354   1.019   3.486   2.955  0.5053  0.6837 -0.1634
 2797TIP3    H1 8355   0.938   3.483   3.006  0.8704 -1.9300  0.3902
 2797TIP3    H2 8356   0.998   3.443   2.872  1.2193  0.3247 -0.1719
 2798TIP3   OH2 8357   6.692   1.404   4.055  0.2927 -0.5297 -0.1754
 2798TIP3    H1 8358   6.767   1.431   4.001 -0.8201  2.0083 -0.5870
 2798TIP3    H2 8359   6.728   1.336   4.113  2.6825 -0.0289 -0.9523
 2799TIP3   OH2 8360   2.278   1.924   4.615  0.3686 -0.7682  0.0308
 2799TIP3    H1 8361   2.328   1.902   4.536  2.1725  0.7292  0.6663
 2799TIP3    H2 8362   2.318   1.870   4.684 -0.2029 -0.9717  0.2079
 2800TIP3   OH2 8363   6.689   1.693   2.102 -0.1134  0.2060  0.1724
 2800TIP3    H1 8364   6.757   1.757   2.083 -1.0074  1.5093  1.1852
 2800TIP3    H2 8365   6.652   1.721   2.186 -1.2088 -1.0643  0.1498
 2801TIP3   OH2 8366   0.071   3.615   3.441 -0.1472  0.1110  0.2301
 2801TIP3    H1 8367   0.032   3.636   3.356 -0.3229  1.4468  0.6249
 2801TIP3    H2 8368   0.040   3.684   3.499 -0.4384 -1.0490  1.5165
 2802TIP3   OH2 8369   2.296   4.125   5.867  0.3930 -0.2673  0.0730
 2802TIP3    H1 8370   2.236   4.050   5.864 -0.9907  0.8438 -0.8713
 2802TIP3    H2 8371   2.366   4.101   5.807  0.3457 -1.1083  0.3348
 2803TIP3   OH2 8372   6.444   4.186   4.038 -0.1608 -0.2434  0.0290
 2803TIP3    H1 8373   6.431   4.091   4.046  0.5364 -0.2549  1.2908
 2803TIP3    H2 8374   6.416   4.221   4.122  0.9270  0.5077  0.0985
 2804TIP3   OH2 8375   0.503   3.980   0.390  0.0742  0.0768  0.2418
 2804TIP3    H1 8376   0.521   4.054   0.448  0.7619 -0.0582  0.2084
 2804TIP3    H2 8377   0.412   3.957   0.409 -0.0867  0.7981  0.3975
 2805TIP3   OH2 8378   6.163   4.949   0.937 -0.6238  0.2843 -0.0546
 2805TIP3    H1 8379   6.100   5.020   0.954 -0.8161 -0.1333  1.1253
 2805TIP3    H2 8380   6.236   4.969   0.996 -0.9285 -0.7896  0.7081
 2806TIP3   OH2 8381   6.295   5.468   2.990  0.1184 -0.7822  0.6586
 2806TIP3    H1 8382   6.242   5.476   3.070 -0.7025 -0.1144  0.0722
 2806TIP3    H2 8383   6.385   5.481   3.019 -0.2087 -0.1097  1.4156
 2807TIP3   OH2 8384   7.173   4.585   4.957 -0.8603 -0.6161 -0.2832
 2807TIP3    H1 8385   7.140   4.620   5.040 -0.1518 -0.6302  0.0055
 2807TIP3    H2 8386   7.169   4.660   4.897 -2.7076 -0.9578 -0.6381
 2808TIP3   OH2 8387   2.114   6.540   2.279  0.3935  0.0839 -0.2212
 2808TIP3    H1 8388   2.140   6.624   2.317 -0.0731  0.2543 -0.2774
 2808TIP3    H2 8389   2.094   6.560   2.188 -0.1101 -0.0129 -0.1336
 2809TIP3   OH2 8390   0.776   0.267   3.507  0.7886 -0.0100  0.4440
 2809TIP3    H1 8391   0.769   0.243   3.415  1.0140  0.8525  0.1897
 2809TIP3    H2 8392   0.849   0.215   3.540 -0.2033 -1.4104  0.5226
 2810TIP3   OH2 8393   3.463   4.620   1.753  0.0218  0.3534 -0.5325
 2810TIP3    H1 8394   3.503   4.668   1.826  0.7216 -3.5077  1.9501
 2810TIP3    H2 8395   3.537   4.577   1.710 -0.6769  0.4700 -1.8926
 2811TIP3   OH2 8396   3.395   2.851   2.370  0.0615 -0.1465  0.4248
 2811TIP3    H1 8397   3.379   2.834   2.463 -0.6972 -1.4839  0.0728
 2811TIP3    H2 8398   3.469   2.912   2.369 -0.2761  0.3334  1.9158
 2812TIP3   OH2 8399   1.068   6.023   3.549 -0.0208  0.0645  0.1124
 2812TIP3    H1 8400   1.004   6.091   3.569  0.3076  0.5927 -0.5752
 2812TIP3    H2 8401   1.080   5.976   3.631  0.4860  1.4626  0.8850
 2813TIP3   OH2 8402   2.769   6.028   0.812 -0.2138  0.0720 -0.2989
 2813TIP3    H1 8403   2.677   6.053   0.801 -0.1702  0.7897  0.7963
 2813TIP3    H2 8404   2.767   5.933   0.820 -0.6721 -0.0832 -1.9675
 2814TIP3   OH2 8405   3.853   3.040   4.223 -0.3278 -0.0038 -0.4355
 2814TIP3    H1 8406   3.941   3.063   4.194 -0.0254  0.8059  0.9983
 2814TIP3    H2 8407   3.827   2.966   4.168  0.5744  0.8067 -1.9965
 2815TIP3   OH2 8408   2.279   2.620   4.300  0.0142  0.0303 -0.0356
 2815TIP3    H1 8409   2.348   2.554   4.297  0.5883  0.5809  0.7919
 2815TIP3    H2 8410   2.309   2.684   4.365 -0.4536  1.1930 -0.9129
 2816TIP3   OH2 8411   4.089   5.687   2.562  0.2344  0.0747  0.2870
 2816TIP3    H1 8412   4.072   5.749   2.491  0.3922 -0.6615 -0.4062
 2816TIP3    H2 8413   4.051   5.728   2.639  0.3436  1.0398 -0.1557
 2817TIP3   OH2 8414   6.420   2.131   3.662 -0.0469  0.0149  0.7329
 2817TIP3    H1 8415   6.452   2.217   3.689 -0.2768 -0.1876  1.6813
 2817TIP3    H2 8416   6.435   2.129   3.567  1.6009  0.3985  0.9523
 2818TIP3   OH2 8417   5.302   2.391   5.891 -0.1610  0.6106  0.2118
 2818TIP3    H1 8418   5.378   2.389   5.834 -0.6705 -1.6456 -0.4857
 2818TIP3    H2 8419   5.231   2.422   5.836 -0.0063  1.6445  0.5665
 2819TIP3   OH2 8420   0.301   6.595   2.442 -0.9581 -0.0807  0.6438
 2819TIP3    H1 8421   0.381   6.630   2.402 -1.2550  0.4390  0.4949
 2819TIP3    H2 8422   0.293   6.643   2.524  0.3283 -2.0197  1.9798
 2820TIP3   OH2 8423   1.678   5.489   3.303  0.0981  0.1345  0.2795
 2820TIP3    H1 8424   1.715   5.401   3.301  1.0261  0.4953 -1.7269
 2820TIP3    H2 8425   1.672   5.511   3.396 -0.2489 -2.0558  0.8361
 2821TIP3   OH2 8426   1.036   2.525   2.366 -0.4895  0.3533  0.5671
 2821TIP3    H1 8427   0.986   2.523   2.284 -1.6427 -0.0490  1.2577
 2821TIP3    H2 8428   1.087   2.444   2.365 -0.3588  0.4414  0.1543
 2822TIP3   OH2 8429   3.811   0.755   5.027  0.1168 -0.4891  0.0286
 2822TIP3    H1 8430   3.778   0.843   5.046  0.6292 -0.7204  2.1887
 2822TIP3    H2 8431   3.774   0.699   5.095  1.5135 -1.5321 -0.0186
 2823TIP3   OH2 8432   4.906   4.533   2.143  0.2812  0.7651 -0.3707
 2823TIP3    H1 8433   4.932   4.621   2.118 -1.6692  1.0308 -1.6979
 2823TIP3    H2 8434   4.826   4.546   2.194  0.3379 -0.2051 -0.0110
 2824TIP3   OH2 8435   2.045   2.090   2.703 -0.3837 -0.0111 -0.5636
 2824TIP3    H1 8436   2.056   1.999   2.731 -0.7646 -0.0235 -0.4516
 2824TIP3    H2 8437   2.043   2.085   2.607 -0.0231 -0.0757 -0.5697
 2825TIP3   OH2 8438   5.186   4.394   2.098  0.3173 -0.4210  0.2112
 2825TIP3    H1 8439   5.097   4.430   2.101  0.3928 -0.3204  2.0238
 2825TIP3    H2 8440   5.242   4.462   2.134  1.0575 -0.7383 -0.3052
 2826TIP3   OH2 8441   5.341   0.291   4.651 -0.3159  0.8811  0.2483
 2826TIP3    H1 8442   5.386   0.373   4.671  0.8365 -0.4863  4.2200
 2826TIP3    H2 8443   5.411   0.234   4.618 -0.3972  0.5563  0.6288
 2827TIP3   OH2 8444   7.048   1.715   1.064 -0.4116  0.2972  0.1471
 2827TIP3    H1 8445   6.998   1.710   1.146 -0.4896 -0.1895  0.0719
 2827TIP3    H2 8446   7.116   1.780   1.081  0.1469 -0.4636  0.9054
 2828TIP3   OH2 8447   3.589   2.033   3.507 -0.1373  0.1873 -0.4835
 2828TIP3    H1 8448   3.645   2.069   3.438  2.4516  2.0485  2.3214
 2828TIP3    H2 8449   3.512   2.089   3.507  0.3186  0.8297 -1.1943
 2829TIP3   OH2 8450   1.101   5.352   5.737  0.1629 -0.1622  0.3149
 2829TIP3    H1 8451   1.144   5.392   5.662  0.4431  1.2954  1.2098
 2829TIP3    H2 8452   1.008   5.348   5.713  0.2669  0.1931 -0.1483
 2830TIP3   OH2 8453   5.676   5.174   4.521  0.0235  0.2281  0.0317
 2830TIP3    H1 8454   5.743   5.117   4.483  0.9378 -0.8881  2.9746
 2830TIP3    H2 8455   5.646   5.126   4.598 -0.7980  2.7586  1.3901
 2831TIP3   OH2 8456   2.752   2.697   0.940 -0.6823  0.0201  0.2946
 2831TIP3    H1 8457   2.695   2.773   0.950 -1.6831 -0.9561  2.8959
 2831TIP3    H2 8458   2.807   2.718   0.865 -2.5363  2.2433 -0.5668
 2832TIP3   OH2 8459   4.235   3.599   0.078 -0.1852  0.3090  1.0408
 2832TIP3    H1 8460   4.146   3.599   0.112 -0.3384  0.1358  0.6446
 2832TIP3    H2 8461   4.272   3.515   0.106 -0.2075  0.3018  1.0479
 2833TIP3   OH2 8462   6.379   1.356   1.770  0.4234 -0.4190 -0.5573
 2833TIP3    H1 8463   6.381   1.402   1.854 -1.5726 -0.1862 -0.5928
 2833TIP3    H2 8464   6.383   1.264   1.794 -1.6917 -0.4263 -0.0501
 2834TIP3   OH2 8465   7.046   1.020   2.544  0.4180  0.2643  0.0022
 2834TIP3    H1 8466   7.073   1.062   2.463  0.9096 -1.4914 -0.7818
 2834TIP3    H2 8467   6.986   0.950   2.517  0.0037  0.1144  1.2117
 2835TIP3   OH2 8468   1.062   2.274   2.084 -0.0701 -0.4834 -0.4657
 2835TIP3    H1 8469   1.094   2.232   2.164  0.8302 -1.8935 -1.5356
 2835TIP3    H2 8470   1.023   2.203   2.033 -1.3001  0.5192 -0.9966
 2836TIP3   OH2 8471   0.950   4.512   1.681  0.3230  0.1507 -0.0286
 2836TIP3    H1 8472   0.972   4.484   1.770 -1.8373 -0.3187  0.4100
 2836TIP3    H2 8473   1.015   4.468   1.626  0.7818 -0.7746  1.1970
 2837TIP3   OH2 8474   2.209   5.399   5.476  0.2114 -0.1673  0.4729
 2837TIP3    H1 8475   2.265   5.477   5.470  1.3418 -0.9229  0.7717
 2837TIP3    H2 8476   2.209   5.363   5.387 -2.1615  1.3488 -0.2431
 2838TIP3   OH2 8477   2.557   4.927   2.409 -0.4815 -0.4159  0.4983
 2838TIP3    H1 8478   2.535   4.937   2.502 -1.2143 -1.4460  0.4514
 2838TIP3    H2 8479   2.588   4.836   2.401  2.1368  0.4271  0.2132
 2839TIP3   OH2 8480   5.394   3.872   5.156 -0.2227  0.4146  0.1254
 2839TIP3    H1 8481   5.451   3.911   5.090 -1.1199  3.4221  0.9199
 2839TIP3    H2 8482   5.449   3.809   5.202  0.5555 -1.3964 -3.0705
 2840TIP3   OH2 8483   6.236   6.658   1.126 -0.7108  0.1004 -0.3774
 2840TIP3    H1 8484   6.272   6.652   1.038 -1.3416  0.6970 -0.6861
 2840TIP3    H2 8485   6.291   6.601   1.179  0.6271  0.9152 -0.8536
 2841TIP3   OH2 8486   5.123   5.703   0.605  0.1113 -0.3592  0.0697
 2841TIP3    H1 8487   5.095   5.725   0.694  1.0299 -0.4192  0.3889
 2841TIP3    H2 8488   5.204   5.652   0.618  0.1430 -0.5334 -0.7927
 2842TIP3   OH2 8489   5.639   3.379   0.371 -0.0431 -0.7314  0.7310
 2842TIP3    H1 8490   5.610   3.290   0.391 -1.2383 -0.5063  0.1360
 2842TIP3    H2 8491   5.567   3.434   0.401  1.3954  0.2149  2.6763
 2843TIP3   OH2 8492   7.064   2.090   2.892 -0.2384  0.2355  0.4340
 2843TIP3    H1 8493   7.022   2.164   2.935 -2.8439 -1.3602  0.8455
 2843TIP3    H2 8494   6.992   2.035   2.863  1.5578 -1.3729 -1.3104
 2844TIP3   OH2 8495   2.700   2.343   5.275 -0.0455 -0.3757 -0.1407
 2844TIP3    H1 8496   2.670   2.264   5.321 -0.0465 -0.2488  0.0775
 2844TIP3    H2 8497   2.792   2.323   5.253  1.0397  0.7881  2.7813
 2845TIP3   OH2 8498   4.345   4.357   4.487  0.0278 -0.3207 -0.1773
 2845TIP3    H1 8499   4.290   4.412   4.543 -0.0630 -1.7805  1.2547
 2845TIP3    H2 8500   4.307   4.367   4.400  0.4490  2.3826 -0.1469
 2846TIP3   OH2 8501   2.729   3.939   4.039 -0.4552 -0.0656 -0.7510
 2846TIP3    H1 8502   2.745   3.922   4.132  1.1312 -0.0979 -1.0107
 2846TIP3    H2 8503   2.791   4.007   4.015 -0.5134 -0.3889 -1.8956
 2847TIP3   OH2 8504   4.576   4.509   1.777  0.2810 -0.1939  0.3763
 2847TIP3    H1 8505   4.597   4.432   1.829 -3.5368 -1.7342 -0.0240
 2847TIP3    H2 8506   4.550   4.575   1.841  1.8644  0.2049  0.6371
 2848TIP3   OH2 8507   2.515   3.298   0.570  0.1878 -0.4450 -0.0532
 2848TIP3    H1 8508   2.468   3.293   0.487 -1.5416  0.3796  0.8329
 2848TIP3    H2 8509   2.451   3.270   0.635  1.0491  0.3757  1.1685
 2849TIP3   OH2 8510   3.358   6.430   0.624  0.4561 -0.3006  0.0816
 2849TIP3    H1 8511   3.365   6.461   0.534 -1.1517 -1.0193 -0.3473
 2849TIP3    H2 8512   3.394   6.341   0.622 -0.5958 -0.7499 -0.1586
 2850TIP3   OH2 8513   1.682   4.968   0.770 -0.4740  0.1054 -0.0537
 2850TIP3    H1 8514   1.701   5.024   0.695  1.1673 -1.6633 -1.0580
 2850TIP3    H2 8515   1.754   4.985   0.831 -0.3362 -0.4126 -0.0714
 2851TIP3   OH2 8516   2.183   5.960   4.437  0.2525 -0.9109 -0.1274
 2851TIP3    H1 8517   2.131   5.955   4.518  0.2548  0.0240 -0.0669
 2851TIP3    H2 8518   2.265   5.916   4.460  0.4192 -0.2827  0.5192
 2852TIP3   OH2 8519   3.555   2.392   2.147 -0.0715 -0.0281 -0.3100
 2852TIP3    H1 8520   3.490   2.385   2.077  1.4026  1.2420 -1.8600
 2852TIP3    H2 8521   3.635   2.421   2.104  1.4062 -0.9659  1.6435
 2853TIP3   OH2 8522   5.651   0.303   2.066 -0.1604  0.3407  0.2837
 2853TIP3    H1 8523   5.741   0.328   2.087  0.3020 -1.5840  0.8137
 2853TIP3    H2 8524   5.650   0.297   1.970 -0.0127  1.3003  0.2123
 2854TIP3   OH2 8525   5.028   3.560   0.656 -0.8029 -0.3366 -0.6680
 2854TIP3    H1 8526   4.984   3.633   0.612 -2.4722 -1.0702 -0.2813
 2854TIP3    H2 8527   4.997   3.564   0.746  0.7812 -0.2537 -0.0991
 2855TIP3   OH2 8528   5.980   1.223   0.415  0.1011 -0.5056  0.5060
 2855TIP3    H1 8529   5.944   1.306   0.446 -0.5445 -1.1841  1.6684
 2855TIP3    H2 8530   5.939   1.209   0.330 -1.1239 -0.4382  1.0594
 2856TIP3   OH2 8531   4.314   3.846   1.828 -0.4649  0.0449 -0.3639
 2856TIP3    H1 8532   4.277   3.758   1.836  0.0006 -0.1019  0.3036
 2856TIP3    H2 8533   4.305   3.884   1.915 -2.2992  1.3569 -1.0693
 2857TIP3   OH2 8534   2.483   5.680   2.794  0.2009  0.1955  1.2530
 2857TIP3    H1 8535   2.540   5.680   2.716 -1.0760 -0.8473  0.2837
 2857TIP3    H2 8536   2.395   5.695   2.759 -0.3208  0.3195  2.5774
 2858TIP3   OH2 8537   1.320   5.064   3.996  0.5960  0.1414  0.1268
 2858TIP3    H1 8538   1.325   5.110   3.912  0.8083  0.5483  0.3594
 2858TIP3    H2 8539   1.241   5.011   3.989  0.8578 -0.1805 -0.5056
 2859TIP3   OH2 8540   3.253   5.111   1.529 -0.0132 -0.0502 -0.1558
 2859TIP3    H1 8541   3.158   5.106   1.542 -0.1362  0.6386 -0.7781
 2859TIP3    H2 8542   3.274   5.203   1.542  0.6935 -0.3189  0.7280
 2860TIP3   OH2 8543   3.563   2.473   3.093 -0.0617  0.5597 -0.1979
 2860TIP3    H1 8544   3.557   2.430   3.179 -1.0941  2.1671  0.5782
 2860TIP3    H2 8545   3.657   2.483   3.079  0.1781 -1.1341 -0.0122
 2861TIP3   OH2 8546   5.151   4.678   0.325 -0.4117 -0.0388 -0.3765
 2861TIP3    H1 8547   5.092   4.733   0.377  1.0546  2.7663 -1.4060
 2861TIP3    H2 8548   5.154   4.721   0.240  1.3880 -1.3598 -1.0480
 2862TIP3   OH2 8549   2.675   1.587   1.971 -0.4692  0.0624 -0.5833
 2862TIP3    H1 8550   2.686   1.540   1.888 -0.7493 -1.4510  0.1984
 2862TIP3    H2 8551   2.752   1.564   2.022 -0.9719 -0.1556  0.0946
 2863TIP3   OH2 8552   6.881   0.077   0.316  0.5632 -0.4437  0.1606
 2863TIP3    H1 8553   6.791   0.046   0.310  0.8194 -1.0521 -0.9914
 2863TIP3    H2 8554   6.933   0.006   0.278  1.2873  0.8270 -1.3799
 2864TIP3   OH2 8555   4.589   1.396   1.707 -0.1353  0.1426 -0.2727
 2864TIP3    H1 8556   4.651   1.375   1.638 -0.7365 -0.0236 -0.7785
 2864TIP3    H2 8557   4.642   1.404   1.786  0.4728 -0.3755 -0.6193
 2865TIP3   OH2 8558   2.358   5.462   3.895 -0.4026 -0.3123 -0.4189
 2865TIP3    H1 8559   2.340   5.486   3.804 -0.9910  0.4352 -0.1192
 2865TIP3    H2 8560   2.272   5.462   3.938  0.0368  1.3930  0.5902
 2866TIP3   OH2 8561   4.903   5.856   4.121  0.7062  0.1987  0.4505
 2866TIP3    H1 8562   4.862   5.793   4.061 -0.4602  0.6454  0.7533
 2866TIP3    H2 8563   4.831   5.889   4.174  1.3098  1.6939  0.3935
 2867TIP3   OH2 8564   2.675   4.616   1.394 -0.2087  0.1736  0.6756
 2867TIP3    H1 8565   2.669   4.631   1.300 -0.9356  0.6217  0.7772
 2867TIP3    H2 8566   2.591   4.648   1.428  1.0329  2.4893  1.7905
 2868TIP3   OH2 8567   1.484   0.086   5.202  0.0740 -0.1303  0.4460
 2868TIP3    H1 8568   1.477   0.031   5.125  2.8258 -0.5231  0.3553
 2868TIP3    H2 8569   1.428   0.162   5.183  0.1523 -0.5354 -1.6288
 2869TIP3   OH2 8570   0.738   0.601   4.650 -0.0592 -0.1609  0.2584
 2869TIP3    H1 8571   0.643   0.612   4.658  0.0864  1.8215 -0.0633
 2869TIP3    H2 8572   0.771   0.691   4.639  1.8813 -0.7803  0.6750
 2870TIP3   OH2 8573   5.581   3.960   4.963  0.9172 -0.4145 -0.4642
 2870TIP3    H1 8574   5.672   3.965   4.993  0.7916 -1.5548  0.1445
 2870TIP3    H2 8575   5.587   3.921   4.875  1.0744  0.4680 -0.8638
 2871TIP3   OH2 8576   1.994   2.022   4.419  0.1667 -0.0633 -0.2887
 2871TIP3    H1 8577   1.984   1.966   4.496 -1.7160  0.6429  0.0438
 2871TIP3    H2 8578   1.982   1.962   4.345  2.8372 -0.9082 -0.1494
 2872TIP3   OH2 8579   2.267   5.712   5.603 -0.0066  0.0815  0.4685
 2872TIP3    H1 8580   2.288   5.790   5.654  0.1843  0.4539 -0.1762
 2872TIP3    H2 8581   2.327   5.715   5.529  2.3068 -2.3621  2.0354
 2873TIP3   OH2 8582   2.063   0.565   0.272 -0.7977 -0.2259 -0.0474
 2873TIP3    H1 8583   1.986   0.608   0.309 -1.0258 -1.8207  1.4596
 2873TIP3    H2 8584   2.135   0.589   0.331 -0.5387 -0.3980 -0.2892
 2874TIP3   OH2 8585   7.146   6.268   1.045 -0.0413 -0.3720  0.1419
 2874TIP3    H1 8586   7.125   6.358   1.073 -0.1075 -0.1261 -0.6625
 2874TIP3    H2 8587   7.171   6.223   1.126  0.2504  0.4416  0.5184
 2875TIP3   OH2 8588   4.356   6.063   1.128  0.3900  0.5848 -0.3419
 2875TIP3    H1 8589   4.394   6.071   1.215  2.0451 -0.8680 -0.8641
 2875TIP3    H2 8590   4.310   5.979   1.129  0.3340  0.6067 -0.8326
 2876TIP3   OH2 8591   6.691   4.181   5.426 -0.4364  0.4014  0.4197
 2876TIP3    H1 8592   6.605   4.179   5.467  0.0879  2.5393  1.7998
 2876TIP3    H2 8593   6.686   4.251   5.361  0.9632  2.5902  2.4932
 2877TIP3   OH2 8594   0.538   2.734   2.569 -0.1902 -0.1273  0.3277
 2877TIP3    H1 8595   0.623   2.696   2.588  0.5040  1.3889  0.4434
 2877TIP3    H2 8596   0.481   2.660   2.550  0.6239 -1.3268  2.2888
 2878TIP3   OH2 8597   2.133   3.632   4.927  0.0135  0.0490 -0.1505
 2878TIP3    H1 8598   2.181   3.710   4.953 -1.8360  0.5032  2.3155
 2878TIP3    H2 8599   2.074   3.663   4.858  0.2886  0.4843 -0.1975
 2879TIP3   OH2 8600   2.626   6.056   0.418 -0.3675  0.1039  0.1266
 2879TIP3    H1 8601   2.593   6.094   0.500 -0.6509  0.4336 -0.1420
 2879TIP3    H2 8602   2.686   5.987   0.447 -0.9594 -0.2154  0.6214
 2880TIP3   OH2 8603   0.871   3.376   0.730 -0.4962 -0.2701  0.6000
 2880TIP3    H1 8604   0.826   3.461   0.729 -0.2815 -0.1512  0.7932
 2880TIP3    H2 8605   0.912   3.372   0.817  0.2462 -0.1771  0.2594
 2881TIP3   OH2 8606   1.040   5.089   4.859 -0.0629 -0.0001 -0.2927
 2881TIP3    H1 8607   1.067   5.009   4.814  2.3701  1.0930 -0.9500
 2881TIP3    H2 8608   1.056   5.158   4.794  0.8955  1.3322  1.3057
 2882TIP3   OH2 8609   6.800   3.588   4.063 -0.3581 -0.1766 -0.1745
 2882TIP3    H1 8610   6.883   3.546   4.085 -0.0135  0.8362  0.5151
 2882TIP3    H2 8611   6.821   3.648   3.991 -0.3371  0.5840  0.4550
 2883TIP3   OH2 8612   6.532   6.591   0.044 -0.4898 -0.1716 -0.3582
 2883TIP3    H1 8613   6.442   6.608   0.072 -0.2947 -1.1993  0.9894
 2883TIP3    H2 8614   6.579   6.571   0.125  0.5464 -1.4086 -1.2184
 2884TIP3   OH2 8615   6.900   1.509   3.033  0.4745  0.1106 -0.9960
 2884TIP3    H1 8616   6.879   1.578   3.096  1.3578 -0.0174 -0.5462
 2884TIP3    H2 8617   6.983   1.473   3.064 -0.0891 -1.3216 -1.0906
 2885TIP3   OH2 8618   3.828   4.703   4.659 -0.4834  0.5143  0.3008
 2885TIP3    H1 8619   3.805   4.794   4.676 -0.8788  0.9193 -2.0326
 2885TIP3    H2 8620   3.761   4.672   4.597  1.0331 -0.5461 -0.9035
 2886TIP3   OH2 8621   0.722   3.011   1.214 -0.6030  0.1292  0.6413
 2886TIP3    H1 8622   0.795   3.025   1.273 -1.1975 -0.7499  1.5977
 2886TIP3    H2 8623   0.757   3.031   1.127  0.3195  1.2676  1.2545
 2887TIP3   OH2 8624   6.124   5.570   1.061 -0.3513  0.2421  0.0537
 2887TIP3    H1 8625   6.207   5.529   1.039 -0.4819  0.1085 -0.1893
 2887TIP3    H2 8626   6.101   5.622   0.984 -0.2966  0.5971  0.2747
 2888TIP3   OH2 8627   6.714   1.314   2.351  0.5650 -0.9396 -0.5963
 2888TIP3    H1 8628   6.760   1.265   2.420 -0.2506 -0.4658  0.3006
 2888TIP3    H2 8629   6.639   1.259   2.329 -0.9217  0.2827  1.1189
 2889TIP3   OH2 8630   1.414   3.270   0.508  0.8028 -0.1272 -0.2185
 2889TIP3    H1 8631   1.476   3.331   0.468  0.8554  0.7295  1.0982
 2889TIP3    H2 8632   1.460   3.185   0.508  1.1545  0.0550 -1.0943
 2890TIP3   OH2 8633   1.814   6.682   2.298 -0.0406  0.7741  0.5525
 2890TIP3    H1 8634   1.852   6.635   2.372 -1.4171 -0.9341  0.2588
 2890TIP3    H2 8635   1.840   6.631   2.221  0.3880  1.8545 -0.0469
 2891TIP3   OH2 8636   1.351   6.088   1.829 -0.3405 -0.0506 -0.2512
 2891TIP3    H1 8637   1.445   6.096   1.815 -0.3902 -0.2518 -0.7147
 2891TIP3    H2 8638   1.341   6.014   1.888 -0.2396 -0.3530 -0.6131
 2892TIP3   OH2 8639   4.613   3.150   0.640  0.0453 -0.0900 -0.0526
 2892TIP3    H1 8640   4.621   3.246   0.638  1.8455 -0.2168 -1.2435
 2892TIP3    H2 8641   4.552   3.130   0.569  2.9627  0.0324 -2.8386
 2893TIP3   OH2 8642   1.296   6.198   2.588 -0.3912 -0.8173  0.6142
 2893TIP3    H1 8643   1.298   6.157   2.502 -1.2925  1.0435 -0.3463
 2893TIP3    H2 8644   1.204   6.214   2.606 -0.2133 -1.0879  1.8972
 2894TIP3   OH2 8645   5.022   3.729   3.042  0.1089  0.2870 -0.5316
 2894TIP3    H1 8646   4.926   3.735   3.038  0.0110 -0.6784  0.0841
 2894TIP3    H2 8647   5.042   3.732   3.135  0.8439  2.4259 -0.7107
 2895TIP3   OH2 8648   0.718   2.180   0.569 -0.0232  0.0417 -0.2443
 2895TIP3    H1 8649   0.663   2.133   0.507  0.5715  0.2313 -0.9351
 2895TIP3    H2 8650   0.680   2.162   0.655 -0.7583 -0.3623 -0.6518
 2896TIP3   OH2 8651   2.133   6.287   4.606  0.0275 -0.0495 -0.2579
 2896TIP3    H1 8652   2.178   6.203   4.615  0.6163  0.3265  0.3566
 2896TIP3    H2 8653   2.159   6.337   4.684  1.0689  1.3482 -1.4424
 2897TIP3   OH2 8654   6.156   5.277   4.487  0.3229 -1.2760  0.5342
 2897TIP3    H1 8655   6.214   5.235   4.551 -1.3416 -1.2151  2.1612
 2897TIP3    H2 8656   6.083   5.216   4.477 -0.5858 -0.2266  0.5164
 2898TIP3   OH2 8657   0.085   5.149   1.585  0.3917  0.0899  0.8280
 2898TIP3    H1 8658   0.075   5.055   1.600 -2.0404  0.1868  0.2803
 2898TIP3    H2 8659   0.111   5.156   1.493 -1.1729 -0.0518  0.3409
 2899TIP3   OH2 8660   6.382   4.280   5.514  0.3755  0.7113  0.2157
 2899TIP3    H1 8661   6.322   4.230   5.568  2.1844  0.4885  2.1730
 2899TIP3    H2 8662   6.381   4.368   5.551  0.8529  0.8461 -0.0719
 2900TIP3   OH2 8663   1.004   5.156   5.352  0.2506 -0.5269 -0.6191
 2900TIP3    H1 8664   0.994   5.138   5.446  1.5479  1.3309 -0.0803
 2900TIP3    H2 8665   1.006   5.251   5.345 -0.3072 -0.6102 -2.6169
 2901TIP3   OH2 8666   6.080   0.089   3.096 -0.0940 -0.2790 -0.0395
 2901TIP3    H1 8667   5.992   0.100   3.130  0.2819  0.2913  0.7729
 2901TIP3    H2 8668   6.092  -0.006   3.090 -0.2162 -0.4029  1.3336
 2902TIP3   OH2 8669   4.929   1.360   2.235 -0.6690  0.0977  0.1030
 2902TIP3    H1 8670   4.858   1.412   2.272 -0.5893 -0.8316  1.6553
 2902TIP3    H2 8671   4.898   1.335   2.148 -1.8943  0.3774  0.4413
 2903TIP3   OH2 8672   7.165   6.473   1.875  0.0052  0.5191 -0.4153
 2903TIP3    H1 8673   7.147   6.456   1.968  1.4381 -0.2598 -0.2527
 2903TIP3    H2 8674   7.085   6.513   1.842 -1.6865 -1.9010  0.4460
 2904TIP3   OH2 8675   1.029   0.385   0.584  0.0063  0.6005  0.0876
 2904TIP3    H1 8676   1.059   0.295   0.599 -0.4147  0.4013 -0.2506
 2904TIP3    H2 8677   1.108   0.438   0.594  0.0065  0.3488  1.6252
 2905TIP3   OH2 8678   6.498   4.554   3.818 -0.4854 -0.0143 -0.3872
 2905TIP3    H1 8679   6.471   4.638   3.856 -0.1741 -0.1770  0.2073
 2905TIP3    H2 8680   6.453   4.551   3.734 -0.4000  0.8038 -0.4710
 2906TIP3   OH2 8681   6.391   5.693   5.405  0.7962 -0.0730  0.3063
 2906TIP3    H1 8682   6.318   5.742   5.443  0.1891 -0.9133  0.2548
 2906TIP3    H2 8683   6.355   5.655   5.325  1.1550 -0.8427  0.4984
 2907TIP3   OH2 8684   4.843   4.488   3.239 -0.8606  0.5433  0.1556
 2907TIP3    H1 8685   4.898   4.562   3.215 -1.0126  0.8425  0.7199
 2907TIP3    H2 8686   4.890   4.446   3.311 -1.2031  0.6013  0.4128
 2908TIP3   OH2 8687   6.051   5.053   4.687 -0.3223 -0.3086 -0.3670
 2908TIP3    H1 8688   6.101   5.130   4.714  0.6760 -1.3331  0.8461
 2908TIP3    H2 8689   5.979   5.049   4.749  0.8046 -1.4864  0.9403
 2909TIP3   OH2 8690   5.662   3.833   4.721  0.3242  0.2974 -0.0963
 2909TIP3    H1 8691   5.571   3.807   4.709  0.6699 -1.0864  0.0740
 2909TIP3    H2 8692   5.710   3.750   4.730  1.8148  0.9122 -1.7178
 2910TIP3   OH2 8693   4.343   1.460   2.043  0.1781 -0.4133  0.6799
 2910TIP3    H1 8694   4.383   1.544   2.020 -1.4431 -0.4362 -2.8997
 2910TIP3    H2 8695   4.254   1.482   2.069  0.2668 -0.9065  1.4214
 2911TIP3   OH2 8696   3.577   5.456   2.968  0.6135 -0.2987 -0.0454
 2911TIP3    H1 8697   3.544   5.381   2.918  1.5660 -0.2311 -0.8010
 2911TIP3    H2 8698   3.669   5.435   2.984  0.5508  0.1090  0.9009
 2912TIP3   OH2 8699   3.293   4.081   1.600  0.7270  0.1909  0.2582
 2912TIP3    H1 8700   3.201   4.058   1.611  0.6862  0.4665  0.4927
 2912TIP3    H2 8701   3.298   4.117   1.511  0.6921 -0.2299  0.0856
 2913TIP3   OH2 8702   3.960   0.328   2.808  0.3048 -0.0771  0.2045
 2913TIP3    H1 8703   3.942   0.234   2.814  2.5533 -0.4786  1.5775
 2913TIP3    H2 8704   3.970   0.356   2.899 -1.5243  1.8215 -0.0972
 2914TIP3   OH2 8705   2.195   2.215   4.580 -0.2445 -0.0909  0.0125
 2914TIP3    H1 8706   2.137   2.155   4.532 -0.2796 -0.1146  0.0839
 2914TIP3    H2 8707   2.165   2.302   4.554 -0.4810 -0.1005  0.2465
 2915TIP3   OH2 8708   2.235   3.154   4.955  0.1077 -0.2373  0.4749
 2915TIP3    H1 8709   2.170   3.096   4.995  0.2169 -2.0707 -1.7857
 2915TIP3    H2 8710   2.183   3.225   4.917 -0.3383 -0.3532  0.8592
 2916TIP3   OH2 8711   6.040   2.723   4.381 -0.3152 -0.5816 -0.4073
 2916TIP3    H1 8712   6.062   2.771   4.301 -1.5076  1.2243  0.2827
 2916TIP3    H2 8713   6.124   2.693   4.415  0.9905  3.4810  0.5813
 2917TIP3   OH2 8714   0.251   2.622   3.604  0.1644 -0.0393  0.2307
 2917TIP3    H1 8715   0.162   2.652   3.617 -0.0495 -0.8573  0.7308
 2917TIP3    H2 8716   0.305   2.701   3.606 -0.5939  0.5089 -0.5610
 2918TIP3   OH2 8717   0.481   1.460   1.439 -0.0451  0.0112 -0.3088
 2918TIP3    H1 8718   0.514   1.481   1.526 -1.1577  0.4816  0.0229
 2918TIP3    H2 8719   0.400   1.510   1.431 -0.8647 -1.3434 -0.9342
 2919TIP3   OH2 8720   4.223   0.195   1.763 -0.0431 -0.0250  0.4901
 2919TIP3    H1 8721   4.148   0.187   1.823  2.0622 -1.7373  3.1164
 2919TIP3    H2 8722   4.278   0.120   1.783  3.1471  1.9403 -0.1943
 2920TIP3   OH2 8723   3.685   3.794   3.048 -0.8771  0.4513 -0.2842
 2920TIP3    H1 8724   3.640   3.866   3.004 -1.5353  0.6577  0.6913
 2920TIP3    H2 8725   3.747   3.837   3.108  0.4918  0.1696 -1.4460
 2921TIP3   OH2 8726   2.443   0.019   5.921 -0.4279  0.1211  0.1627
 2921TIP3    H1 8727   2.505   0.073   5.871 -0.9992 -0.3961 -1.1571
 2921TIP3    H2 8728   2.420  -0.052   5.861 -1.5053 -0.2681  1.0127
 2922TIP3   OH2 8729   0.886   1.339   0.381 -0.1721 -0.3284 -0.0985
 2922TIP3    H1 8730   0.858   1.425   0.412 -0.4775 -0.5590  0.2839
 2922TIP3    H2 8731   0.849   1.278   0.445  1.7325 -0.6254  0.7865
 2923TIP3   OH2 8732   6.652   3.338   4.081  0.1106  0.0584 -0.5256
 2923TIP3    H1 8733   6.566   3.360   4.044 -0.2276 -1.4931 -0.7343
 2923TIP3    H2 8734   6.697   3.422   4.088 -0.8244  0.7167 -1.9206
 2924TIP3   OH2 8735   3.708   3.532   3.022 -0.0750 -0.2989  0.2713
 2924TIP3    H1 8736   3.792   3.529   2.976 -1.3277 -0.5188 -2.1622
 2924TIP3    H2 8737   3.689   3.626   3.032  0.6277 -0.2453  1.2206
 2925TIP3   OH2 8738   1.006   4.665   4.606 -0.2627  0.8240  0.8752
 2925TIP3    H1 8739   1.039   4.752   4.632 -1.2781  1.4426  0.1660
 2925TIP3    H2 8740   0.913   4.679   4.590 -0.0029  0.1752 -1.6239
 2926TIP3   OH2 8741   1.281   1.074   2.420 -0.4279  0.3676 -0.2963
 2926TIP3    H1 8742   1.215   1.042   2.359 -0.9068 -1.0398  0.8697
 2926TIP3    H2 8743   1.237   1.142   2.470 -1.1731 -0.7878  0.6983
 2927TIP3   OH2 8744   0.459   5.927   0.309  0.1922  0.4308 -0.0948
 2927TIP3    H1 8745   0.454   5.947   0.215 -2.4690 -2.6682 -0.7982
 2927TIP3    H2 8746   0.499   5.841   0.313 -2.7452 -1.0023  1.2123
 2928TIP3   OH2 8747   4.964   4.962   4.130 -0.4558  1.1387 -0.0337
 2928TIP3    H1 8748   4.880   4.920   4.148 -0.5060  1.0038 -0.5526
 2928TIP3    H2 8749   4.959   4.986   4.037 -0.5388  2.5596  0.3132
 2929TIP3   OH2 8750   0.369   0.696   0.314 -0.9030  0.0703  0.2922
 2929TIP3    H1 8751   0.420   0.744   0.380  2.1323 -1.0189 -1.0687
 2929TIP3    H2 8752   0.315   0.764   0.273  1.3119  1.9229  0.1760
 2930TIP3   OH2 8753   1.164   6.050   4.396 -0.3034  0.4326 -0.6531
 2930TIP3    H1 8754   1.145   6.055   4.489  1.3782 -0.4508 -0.2394
 2930TIP3    H2 8755   1.078   6.053   4.354 -1.0697  1.0704  0.8947
 2931TIP3   OH2 8756   1.669   5.639   1.004 -0.1327  0.5081 -0.2880
 2931TIP3    H1 8757   1.630   5.623   0.919 -0.6130 -1.1029  0.1891
 2931TIP3    H2 8758   1.610   5.596   1.066  1.8533 -1.2701  0.5398
 2932TIP3   OH2 8759   2.126   3.392   4.686  0.7342 -0.3120  0.3928
 2932TIP3    H1 8760   2.090   3.353   4.766 -0.0691 -0.3168  0.0325
 2932TIP3    H2 8761   2.217   3.360   4.684  0.1076 -2.2088  0.1025
 2933TIP3   OH2 8762   0.518   4.049   0.823 -0.5686 -0.4326 -0.2457
 2933TIP3    H1 8763   0.596   4.090   0.787 -1.1661  1.3952  0.4440
 2933TIP3    H2 8764   0.461   4.034   0.748 -0.4878  0.3485 -0.4646
 2934TIP3   OH2 8765   5.526   3.214   0.910  0.2098 -0.7313 -0.3012
 2934TIP3    H1 8766   5.619   3.214   0.932 -0.1222  0.4867  1.2971
 2934TIP3    H2 8767   5.486   3.160   0.978 -0.3919 -0.1437 -0.1800
 2935TIP3   OH2 8768   1.762   3.493   3.392  0.5431 -0.2027 -0.4663
 2935TIP3    H1 8769   1.791   3.569   3.342  0.5626  1.3017  1.7195
 2935TIP3    H2 8770   1.716   3.529   3.467 -4.2727 -2.3517 -1.9411
 2936TIP3   OH2 8771   6.036   4.623   5.113  0.1717  0.2724  0.1851
 2936TIP3    H1 8772   6.083   4.648   5.193  0.0580 -0.2106  0.4098
 2936TIP3    H2 8773   6.009   4.533   5.129 -1.9686  0.9385  0.6116
 2937TIP3   OH2 8774   3.880   6.451   5.138 -0.7133 -0.0046  0.4044
 2937TIP3    H1 8775   3.788   6.423   5.142 -0.8108  0.1474 -0.6646
 2937TIP3    H2 8776   3.877   6.545   5.155 -0.5963 -0.2178  1.7816
 2938TIP3   OH2 8777   2.586   5.928   3.825 -0.7897  0.4785  0.2795
 2938TIP3    H1 8778   2.588   6.005   3.769 -0.8929  0.6653  0.5297
 2938TIP3    H2 8779   2.501   5.887   3.808 -1.9020  1.8807  2.0793
 2939TIP3   OH2 8780   0.698   5.759   5.679  0.0200 -0.5363  0.3070
 2939TIP3    H1 8781   0.662   5.714   5.603  0.3673 -1.4033  0.6467
 2939TIP3    H2 8782   0.742   5.836   5.642 -2.3465  0.7052 -0.0963
 2940TIP3   OH2 8783   1.198   4.455   4.132 -0.1217 -0.0336 -0.8103
 2940TIP3    H1 8784   1.141   4.472   4.207  1.2399  1.6306 -0.0805
 2940TIP3    H2 8785   1.184   4.363   4.111  0.9939 -1.1673  2.8185
 2941TIP3   OH2 8786   4.828   5.331   5.005 -0.1755 -0.0956 -0.6996
 2941TIP3    H1 8787   4.737   5.336   5.034  0.3648  1.4493  0.9465
 2941TIP3    H2 8788   4.849   5.238   5.010 -1.7926 -0.5643 -1.6607
 2942TIP3   OH2 8789   4.466   5.245   5.383  0.0878 -0.0215 -0.1217
 2942TIP3    H1 8790   4.437   5.295   5.459  3.0112  0.4941  0.7923
 2942TIP3    H2 8791   4.561   5.255   5.383  0.4140 -2.1502 -2.3687
 2943TIP3   OH2 8792   1.123   2.921   4.683  0.0413 -0.2837  0.2908
 2943TIP3    H1 8793   1.175   2.881   4.614 -0.4642 -1.6055  0.6352
 2943TIP3    H2 8794   1.188   2.954   4.746  0.4883  0.4164 -0.5277
 2944TIP3   OH2 8795   4.694   2.288   3.495 -0.1017 -0.2571 -0.2511
 2944TIP3    H1 8796   4.662   2.231   3.425 -0.6342  0.8074 -0.9101
 2944TIP3    H2 8797   4.770   2.331   3.458 -0.2042  0.0870 -0.0671
 2945TIP3   OH2 8798   1.556   6.530   2.663  1.7046 -0.4692 -0.1199
 2945TIP3    H1 8799   1.466   6.524   2.632  2.0083 -0.8065 -0.9618
 2945TIP3    H2 8800   1.554   6.490   2.750  1.0253 -0.3753 -0.0854
 2946TIP3   OH2 8801   5.262   4.984   5.746  0.3373 -0.3298  0.0853
 2946TIP3    H1 8802   5.225   4.970   5.833  2.6832 -0.0612  1.1994
 2946TIP3    H2 8803   5.224   5.067   5.717 -0.7213 -0.5857  0.6889
 2947TIP3   OH2 8804   0.449   2.200   4.857 -0.0149  0.0053 -0.2047
 2947TIP3    H1 8805   0.531   2.189   4.905 -0.3149 -1.7674 -0.0364
 2947TIP3    H2 8806   0.420   2.289   4.879  1.3276  0.2931  0.5346
 2948TIP3   OH2 8807   3.602   4.245   5.771  0.2546 -0.1821  0.4035
 2948TIP3    H1 8808   3.618   4.309   5.840 -0.2648  0.5066 -0.1085
 2948TIP3    H2 8809   3.674   4.256   5.710 -1.1460  1.7254 -1.0107
 2949TIP3   OH2 8810   2.246   0.198   1.625  0.1895  0.8607 -0.7116
 2949TIP3    H1 8811   2.184   0.140   1.670  1.5687  0.6706  1.0607
 2949TIP3    H2 8812   2.249   0.165   1.535 -0.2314 -0.8444 -0.1390
 2950TIP3   OH2 8813   6.493   0.925   3.713  0.1624 -0.4316 -0.4999
 2950TIP3    H1 8814   6.540   0.851   3.674 -0.0967 -0.5250 -0.6325
 2950TIP3    H2 8815   6.449   0.888   3.789  1.1794 -0.1252  0.2710
 2951TIP3   OH2 8816   7.148   1.916   1.213 -0.3056 -0.2839  0.0722
 2951TIP3    H1 8817   7.132   1.904   1.306  0.4443  1.7704  0.5264
 2951TIP3    H2 8818   7.219   1.980   1.209 -0.7947  0.2127 -1.9031
 2952TIP3   OH2 8819   0.157   1.880   3.468 -0.3657  0.4252 -0.1493
 2952TIP3    H1 8820   0.243   1.890   3.426 -0.0789  1.1373  0.5640
 2952TIP3    H2 8821   0.101   1.844   3.400  0.7667 -1.1604 -0.3085
 2953TIP3   OH2 8822   0.841   6.668   2.019  0.5374  0.2674  0.2745
 2953TIP3    H1 8823   0.875   6.592   2.067  2.1442  0.4727 -0.4489
 2953TIP3    H2 8824   0.852   6.741   2.080 -3.2065 -0.3228  1.8920
 2954TIP3   OH2 8825   3.183   4.207   0.730 -0.2769  0.0710  0.8879
 2954TIP3    H1 8826   3.210   4.280   0.786 -1.9868  0.7074  0.9429
 2954TIP3    H2 8827   3.215   4.230   0.643  0.5010  0.1375  1.1825
 2955TIP3   OH2 8828   3.125   4.461   0.515 -0.5216 -0.3516  0.1617
 2955TIP3    H1 8829   3.171   4.522   0.458 -1.3960  0.7239  0.5642
 2955TIP3    H2 8830   3.158   4.375   0.491 -0.1941  0.1658 -1.3060
 2956TIP3   OH2 8831   4.517   5.109   1.139 -0.2486  0.0735  0.4429
 2956TIP3    H1 8832   4.604   5.072   1.151 -0.9145 -2.0888 -0.8784
 2956TIP3    H2 8833   4.462   5.063   1.203 -0.6217  0.7369  0.6133
 2957TIP3   OH2 8834   4.863   3.600   4.590  0.2244  0.4096 -0.0241
 2957TIP3    H1 8835   4.940   3.604   4.533  0.5114 -0.8666  0.2590
 2957TIP3    H2 8836   4.810   3.675   4.562  0.2635 -0.2735 -2.0952
 2958TIP3   OH2 8837   1.841   4.424   5.520  0.1399 -0.8263  0.4171
 2958TIP3    H1 8838   1.919   4.476   5.541  0.0346  0.0471 -1.2299
 2958TIP3    H2 8839   1.768   4.474   5.557  0.3484 -2.0792  2.7455
 2959TIP3   OH2 8840   1.642   4.453   2.591  0.3687  0.0403  0.2518
 2959TIP3    H1 8841   1.695   4.533   2.599  1.3136 -0.1167 -2.9463
 2959TIP3    H2 8842   1.626   4.445   2.497 -3.1296 -1.4221  0.8159
 2960TIP3   OH2 8843   5.494   4.024   3.082 -0.0295 -0.3185  0.3721
 2960TIP3    H1 8844   5.441   3.952   3.046 -1.5053  1.3121 -0.8627
 2960TIP3    H2 8845   5.557   4.043   3.014 -0.2901  0.2030  0.2736
 2961TIP3   OH2 8846   6.267   0.404   0.593 -0.0470  0.2114  0.0664
 2961TIP3    H1 8847   6.351   0.444   0.572  0.7206 -1.1592  0.3799
 2961TIP3    H2 8848   6.211   0.424   0.518  0.6993  0.7346 -0.3594
 2962TIP3   OH2 8849   6.734   1.130   3.834  0.5219  0.4240  0.0553
 2962TIP3    H1 8850   6.686   1.048   3.841 -0.6698  1.1562  0.7820
 2962TIP3    H2 8851   6.760   1.135   3.742 -0.5947 -0.1221 -0.3019
 2963TIP3   OH2 8852   5.017   3.812   1.930  0.2411 -0.0357 -0.4878
 2963TIP3    H1 8853   5.075   3.810   1.854 -0.8152 -1.3156 -1.3032
 2963TIP3    H2 8854   4.931   3.833   1.894 -0.5335 -1.9503  0.1194
 2964TIP3   OH2 8855   1.740   1.640   3.095  0.0863  0.3254  0.3287
 2964TIP3    H1 8856   1.722   1.547   3.108 -0.4422  0.3861  0.0401
 2964TIP3    H2 8857   1.655   1.683   3.107  0.4613  0.8499  1.1856
 2965TIP3   OH2 8858   6.461   6.551   1.544 -0.7728 -0.4257  0.4332
 2965TIP3    H1 8859   6.447   6.458   1.559  1.5070 -0.5949  2.1655
 2965TIP3    H2 8860   6.408   6.595   1.610 -0.8176 -0.5690  0.4910
 2966TIP3   OH2 8861   0.721   3.151   4.291  0.3013  0.1293 -0.0981
 2966TIP3    H1 8862   0.749   3.065   4.323 -2.0773 -0.5692  0.3079
 2966TIP3    H2 8863   0.773   3.214   4.343  1.9715 -1.0269 -0.3087
 2967TIP3   OH2 8864   1.781   1.324   4.514  0.3678 -0.5135 -0.3283
 2967TIP3    H1 8865   1.873   1.301   4.523  0.0249 -1.4067  1.3887
 2967TIP3    H2 8866   1.745   1.313   4.602 -0.7652  2.6743 -0.2586
 2968TIP3   OH2 8867   4.951   0.937   2.410  0.6259 -0.2924  0.1697
 2968TIP3    H1 8868   4.863   0.928   2.372  1.2986 -2.4814 -1.0319
 2968TIP3    H2 8869   4.979   1.024   2.384 -0.5544 -0.1765 -0.8439
 2969TIP3   OH2 8870   5.540   5.700   2.266  1.1491  0.1864 -0.3475
 2969TIP3    H1 8871   5.598   5.751   2.323  1.5969 -1.5136  0.7928
 2969TIP3    H2 8872   5.599   5.653   2.207  0.7637  0.6682 -1.1327
 2970TIP3   OH2 8873   0.225   0.237   3.387  0.4997  0.6342  0.2641
 2970TIP3    H1 8874   0.318   0.221   3.403  0.4490 -0.5359 -0.4591
 2970TIP3    H2 8875   0.196   0.158   3.341 -0.8978  0.9092  0.6562
 2971TIP3   OH2 8876   4.055   3.082   1.664  0.7797  0.4356 -0.0757
 2971TIP3    H1 8877   4.109   3.004   1.647  2.7028  1.4627  0.9390
 2971TIP3    H2 8878   4.033   3.077   1.757  1.3453  1.3206  0.1238
 2972TIP3   OH2 8879   4.094   3.992   5.898 -0.0603 -0.5124 -0.1286
 2972TIP3    H1 8880   4.172   4.033   5.859 -1.1530  0.2933 -1.5969
 2972TIP3    H2 8881   4.032   3.986   5.825 -2.4582  1.6072  1.5708
 2973TIP3   OH2 8882   1.789   4.222   1.866 -0.0521 -0.1193 -0.2327
 2973TIP3    H1 8883   1.861   4.281   1.891  0.6467  0.2145 -2.7266
 2973TIP3    H2 8884   1.726   4.279   1.822 -0.7942 -0.7727 -0.0268
 2974TIP3   OH2 8885   2.145   6.057   0.440  0.3217 -0.8515 -0.1471
 2974TIP3    H1 8886   2.099   6.140   0.426  1.2436 -0.6072 -2.0153
 2974TIP3    H2 8887   2.143   6.013   0.355  1.3044 -1.9947  0.3885
 2975TIP3   OH2 8888   4.858   1.888   1.938 -0.4368 -0.0144  0.3244
 2975TIP3    H1 8889   4.873   1.797   1.913 -0.1922  0.4550 -1.4083
 2975TIP3    H2 8890   4.824   1.884   2.027 -1.1954 -1.8479 -0.0086
 2976TIP3   OH2 8891   1.024   2.666   4.419  0.0255 -0.3451 -0.1093
 2976TIP3    H1 8892   0.956   2.616   4.464  2.1761 -1.2354  2.3886
 2976TIP3    H2 8893   1.027   2.627   4.331 -0.7735 -2.2048  0.6222
 2977TIP3   OH2 8894   3.991   6.064   3.078 -0.2227  0.6811  0.0303
 2977TIP3    H1 8895   3.936   6.041   3.153  0.8027 -1.6610  0.1710
 2977TIP3    H2 8896   4.076   6.086   3.116 -0.2249  1.3623 -0.3473
 2978TIP3   OH2 8897   2.916   0.097   4.367  0.1996 -0.1102 -0.1183
 2978TIP3    H1 8898   2.947   0.103   4.277  0.4782  3.2633  0.0609
 2978TIP3    H2 8899   2.850   0.028   4.365  2.8127 -2.8028 -1.9980
 2979TIP3   OH2 8900   3.482   0.363   2.917 -0.5088 -0.0298  0.6111
 2979TIP3    H1 8901   3.529   0.287   2.882  0.1878  0.5081  0.3368
 2979TIP3    H2 8902   3.460   0.339   3.007  0.5684 -0.1913  0.8434
 2980TIP3   OH2 8903   5.951   0.623   3.305 -0.6286  0.0051  0.0318
 2980TIP3    H1 8904   6.042   0.608   3.279 -0.3894 -0.9659  1.3200
 2980TIP3    H2 8905   5.906   0.647   3.224  0.6642 -0.0629 -0.7192
 2981TIP3   OH2 8906   5.050   3.374   4.772  0.0175  0.5413 -0.1415
 2981TIP3    H1 8907   5.098   3.292   4.776  0.3905  0.7307 -0.5634
 2981TIP3    H2 8908   5.096   3.432   4.833 -0.0645  0.5220 -0.0626
 2982TIP3   OH2 8909   4.009   6.540   2.783 -0.0642 -0.0822 -0.3311
 2982TIP3    H1 8910   3.999   6.571   2.694  0.1581  1.3120  0.1076
 2982TIP3    H2 8911   3.920   6.530   2.815 -0.1584 -1.3420 -0.9421
 2983TIP3   OH2 8912   1.323   1.149   5.245  0.2825 -0.3462  0.3044
 2983TIP3    H1 8913   1.242   1.100   5.232 -1.6922  2.2729  1.6037
 2983TIP3    H2 8914   1.330   1.158   5.340  0.9584  1.1413  0.1430
 2984TIP3   OH2 8915   3.113   1.000   3.077 -0.3128  0.0159 -0.3158
 2984TIP3    H1 8916   3.183   0.943   3.110 -0.1822  0.3939  0.0765
 2984TIP3    H2 8917   3.116   0.990   2.982  1.8204  1.7510 -0.5105
 2985TIP3   OH2 8918   5.126   3.076   1.036 -0.1000 -0.7243 -0.0871
 2985TIP3    H1 8919   5.214   3.113   1.048  0.1651 -1.0068 -1.0437
 2985TIP3    H2 8920   5.103   3.098   0.945 -0.8991 -0.9057  0.0634
 2986TIP3   OH2 8921   3.672   4.442   0.675  0.0778  0.0798  0.2245
 2986TIP3    H1 8922   3.667   4.347   0.677 -1.0574  0.0774 -1.1810
 2986TIP3    H2 8923   3.712   4.466   0.758  1.3151 -1.6696  0.1873
 2987TIP3   OH2 8924   1.875   5.665   4.496  0.0447 -0.2502 -0.4632
 2987TIP3    H1 8925   1.859   5.687   4.404 -0.2304 -0.9304 -0.5850
 2987TIP3    H2 8926   1.809   5.599   4.517 -0.6762  0.7531  0.5836
 2988TIP3   OH2 8927   4.760   6.592   5.847  0.8165  0.0834  0.1694
 2988TIP3    H1 8928   4.843   6.560   5.881  0.4667 -1.6564 -0.5107
 2988TIP3    H2 8929   4.705   6.605   5.925  2.3604  3.5319  0.8762
 2989TIP3   OH2 8930   6.094   0.487   5.120 -0.3759 -0.0078 -0.2245
 2989TIP3    H1 8931   6.052   0.479   5.206 -1.1737  0.5998 -0.5462
 2989TIP3    H2 8932   6.107   0.397   5.091  0.6849 -0.2490  0.8931
 2990TIP3   OH2 8933   3.357   2.617   5.729 -0.7926  0.4647  0.3195
 2990TIP3    H1 8934   3.355   2.523   5.712  0.2152  0.3672  0.6899
 2990TIP3    H2 8935   3.267   2.638   5.753 -1.0327 -0.4015  0.2397
 2991TIP3   OH2 8936   2.831   3.648   4.431  0.0460 -0.0964 -0.2127
 2991TIP3    H1 8937   2.896   3.630   4.499  0.9159 -1.1199 -1.2772
 2991TIP3    H2 8938   2.752   3.670   4.479  1.2130  1.4003  1.1291
 2992TIP3   OH2 8939   6.195   2.198   1.734  0.0249 -0.0389  0.1509
 2992TIP3    H1 8940   6.249   2.274   1.752 -0.5075  0.7235 -1.3222
 2992TIP3    H2 8941   6.165   2.210   1.644 -1.5463 -1.0666  0.4869
 2993TIP3   OH2 8942   5.198   3.099   2.342  0.2836  0.0383 -0.3161
 2993TIP3    H1 8943   5.223   3.088   2.433  1.2036 -1.4696 -0.7169
 2993TIP3    H2 8944   5.251   3.172   2.311 -1.2542  1.7008  0.7427
 2994TIP3   OH2 8945   2.485   4.118   4.819  0.0693 -0.1873 -0.1270
 2994TIP3    H1 8946   2.435   4.164   4.886  1.2113  0.4776  0.2909
 2994TIP3    H2 8947   2.549   4.066   4.868  0.5764 -0.0986 -0.6776
 2995TIP3   OH2 8948   4.676   5.587   2.908  0.3110 -0.0284 -0.2888
 2995TIP3    H1 8949   4.693   5.494   2.896  0.9632  0.1611 -0.8821
 2995TIP3    H2 8950   4.607   5.607   2.845 -0.8755 -0.4125  0.8590
 2996TIP3   OH2 8951   5.873   0.344   0.516 -0.2004 -0.0623  0.1776
 2996TIP3    H1 8952   5.886   0.439   0.525  0.9439 -0.2153  0.3918
 2996TIP3    H2 8953   5.893   0.309   0.603 -1.7197 -0.4094  0.4026
 2997TIP3   OH2 8954   1.980   6.652   4.286 -0.1746  0.1447 -0.8554
 2997TIP3    H1 8955   2.029   6.689   4.213  1.7693  0.3379  0.4643
 2997TIP3    H2 8956   2.031   6.575   4.313 -2.7367 -2.1022 -1.8921
 2998TIP3   OH2 8957   0.417   3.974   5.757 -0.2872  0.4601  0.2536
 2998TIP3    H1 8958   0.452   3.937   5.675 -1.4801 -0.5083  0.1434
 2998TIP3    H2 8959   0.345   4.031   5.728  0.0669  1.0631  0.5627
 2999TIP3   OH2 8960   0.709   4.906   1.481  0.2991 -0.7248 -0.4881
 2999TIP3    H1 8961   0.662   4.984   1.511  0.5261 -0.4374 -0.8805
 2999TIP3    H2 8962   0.777   4.892   1.548 -0.5293 -1.3270  0.2528
 3000TIP3   OH2 8963   0.876   1.605   4.184  0.5064  0.3670  0.1455
 3000TIP3    H1 8964   0.923   1.686   4.205  1.0585  0.1858 -0.3448
 3000TIP3    H2 8965   0.939   1.554   4.132  0.5026 -0.7940  1.2506
 3001TIP3   OH2 8966   6.323   0.235   3.062 -0.3777 -0.8568 -0.3938
 3001TIP3    H1 8967   6.340   0.191   2.979 -0.7969 -0.1017 -0.8927
 3001TIP3    H2 8968   6.238   0.201   3.090 -0.3831 -0.8766 -0.4343
 3002TIP3   OH2 8969   4.184   2.032   4.812 -0.0195  0.1427  0.1745
 3002TIP3    H1 8970   4.245   1.985   4.756 -1.1731 -0.2924 -0.7523
 3002TIP3    H2 8971   4.178   1.979   4.891 -0.5526 -0.7639 -0.4605
 3003TIP3   OH2 8972   1.883   4.233   5.168 -0.4414  0.3459 -0.5315
 3003TIP3    H1 8973   1.885   4.217   5.262  1.3478  1.5169 -0.3309
 3003TIP3    H2 8974   1.806   4.184   5.137 -0.4053 -0.9877  1.3392
 3004TIP3   OH2 8975   2.875   3.612   5.057 -0.4559  0.5654  0.0743
 3004TIP3    H1 8976   2.796   3.609   5.004 -0.4606  0.3329  0.0908
 3004TIP3    H2 8977   2.924   3.533   5.032  0.4789  1.4621 -1.0152
 3005TIP3   OH2 8978   3.932   3.913   4.239  0.6903 -0.2960  0.0481
 3005TIP3    H1 8979   3.942   3.983   4.174  3.7336 -0.8946 -0.2731
 3005TIP3    H2 8980   3.869   3.853   4.199 -0.0902  1.0139 -0.7769
 3006TIP3   OH2 8981   6.799   6.121   0.402  0.1976 -0.0328 -0.1335
 3006TIP3    H1 8982   6.847   6.061   0.460  2.1631 -1.9207 -3.4147
 3006TIP3    H2 8983   6.863   6.187   0.377 -0.9834  1.4916  0.6849
 3007TIP3   OH2 8984   6.169   4.026   4.120  0.3355  0.3117  0.1763
 3007TIP3    H1 8985   6.118   4.096   4.079 -0.5415 -0.2336  0.3031
 3007TIP3    H2 8986   6.108   3.953   4.126  1.0969 -0.3070  0.4919
 3008TIP3   OH2 8987   3.102   3.499   2.749  0.8243 -0.2868  0.1142
 3008TIP3    H1 8988   3.010   3.520   2.737  0.9746 -0.4198 -1.5290
 3008TIP3    H2 8989   3.111   3.482   2.843 -1.0531 -1.4225  0.1376
 3009TIP3   OH2 8990   2.907   3.586   1.616 -0.1158 -0.6683  0.2215
 3009TIP3    H1 8991   2.836   3.542   1.663  1.1623 -0.4670  2.4841
 3009TIP3    H2 8992   2.986   3.565   1.666  1.1853  0.5146 -1.2285
 3010TIP3   OH2 8993   0.455   3.887   3.936  0.1120 -0.0101 -0.2148
 3010TIP3    H1 8994   0.431   3.795   3.928 -2.2878  0.3742  1.2195
 3010TIP3    H2 8995   0.532   3.887   3.992 -0.9466 -1.1341  1.3455
 3011TIP3   OH2 8996   3.170   6.704   5.742  0.2825 -0.3972 -0.0003
 3011TIP3    H1 8997   3.192   6.659   5.823  0.2185  0.0960  0.2963
 3011TIP3    H2 8998   3.107   6.771   5.768  1.7683  1.1158 -0.0938
 3012TIP3   OH2 8999   2.942   5.200   2.926 -0.4211  0.0025 -0.1259
 3012TIP3    H1 9000   2.888   5.168   2.997 -1.8686  1.1768 -0.6405
 3012TIP3    H2 9001   2.954   5.293   2.944  0.6966 -0.0443 -0.5016
 3013TIP3   OH2 9002   0.144   3.897   2.494  0.6332  0.4634  0.0180
 3013TIP3    H1 9003   0.103   3.814   2.472  1.1908 -0.0892  1.0021
 3013TIP3    H2 9004   0.205   3.913   2.422  0.2581  0.2006 -0.3591
 3014TIP3   OH2 9005   0.316   5.426   0.937 -0.3910  0.7259 -0.6002
 3014TIP3    H1 9006   0.374   5.429   1.012 -0.8886  0.1541 -0.1855
 3014TIP3    H2 9007   0.363   5.473   0.868  0.7315 -0.0584 -0.3914
 3015TIP3   OH2 9008   6.153   5.536   1.974 -0.2048 -0.2909  0.1769
 3015TIP3    H1 9009   6.246   5.523   1.955  0.3308  0.3459  2.1218
 3015TIP3    H2 9010   6.130   5.615   1.925  0.9308  0.8997  1.4652
 3016TIP3   OH2 9011   1.896   5.987   0.628 -0.2821 -0.6900 -0.1257
 3016TIP3    H1 9012   1.928   5.977   0.718  1.2554  2.9333 -0.0890
 3016TIP3    H2 9013   1.974   6.004   0.576 -1.4356  0.9979 -1.4272
 3017TIP3   OH2 9014   2.538   4.177   0.129 -0.0479 -0.1236  0.7238
 3017TIP3    H1 9015   2.588   4.254   0.101 -2.4569  0.9178 -1.1416
 3017TIP3    H2 9016   2.560   4.110   0.064 -1.1946  0.4456 -0.3144
 3018TIP3   OH2 9017   6.109   4.417   1.031  0.1418 -0.0806 -0.5502
 3018TIP3    H1 9018   6.117   4.477   1.105 -2.3251 -0.1426 -0.1406
 3018TIP3    H2 9019   6.079   4.471   0.959  0.0873 -0.4501 -0.8085
 3019TIP3   OH2 9020   6.751   1.903   3.978  0.1557 -0.0094  0.4708
 3019TIP3    H1 9021   6.686   1.971   3.995  1.6009  1.4820  0.2419
 3019TIP3    H2 9022   6.834   1.949   3.973  1.0778 -1.6811 -0.6612
 3020TIP3   OH2 9023   4.973   0.774   1.737  0.2464  0.0746  0.6121
 3020TIP3    H1 9024   4.948   0.854   1.783  1.4825  0.7959  0.0708
 3020TIP3    H2 9025   5.050   0.742   1.783  2.6956  1.8533 -1.9687
 3021TIP3   OH2 9026   3.597   2.622   5.337  0.0677 -0.1436 -0.1769
 3021TIP3    H1 9027   3.685   2.653   5.359  0.5589  0.4003 -2.5602
 3021TIP3    H2 9028   3.542   2.701   5.342 -0.0294 -0.2233  0.0411
 3022TIP3   OH2 9029   3.886   2.846   1.256  0.2269  0.2891  0.0070
 3022TIP3    H1 9030   3.891   2.769   1.200  3.5561  0.5763 -0.2703
 3022TIP3    H2 9031   3.853   2.812   1.340 -0.5994 -0.9521 -0.7834
 3023TIP3   OH2 9032   1.188   3.279   4.439  0.1047 -0.0957  0.3345
 3023TIP3    H1 9033   1.185   3.214   4.369 -1.8707 -0.3500  0.5869
 3023TIP3    H2 9034   1.244   3.239   4.506  0.0950 -0.8957 -0.1251
 3024TIP3   OH2 9035   5.239   6.217   3.308  0.3481  0.3398  0.8366
 3024TIP3    H1 9036   5.314   6.190   3.361  1.1691  1.2590  0.1595
 3024TIP3    H2 9037   5.166   6.220   3.371  1.0734  0.3750  1.7005
 3025TIP3   OH2 9038   0.449   5.775   5.082 -0.0236 -0.4739 -0.4678
 3025TIP3    H1 9039   0.424   5.691   5.120  0.1308  0.0141  0.7618
 3025TIP3    H2 9040   0.378   5.834   5.105  0.4118  0.0013 -0.3253
 3026TIP3   OH2 9041   0.232   2.164   0.550  0.4551  0.2658  0.3793
 3026TIP3    H1 9042   0.181   2.217   0.488  3.2135 -0.2686 -2.5828
 3026TIP3    H2 9043   0.168   2.103   0.587 -1.5069  1.1727 -1.2926
 3027TIP3   OH2 9044   1.406   6.652   3.304 -0.2465 -0.2907 -0.7142
 3027TIP3    H1 9045   1.454   6.587   3.355 -0.7295  0.9699  1.4757
 3027TIP3    H2 9046   1.432   6.736   3.340 -1.3780  0.6175 -1.8961
 3028TIP3   OH2 9047   2.248   1.965   2.049  0.3559  0.1097 -0.3118
 3028TIP3    H1 9048   2.165   1.918   2.046 -0.2400  1.1870 -1.0366
 3028TIP3    H2 9049   2.276   1.958   2.140 -0.6416 -0.0440 -0.0095
 3029TIP3   OH2 9050   5.876   6.227   4.162 -0.8112  0.0922 -0.0222
 3029TIP3    H1 9051   5.938   6.248   4.092  0.0573  1.1249  1.0129
 3029TIP3    H2 9052   5.874   6.132   4.164 -1.1996  0.0203 -1.7154
 3030TIP3   OH2 9053   5.452   3.611   2.587 -0.8425 -0.6338 -0.7123
 3030TIP3    H1 9054   5.370   3.575   2.552 -0.2782 -0.9071 -1.8178
 3030TIP3    H2 9055   5.468   3.689   2.533 -1.6811  0.9192  1.1817
 3031TIP3   OH2 9056   1.977   4.745   1.511 -0.3944  0.0432 -0.7134
 3031TIP3    H1 9057   2.016   4.826   1.542 -0.5842 -0.5185  1.1695
 3031TIP3    H2 9058   1.888   4.747   1.546  0.8142 -2.8107  3.2648
 3032TIP3   OH2 9059   3.606   0.059   2.922 -0.2019  0.1391  0.1340
 3032TIP3    H1 9060   3.632   0.032   2.834 -0.2003 -1.4369  0.5722
 3032TIP3    H2 9061   3.688   0.061   2.972 -0.4986 -2.3454  0.8911
 3033TIP3   OH2 9062   2.835   6.227   1.001  0.2812 -0.5534 -0.4363
 3033TIP3    H1 9063   2.931   6.229   1.009  0.5021 -0.9046 -2.4426
 3033TIP3    H2 9064   2.817   6.148   0.951 -1.1369 -0.8573  0.5295
 3034TIP3   OH2 9065   0.197   5.295   4.332 -1.0144 -0.2392 -0.0383
 3034TIP3    H1 9066   0.129   5.298   4.399 -1.1810 -0.4181 -0.1973
 3034TIP3    H2 9067   0.280   5.296   4.381 -1.1273 -1.6268  0.2382
 3035TIP3   OH2 9068   4.349   5.861   1.607 -0.0908 -0.0947 -0.1705
 3035TIP3    H1 9069   4.255   5.848   1.596  0.1982 -1.0487 -1.7331
 3035TIP3    H2 9070   4.356   5.918   1.684 -2.0823  2.5853 -1.7850
 3036TIP3   OH2 9071   7.009   2.634   4.752 -0.1835 -0.4283 -0.7299
 3036TIP3    H1 9072   6.963   2.588   4.682 -0.6765 -3.5361  1.4405
 3036TIP3    H2 9073   6.941   2.685   4.796 -1.2608 -3.1511  1.0061
 3037TIP3   OH2 9074   4.854   1.382   4.075  0.3127 -0.4087  0.1373
 3037TIP3    H1 9075   4.894   1.468   4.085 -2.0589  0.6745  1.1673
 3037TIP3    H2 9076   4.827   1.379   3.983  0.3175 -0.0041  0.1192
 3038TIP3   OH2 9077   0.182   1.571   1.694 -0.5768 -0.1848 -0.1137
 3038TIP3    H1 9078   0.211   1.488   1.656  1.4910 -0.2193  1.3323
 3038TIP3    H2 9079   0.142   1.619   1.622  0.8755 -1.2513 -1.6902
 3039TIP3   OH2 9080   1.737   1.866   5.707 -0.3351  0.2252  0.1738
 3039TIP3    H1 9081   1.680   1.825   5.772 -0.2853 -1.1014 -0.5865
 3039TIP3    H2 9082   1.754   1.797   5.643  0.7710  1.0924 -0.4997
 3040TIP3   OH2 9083   5.695   6.739   2.549  0.0869 -0.1564  0.0299
 3040TIP3    H1 9084   5.729   6.667   2.496  1.4670  0.2754  0.2980
 3040TIP3    H2 9085   5.692   6.813   2.488  0.2586 -0.0280  0.1778
 3041TIP3   OH2 9086   0.584   0.282   3.721  0.3601 -0.3614  0.2543
 3041TIP3    H1 9087   0.507   0.333   3.697  0.6386 -0.3180 -0.5905
 3041TIP3    H2 9088   0.636   0.278   3.640  1.1525 -0.5427  0.7603
 3042TIP3   OH2 9089   4.974   4.282   1.433  0.2524  0.3279 -0.1007
 3042TIP3    H1 9090   4.899   4.254   1.379  0.5544  0.2228 -0.4729
 3042TIP3    H2 9091   5.047   4.229   1.401  0.1870 -0.6013  1.2440
 3043TIP3   OH2 9092   4.719   2.504   3.704 -0.4405 -0.0964  0.3356
 3043TIP3    H1 9093   4.709   2.421   3.656  3.7817  0.5014 -2.1103
 3043TIP3    H2 9094   4.724   2.571   3.636  0.2435  1.6051  1.9698
 3044TIP3   OH2 9095   6.934   0.827   5.484 -0.5579 -0.0196  0.0131
 3044TIP3    H1 9096   6.994   0.783   5.424 -0.9615 -0.7359  0.1339
 3044TIP3    H2 9097   6.969   0.809   5.571  1.7233  3.4051  0.0025
 3045TIP3   OH2 9098   1.214   1.072   4.495 -0.2042  0.4117 -0.4114
 3045TIP3    H1 9099   1.200   1.156   4.540 -0.5744  0.7390 -1.1262
 3045TIP3    H2 9100   1.296   1.038   4.532 -0.5265  0.6438  0.5501
 3046TIP3   OH2 9101   7.099   1.240   1.711 -0.3144  0.2537 -0.3162
 3046TIP3    H1 9102   7.041   1.164   1.709  0.1788 -0.1229 -0.6700
 3046TIP3    H2 9103   7.185   1.205   1.687 -0.3544  1.1858 -1.9354
 3047TIP3   OH2 9104   3.638   0.800   3.634  0.4340 -0.3911  0.1828
 3047TIP3    H1 9105   3.552   0.757   3.639  0.2723 -0.1078 -0.1312
 3047TIP3    H2 9106   3.700   0.732   3.661  0.0160 -0.2741  1.5099
 3048TIP3   OH2 9107   3.733   4.047   0.889 -0.1398  0.8084  0.2734
 3048TIP3    H1 9108   3.686   4.046   0.806 -0.0977  0.0400  0.2502
 3048TIP3    H2 9109   3.809   3.990   0.875 -0.4407  0.2036  1.0007
 3049TIP3   OH2 9110   1.269   3.252   1.042  0.3297  0.3422  0.5402
 3049TIP3    H1 9111   1.214   3.234   1.118 -0.8274  1.2742 -0.0424
 3049TIP3    H2 9112   1.358   3.228   1.069 -0.2347 -0.3646  1.7986
 3050TIP3   OH2 9113   6.749   1.943   0.112  0.1154 -0.3938  0.1091
 3050TIP3    H1 9114   6.810   1.940   0.038  0.1559 -0.3893  0.1422
 3050TIP3    H2 9115   6.710   2.030   0.107 -0.0196 -0.4619 -0.0173
 3051TIP3   OH2 9116   1.765   2.848   4.025 -0.0879 -0.2618  0.3422
 3051TIP3    H1 9117   1.842   2.905   4.021 -0.6084  0.3796 -1.3072
 3051TIP3    H2 9118   1.725   2.868   4.109 -0.6954  2.4583 -0.4971
 3052TIP3   OH2 9119   5.023   0.657   4.427  0.7896  0.3161  0.1922
 3052TIP3    H1 9120   4.994   0.739   4.388 -0.3573  0.0306  0.3934
 3052TIP3    H2 9121   4.995   0.590   4.364 -0.0095 -0.0531  0.9149
 3053TIP3   OH2 9122   5.249   1.762   0.165  0.3596  0.5557  0.1301
 3053TIP3    H1 9123   5.238   1.739   0.257 -1.9401  0.9269  0.0057
 3053TIP3    H2 9124   5.315   1.701   0.133 -1.9022 -2.6124  1.0038
 3054TIP3   OH2 9125   6.604   0.155   0.937 -0.1701 -0.6381 -0.7840
 3054TIP3    H1 9126   6.518   0.182   0.905 -0.0790  0.4857 -0.1174
 3054TIP3    H2 9127   6.666   0.209   0.886 -0.0057  0.8651  0.9115
 3055TIP3   OH2 9128   1.505   5.201   4.136  0.2857 -0.1988  0.0852
 3055TIP3    H1 9129   1.572   5.235   4.077  1.1820 -1.8587  0.0781
 3055TIP3    H2 9130   1.455   5.139   4.083  0.0019 -0.4208  0.6012
 3056TIP3   OH2 9131   5.945   2.979   1.980  0.7338 -0.3555 -0.4570
 3056TIP3    H1 9132   6.027   2.954   2.023  0.8066 -0.3151 -0.5710
 3056TIP3    H2 9133   5.890   3.013   2.051  1.4972  1.3834 -0.6446
 3057TIP3   OH2 9134   4.678   3.943   5.459  0.0823  0.7043 -0.2659
 3057TIP3    H1 9135   4.757   3.896   5.486 -0.7756 -0.2418  0.6484
 3057TIP3    H2 9136   4.646   3.985   5.539 -0.9350  0.1905 -0.3929
 3058TIP3   OH2 9137   6.146   5.208   1.248  0.3196  0.0906  0.0790
 3058TIP3    H1 9138   6.170   5.130   1.298 -0.1880 -0.3073 -0.2876
 3058TIP3    H2 9139   6.140   5.277   1.314 -1.4001 -0.6600  0.7583
 3059TIP3   OH2 9140   1.327   2.176   2.630  0.1372 -0.3034 -0.4533
 3059TIP3    H1 9141   1.247   2.224   2.647  0.9200  0.9922 -0.3154
 3059TIP3    H2 9142   1.397   2.239   2.645  1.3262 -1.9774  1.6153
 3060TIP3   OH2 9143   6.994   3.176   2.711 -0.1886 -0.1306  0.3653
 3060TIP3    H1 9144   6.942   3.098   2.690  0.8937 -0.1351 -2.9744
 3060TIP3    H2 9145   7.065   3.144   2.765 -1.1680 -0.9379  1.2125
 3061TIP3   OH2 9146   3.697   1.581   3.310  0.2857 -0.0463 -0.4722
 3061TIP3    H1 9147   3.643   1.555   3.236  0.4161  1.5388 -1.1720
 3061TIP3    H2 9148   3.756   1.507   3.325 -0.2832 -0.7092 -1.4171
 3062TIP3   OH2 9149   2.086   1.248   3.376 -0.3940 -0.2896 -0.5562
 3062TIP3    H1 9150   2.044   1.321   3.330 -0.8973 -0.6964 -0.7503
 3062TIP3    H2 9151   2.137   1.290   3.445 -1.7399  0.1792  0.1864
 3063TIP3   OH2 9152   5.288   3.200   4.768  0.7303 -0.0247 -0.8640
 3063TIP3    H1 9153   5.365   3.201   4.825  0.1029 -1.3864  0.0618
 3063TIP3    H2 9154   5.308   3.263   4.699  1.7114  1.3136  0.5928
 3064TIP3   OH2 9155   5.769   5.064   0.072  0.0440 -0.2590 -0.4605
 3064TIP3    H1 9156   5.821   5.112   0.136 -0.5250 -0.5959  0.2582
 3064TIP3    H2 9157   5.753   4.979   0.111  1.3267 -1.2001 -1.8725
 3065TIP3   OH2 9158   6.042   4.583   4.691  0.1146  0.2212 -0.4015
 3065TIP3    H1 9159   6.053   4.656   4.753  1.9526 -1.0216  0.8381
 3065TIP3    H2 9160   5.948   4.574   4.681 -0.2764  0.4463  2.3132
 3066TIP3   OH2 9161   6.441   3.635   1.371  0.1188  0.2161  0.4330
 3066TIP3    H1 9162   6.493   3.706   1.333 -0.3310  0.7237  0.7538
 3066TIP3    H2 9163   6.498   3.558   1.364  0.2689  0.4181 -0.7233
 3067TIP3   OH2 9164   6.488   1.719   1.766  0.4221  0.0393  0.3123
 3067TIP3    H1 9165   6.519   1.753   1.682  0.5786 -1.4860 -0.2755
 3067TIP3    H2 9166   6.404   1.678   1.747 -0.3169  1.0614  1.2313
 3068TIP3   OH2 9167   1.774   0.902   0.169 -0.5868  0.2807 -0.0483
 3068TIP3    H1 9168   1.815   0.843   0.105 -0.4712  0.2589  0.0451
 3068TIP3    H2 9169   1.683   0.908   0.141 -0.5823  0.1126 -0.1000
 3069TIP3   OH2 9170   0.534   4.691   3.149  0.4832 -0.3159  0.1162
 3069TIP3    H1 9171   0.531   4.744   3.228  0.1977  0.4297 -0.3793
 3069TIP3    H2 9172   0.608   4.632   3.162  2.5262  1.9557 -0.3965
 3070TIP3   OH2 9173   4.434   3.533   1.615  0.2252  0.2274 -0.3192
 3070TIP3    H1 9174   4.466   3.456   1.567 -0.1239 -1.1559  1.5649
 3070TIP3    H2 9175   4.512   3.586   1.630  0.5743 -0.0431 -1.1162
 3071TIP3   OH2 9176   6.041   6.264   5.665 -0.1914  0.7535 -0.4208
 3071TIP3    H1 9177   5.985   6.286   5.739 -2.3508 -0.4426 -1.5887
 3071TIP3    H2 9178   6.037   6.340   5.608  2.6967  2.3227  1.2175
 3072TIP3   OH2 9179   3.679   3.309   5.819  0.5617 -0.0891  0.7048
 3072TIP3    H1 9180   3.750   3.368   5.792  0.3720 -0.0953  0.1659
 3072TIP3    H2 9181   3.685   3.236   5.757  0.0473 -0.0552  0.6145
 3073TIP3   OH2 9182   3.009   0.137   4.097 -0.4992 -0.0439 -0.2431
 3073TIP3    H1 9183   2.972   0.061   4.053  0.5292 -1.3165  1.0113
 3073TIP3    H2 9184   3.102   0.118   4.106 -0.3746  0.9215  0.9519
 3074TIP3   OH2 9185   5.716   5.471   2.472 -0.1531 -0.8564 -0.1569
 3074TIP3    H1 9186   5.700   5.397   2.413  0.3080 -1.4151  0.4052
 3074TIP3    H2 9187   5.631   5.491   2.510 -0.5817 -0.0980 -1.4403
 3075TIP3   OH2 9188  -0.014   5.720   0.323  0.4072  0.2992 -0.3065
 3075TIP3    H1 9189  -0.002   5.659   0.396 -0.7557 -1.6511 -1.6718
 3075TIP3    H2 9190   0.064   5.776   0.326  0.7210 -0.1586  1.9879
 3076TIP3   OH2 9191   3.443   0.184   5.240 -0.0778  0.1244 -0.1320
 3076TIP3    H1 9192   3.436   0.238   5.162  0.3717 -0.1289 -0.3523
 3076TIP3    H2 9193   3.530   0.205   5.275 -0.4467  0.5611  0.5415
 3077TIP3   OH2 9194   4.596   0.659   0.637 -0.4515 -0.0578  0.2619
 3077TIP3    H1 9195   4.528   0.691   0.698 -1.5247 -0.2679 -0.7866
 3077TIP3    H2 9196   4.618   0.735   0.584  0.6173  0.1706  0.9900
 3078TIP3   OH2 9197   5.032   0.634   0.161 -0.0131 -0.9519 -0.3317
 3078TIP3    H1 9198   4.948   0.679   0.172 -0.3668 -1.3035 -1.4477
 3078TIP3    H2 9199   5.097   0.697   0.190 -0.6755 -0.8359  0.9983
 3079TIP3   OH2 9200   3.124   3.154   3.998  0.2874 -0.7659 -0.1675
 3079TIP3    H1 9201   3.088   3.152   3.909  2.5467 -1.5133 -1.1520
 3079TIP3    H2 9202   3.183   3.078   4.001  2.0412  0.5763  1.1641
 3080TIP3   OH2 9203   1.322   2.664   0.438  0.4017 -0.7538 -0.4968
 3080TIP3    H1 9204   1.281   2.690   0.355  0.0273  1.6461  0.3503
 3080TIP3    H2 9205   1.249   2.660   0.500  0.7725 -1.8041 -0.1248
 3081TIP3   OH2 9206   0.246   3.869   5.152  0.0816 -0.2609 -0.5248
 3081TIP3    H1 9207   0.341   3.861   5.166 -0.2114 -1.6306  0.9538
 3081TIP3    H2 9208   0.233   3.962   5.131  1.5085  0.4694  1.4925
 3082TIP3   OH2 9209   2.675   1.321   0.613  0.1112  0.2916 -0.7766
 3082TIP3    H1 9210   2.677   1.246   0.553 -1.6778 -0.4132  0.0016
 3082TIP3    H2 9211   2.658   1.396   0.556 -0.7604 -0.2600 -1.2719
 3083TIP3   OH2 9212   0.598   5.548   3.274  0.7667  0.2809  0.5099
 3083TIP3    H1 9213   0.539   5.552   3.199  0.2892  0.1397  0.8739
 3083TIP3    H2 9214   0.628   5.638   3.286  1.1472  0.2375 -0.0858
 3084TIP3   OH2 9215   0.603   5.243   0.240 -0.5776  0.0807  0.1242
 3084TIP3    H1 9216   0.685   5.231   0.288 -0.4123 -0.3133 -0.2425
 3084TIP3    H2 9217   0.630   5.258   0.150 -0.8793  0.9807  0.1771
 3085TIP3   OH2 9218   5.332   6.231   5.695 -0.3256 -0.5651  0.4360
 3085TIP3    H1 9219   5.340   6.136   5.708 -1.8701 -1.0999 -1.8740
 3085TIP3    H2 9220   5.324   6.241   5.600 -1.4015  1.7631  0.7227
 3086TIP3   OH2 9221   7.198   1.150   0.139  0.2073  0.2716 -0.4313
 3086TIP3    H1 9222   7.283   1.170   0.178 -0.8874  1.6134  1.4954
 3086TIP3    H2 9223   7.145   1.117   0.212 -1.4379  1.1665 -1.1548
 3087TIP3   OH2 9224   4.245   2.403   3.133 -0.1891  0.6444  0.0963
 3087TIP3    H1 9225   4.312   2.444   3.078  0.9554  0.9628  1.6651
 3087TIP3    H2 9226   4.289   2.326   3.171 -1.6276 -0.8292 -1.0781
 3088TIP3   OH2 9227   5.816   3.655   5.751 -0.5715 -0.0713  0.2277
 3088TIP3    H1 9228   5.888   3.694   5.701 -1.7163  1.6130 -0.1945
 3088TIP3    H2 9229   5.859   3.600   5.816  1.0413 -0.2144 -0.8941
 3089TIP3   OH2 9230   6.079   2.719   0.119  0.2657  0.2785 -0.1396
 3089TIP3    H1 9231   6.138   2.778   0.167 -0.7243 -0.8017  2.6026
 3089TIP3    H2 9232   6.137   2.660   0.071  1.3546  0.5594  0.8004
 3090TIP3   OH2 9233   4.917   1.429   5.869 -0.2639 -0.2526 -0.0233
 3090TIP3    H1 9234   4.909   1.418   5.774 -0.9082  0.9529 -0.1233
 3090TIP3    H2 9235   4.942   1.342   5.901  2.8071 -0.0576 -1.5725
 3091TIP3   OH2 9236   1.440   1.006   4.676 -0.0871  0.4236  0.1308
 3091TIP3    H1 9237   1.395   1.016   4.760 -1.3534  0.5556 -0.5475
 3091TIP3    H2 9238   1.448   0.911   4.664 -0.8230  0.3821 -0.0681
 3092TIP3   OH2 9239   0.035   3.705   1.156 -0.3104  0.4648 -0.2193
 3092TIP3    H1 9240   0.046   3.642   1.227  2.3251  0.9520 -0.0769
 3092TIP3    H2 9241   0.011   3.653   1.080  1.1342 -0.6535  0.0603
 3093TIP3   OH2 9242   6.779   0.929   2.032 -1.1075  0.1192 -0.1285
 3093TIP3    H1 9243   6.819   0.862   2.088  0.3938  1.5008  0.5519
 3093TIP3    H2 9244   6.822   1.011   2.059 -1.8894  1.1547 -1.8568
 3094TIP3   OH2 9245   0.813   6.667   0.810  0.1508 -0.1730  0.3733
 3094TIP3    H1 9246   0.757   6.615   0.868  1.6232 -0.0482  2.0209
 3094TIP3    H2 9247   0.787   6.757   0.825  1.2681 -0.0492  1.7571
 3095TIP3   OH2 9248   6.949   4.139   1.711  0.1334  0.6764 -0.1054
 3095TIP3    H1 9249   7.031   4.177   1.679  0.9534 -1.4428 -0.6684
 3095TIP3    H2 9250   6.919   4.083   1.639 -1.2732  0.6095  0.4996
 3096TIP3   OH2 9251   3.943   6.094   4.812 -0.0925 -0.3344 -0.0362
 3096TIP3    H1 9252   3.963   6.137   4.729  2.9331  0.8940  1.2017
 3096TIP3    H2 9253   4.018   6.112   4.868 -1.7400 -1.6002  2.8285
 3097TIP3   OH2 9254   3.717   6.150   2.031  0.3572  0.1705 -0.2492
 3097TIP3    H1 9255   3.664   6.163   2.110  0.3105  0.7883 -0.3785
 3097TIP3    H2 9256   3.799   6.195   2.050 -0.1819  1.5597 -1.0890
 3098TIP3   OH2 9257   2.143   5.319   4.260 -0.2175  0.1050  0.0408
 3098TIP3    H1 9258   2.071   5.304   4.321 -2.6584 -1.3335 -2.9248
 3098TIP3    H2 9259   2.157   5.414   4.263  0.9901 -0.0278  3.9089
 3099TIP3   OH2 9260   3.296   6.037   4.152 -0.4055  0.0274 -0.4484
 3099TIP3    H1 9261   3.231   6.105   4.169  0.3062  0.1380  2.4041
 3099TIP3    H2 9262   3.251   5.972   4.099 -2.3255  0.8837  0.0729
 3100TIP3   OH2 9263   2.185   2.875   1.224  0.4412 -0.1225 -0.5021
 3100TIP3    H1 9264   2.183   2.874   1.320  0.7892  2.4733 -0.3911
 3100TIP3    H2 9265   2.273   2.846   1.202  0.2849 -0.9606 -0.0657
 3101TIP3   OH2 9266   6.351   5.061   5.093  0.1155 -0.0512 -0.3593
 3101TIP3    H1 9267   6.279   5.034   5.037 -0.4669 -1.9560  1.2130
 3101TIP3    H2 9268   6.430   5.031   5.047 -0.3893 -2.2364  0.1156
 3102TIP3   OH2 9269   2.842   1.305   4.867 -0.1892 -0.2798 -0.2311
 3102TIP3    H1 9270   2.747   1.318   4.863 -0.3320 -0.9834  0.4942
 3102TIP3    H2 9271   2.867   1.279   4.778 -1.1643 -2.9884  0.1709
 3103TIP3   OH2 9272   5.037   1.350   3.295 -0.5664 -0.0098 -0.3101
 3103TIP3    H1 9273   5.075   1.325   3.379  0.3129  1.3312 -0.2744
 3103TIP3    H2 9274   5.093   1.309   3.229 -1.0689 -0.8018 -0.2475
 3104TIP3   OH2 9275   6.340   0.456   3.921 -0.1339  0.1635 -0.1697
 3104TIP3    H1 9276   6.431   0.432   3.910  0.1382  1.8055 -2.1717
 3104TIP3    H2 9277   6.311   0.408   3.998  2.1559 -1.0735 -0.0090
 3105TIP3   OH2 9278   6.028   2.285   4.546 -0.2078 -0.3442  0.3942
 3105TIP3    H1 9279   6.107   2.281   4.599 -1.3085  2.1714  2.4430
 3105TIP3    H2 9280   5.994   2.196   4.547  0.5700 -0.6872  2.8203
 3106TIP3   OH2 9281   1.027   4.040   2.404 -0.0031  0.4442 -0.4492
 3106TIP3    H1 9282   1.090   4.108   2.430  0.3701 -0.1109  0.1226
 3106TIP3    H2 9283   0.952   4.054   2.461  1.0441 -1.1369  1.4122
 3107TIP3   OH2 9284   1.013   4.123   5.476  0.8348 -0.0519  0.7385
 3107TIP3    H1 9285   0.947   4.177   5.521  0.3512  0.9134 -1.0507
 3107TIP3    H2 9286   1.087   4.182   5.463  1.6721 -0.8326  1.7830
 3108TIP3   OH2 9287   0.862   5.075   1.293  0.7466  0.1697  0.2752
 3108TIP3    H1 9288   0.865   5.127   1.373  1.6542 -0.6338  0.7905
 3108TIP3    H2 9289   0.846   4.986   1.323  0.2510 -0.0161 -0.5090
 3109TIP3   OH2 9290   2.035   6.735   0.990 -0.8894 -0.5081 -0.0878
 3109TIP3    H1 9291   2.038   6.827   1.014 -2.5368 -0.7830  1.3836
 3109TIP3    H2 9292   2.071   6.689   1.066  0.2791 -1.0891 -0.9577
 3110TIP3   OH2 9293   4.212   1.052   4.749  0.0687 -0.0489 -0.3404
 3110TIP3    H1 9294   4.295   1.062   4.797  0.5144 -1.1229 -0.8584
 3110TIP3    H2 9295   4.156   1.004   4.810  1.0752 -2.6023 -1.3144
 3111TIP3   OH2 9296   5.957   3.678   0.973  0.4716  0.5409 -0.0880
 3111TIP3    H1 9297   5.990   3.754   0.926 -0.9731  2.4653  1.7596
 3111TIP3    H2 9298   6.025   3.658   1.037  0.5585  0.7457 -0.1138
 3112TIP3   OH2 9299   6.231   5.002   1.438 -0.1652 -0.1322  0.4126
 3112TIP3    H1 9300   6.156   4.945   1.421 -0.1388 -0.3233  0.9134
 3112TIP3    H2 9301   6.306   4.952   1.405 -0.1014 -0.5459  1.1682
 3113TIP3   OH2 9302   4.118   5.143   2.397  0.0094 -0.4060  0.1765
 3113TIP3    H1 9303   4.193   5.197   2.423 -0.0688  0.6388 -1.6034
 3113TIP3    H2 9304   4.065   5.137   2.476  1.2265  0.0755  1.0761
 3114TIP3   OH2 9305   6.416   3.037   3.919  0.9747 -0.0493  0.4774
 3114TIP3    H1 9306   6.498   3.062   3.877  0.3012 -1.5554 -1.9317
 3114TIP3    H2 9307   6.409   2.942   3.904 -0.6195 -0.1691  1.7077
 3115TIP3   OH2 9308   7.036   3.164   5.436 -0.4583  0.1332 -0.4587
 3115TIP3    H1 9309   7.128   3.187   5.450 -0.2533  0.1980 -1.7676
 3115TIP3    H2 9310   7.039   3.077   5.397 -1.0004 -0.1816  0.1844
 3116TIP3   OH2 9311   1.497   1.590   2.269  0.2760 -0.0478 -0.2315
 3116TIP3    H1 9312   1.443   1.522   2.228 -0.0324  0.2141 -0.2572
 3116TIP3    H2 9313   1.541   1.633   2.196  1.0702 -0.7218 -0.1663
 3117TIP3   OH2 9314   4.336   5.397   4.943 -0.2779 -0.2423  0.1793
 3117TIP3    H1 9315   4.337   5.409   4.848 -1.7566 -1.0074  0.0389
 3117TIP3    H2 9316   4.293   5.475   4.978 -0.2614 -0.2330  0.1784
 3118TIP3   OH2 9317   0.304   0.812   4.343 -0.0540 -0.2718  0.1428
 3118TIP3    H1 9318   0.386   0.764   4.331 -0.1811 -0.7440  1.0026
 3118TIP3    H2 9319   0.268   0.776   4.424 -0.2215  1.2011  0.7504
 3119TIP3   OH2 9320   7.140   1.928   0.030 -0.9939  0.2213 -0.3082
 3119TIP3    H1 9321   7.073   1.960  -0.031 -0.4479  1.4342 -0.2916
 3119TIP3    H2 9322   7.129   1.983   0.108 -0.6120 -0.2222  0.0629
 3120TIP3   OH2 9323   4.336   1.848   4.677  0.8221 -0.2839  0.1492
 3120TIP3    H1 9324   4.271   1.777   4.674 -0.4430  0.8576 -1.6411
 3120TIP3    H2 9325   4.369   1.853   4.587  2.5118 -0.0041  0.7568
 3121TIP3   OH2 9326   4.667   1.504   1.256  0.0587  0.4885  0.9267
 3121TIP3    H1 9327   4.574   1.525   1.259 -0.5039 -1.3860 -1.0542
 3121TIP3    H2 9328   4.706   1.568   1.197 -0.8233 -1.1797 -1.5979
 3122TIP3   OH2 9329   3.019   5.341   0.562  0.4735  0.3749  0.4349
 3122TIP3    H1 9330   3.043   5.266   0.616 -0.3259  0.6382  1.1736
 3122TIP3    H2 9331   2.934   5.318   0.525  0.9418  0.2623 -0.6137
 3123TIP3   OH2 9332   5.015   3.585   2.106 -0.0701 -0.0392  0.3523
 3123TIP3    H1 9333   5.047   3.582   2.196  2.0485 -1.0168 -0.3730
 3123TIP3    H2 9334   5.031   3.676   2.078 -0.9322  0.3220  1.0110
 3124TIP3   OH2 9335   4.196   4.291   4.264 -0.0540 -0.4543  0.9609
 3124TIP3    H1 9336   4.175   4.221   4.326  0.2144 -0.6745  0.8030
 3124TIP3    H2 9337   4.227   4.246   4.186 -0.6738 -0.1853  0.5495
 3125TIP3   OH2 9338   4.863   2.900   2.472 -0.1915 -0.2732  0.2003
 3125TIP3    H1 9339   4.836   2.958   2.401  1.0787 -2.0773 -1.8707
 3125TIP3    H2 9340   4.790   2.839   2.482 -0.0256 -0.5196 -0.1091
 3126TIP3   OH2 9341   6.367   4.618   1.095  0.1177 -0.7666  0.2341
 3126TIP3    H1 9342   6.448   4.573   1.119  1.4104  0.6106 -1.3508
 3126TIP3    H2 9343   6.312   4.610   1.173  1.2190 -2.9149  0.8665
 3127TIP3   OH2 9344   6.993   4.021   5.864  0.6332  0.3712  1.0238
 3127TIP3    H1 9345   6.986   3.952   5.930 -0.1949  0.4939  1.0697
 3127TIP3    H2 9346   7.066   3.994   5.809 -0.5424 -1.2620  0.1923
 3128TIP3   OH2 9347   1.202   2.102   0.855 -0.3303  0.2933 -0.2945
 3128TIP3    H1 9348   1.196   2.078   0.762  0.9038  3.0032 -1.1642
 3128TIP3    H2 9349   1.136   2.170   0.867  0.5183  1.0171  0.4308
 3129TIP3   OH2 9350   0.946   1.754   5.106 -0.2946  0.3898 -0.0881
 3129TIP3    H1 9351   0.877   1.689   5.093 -1.5898  1.4473  1.1405
 3129TIP3    H2 9352   1.026   1.702   5.120 -0.6112 -0.8434 -2.4113
 3130TIP3   OH2 9353   1.898   3.071   1.246  0.8359  0.4074  0.0967
 3130TIP3    H1 9354   1.866   3.145   1.298  0.7600 -0.2844  1.0658
 3130TIP3    H2 9355   1.850   3.078   1.163  1.2899  1.7868 -0.0760
 3131TIP3   OH2 9356   1.617   5.731   2.076  0.4528  0.0422  0.6385
 3131TIP3    H1 9357   1.592   5.661   2.136 -0.8077  2.1981  2.7753
 3131TIP3    H2 9358   1.619   5.810   2.130  0.0114  1.9992 -2.0113
 3132TIP3   OH2 9359   0.317   2.253   5.152 -0.3205 -0.0612  0.0523
 3132TIP3    H1 9360   0.315   2.232   5.246 -0.2411 -0.5030 -0.0437
 3132TIP3    H2 9361   0.269   2.336   5.145 -2.5553 -1.2866  0.1611
 3133TIP3   OH2 9362   0.632   1.606   0.820  0.2060 -0.0882  0.4744
 3133TIP3    H1 9363   0.697   1.676   0.830 -0.2029  0.4172 -0.3024
 3133TIP3    H2 9364   0.609   1.607   0.727  1.1559 -2.1414  0.1592
 3134TIP3   OH2 9365   6.761   5.339   2.235 -0.4320 -0.4099  0.2353
 3134TIP3    H1 9366   6.673   5.377   2.239  0.2549  1.3702 -0.5232
 3134TIP3    H2 9367   6.751   5.251   2.270 -2.5903 -0.3745 -0.1633
 3135TIP3   OH2 9368   3.751   1.438   2.875 -0.4870 -0.1593 -0.4865
 3135TIP3    H1 9369   3.789   1.357   2.909  0.2989 -0.4153 -1.8980
 3135TIP3    H2 9370   3.698   1.410   2.801  0.1856  0.6323 -1.2992
 3136TIP3   OH2 9371   2.563   3.242   1.788 -0.3762 -0.3720 -0.2641
 3136TIP3    H1 9372   2.482   3.272   1.829  1.2538  1.9601  1.5820
 3136TIP3    H2 9373   2.618   3.215   1.862  1.7084  1.3794 -1.0357
 3137TIP3   OH2 9374   2.679   3.511   0.483  0.4657  0.0530  0.3316
 3137TIP3    H1 9375   2.733   3.528   0.561 -1.0976  2.3761  1.0160
 3137TIP3    H2 9376   2.664   3.416   0.485  3.7164 -0.5739  0.5656
 3138TIP3   OH2 9377   5.842   4.274   0.318 -0.5174 -0.5072 -0.0724
 3138TIP3    H1 9378   5.851   4.369   0.316 -0.3093 -0.5344 -0.9926
 3138TIP3    H2 9379   5.922   4.242   0.276 -0.9740 -1.0572 -0.5375
 3139TIP3   OH2 9380   5.834   1.581   0.861 -0.5429 -0.0951  0.0542
 3139TIP3    H1 9381   5.750   1.627   0.860 -0.3212  0.3151  0.2376
 3139TIP3    H2 9382   5.814   1.497   0.904 -0.6909  0.3386  0.8505
 3140TIP3   OH2 9383   1.285   3.552   3.041  0.0623 -0.6542 -0.2866
 3140TIP3    H1 9384   1.286   3.601   3.124  0.2510  0.7582 -1.0988
 3140TIP3    H2 9385   1.192   3.537   3.024 -0.2780  2.3089 -1.6207
 3141TIP3   OH2 9386   6.687   5.570   1.656  1.0249  0.2729 -0.0165
 3141TIP3    H1 9387   6.721   5.526   1.579 -0.3659 -1.6018  0.3569
 3141TIP3    H2 9388   6.708   5.512   1.729  0.1778  0.7952  0.6739
 3142TIP3   OH2 9389   1.115   1.741   3.152  0.5745 -0.3329 -0.4271
 3142TIP3    H1 9390   1.179   1.672   3.165  1.2468 -0.0742 -2.1075
 3142TIP3    H2 9391   1.130   1.772   3.062 -1.9052 -0.2785 -0.9128
 3143TIP3   OH2 9392   0.986   1.713   1.742 -0.0459  0.0927  0.1503
 3143TIP3    H1 9393   0.937   1.674   1.814 -0.8264  0.3767 -0.2139
 3143TIP3    H2 9394   0.979   1.648   1.671  0.4914 -0.0684  0.2456
 3144TIP3   OH2 9395   3.211   0.338   2.148 -0.1156 -0.2655 -0.1200
 3144TIP3    H1 9396   3.303   0.333   2.124  0.1231  0.1237  0.6611
 3144TIP3    H2 9397   3.210   0.319   2.242 -0.4417  2.6505  0.5765
 3145TIP3   OH2 9398   1.860   2.187   5.088 -0.0252 -0.2020 -0.0501
 3145TIP3    H1 9399   1.851   2.166   4.995  1.9281  2.1813 -0.8907
 3145TIP3    H2 9400   1.945   2.150   5.113  0.5983  1.2265  0.0749
 3146TIP3   OH2 9401   3.916   4.739   5.540 -0.7892 -0.2080 -0.0577
 3146TIP3    H1 9402   3.866   4.716   5.618  0.2710 -1.7057  0.2306
 3146TIP3    H2 9403   3.979   4.804   5.571  0.6827 -1.9329  0.7796
 3147TIP3   OH2 9404   6.499   5.532   0.616 -0.8911  0.2604  0.1642
 3147TIP3    H1 9405   6.526   5.624   0.605  2.9917 -0.7208  0.1552
 3147TIP3    H2 9406   6.487   5.522   0.710  0.8297  0.3483  0.4317
 3148TIP3   OH2 9407   4.051   2.931   0.474  0.4840 -0.5362 -0.7713
 3148TIP3    H1 9408   3.981   2.866   0.462  0.4420 -0.4578 -0.9592
 3148TIP3    H2 9409   4.086   2.913   0.561  0.5841 -0.9188 -0.8903
 3149TIP3   OH2 9410   2.729   6.048   2.799 -0.1858 -0.1434  0.6333
 3149TIP3    H1 9411   2.810   6.082   2.837  0.3058  0.3840 -0.8151
 3149TIP3    H2 9412   2.743   5.954   2.792 -0.2507 -0.2397  1.6347
 3150TIP3   OH2 9413   2.048   3.203   2.670  0.7255  0.6749 -0.1081
 3150TIP3    H1 9414   1.995   3.144   2.724  2.0359  1.4137  2.1206
 3150TIP3    H2 9415   2.082   3.148   2.600  1.0699 -1.0090  1.3127
 3151TIP3   OH2 9416   1.888   6.171   4.533  0.1638  0.1662  0.1935
 3151TIP3    H1 9417   1.854   6.232   4.467 -0.5322 -1.5312 -1.0937
 3151TIP3    H2 9418   1.976   6.203   4.553  0.5498  0.5039 -1.8741
 3152TIP3   OH2 9419   4.274   2.652   4.711 -0.0450 -0.8256  0.3448
 3152TIP3    H1 9420   4.211   2.717   4.678 -0.6898 -0.6381  1.8323
 3152TIP3    H2 9421   4.318   2.619   4.633 -0.0519  1.0348 -0.5176
 3153TIP3   OH2 9422   1.375   3.165   4.641 -0.3338  0.0404  0.5241
 3153TIP3    H1 9423   1.358   3.120   4.724  3.6145 -1.6275  0.6545
 3153TIP3    H2 9424   1.421   3.100   4.588  2.6912  2.7989 -0.5768
 3154TIP3   OH2 9425   2.354   3.846   2.734 -0.4142  0.7338 -0.1606
 3154TIP3    H1 9426   2.374   3.832   2.641 -0.6389  1.5119 -0.3382
 3154TIP3    H2 9427   2.439   3.840   2.778  0.0225  2.3631 -0.6930
 3155TIP3   OH2 9428   3.774   2.439   4.249  0.0517  0.2469 -0.2117
 3155TIP3    H1 9429   3.805   2.407   4.333 -1.6945 -1.1319 -0.0174
 3155TIP3    H2 9430   3.709   2.506   4.271 -0.2356  0.0536 -0.4470
 3156TIP3   OH2 9431   4.034   3.986   2.412  0.1623  0.1788 -0.6628
 3156TIP3    H1 9432   3.941   4.000   2.393  0.1940  0.0158 -0.9346
 3156TIP3    H2 9433   4.069   3.947   2.333 -0.1665 -2.4985  0.4104
 3157TIP3   OH2 9434   2.572   3.845   3.645 -0.4313  0.0947  0.1820
 3157TIP3    H1 9435   2.530   3.771   3.690  1.9081 -1.1812  0.4313
 3157TIP3    H2 9436   2.638   3.804   3.590  0.5603  1.9934 -0.1058
 3158TIP3   OH2 9437   2.087   4.308   3.316  0.5657 -0.1295 -0.1138
 3158TIP3    H1 9438   2.093   4.216   3.292 -1.0244 -0.3089  0.0443
 3158TIP3    H2 9439   2.135   4.315   3.398  0.7593 -0.8113 -0.1642
 3159TIP3   OH2 9440   0.850   2.983   0.759 -0.3805 -0.4410 -0.2858
 3159TIP3    H1 9441   0.869   2.890   0.772 -1.5074 -0.8479 -1.3134
 3159TIP3    H2 9442   0.791   2.985   0.684 -2.7619  0.8664  1.4897
 3160TIP3   OH2 9443   5.766   2.895   3.032  0.6161  0.1211  0.5693
 3160TIP3    H1 9444   5.823   2.922   3.104  0.7275  2.2832 -0.2365
 3160TIP3    H2 9445   5.680   2.881   3.073  0.5563  1.7996  1.1084
 3161TIP3   OH2 9446   4.619   3.625   2.157 -0.3934  0.4241  0.4170
 3161TIP3    H1 9447   4.671   3.605   2.080  0.7227 -0.1736  1.2990
 3161TIP3    H2 9448   4.656   3.707   2.191  1.1417 -0.8452  1.9819
 3162TIP3   OH2 9449   3.963   4.520   1.411 -0.2239  0.3382 -0.7105
 3162TIP3    H1 9450   3.920   4.516   1.496  1.0769 -2.0018 -0.0710
 3162TIP3    H2 9451   4.055   4.540   1.432  0.1082 -0.2565 -1.5630
 3163TIP3   OH2 9452   6.958   1.630   0.812 -0.0861 -0.2318  0.3096
 3163TIP3    H1 9453   6.993   1.665   0.894  2.4313  1.6915 -1.4315
 3163TIP3    H2 9454   7.011   1.553   0.794  0.2177  0.0697 -0.1071
 3164TIP3   OH2 9455   5.857   2.994   5.410 -0.0854  0.1528 -0.0823
 3164TIP3    H1 9456   5.832   3.015   5.320  0.0771  0.8938  0.0451
 3164TIP3    H2 9457   5.949   3.019   5.416 -0.0064 -0.2012  0.1991
 3165TIP3   OH2 9458   5.452   4.493   3.204  0.0139 -0.2790  0.1508
 3165TIP3    H1 9459   5.494   4.465   3.122  0.2924 -0.7347  0.4449
 3165TIP3    H2 9460   5.497   4.575   3.227 -0.7814  0.4268 -0.6957
 3166TIP3   OH2 9461   6.841   1.345   4.730  0.0031 -0.4627 -0.3859
 3166TIP3    H1 9462   6.861   1.415   4.792 -2.7268  1.1333 -1.1405
 3166TIP3    H2 9463   6.808   1.273   4.785 -0.5020  0.1793  0.1655
 3167TIP3   OH2 9464   2.780   5.093   3.409 -0.0848 -0.0436  0.3957
 3167TIP3    H1 9465   2.690   5.103   3.440  0.5844 -0.6617  2.7038
 3167TIP3    H2 9466   2.830   5.158   3.457  0.3764  2.4320 -3.0310
 3168TIP3   OH2 9467   2.790   0.082   0.656  0.0560  0.1789 -0.3469
 3168TIP3    H1 9468   2.818   0.023   0.586 -1.0768  0.9472 -1.4980
 3168TIP3    H2 9469   2.837   0.164   0.638  0.7083  0.0267  0.5491
 3169TIP3   OH2 9470   1.511   0.120   2.270 -0.0034  0.2202 -0.1404
 3169TIP3    H1 9471   1.590   0.076   2.241  0.3800  0.2833  0.7843
 3169TIP3    H2 9472   1.456   0.050   2.305 -0.1826  0.2337 -0.3905
 3170TIP3   OH2 9473   1.399   4.303   3.415 -0.1496  0.1044  0.1766
 3170TIP3    H1 9474   1.446   4.274   3.337 -0.8415 -0.3452 -0.0820
 3170TIP3    H2 9475   1.390   4.397   3.404 -0.6786 -0.0246 -0.5296
 3171TIP3   OH2 9476   3.972   1.788   4.700 -0.5099 -0.2159 -0.2384
 3171TIP3    H1 9477   3.994   1.869   4.654 -0.4229 -1.0259 -1.6651
 3171TIP3    H2 9478   4.040   1.780   4.767 -0.0601  0.4864 -0.5931
 3172TIP3   OH2 9479   0.508   4.296   3.148  0.4055  0.4288 -0.3904
 3172TIP3    H1 9480   0.552   4.381   3.146 -0.2906  0.8222  0.4391
 3172TIP3    H2 9481   0.579   4.232   3.144  0.8794  0.9896 -2.8452
 3173TIP3   OH2 9482   6.951   3.382   1.487 -0.2391 -0.8459 -0.5977
 3173TIP3    H1 9483   7.035   3.391   1.532 -1.2405  0.6940  1.0555
 3173TIP3    H2 9484   6.922   3.293   1.509  0.1066 -0.7355  0.3264
 3174TIP3   OH2 9485   1.454   5.914   3.813  0.2829 -0.1414  0.8204
 3174TIP3    H1 9486   1.519   5.908   3.884  1.9358 -0.2009 -0.6391
 3174TIP3    H2 9487   1.374   5.877   3.851  2.1123 -3.8296  1.5196
 3175TIP3   OH2 9488   3.608   2.124   0.495 -0.2501 -0.4356  0.3453
 3175TIP3    H1 9489   3.693   2.161   0.474 -0.0494 -1.0441  0.0556
 3175TIP3    H2 9490   3.556   2.198   0.525  0.3246 -0.0299  0.3487
 3176TIP3   OH2 9491   6.231   0.034   2.116 -0.2509  0.1164  0.1864
 3176TIP3    H1 9492   6.294  -0.027   2.154 -0.6972  0.2593  1.1677
 3176TIP3    H2 9493   6.210   0.095   2.186 -1.5580  0.0113 -0.0825
 3177TIP3   OH2 9494   0.343   3.028   3.064  0.0450 -0.0510  0.2052
 3177TIP3    H1 9495   0.334   2.935   3.087 -0.8919 -0.3269 -1.1972
 3177TIP3    H2 9496   0.438   3.041   3.057  0.2503 -0.5751  1.5931
 3178TIP3   OH2 9497   7.120   0.934   3.631  0.4198 -0.1837  0.0202
 3178TIP3    H1 9498   7.177   1.011   3.636  0.4791 -0.2148 -0.1444
 3178TIP3    H2 9499   7.044   0.964   3.582  0.5873 -0.3123 -0.3252
 3179TIP3   OH2 9500   2.591   3.889   4.989 -0.1075 -0.4727  0.0988
 3179TIP3    H1 9501   2.667   3.901   5.046  1.3480  0.1080 -1.8348
 3179TIP3    H2 9502   2.628   3.863   4.904 -2.1746 -1.5028 -0.5743
 3180TIP3   OH2 9503   6.325   4.024   0.203  0.5011  0.2484 -0.2155
 3180TIP3    H1 9504   6.248   4.056   0.156 -0.0534  0.6814  0.9639
 3180TIP3    H2 9505   6.381   4.101   0.213  0.0600  0.4379  0.8927
 3181TIP3   OH2 9506   2.380   6.146   1.852  0.5412 -0.4156 -0.2115
 3181TIP3    H1 9507   2.292   6.136   1.889  0.6425  0.4183  0.2886
 3181TIP3    H2 9508   2.439   6.131   1.926  0.9104 -2.5760 -0.8723
 3182TIP3   OH2 9509   2.307   2.975   2.215  0.0025 -0.1194  0.1860
 3182TIP3    H1 9510   2.353   3.058   2.215 -0.0998 -0.0482 -0.6928
 3182TIP3    H2 9511   2.372   2.911   2.186  0.0672 -0.3454  0.8065
 3183TIP3   OH2 9512   1.422   3.392   5.284  0.3032 -0.4184  0.1731
 3183TIP3    H1 9513   1.401   3.316   5.339 -0.9398  0.1808  0.5711
 3183TIP3    H2 9514   1.373   3.376   5.203 -0.5616  0.2887  0.5383
 3184TIP3   OH2 9515   6.332   6.115   4.557  0.5801  0.5066 -0.2873
 3184TIP3    H1 9516   6.399   6.178   4.531  0.1413  0.0894 -2.7292
 3184TIP3    H2 9517   6.255   6.139   4.504 -0.7158  0.0092  1.2836
 3185TIP3   OH2 9518   6.222   3.674   5.848 -0.2793 -0.0500  0.2195
 3185TIP3    H1 9519   6.284   3.714   5.909  0.3888  1.0883 -1.1531
 3185TIP3    H2 9520   6.213   3.584   5.879  0.4494  0.3340  1.6613
 3186TIP3   OH2 9521   3.405   2.159   3.271  0.6722 -0.7489 -0.7093
 3186TIP3    H1 9522   3.461   2.086   3.246  0.5271 -0.9545 -0.4240
 3186TIP3    H2 9523   3.330   2.153   3.213  0.5646 -0.9437 -0.5483
 3187TIP3   OH2 9524   5.344   1.809   2.661  0.2078  0.1016  0.2741
 3187TIP3    H1 9525   5.413   1.826   2.725 -0.4101  1.8567  0.5425
 3187TIP3    H2 9526   5.390   1.795   2.578  0.9281 -0.3046  0.7321
 3188TIP3   OH2 9527   2.044   3.792   3.813  0.3555 -0.4446 -0.5534
 3188TIP3    H1 9528   2.107   3.862   3.831 -1.4634  1.2578 -0.5413
 3188TIP3    H2 9529   2.057   3.730   3.884  1.5813  0.1754 -0.2049
 3189TIP3   OH2 9530   0.611   0.240   0.963  0.3047 -0.1323  0.1424
 3189TIP3    H1 9531   0.684   0.280   1.011 -0.1813 -0.5996  1.2808
 3189TIP3    H2 9532   0.632   0.147   0.961  0.1935 -0.1502 -0.3484
 3190TIP3   OH2 9533   3.310   4.021   4.391 -0.1644 -0.0022 -0.2914
 3190TIP3    H1 9534   3.253   3.953   4.353  1.1852 -0.5964 -1.3541
 3190TIP3    H2 9535   3.360   4.054   4.316 -0.5038  1.9007  0.2873
 3191TIP3   OH2 9536   6.362   0.536   5.742  0.2048 -0.2110 -0.1459
 3191TIP3    H1 9537   6.410   0.489   5.674  1.3314  1.5128 -0.6317
 3191TIP3    H2 9538   6.270   0.523   5.720  0.2795 -4.1750  1.1899
 3192TIP3   OH2 9539   2.212   5.328   1.038 -0.1153 -0.0556  0.3543
 3192TIP3    H1 9540   2.120   5.335   1.064  0.0540 -0.9698  1.3129
 3192TIP3    H2 9541   2.209   5.300   0.947 -0.8232 -0.9578  0.6308
 3193TIP3   OH2 9542   5.895   4.572   4.366  0.3002 -0.1896  0.2463
 3193TIP3    H1 9543   5.968   4.538   4.314  2.1565  0.9687  1.9573
 3193TIP3    H2 9544   5.829   4.596   4.301  2.1079  0.3239 -1.5128
 3194TIP3   OH2 9545   2.567   2.680   2.404  0.5296 -0.1469  0.1465
 3194TIP3    H1 9546   2.484   2.684   2.453  0.1744 -1.1305 -0.3586
 3194TIP3    H2 9547   2.591   2.588   2.405  1.0522 -0.0230 -0.6551
 3195TIP3   OH2 9548   2.488   2.428   4.141 -0.0167 -0.1895 -0.2576
 3195TIP3    H1 9549   2.478   2.477   4.060 -1.3851 -1.1178 -0.6819
 3195TIP3    H2 9550   2.528   2.346   4.115  0.0660 -0.2601  0.0897
 3196TIP3   OH2 9551   2.051   3.328   3.986 -0.2891 -0.0195  1.0203
 3196TIP3    H1 9552   2.039   3.268   4.059  0.2361 -2.3432 -0.6727
 3196TIP3    H2 9553   1.963   3.336   3.947 -0.2938  0.0465  1.0436
 3197TIP3   OH2 9554   5.389   5.866   3.128  0.4921  0.2355  0.0515
 3197TIP3    H1 9555   5.400   5.960   3.112  2.0388  0.5290  2.3363
 3197TIP3    H2 9556   5.448   5.824   3.065  0.9936  0.9058  0.0593
 3198TIP3   OH2 9557   3.810   6.808   1.124  0.5268 -0.2555 -0.2625
 3198TIP3    H1 9558   3.837   6.728   1.170  0.4052  0.1215  0.4789
 3198TIP3    H2 9559   3.813   6.784   1.031  0.3211 -1.1766 -0.0457
 3199TIP3   OH2 9560   6.720   1.952   4.434  0.1121 -0.5773 -0.0758
 3199TIP3    H1 9561   6.742   1.867   4.471 -1.6723 -1.3948 -0.7295
 3199TIP3    H2 9562   6.798   2.006   4.447  0.2308 -1.3547  3.1236
 3200TIP3   OH2 9563   5.585   3.734   3.439 -0.3320 -0.0807  0.4447
 3200TIP3    H1 9564   5.579   3.755   3.532  0.6901 -0.2263  0.5534
 3200TIP3    H2 9565   5.614   3.643   3.437 -1.5933 -0.4981 -0.0296
 3201TIP3   OH2 9566   1.675   2.828   1.196 -0.0909 -0.3304  0.1762
 3201TIP3    H1 9567   1.699   2.892   1.263 -1.1238 -1.1374  1.3560
 3201TIP3    H2 9568   1.758   2.801   1.157  0.3182  3.1840 -1.8116
 3202TIP3   OH2 9569   5.944   3.650   1.441 -0.4708 -0.3487  0.4853
 3202TIP3    H1 9570   5.875   3.630   1.378  2.0407 -2.3023 -1.9283
 3202TIP3    H2 9571   5.990   3.725   1.403 -0.5392  0.2177  1.4803
 3203TIP3   OH2 9572   6.044   4.896   3.562  0.4721  0.2021 -0.3245
 3203TIP3    H1 9573   6.093   4.879   3.481  0.1707  0.3923 -0.5510
 3203TIP3    H2 9574   6.070   4.825   3.621  0.3182 -0.2261 -0.7587
 3204TIP3   OH2 9575   3.726   1.719   4.809 -0.4833  0.5436 -0.0142
 3204TIP3    H1 9576   3.820   1.711   4.794 -0.4281 -0.9471  0.8609
 3204TIP3    H2 9577   3.716   1.800   4.859  0.3687  0.5623  0.1486
 3205TIP3   OH2 9578   1.354   2.877   1.461 -0.0392  0.1479 -0.3587
 3205TIP3    H1 9579   1.343   2.795   1.509 -1.2533  0.2450 -0.4463
 3205TIP3    H2 9580   1.344   2.945   1.527 -1.0165  0.2646 -0.6155
 3206TIP3   OH2 9581   0.849   1.847   2.887  0.3569 -0.0374 -0.4301
 3206TIP3    H1 9582   0.883   1.798   2.961  0.8376  0.5808 -0.2319
 3206TIP3    H2 9583   0.772   1.798   2.859 -0.8469  0.6030  1.5379
 3207TIP3   OH2 9584   2.060   0.264   2.441  0.2284  0.5473  0.3911
 3207TIP3    H1 9585   2.104   0.260   2.526  0.2829  0.9963  0.3892
 3207TIP3    H2 9586   1.967   0.269   2.462  0.3142  2.8501  0.5284
 3208TIP3   OH2 9587   5.704   6.182   1.293 -0.2401  0.1310 -0.2344
 3208TIP3    H1 9588   5.789   6.138   1.287 -0.5378 -0.3163 -1.9917
 3208TIP3    H2 9589   5.722   6.264   1.340  1.1710  0.0716 -0.6187
 3209TIP3   OH2 9590   4.997   1.643   4.150  0.3947 -0.4910 -0.6890
 3209TIP3    H1 9591   5.054   1.605   4.083 -0.0944 -0.3949 -1.1688
 3209TIP3    H2 9592   4.986   1.734   4.124 -2.9175 -1.2978 -2.7419
 3210TIP3   OH2 9593   2.151   1.533   4.400  0.2473 -0.1848 -0.4721
 3210TIP3    H1 9594   2.081   1.536   4.334 -1.2576  1.0282  1.0957
 3210TIP3    H2 9595   2.171   1.440   4.410 -1.1142 -0.5508 -0.9764
 3211TIP3   OH2 9596   0.225   5.957   1.403  0.0033 -0.2219  0.7507
 3211TIP3    H1 9597   0.293   6.012   1.441  0.9039 -1.1018  0.4529
 3211TIP3    H2 9598   0.251   5.867   1.426 -0.7078 -0.6094  0.0854
 3212TIP3   OH2 9599   0.878   6.223   3.584  0.1074 -0.3962  0.2629
 3212TIP3    H1 9600   0.943   6.293   3.580 -0.2334 -0.0237  1.0759
 3212TIP3    H2 9601   0.801   6.260   3.540  0.1816 -0.5514 -0.0011
 3213TIP3   OH2 9602   3.671   1.513   1.514  0.5537  0.0560 -0.6714
 3213TIP3    H1 9603   3.608   1.450   1.479  0.8830 -0.7710  0.2035
 3213TIP3    H2 9604   3.698   1.476   1.598  2.1036  0.4679 -0.9736
 3214TIP3   OH2 9605   0.304   0.592   3.146 -0.0871 -0.0027  0.7169
 3214TIP3    H1 9606   0.311   0.572   3.053  3.6164 -2.9866  1.4143
 3214TIP3    H2 9607   0.359   0.670   3.158 -0.7296  0.5029  0.4008
 3215TIP3   OH2 9608   3.676   4.766   2.240  0.3878  0.1723  0.2440
 3215TIP3    H1 9609   3.626   4.792   2.318  0.0037 -1.2465  0.5148
 3215TIP3    H2 9610   3.748   4.714   2.274  1.3543  1.1601 -0.2420
 3216TIP3   OH2 9611   6.699   6.063   3.633  0.4477 -0.0462  0.2218
 3216TIP3    H1 9612   6.707   6.013   3.552  2.8553  2.0416 -0.9515
 3216TIP3    H2 9613   6.608   6.095   3.632  0.6042  0.5037 -2.0243
 3217TIP3   OH2 9614   1.389   2.402   2.404  0.1378 -0.5531 -0.0709
 3217TIP3    H1 9615   1.306   2.369   2.368  0.3099  0.4597 -1.4639
 3217TIP3    H2 9616   1.446   2.325   2.408 -0.1518 -0.8505 -1.2570
 3218TIP3   OH2 9617   1.811   2.590   1.857  0.4594  0.4964  0.0057
 3218TIP3    H1 9618   1.877   2.543   1.805 -0.9818  0.1593 -1.6101
 3218TIP3    H2 9619   1.740   2.606   1.796 -1.3309  0.1354  1.8951
 3219TIP3   OH2 9620   2.048   4.170   2.477  0.5328 -0.2797  0.2203
 3219TIP3    H1 9621   1.968   4.210   2.444 -0.2187 -1.0995  1.0041
 3219TIP3    H2 9622   2.088   4.128   2.401 -1.5836 -2.8550  0.4155
 3220TIP3   OH2 9623   5.831   0.114   3.227  0.3103 -0.5646  0.1247
 3220TIP3    H1 9624   5.772   0.179   3.190  2.6207  1.1309 -0.8017
 3220TIP3    H2 9625   5.829   0.131   3.321  0.8206  0.8244 -0.1003
 3221TIP3   OH2 9626   0.693   2.171   1.989 -0.5903 -0.5799 -0.0849
 3221TIP3    H1 9627   0.704   2.203   1.900  1.0082  1.0462  0.6124
 3221TIP3    H2 9628   0.628   2.230   2.028 -1.1450 -1.1653 -0.1151
 3222TIP3   OH2 9629   1.083   6.416   3.565 -0.0057 -0.0621  0.3650
 3222TIP3    H1 9630   1.114   6.400   3.654 -0.3544 -0.2568  0.4560
 3222TIP3    H2 9631   1.155   6.387   3.509  0.7489  1.3019  0.6013
 3223TIP3   OH2 9632   5.335   4.604   3.832  0.4359  0.0671  0.0201
 3223TIP3    H1 9633   5.364   4.562   3.913 -0.0734 -1.9502 -0.7999
 3223TIP3    H2 9634   5.345   4.537   3.765  1.6639  1.9276 -1.8097
 3224TIP3   OH2 9635   2.165   4.690   3.705  0.1127 -0.1967 -0.1150
 3224TIP3    H1 9636   2.091   4.640   3.671  1.2731 -1.1587 -1.3231
 3224TIP3    H2 9637   2.130   4.778   3.718 -0.9954 -0.3647 -1.6637
 3225TIP3   OH2 9638   0.750   1.108   3.919 -0.5492  0.7379 -0.5843
 3225TIP3    H1 9639   0.754   1.079   4.011 -1.7247 -2.2332 -1.3389
 3225TIP3    H2 9640   0.828   1.068   3.879 -0.8811  0.6764 -1.1756
 3226TIP3   OH2 9641   6.956   1.094   1.312 -0.1033  0.4343  0.3853
 3226TIP3    H1 9642   7.039   1.141   1.302  0.8559 -1.3299 -0.2951
 3226TIP3    H2 9643   6.911   1.140   1.384  1.4146  1.4487  0.7314
 3227TIP3   OH2 9644   4.299   5.327   2.491  0.3384  0.0932  0.1893
 3227TIP3    H1 9645   4.272   5.404   2.440  0.6718  0.3317  0.3710
 3227TIP3    H2 9646   4.393   5.340   2.505 -0.0513  0.9545  2.4346
 3228TIP3   OH2 9647   4.335   3.896   2.091 -0.1674  0.2208  0.2870
 3228TIP3    H1 9648   4.247   3.920   2.121 -0.2503  0.9482 -0.4761
 3228TIP3    H2 9649   4.367   3.834   2.156 -0.2981  1.7866  1.9339
 3229TIP3   OH2 9650   4.673   3.071   2.801  0.2205 -0.0890  0.3856
 3229TIP3    H1 9651   4.711   3.093   2.716 -1.5360 -2.0987 -1.0131
 3229TIP3    H2 9652   4.636   3.153   2.833 -0.4773  0.4016 -1.5563
 3230TIP3   OH2 9653   7.028  -0.002   4.736  0.3377  0.3417 -0.2403
 3230TIP3    H1 9654   7.076   0.044   4.805 -0.1286  0.2436  0.1484
 3230TIP3    H2 9655   7.029   0.058   4.662  1.1428  0.3057 -0.2742
 3231TIP3   OH2 9656   4.374   3.879   3.950 -0.6243 -0.1410 -0.0001
 3231TIP3    H1 9657   4.300   3.905   3.895  1.2660  1.5199 -1.9108
 3231TIP3    H2 9658   4.414   3.806   3.902 -0.6001 -0.5521  0.6449
 3232TIP3   OH2 9659   4.019   4.957   3.333 -0.0864  0.1912 -0.2215
 3232TIP3    H1 9660   4.083   4.919   3.273 -3.1993 -3.7434 -1.4887
 3232TIP3    H2 9661   3.992   5.039   3.291  2.3218  0.7624 -0.7911
 3233TIP3   OH2 9662   4.241   3.284   4.231 -0.8178 -0.3299 -0.1064
 3233TIP3    H1 9663   4.304   3.278   4.159 -1.6665 -0.6624 -0.8463
 3233TIP3    H2 9664   4.295   3.299   4.309  0.0291  1.8878 -1.0227
 3234TIP3   OH2 9665   6.762   4.763   2.033  0.6548  0.1295 -0.7336
 3234TIP3    H1 9666   6.839   4.778   1.979  1.8278 -0.5149  0.6949
 3234TIP3    H2 9667   6.699   4.721   1.974  1.9225 -0.6540 -1.5829
 3235TIP3   OH2 9668   3.161   4.466   1.681 -0.0970  0.3700  0.3955
 3235TIP3    H1 9669   3.166   4.469   1.777  1.0640 -1.1184  0.4233
 3235TIP3    H2 9670   3.143   4.556   1.655  2.3751  1.3870  1.8882
 3236TIP3   OH2 9671   5.300   5.906   1.721  0.1830 -0.0931  1.0322
 3236TIP3    H1 9672   5.284   5.875   1.810  0.1292 -0.2686  0.9605
 3236TIP3    H2 9673   5.372   5.969   1.730  1.1444 -1.1517  1.0092
 3237TIP3   OH2 9674   6.151   4.113   3.815 -0.4006 -0.0561  0.1086
 3237TIP3    H1 9675   6.059   4.096   3.796 -0.5948  1.1973 -0.1623
 3237TIP3    H2 9676   6.192   4.027   3.815 -1.3748 -0.5379 -0.7907
 3238TIP3   OH2 9677   0.087   5.544   0.942  0.2306  0.0271  0.2759
 3238TIP3    H1 9678   0.163   5.492   0.917 -1.2147 -2.0116 -0.1138
 3238TIP3    H2 9679   0.119   5.634   0.943  2.1270 -0.5177 -1.9788
 3239TIP3   OH2 9680   5.116   6.454   1.736 -0.5153  0.2990 -0.3158
 3239TIP3    H1 9681   5.073   6.511   1.800 -2.2850 -0.7602 -0.5023
 3239TIP3    H2 9682   5.052   6.385   1.720  0.4610 -0.2016 -2.2005
 3240TIP3   OH2 9683   6.275   2.623   4.465 -0.0129 -0.3447  0.5020
 3240TIP3    H1 9684   6.360   2.630   4.508  0.1611  0.0951  0.0927
 3240TIP3    H2 9685   6.276   2.536   4.426  0.7435  0.1096 -0.5260
 3241TIP3   OH2 9686   1.373   5.974   3.380 -0.3849  0.0616 -0.1623
 3241TIP3    H1 9687   1.278   5.984   3.371 -0.2908  0.3816 -0.9186
 3241TIP3    H2 9688   1.405   6.063   3.393 -0.1014  0.0675 -0.8769
 3242TIP3   OH2 9689   2.008   2.734   5.677 -0.3483  0.2050 -0.2041
 3242TIP3    H1 9690   1.917   2.713   5.655  0.4914 -0.8032 -3.3312
 3242TIP3    H2 9691   2.026   2.682   5.755 -1.7571 -1.6839 -1.0389
 3243TIP3   OH2 9692   5.481   4.483   0.949 -0.0526  0.0392  0.1032
 3243TIP3    H1 9693   5.428   4.447   0.878 -1.9477  0.9476  0.9830
 3243TIP3    H2 9694   5.502   4.572   0.921 -2.0761  0.9427  1.2198
 3244TIP3   OH2 9695   6.319   1.731   2.405  0.0310 -0.3478 -0.2196
 3244TIP3    H1 9696   6.247   1.756   2.348 -2.0289 -2.4112  1.2912
 3244TIP3    H2 9697   6.358   1.654   2.363 -0.0355 -0.5006 -0.0073
 3245TIP3   OH2 9698   0.484   5.361   5.715 -0.2907  0.0072  0.1212
 3245TIP3    H1 9699   0.534   5.392   5.639 -0.2123 -1.5017 -0.4969
 3245TIP3    H2 9700   0.457   5.273   5.690 -1.3097 -0.0560  1.3829
 3246TIP3   OH2 9701   5.968   0.550   1.883 -0.1329  0.6830  0.2143
 3246TIP3    H1 9702   5.945   0.530   1.974  0.2149 -1.5832 -0.1433
 3246TIP3    H2 9703   5.894   0.518   1.832 -0.7561  2.7687 -0.3173
 3247TIP3   OH2 9704   0.596   3.598   4.027  0.1892 -1.1335 -0.3424
 3247TIP3    H1 9705   0.683   3.622   4.059  0.3661 -0.2974 -1.3864
 3247TIP3    H2 9706   0.589   3.504   4.042  1.4610 -1.2890 -0.6839
 3248TIP3   OH2 9707   4.027   4.489   3.084  0.0814 -0.0301  0.4298
 3248TIP3    H1 9708   4.084   4.427   3.039  0.2243 -0.3670  1.0633
 3248TIP3    H2 9709   4.078   4.518   3.160  0.0802  0.9862  0.0598
 3249TIP3   OH2 9710   1.292   5.506   0.726  0.2640  0.4874 -0.2574
 3249TIP3    H1 9711   1.255   5.420   0.706 -0.0708  0.3370  0.9827
 3249TIP3    H2 9712   1.276   5.558   0.646 -0.5977 -0.2373 -0.5652
 3250TIP3   OH2 9713   0.546   6.108   1.245 -0.1053 -0.3414  0.3956
 3250TIP3    H1 9714   0.518   6.024   1.280 -1.0569 -0.2262 -0.0471
 3250TIP3    H2 9715   0.636   6.094   1.217  0.2952 -0.7494  1.8175
 3251TIP3   OH2 9716   0.559   6.758   2.931 -0.1846  0.4543 -0.3869
 3251TIP3    H1 9717   0.581   6.715   2.848 -0.3235  1.3309 -0.8826
 3251TIP3    H2 9718   0.615   6.714   2.996  1.0603  0.8154 -1.1868
 3252TIP3   OH2 9719   0.603   2.261   5.134 -0.4696  0.2479 -0.3457
 3252TIP3    H1 9720   0.601   2.313   5.215 -0.0508  0.0919 -0.2336
 3252TIP3    H2 9721   0.517   2.220   5.130 -0.6276  0.5521 -0.1742
 3253TIP3   OH2 9722   1.477   5.749   2.565 -1.3631 -0.6333  0.4962
 3253TIP3    H1 9723   1.428   5.779   2.641 -0.8483 -2.5338  1.6356
 3253TIP3    H2 9724   1.550   5.698   2.601  0.6237  0.8110 -1.1864
 3254TIP3   OH2 9725   6.122   0.883   5.208  0.1261 -0.1876  0.1712
 3254TIP3    H1 9726   6.173   0.851   5.283 -1.0174 -1.3481  0.4871
 3254TIP3    H2 9727   6.032   0.886   5.240 -0.1374  1.0995 -0.6147
 3255TIP3   OH2 9728   4.148   2.255   5.279  0.3605  0.5626 -0.1622
 3255TIP3    H1 9729   4.165   2.310   5.356 -0.7709 -1.2139  1.4407
 3255TIP3    H2 9730   4.068   2.293   5.241 -1.1325 -0.5803  1.6478
 3256TIP3   OH2 9731   0.023   4.283   3.036 -0.6565 -0.1825  0.4088
 3256TIP3    H1 9732   0.107   4.259   3.076 -0.4098 -0.4650 -0.2552
 3256TIP3    H2 9733   0.046   4.354   2.975 -1.0796  0.4840  1.0012
 3257TIP3   OH2 9734   0.854   2.949   5.651  0.5852 -0.0359  0.0986
 3257TIP3    H1 9735   0.829   3.027   5.701  0.5561 -0.1407  0.2511
 3257TIP3    H2 9736   0.949   2.952   5.648  0.6190 -0.3499  0.6912
 3258TIP3   OH2 9737   2.556   2.892   0.977 -0.4194 -0.0965  0.0157
 3258TIP3    H1 9738   2.483   2.830   0.979  1.1213 -2.0415  1.5568
 3258TIP3    H2 9739   2.518   2.974   0.948 -2.5860 -1.7556 -2.2276
 3259TIP3   OH2 9740   4.164   3.318   3.201  0.4977  0.2289  0.3600
 3259TIP3    H1 9741   4.196   3.407   3.185  0.9501 -0.0507 -0.3223
 3259TIP3    H2 9742   4.228   3.281   3.262  0.4991  0.2503  0.3717
 3260TIP3   OH2 9743   6.019   4.540   2.313  0.3495 -0.4247 -0.0953
 3260TIP3    H1 9744   6.065   4.463   2.279  2.7180 -0.1095  2.0541
 3260TIP3    H2 9745   6.021   4.603   2.242  0.7060 -1.4442 -1.0114
 3261TIP3   OH2 9746   6.183   4.129   0.470 -0.6897  0.3687  0.3469
 3261TIP3    H1 9747   6.255   4.092   0.521 -1.1671 -0.0358  0.7347
 3261TIP3    H2 9748   6.226   4.185   0.405  0.0543 -0.9004 -0.2983
 3262TIP3   OH2 9749   3.448   6.047   2.225 -0.2225  0.2083  0.3015
 3262TIP3    H1 9750   3.388   5.994   2.277  0.3046 -1.6065 -0.8212
 3262TIP3    H2 9751   3.473   6.119   2.282 -1.9104 -0.0929  1.4780
 3263TIP3   OH2 9752   4.830   4.060   0.254 -0.0281 -0.4123  0.4014
 3263TIP3    H1 9753   4.769   3.996   0.288 -0.3056  0.0204  0.7271
 3263TIP3    H2 9754   4.821   4.053   0.159 -0.2241 -0.6914  0.4388
 3264TIP3   OH2 9755   0.173   1.036   2.700 -0.2348 -0.4837 -0.1816
 3264TIP3    H1 9756   0.160   1.090   2.622  1.8551  1.3055  0.6243
 3264TIP3    H2 9757   0.085   1.001   2.720 -1.3823  1.4135 -1.6170
 3265TIP3   OH2 9758   0.154   0.172   1.205  0.4891 -0.1565 -0.0130
 3265TIP3    H1 9759   0.189   0.199   1.120 -0.9584 -0.3096 -0.6883
 3265TIP3    H2 9760   0.072   0.221   1.214 -0.5592 -1.8731  0.2019
 3266TIP3   OH2 9761   1.855   4.428   0.276 -0.2620  0.3625 -0.1611
 3266TIP3    H1 9762   1.849   4.523   0.267  1.1152  0.4453 -0.4855
 3266TIP3    H2 9763   1.764   4.399   0.283 -0.6537  1.8584  1.8548
 3267TIP3   OH2 9764   2.502   2.547   5.443  0.4983  0.3488  0.0895
 3267TIP3    H1 9765   2.475   2.465   5.403 -1.5455  0.2377  1.5433
 3267TIP3    H2 9766   2.566   2.522   5.509  1.7191  0.2297 -1.1027
 3268TIP3   OH2 9767   6.437   4.117   0.579  0.1354  0.4804 -0.4325
 3268TIP3    H1 9768   6.474   4.032   0.605 -1.2522 -0.2819 -0.8408
 3268TIP3    H2 9769   6.468   4.178   0.646 -0.9919 -0.8721  1.4318
 3269TIP3   OH2 9770   0.875   5.657   5.090 -0.1670  0.3789 -0.2854
 3269TIP3    H1 9771   0.814   5.675   5.019  0.8804  2.3423 -0.7663
 3269TIP3    H2 9772   0.925   5.738   5.099 -0.7271  0.4728  3.1771
 3270TIP3   OH2 9773   5.430   2.726   2.728 -0.1200  0.5268 -0.4461
 3270TIP3    H1 9774   5.383   2.653   2.688  1.7722 -2.0746  1.7210
 3270TIP3    H2 9775   5.522   2.707   2.713  0.5015  3.6147 -1.4848
 3271TIP3   OH2 9776   2.452   3.646   4.818  0.2971 -0.3181 -0.1579
 3271TIP3    H1 9777   2.421   3.575   4.873  0.7135 -0.0757  0.3909
 3271TIP3    H2 9778   2.390   3.718   4.834  0.3485 -0.2865 -0.1033
 3272TIP3   OH2 9779   2.937   5.145   4.524  0.0929 -0.1911 -0.4077
 3272TIP3    H1 9780   3.016   5.164   4.576 -1.2625  2.1441  0.9806
 3272TIP3    H2 9781   2.943   5.203   4.449 -0.1495 -0.2455 -0.4684
 3273TIP3   OH2 9782   5.454   2.452   0.070  0.1820 -0.1795  0.4445
 3273TIP3    H1 9783   5.491   2.406   0.145  2.3632  0.7284 -0.0115
 3273TIP3    H2 9784   5.486   2.405  -0.006 -0.8196 -0.2209  0.0292
 3274TIP3   OH2 9785   6.567   5.922   4.547  0.4227  0.1995  0.2186
 3274TIP3    H1 9786   6.489   5.957   4.591  0.7622 -1.2313  2.0811
 3274TIP3    H2 9787   6.532   5.885   4.466 -1.0450 -1.1345  1.3764
 3275TIP3   OH2 9788   3.506   4.778   0.834 -0.1838 -0.2126  0.2981
 3275TIP3    H1 9789   3.583   4.829   0.809  0.2434 -0.8979  0.2001
 3275TIP3    H2 9790   3.490   4.720   0.760 -1.3061  0.4901 -0.0420
 3276TIP3   OH2 9791   2.866   5.397   0.903 -1.0680  0.2810 -0.5709
 3276TIP3    H1 9792   2.776   5.409   0.931 -0.5477  0.2284  1.2252
 3276TIP3    H2 9793   2.901   5.328   0.960  0.1775  0.4827 -1.0485
 3277TIP3   OH2 9794   2.877   6.227   1.421 -0.3002 -0.0359  0.2314
 3277TIP3    H1 9795   2.933   6.268   1.487  0.4295 -1.1517  0.3277
 3277TIP3    H2 9796   2.930   6.156   1.385 -1.0594 -0.0820 -0.8521
 3278TIP3   OH2 9797   1.483   6.054   4.664  0.3974 -0.3095  0.0868
 3278TIP3    H1 9798   1.481   6.132   4.719  1.9498 -1.9741  2.6882
 3278TIP3    H2 9799   1.405   6.005   4.688 -0.9867  0.6520 -2.0896
 3279TIP3   OH2 9800   2.297   3.436   1.460  1.2631  0.1537  0.2107
 3279TIP3    H1 9801   2.229   3.487   1.505  1.2338  0.9855 -0.7370
 3279TIP3    H2 9802   2.250   3.361   1.424  1.0931  0.0454  0.6473
 3280TIP3   OH2 9803   0.373   1.520   3.060  0.1531 -0.2952 -0.3910
 3280TIP3    H1 9804   0.289   1.501   3.018 -0.5464  1.6707  0.0249
 3280TIP3    H2 9805   0.438   1.479   3.004 -1.0399 -1.3122 -1.0651
 3281TIP3   OH2 9806   5.015   6.284   2.445 -0.2749  0.0597 -0.1000
 3281TIP3    H1 9807   5.015   6.197   2.404  2.5605  0.8119 -1.9697
 3281TIP3    H2 9808   4.939   6.282   2.504 -0.1650 -3.7632  0.1999
 3282TIP3   OH2 9809   0.820   4.277   3.438 -0.1798  0.1361  0.0593
 3282TIP3    H1 9810   0.772   4.338   3.494  0.3226  0.7086 -0.1138
 3282TIP3    H2 9811   0.777   4.193   3.451 -0.1569  0.2813  1.2008
 3283TIP3   OH2 9812   4.110   3.688   4.177 -0.6871 -0.3143  0.3173
 3283TIP3    H1 9813   4.142   3.701   4.088 -1.4022 -1.7160 -0.1656
 3283TIP3    H2 9814   4.073   3.773   4.202  0.5369  0.4162 -0.2771
 3284TIP3   OH2 9815   5.346   0.349   0.098  0.3232 -0.2726 -0.4460
 3284TIP3    H1 9816   5.305   0.412   0.039 -0.3021 -1.3022 -1.1465
 3284TIP3    H2 9817   5.428   0.326   0.055 -1.2973 -3.0223 -2.3979
 3285TIP3   OH2 9818   3.201   2.408   3.318 -0.4592 -0.1695 -0.1703
 3285TIP3    H1 9819   3.122   2.434   3.365 -0.1150 -0.9333  0.8680
 3285TIP3    H2 9820   3.170   2.348   3.251 -0.7523 -0.6517  0.3872
 3286TIP3   OH2 9821   4.926   5.959   1.030 -0.1859  0.4860  0.4698
 3286TIP3    H1 9822   4.989   5.915   0.974 -1.4608  0.2167 -0.8105
 3286TIP3    H2 9823   4.864   5.891   1.055 -2.0918  1.4220 -1.4085
 3287TIP3   OH2 9824   2.991   2.385   2.236  0.3724 -0.4181 -0.9055
 3287TIP3    H1 9825   2.972   2.363   2.145 -1.2813  1.7644 -1.1694
 3287TIP3    H2 9826   3.031   2.472   2.232  0.9468 -0.5992  0.4243
 3288TIP3   OH2 9827   5.712   3.884   2.371 -0.0439 -0.0468 -0.3502
 3288TIP3    H1 9828   5.785   3.938   2.340 -0.7315  0.1807 -1.6342
 3288TIP3    H2 9829   5.679   3.930   2.449  0.0412  0.8284 -0.8213
 3289TIP3   OH2 9830   5.260   4.250   3.089  0.7263  0.4068  0.5903
 3289TIP3    H1 9831   5.265   4.165   3.132 -0.0771  0.9516  1.8136
 3289TIP3    H2 9832   5.292   4.312   3.154 -0.4008  1.2377  0.3784
 3290TIP3   OH2 9833   6.731   1.244   1.193 -0.1296  0.2515  0.3735
 3290TIP3    H1 9834   6.737   1.176   1.126 -2.0230  1.3720 -1.0276
 3290TIP3    H2 9835   6.701   1.198   1.272 -2.7861 -0.4440 -0.9164
 3291TIP3   OH2 9836   5.750   5.522   5.238 -0.3345 -0.1209  0.0061
 3291TIP3    H1 9837   5.759   5.436   5.197  0.8892 -0.4237  0.8513
 3291TIP3    H2 9838   5.656   5.529   5.259 -0.8279 -0.3381 -1.9351
 3292TIP3   OH2 9839   6.086   4.466   4.214 -0.2712  0.4509 -0.4732
 3292TIP3    H1 9840   6.073   4.392   4.155 -0.8051  0.4424 -0.3434
 3292TIP3    H2 9841   6.169   4.505   4.185 -0.7180  0.6779 -1.4778
 3293TIP3   OH2 9842   2.725   5.568   2.603 -0.3161  0.0875 -0.0079
 3293TIP3    H1 9843   2.646   5.569   2.549 -0.3875  1.0074  0.0874
 3293TIP3    H2 9844   2.779   5.499   2.565 -0.4165  0.6198 -1.1919
 3294TIP3   OH2 9845   5.965   4.759   3.120 -0.2587  0.2517 -0.3995
 3294TIP3    H1 9846   5.959   4.816   3.044  0.6691 -3.2828 -3.4111
 3294TIP3    H2 9847   5.889   4.701   3.113 -1.2396  0.9910  2.5904
 3295TIP3   OH2 9848   3.458   2.637   3.939 -0.7811  0.8954 -0.4619
 3295TIP3    H1 9849   3.481   2.659   3.849 -1.0853 -0.5698 -0.9292
 3295TIP3    H2 9850   3.431   2.720   3.978  1.3902  1.9544 -1.0648
 3296TIP3   OH2 9851   1.169   2.070   1.329 -0.5054  0.4283 -0.1606
 3296TIP3    H1 9852   1.166   2.013   1.252 -1.3479 -0.3842  0.4415
 3296TIP3    H2 9853   1.147   2.012   1.402 -0.0745  1.2591  0.6461
 3297TIP3   OH2 9854   0.600   1.260   4.171 -0.1707 -0.3069  0.1002
 3297TIP3    H1 9855   0.518   1.222   4.138 -0.0759 -0.3445 -0.0899
 3297TIP3    H2 9856   0.611   1.341   4.120  0.3996 -0.7748 -0.5365
 3298TIP3   OH2 9857   2.997   3.817   2.097 -0.4513  1.2822 -0.1913
 3298TIP3    H1 9858   2.992   3.888   2.161 -1.2271  1.8826 -0.9038
 3298TIP3    H2 9859   3.075   3.767   2.123 -0.4052  1.8615  0.8512
 3299TIP3   OH2 9860   7.037   3.102   5.737 -0.1295  0.2404 -0.3097
 3299TIP3    H1 9861   6.975   3.031   5.725  2.3246 -2.0724 -0.2404
 3299TIP3    H2 9862   7.097   3.095   5.662  2.9710 -0.9576  2.0639
 3300TIP3   OH2 9863   6.728   2.823   3.899 -0.3600  0.0582  0.2134
 3300TIP3    H1 9864   6.762   2.754   3.842  0.7005 -0.2754  1.2111
 3300TIP3    H2 9865   6.745   2.905   3.851  1.7841 -0.1013  0.6053
 3301TIP3   OH2 9866   6.550   5.220   4.889  0.2508  0.0526 -0.3841
 3301TIP3    H1 9867   6.564   5.129   4.864 -1.2805 -0.4624  0.4764
 3301TIP3    H2 9868   6.636   5.261   4.882  1.0384 -1.5481 -0.4452
 3302TIP3   OH2 9869   6.472   1.766   0.200 -0.4454  0.1847  0.0958
 3302TIP3    H1 9870   6.436   1.716   0.273  1.0552 -0.7230  0.2703
 3302TIP3    H2 9871   6.567   1.753   0.207 -0.0242  2.6506 -0.1734
 3303TIP3   OH2 9872   6.018   4.031   1.001 -0.5592  0.2176  0.5702
 3303TIP3    H1 9873   6.099   3.981   0.991 -1.3888 -0.9350 -0.9841
 3303TIP3    H2 9874   6.019   4.093   0.929 -1.5605 -0.5967 -0.1747
 3304TIP3   OH2 9875   5.298   1.699   1.390  0.3231  0.0609  0.2512
 3304TIP3    H1 9876   5.321   1.792   1.402  1.7134 -0.0009 -1.4520
 3304TIP3    H2 9877   5.204   1.695   1.406  0.1174  1.8966 -0.2443
 3305TIP3   OH2 9878   0.295   3.809   3.122 -0.1579 -0.2567 -0.0381
 3305TIP3    H1 9879   0.377   3.856   3.136 -0.9477  0.9814  0.5934
 3305TIP3    H2 9880   0.297   3.738   3.186  0.1997  0.0528  0.2968
 3306TIP3   OH2 9881   0.108   0.276   5.440  0.0821  0.1586 -0.6916
 3306TIP3    H1 9882   0.020   0.299   5.471  0.6200  1.3350  0.0395
 3306TIP3    H2 9883   0.108   0.181   5.436 -1.9235  0.1434 -2.8056
 3307TIP3   OH2 9884   4.554   6.058   4.507 -0.2303 -0.1735 -0.5283
 3307TIP3    H1 9885   4.469   6.040   4.547 -1.2440 -0.2196 -2.5784
 3307TIP3    H2 9886   4.597   6.116   4.569 -2.2426  0.7990  0.0563
 3308TIP3   OH2 9887   4.264   5.363   3.546  0.4548  0.0933 -0.5467
 3308TIP3    H1 9888   4.269   5.434   3.610  0.1519 -0.3004 -0.0840
 3308TIP3    H2 9889   4.328   5.298   3.577  2.2474  1.0273 -2.0768
 3309TIP3   OH2 9890   6.673   2.449   0.437 -0.3165  0.2339  0.0577
 3309TIP3    H1 9891   6.590   2.409   0.411 -1.7628  1.3744  2.6145
 3309TIP3    H2 9892   6.648   2.526   0.488  2.3020  0.2627  1.4594
 3310TIP3   OH2 9893   1.028   5.052   0.283 -0.0732 -0.2765 -0.0962
 3310TIP3    H1 9894   0.999   4.966   0.314  3.0647 -1.5281 -0.2959
 3310TIP3    H2 9895   1.086   5.033   0.209 -0.2884  2.1276 -0.9799
 3311TIP3   OH2 9896   4.059   5.833   2.960  0.1683 -0.1476 -0.1110
 3311TIP3    H1 9897   3.991   5.889   2.996  1.3143  1.4675 -0.3689
 3311TIP3    H2 9898   4.011   5.763   2.916 -1.3297  0.8751 -0.1753
 3312TIP3   OH2 9899   0.990   2.157   4.797 -0.6235  0.6997  0.4072
 3312TIP3    H1 9900   1.026   2.223   4.738 -1.6518 -0.8569 -2.1906
 3312TIP3    H2 9901   0.906   2.134   4.757 -0.8847 -1.2355  1.9242
 3313TIP3   OH2 9902   7.085   0.155   5.328 -0.1368  0.0915 -0.1228
 3313TIP3    H1 9903   6.993   0.171   5.305  0.6247  1.6950 -2.3332
 3313TIP3    H2 9904   7.135   0.201   5.261  2.3257 -1.8349  0.2644
 3314TIP3   OH2 9905   5.039   0.983   0.828 -0.2278 -0.2099  0.1745
 3314TIP3    H1 9906   5.029   0.926   0.751  1.4259  0.2525 -0.4342
 3314TIP3    H2 9907   4.982   0.944   0.894 -2.1738 -0.2771 -1.4485
 3315TIP3   OH2 9908   5.719   4.804   1.459 -0.2316 -0.4317  0.1964
 3315TIP3    H1 9909   5.679   4.890   1.475  0.6066 -0.2331  1.3016
 3315TIP3    H2 9910   5.653   4.741   1.487 -0.7082 -0.1617 -0.2813
 3316TIP3   OH2 9911   5.490   3.290   4.427  0.3409 -0.5896 -0.0419
 3316TIP3    H1 9912   5.397   3.300   4.449  0.3121 -1.0630  0.0658
 3316TIP3    H2 9913   5.536   3.347   4.489  0.1902 -1.1394  0.5930
 3317TIP3   OH2 9914   4.672   2.924   4.030 -0.1468  0.0945 -0.2233
 3317TIP3    H1 9915   4.732   2.986   4.071 -0.1469  0.4136 -0.6885
 3317TIP3    H2 9916   4.729   2.862   3.984 -0.1586  0.8889 -1.3747
 3318TIP3   OH2 9917   5.004   0.924   4.795  0.2660 -0.2572  0.1211
 3318TIP3    H1 9918   5.063   0.883   4.732  0.1577  1.1075 -0.9206
 3318TIP3    H2 9919   5.005   1.017   4.772 -1.7026 -0.0815  0.5404
 3319TIP3   OH2 9920   1.085   4.625   1.326 -0.0284 -0.0082  0.6016
 3319TIP3    H1 9921   1.034   4.677   1.263  0.2909 -0.0110  0.3395
 3319TIP3    H2 9922   1.025   4.613   1.400  0.0346  1.0890  0.8486
 3320TIP3   OH2 9923   2.492   3.657   1.781  0.5752 -0.2446 -0.1272
 3320TIP3    H1 9924   2.481   3.747   1.814  0.8546 -0.5172  0.7299
 3320TIP3    H2 9925   2.476   3.602   1.857  1.5934 -0.8762 -0.3517
 3321TIP3   OH2 9926   3.078   0.643   2.747  0.1587 -0.3978  0.1735
 3321TIP3    H1 9927   3.083   0.640   2.652  0.4075 -1.0940  0.2051
 3321TIP3    H2 9928   3.125   0.566   2.777 -2.3402 -1.8024  0.7678
 3322TIP3   OH2 9929   3.591   1.422   0.051 -0.1016 -0.3891 -0.1412
 3322TIP3    H1 9930   3.588   1.474  -0.030 -0.3613 -1.4405 -0.8291
 3322TIP3    H2 9931   3.502   1.392   0.063  0.0416 -0.6568  0.2652
 3323TIP3   OH2 9932   4.067   0.745   4.848  0.2747 -0.4057  0.5826
 3323TIP3    H1 9933   4.011   0.809   4.893  1.3462  0.1218  1.2022
 3323TIP3    H2 9934   4.097   0.790   4.770  2.3723  0.5183  1.8481
 3324TIP3   OH2 9935   5.056   5.412   5.800 -0.2893 -0.4068  0.0908
 3324TIP3    H1 9936   4.993   5.364   5.744  0.7200 -0.1140 -1.3540
 3324TIP3    H2 9937   5.137   5.361   5.794  0.2870  0.5063 -0.0112
 3325TIP3   OH2 9938   3.217   1.820   3.434 -0.1284  0.2301 -0.3524
 3325TIP3    H1 9939   3.161   1.853   3.364 -1.4195 -1.5184 -0.1997
 3325TIP3    H2 9940   3.174   1.849   3.515  0.1448  0.3768 -0.2599
 3326TIP3   OH2 9941   1.963   0.422   5.903 -0.6584  0.2572 -0.3243
 3326TIP3    H1 9942   1.912   0.457   5.830 -1.3170  0.4145  0.1955
 3326TIP3    H2 9943   1.918   0.341   5.928 -2.8406  2.1312  2.3974
 3327TIP3   OH2 9944   1.577   3.764   3.957 -0.2091 -0.1137  0.6270
 3327TIP3    H1 9945   1.604   3.853   3.979  0.1446 -0.2256  0.6667
 3327TIP3    H2 9946   1.568   3.764   3.862 -1.4993  0.3075  0.7324
 3328TIP3   OH2 9947   2.875   0.911   3.830 -0.3893 -0.5473  0.0393
 3328TIP3    H1 9948   2.965   0.928   3.802 -0.5705  0.3812  0.0102
 3328TIP3    H2 9949   2.849   0.833   3.781  0.7709 -1.4903  0.8534
 3329TIP3   OH2 9950   0.420   0.129   5.565  0.0849  0.3589 -0.0560
 3329TIP3    H1 9951   0.427   0.035   5.554  0.7646  0.4085 -0.0717
 3329TIP3    H2 9952   0.427   0.164   5.476 -0.1394  0.4240 -0.0477
 3330TIP3   OH2 9953   5.279   2.349   1.332  0.2361  0.2424 -0.3767
 3330TIP3    H1 9954   5.254   2.425   1.385 -2.1658 -0.9163  0.3210
 3330TIP3    H2 9955   5.293   2.385   1.244  0.4082  1.6560  0.2016
 3331TIP3   OH2 9956   3.576   6.229   1.650  0.7382 -0.7088 -0.4165
 3331TIP3    H1 9957   3.646   6.287   1.621  0.3607 -0.2112 -0.3481
 3331TIP3    H2 9958   3.620   6.147   1.671  1.4081 -0.1671  0.3620
 3332TIP3   OH2 9959   1.802   6.358   0.525 -0.0097 -0.0645 -0.5041
 3332TIP3    H1 9960   1.757   6.442   0.527  0.8963  0.4424  1.1448
 3332TIP3    H2 9961   1.747   6.300   0.577  0.8576  0.4039  1.0278
 3333TIP3   OH2 9962   3.923   4.906   2.399  0.1858 -0.2024 -0.7945
 3333TIP3    H1 9963   4.000   4.957   2.372 -0.4872  1.0318 -0.4445
 3333TIP3    H2 9964   3.940   4.819   2.365  1.2151  0.3291 -1.7273
 3334TIP3   OH2 9965   0.824   4.116   2.569  0.9157  0.3370  0.0784
 3334TIP3    H1 9966   0.776   4.088   2.491 -0.1419 -0.4103  0.9631
 3334TIP3    H2 9967   0.789   4.203   2.588  0.4926  0.1314  0.2514
 3335TIP3   OH2 9968   2.650   5.132   1.547 -0.5641  0.2428  0.3960
 3335TIP3    H1 9969   2.673   5.059   1.490 -1.1654  1.1514 -1.0752
 3335TIP3    H2 9970   2.732   5.181   1.557 -0.2241 -0.4615  1.1631
 3336TIP3   OH2 9971   3.718   5.697   2.587 -0.1561  0.0340  0.1347
 3336TIP3    H1 9972   3.645   5.758   2.583 -0.7636 -0.6624  0.4168
 3336TIP3    H2 9973   3.715   5.651   2.503  0.9065  1.0520 -0.4963
 3337TIP3   OH2 9974   4.070   0.742   3.143  0.3098  0.9589 -0.1635
 3337TIP3    H1 9975   4.144   0.703   3.190  0.8140 -0.4325 -1.9511
 3337TIP3    H2 9976   4.100   0.829   3.119  0.6376  1.0979  0.7170
 3338TIP3   OH2 9977   2.283   1.216   0.461  0.0142 -0.0431 -0.2356
 3338TIP3    H1 9978   2.273   1.195   0.554 -0.8733 -0.3750 -0.3917
 3338TIP3    H2 9979   2.376   1.207   0.444  0.2100  0.1877  0.6633
 3339TIP3   OH2 9980   5.824   4.977   4.807 -0.6579  0.5797 -0.1983
 3339TIP3    H1 9981   5.802   4.940   4.892  1.6224  0.2664  0.3155
 3339TIP3    H2 9982   5.742   5.015   4.776 -1.6590  0.3162  1.9270
 3340TIP3   OH2 9983   6.318   1.447   2.855  0.4617 -0.2940  0.4012
 3340TIP3    H1 9984   6.340   1.355   2.840 -0.7260 -0.4992 -0.2217
 3340TIP3    H2 9985   6.322   1.487   2.769 -4.9462 -1.1488 -0.6272
 3341TIP3   OH2 9986   2.253   3.712   0.637 -0.8267 -0.3672 -0.4603
 3341TIP3    H1 9987   2.190   3.646   0.664 -0.2355 -0.7804 -0.0601
 3341TIP3    H2 9988   2.308   3.669   0.572  1.4337 -1.2970  1.8941
 3342TIP3   OH2 9989   2.579   1.786   5.477 -0.0890 -0.1389 -0.1021
 3342TIP3    H1 9990   2.577   1.703   5.525 -2.5703 -0.3382 -0.4497
 3342TIP3    H2 9991   2.525   1.845   5.528  2.1410  1.5555  0.4802
 3343TIP3   OH2 9992   6.456   2.202   5.733  0.3954 -0.2462  0.4200
 3343TIP3    H1 9993   6.442   2.277   5.675 -0.5618 -1.4231 -0.9029
 3343TIP3    H2 9994   6.481   2.242   5.817  0.8736  1.5159 -0.5053
 3344TIP3   OH2 9995   0.593   5.204   2.232  0.1797 -0.2775  0.0838
 3344TIP3    H1 9996   0.584   5.135   2.297  1.9072  0.4737  1.1834
 3344TIP3    H2 9997   0.512   5.200   2.181 -1.0319 -1.1990  1.9750
 3345TIP3   OH2 9998   1.415   4.262   4.383 -0.2804  0.6211  0.4627
 3345TIP3    H1 9999   1.329   4.285   4.418 -0.7914 -0.0940 -0.2820
 3345TIP3    H210000   1.405   4.270   4.288  0.4979  0.5940  0.3733
 3346TIP3   OH210001   0.972   1.158   3.411  0.2522  0.2741  0.6862
 3346TIP3    H110002   1.030   1.170   3.486  0.6795 -1.1942  0.6249
 3346TIP3    H210003   1.013   1.209   3.341  1.0011 -0.0505  0.8819
 3347TIP3   OH210004   6.063   5.418   1.398 -0.1462  0.0810  0.1799
 3347TIP3    H110005   6.055   5.507   1.363 -0.0321 -0.3177 -0.9157
 3347TIP3    H210006   6.031   5.424   1.488 -2.3735  0.7739 -0.5849
 3348TIP3   OH210007   0.857   6.327   0.997 -0.2572 -0.0210  0.0426
 3348TIP3    H110008   0.806   6.283   0.929 -1.3327 -0.0978  0.8625
 3348TIP3    H210009   0.791   6.369   1.052  0.6355  0.7228  0.5692
 3349TIP3   OH210010   0.537   3.972   3.011 -0.7475  0.6710 -0.3671
 3349TIP3    H110011   0.562   3.993   2.921 -1.5280 -0.9815 -1.0125
 3349TIP3    H210012   0.591   4.029   3.065 -1.2372  2.7248 -1.8949
 3350TIP3   OH210013   1.200   0.249   4.907  0.2855  0.1898 -0.5112
 3350TIP3    H110014   1.110   0.275   4.925  0.4151 -0.5800  1.5325
 3350TIP3    H210015   1.238   0.232   4.993  2.2470  0.0068 -1.3510
 3351TIP3   OH210016   5.479   0.803   2.021 -0.4980  0.1035  0.5430
 3351TIP3    H110017   5.460   0.882   2.072 -0.9327 -0.6950  1.6517
 3351TIP3    H210018   5.574   0.793   2.026 -0.4563  0.4740  0.5126
 3352TIP3   OH210019   5.717   6.331   2.769 -0.2691 -0.0402  0.1470
 3352TIP3    H110020   5.737   6.238   2.760  0.4632  0.0533  0.7718
 3352TIP3    H210021   5.655   6.349   2.697  1.6790 -0.3962 -1.7272
 3353TIP3   OH210022   6.153   6.062   3.563 -0.1277  0.2743  0.1546
 3353TIP3    H110023   6.215   6.113   3.614  0.9325  0.9709 -1.7311
 3353TIP3    H210024   6.153   5.975   3.604  1.6481  0.4297  0.5622
 3354TIP3   OH210025   4.115   6.677   1.412  0.1953 -0.5418  0.4063
 3354TIP3    H110026   4.144   6.688   1.321 -1.1566 -0.7765 -0.0664
 3354TIP3    H210027   4.168   6.740   1.461  0.1205  0.4206 -0.7031
 3355TIP3   OH210028   0.435   5.034   0.285 -0.2307 -0.5760  0.0163
 3355TIP3    H110029   0.495   5.103   0.256 -1.2667  0.6835  0.7543
 3355TIP3    H210030   0.405   4.993   0.203  0.1116  0.1182 -0.4666
 3356TIP3   OH210031   2.872   2.603   2.587  0.3220 -0.2923  0.4245
 3356TIP3    H110032   2.835   2.624   2.673 -0.9849  0.9674 -0.3930
 3356TIP3    H210033   2.803   2.628   2.525  0.5468 -2.7430 -0.9307
 3357TIP3   OH210034   0.615   0.474   1.606 -0.8343 -0.3206 -0.4385
 3357TIP3    H110035   0.620   0.472   1.701 -1.7156 -1.2543 -0.4008
 3357TIP3    H210036   0.707   0.468   1.577 -0.6784 -2.9741  0.3386
 3358TIP3   OH210037   0.504   6.135   3.650 -0.1364  0.2684 -0.0846
 3358TIP3    H110038   0.516   6.169   3.561  2.1961 -0.6994 -0.2006
 3358TIP3    H210039   0.447   6.059   3.639  0.5692 -0.1665 -0.8501
 3359TIP3   OH210040   0.275   0.162   2.657  0.4385 -0.4710 -0.4388
 3359TIP3    H110041   0.281   0.069   2.677  1.3364 -0.1339  0.9845
 3359TIP3    H210042   0.231   0.200   2.733 -1.4295  0.0702 -1.7247
 3360TIP3   OH210043   5.168   2.821   1.066 -0.5210  0.2794  0.0162
 3360TIP3    H110044   5.145   2.913   1.055 -0.3642  0.1739 -1.2955
 3360TIP3    H210045   5.206   2.817   1.154 -1.3857  1.2802  0.4551
 3361TIP3   OH210046   2.317   2.028   4.291  0.4786 -0.2618 -0.9190
 3361TIP3    H110047   2.328   2.089   4.363  1.8664 -0.5548 -0.8604
 3361TIP3    H210048   2.347   1.944   4.326  1.2057 -0.4010 -1.8366
 3362TIP3   OH210049   3.597   4.037   2.925 -0.2893 -0.4475  0.0159
 3362TIP3    H110050   3.684   4.076   2.935 -0.5638 -0.1266  1.2567
 3362TIP3    H210051   3.539   4.111   2.906 -0.3407 -0.6357 -0.5995
 3363TIP3   OH210052   2.452   5.436   1.439  1.0666  0.1657  0.2430
 3363TIP3    H110053   2.526   5.467   1.491 -0.3405 -0.1719  2.5715
 3363TIP3    H210054   2.375   5.477   1.478 -0.5783 -3.7583  1.6605
 3364TIP3   OH210055   0.748   2.543   1.060 -0.4420 -0.5141  0.1613
 3364TIP3    H110056   0.706   2.619   1.018  0.3814 -1.4146 -2.5150
 3364TIP3    H210057   0.676   2.496   1.102 -1.9881 -1.0927 -2.8164
 3365TIP3   OH210058   6.988   5.835   5.289  0.3569 -0.2300  0.1350
 3365TIP3    H110059   7.008   5.883   5.209 -0.6175 -0.6156 -0.3542
 3365TIP3    H210060   6.915   5.778   5.266 -0.3828  0.1205  1.4650
 3366TIP3   OH210061   0.945   5.110   2.778 -0.0973  0.6862 -0.2446
 3366TIP3    H110062   1.026   5.105   2.828  1.1573  0.9780 -2.1546
 3366TIP3    H210063   0.944   5.198   2.741 -0.2940  0.0672 -1.7856
 3367TIP3   OH210064   2.985   4.966   2.554 -0.7441  0.1958 -0.3764
 3367TIP3    H110065   2.924   4.962   2.479  0.7561 -2.6581 -1.5742
 3367TIP3    H210066   2.970   4.885   2.601 -0.0638  0.9434  1.1786
 3368TIP3   OH210067   3.311   2.699   1.708 -0.0331 -0.1748  0.2368
 3368TIP3    H110068   3.261   2.697   1.626 -1.3974 -0.0126  1.0193
 3368TIP3    H210069   3.402   2.689   1.681 -0.4249  0.0848 -1.3112
 3369TIP3   OH210070   3.406   3.762   3.662 -0.0657 -0.3436  0.3165
 3369TIP3    H110071   3.440   3.720   3.742  0.3266  0.6883  0.7116
 3369TIP3    H210072   3.483   3.773   3.606 -0.4792 -1.8722 -0.6134
 3370TIP3   OH210073   6.003   6.207   2.633 -0.1011  0.0540  0.1088
 3370TIP3    H110074   6.082   6.154   2.643  0.7122  0.9393 -1.2278
 3370TIP3    H210075   5.931   6.148   2.655  0.9171 -0.8148  1.2127
 3371TIP3   OH210076   2.456   5.459   4.994 -0.4187  0.2746  0.2392
 3371TIP3    H110077   2.388   5.400   4.960 -0.2247 -1.3986  2.5197
 3371TIP3    H210078   2.531   5.402   5.010  0.6228  1.6105  0.2486
 3372TIP3   OH210079   0.143   4.727   1.399  0.4599  0.3807  0.3196
 3372TIP3    H110080   0.100   4.699   1.318  1.0320 -1.3734  0.6000
 3372TIP3    H210081   0.233   4.748   1.372  0.6664 -0.2574  0.4917
 3373TIP3   OH210082   4.772   6.364   5.115 -0.1567 -0.6950  0.3137
 3373TIP3    H110083   4.800   6.451   5.089  0.3549 -0.4844  1.4979
 3373TIP3    H210084   4.680   6.359   5.089 -0.0391 -0.0025 -0.2382
 3374TIP3   OH210085   3.633   1.065   3.715 -0.0305 -0.0854  0.0237
 3374TIP3    H110086   3.540   1.079   3.696 -0.0505 -0.6563 -0.3205
 3374TIP3    H210087   3.647   0.972   3.699  0.8325  0.1950 -0.8921
 3375TIP3   OH210088   2.286   6.653   5.421 -0.1051 -0.1512 -0.1409
 3375TIP3    H110089   2.235   6.710   5.364 -0.2578 -0.7423 -0.6047
 3375TIP3    H210090   2.348   6.609   5.363  1.5008  1.1285  0.5171
 3376TIP3   OH210091   5.733   4.650   5.476  0.0059 -0.3187  0.0189
 3376TIP3    H110092   5.780   4.578   5.433 -0.0066 -0.1531 -0.2779
 3376TIP3    H210093   5.800   4.717   5.491  0.1478 -0.6298  0.8570
 3377TIP3   OH210094   7.107   4.253   5.764  0.3653  0.0555 -0.7544
 3377TIP3    H110095   7.066   4.167   5.774  0.6968 -0.1863 -1.3771
 3377TIP3    H210096   7.198   4.238   5.790  0.0292  0.6613  0.9390
 3378TIP3   OH210097   4.588   0.430   4.219 -0.0866  0.6594  0.1470
 3378TIP3    H110098   4.603   0.523   4.235 -0.4124  0.3279  2.9392
 3378TIP3    H210099   4.578   0.423   4.125  3.3090  2.9330 -0.5637
 3379TIP3   OH210100   2.713   2.766   4.445  0.4539 -0.3205 -0.0574
 3379TIP3    H110101   2.705   2.672   4.429 -0.1896 -0.0340 -1.5925
 3379TIP3    H210102   2.626   2.801   4.427  0.6755  0.5623  0.5486
 3380TIP3   OH210103   6.802   2.758   4.510 -0.0908  0.4724  0.4471
 3380TIP3    H110104   6.799   2.781   4.418 -0.1406 -1.0839  0.0308
 3380TIP3    H210105   6.849   2.675   4.513  0.3766  0.7512  1.8908
 3381TIP3   OH210106   1.508   4.637   3.778  0.2324 -0.3539 -0.1463
 3381TIP3    H110107   1.544   4.573   3.716 -0.1041 -0.5216 -0.1719
 3381TIP3    H210108   1.416   4.612   3.786 -0.2242  0.9096 -1.1408
 3382TIP3   OH210109   4.926   3.830   5.288 -0.5971 -0.1176  0.3863
 3382TIP3    H110110   4.856   3.783   5.243 -0.8047 -0.1144  0.7025
 3382TIP3    H210111   4.921   3.799   5.379 -0.8759  0.6667  0.6514
 3383TIP3   OH210112   4.683   1.613   4.563 -0.9292 -0.7263 -0.1741
 3383TIP3    H110113   4.707   1.664   4.486 -2.0432  1.9460  1.1401
 3383TIP3    H210114   4.760   1.615   4.619 -1.5191  1.2050  0.6605
 3384TIP3   OH210115   6.674   4.225   4.539 -0.5246  0.2176 -0.4394
 3384TIP3    H110116   6.747   4.164   4.542 -0.2030  0.6023  2.0142
 3384TIP3    H210117   6.597   4.172   4.560 -0.2020  0.6028  2.0234
 3385TIP3   OH210118   4.739   0.842   4.100 -0.6464 -0.2017  0.2837
 3385TIP3    H110119   4.677   0.915   4.094  0.0121  0.5234  1.8562
 3385TIP3    H210120   4.731   0.810   4.190  1.5299  0.1881  0.6638
 3386TIP3   OH210121   6.097   2.777   0.426 -0.0671 -0.1822  0.1586
 3386TIP3    H110122   6.176   2.774   0.480  0.0898  0.0936 -0.0521
 3386TIP3    H210123   6.080   2.686   0.404  1.3317 -0.1073 -1.4241
 3387TIP3   OH210124   1.646   0.395   1.009  0.3016 -0.0563  0.3486
 3387TIP3    H110125   1.570   0.349   0.972  2.5549 -1.9687 -2.3056
 3387TIP3    H210126   1.633   0.486   0.982 -1.6386 -0.0531  1.0915
 3388TIP3   OH210127   4.586   0.162   4.964 -0.8609 -0.4734  0.6541
 3388TIP3    H110128   4.589   0.237   5.023  0.5779 -0.4185  0.5279
 3388TIP3    H210129   4.554   0.198   4.882  1.9261  0.5309 -0.0943
 3389TIP3   OH210130   3.732   0.211   5.234 -0.0088  0.1987  0.2611
 3389TIP3    H110131   3.757   0.278   5.170 -2.3074  0.4495 -0.4492
 3389TIP3    H210132   3.783   0.134   5.210  0.3053  0.7562 -0.9039
 3390TIP3   OH210133   3.197   5.671   3.803  0.0891  0.7225  0.0301
 3390TIP3    H110134   3.282   5.629   3.790 -0.4140 -0.9309  1.6847
 3390TIP3    H210135   3.156   5.670   3.717  0.2129 -2.0526 -0.0697
 3391TIP3   OH210136   5.886   3.445   1.156  0.0089 -0.2639  0.3600
 3391TIP3    H110137   5.866   3.369   1.102 -3.2542  1.0751 -0.5547
 3391TIP3    H210138   5.883   3.519   1.095  3.8360  0.6916  1.0634
 3392TIP3   OH210139   4.572   0.918   3.726  0.0608  0.0074  0.0328
 3392TIP3    H110140   4.479   0.916   3.748  0.1094 -0.3108  0.2095
 3392TIP3    H210141   4.615   0.867   3.794  0.7547  2.7113  1.8187
 3393TIP3   OH210142   0.822   4.857   2.725 -0.0193 -0.6251  0.0386
 3393TIP3    H110143   0.905   4.810   2.718  0.9178  0.8547  0.7584
 3393TIP3    H210144   0.846   4.944   2.757 -1.7394  0.1875 -0.7233
 3394TIP3   OH210145   0.826   6.416   3.866 -0.0162  0.6009  0.0249
 3394TIP3    H110146   0.842   6.355   3.938 -1.7342 -1.4446 -1.2179
 3394TIP3    H210147   0.738   6.395   3.835  1.3929 -0.1662 -4.0565
 3395TIP3   OH210148   3.698   0.714   4.772 -0.4711  0.4556 -0.7172
 3395TIP3    H110149   3.734   0.756   4.694  0.8282  1.3922  0.3476
 3395TIP3    H210150   3.762   0.732   4.841 -1.4735 -0.5435  0.5230
 3396TIP3   OH210151   6.731   4.252   4.203  0.2918  0.0495  0.0589
 3396TIP3    H110152   6.638   4.267   4.186  0.8184  1.6173 -1.8784
 3396TIP3    H210153   6.762   4.336   4.237  1.3041  0.0985 -0.9430
 3397TIP3   OH210154   4.585   1.977   5.832 -0.6390  0.5269 -0.0485
 3397TIP3    H110155   4.539   2.044   5.883 -2.8377 -2.2096  1.8741
 3397TIP3    H210156   4.639   1.931   5.896  1.5262  0.8982 -1.4979
 3398TIP3   OH210157   0.781   0.313   0.299 -0.7169  0.5118  0.7358
 3398TIP3    H110158   0.711   0.338   0.359  0.6242  2.5860  1.5082
 3398TIP3    H210159   0.830   0.393   0.283  0.2471 -0.4195 -1.4962
 3399TIP3   OH210160   3.093   5.683   2.489 -0.5550  0.1183 -0.2525
 3399TIP3    H110161   3.130   5.632   2.417  0.9816  0.2443  0.4096
 3399TIP3    H210162   3.021   5.732   2.449 -0.6702 -0.9080 -1.3649
 3400TIP3   OH210163   0.843   6.834   4.138 -0.0315 -0.4243 -0.3079
 3400TIP3    H110164   0.820   6.745   4.113  0.3988 -1.0364  1.2821
 3400TIP3    H210165   0.880   6.824   4.227 -0.6056  1.4162  0.1701
 3401TIP3   OH210166   2.279   2.134   0.321  0.6881 -0.5730  0.4054
 3401TIP3    H110167   2.263   2.042   0.341  1.9244 -0.6834  1.0238
 3401TIP3    H210168   2.331   2.133   0.241 -1.5633 -0.2578 -1.1609
 3402TIP3   OH210169   3.428   5.732   0.490 -0.0262 -0.1021  0.4010
 3402TIP3    H110170   3.375   5.659   0.524  1.5172 -1.4491  0.0092
 3402TIP3    H210171   3.406   5.735   0.397 -0.1639 -0.0078  0.4366
 3403TIP3   OH210172   3.223   1.583   2.373  0.7105  0.3925  1.3503
 3403TIP3    H110173   3.246   1.620   2.458  2.1866 -1.1410  1.6642
 3403TIP3    H210174   3.261   1.495   2.373 -0.9538 -0.3988 -0.1340
 3404TIP3   OH210175   6.956   0.529   0.640 -0.0467  0.1647 -0.5199
 3404TIP3    H110176   6.885   0.593   0.636  0.7601  1.0652 -0.8725
 3404TIP3    H210177   7.009   0.558   0.714 -0.6336 -1.1681  0.4842
 3405TIP3   OH210178   3.565   6.516   0.124  0.2607  0.1182 -0.1136
 3405TIP3    H110179   3.596   6.606   0.132 -1.5450  0.6990  0.6590
 3405TIP3    H210180   3.477   6.523   0.086  1.0696 -1.5081 -2.5880
 3406TIP3   OH210181   5.608   1.513   5.395  0.0782  0.3244  0.5125
 3406TIP3    H110182   5.612   1.568   5.473 -0.5772  0.6839  0.2952
 3406TIP3    H210183   5.669   1.442   5.413  1.0264  1.1736  0.7495
 3407TIP3   OH210184   1.650   2.062   1.338  0.3971  0.6236 -0.7644
 3407TIP3    H110185   1.610   2.072   1.424  1.5462  0.7455 -0.2299
 3407TIP3    H210186   1.665   2.152   1.308  0.9503  0.5839 -0.6245
 3408TIP3   OH210187   0.174   0.773   1.634  0.2165  0.2822 -0.1373
 3408TIP3    H110188   0.216   0.789   1.550 -0.7244 -0.8977 -0.8689
 3408TIP3    H210189   0.236   0.805   1.699  1.8342 -0.5594 -1.2060
 3409TIP3   OH210190   5.356   3.398   0.829  0.4006 -0.3230 -0.1151
 3409TIP3    H110191   5.418   3.329   0.853  1.3187  1.0666  1.6914
 3409TIP3    H210192   5.338   3.444   0.911 -3.5932 -1.0584 -0.3894
 3410TIP3   OH210193   3.657   6.313  -0.029  0.0478  0.2674 -0.3710
 3410TIP3    H110194   3.677   6.401   0.003  1.9454 -0.2252 -0.0962
 3410TIP3    H210195   3.615   6.270   0.045 -0.8613  0.8966 -0.4953
 3411TIP3   OH210196   0.490   3.883   1.441  0.2488 -0.2195  0.2110
 3411TIP3    H110197   0.448   3.948   1.498 -1.4354 -0.2655 -0.9152
 3411TIP3    H210198   0.583   3.899   1.452  0.0101  4.2483 -1.9770
 3412TIP3   OH210199   0.115   1.739   4.588  0.0203 -0.0065  0.3587
 3412TIP3    H110200   0.207   1.737   4.614 -0.2342  1.0894  1.4766
 3412TIP3    H210201   0.073   1.676   4.646 -0.1772  0.7139  1.0179
 3413TIP3   OH210202   5.614   0.912   5.680 -0.2044 -0.0699  0.2078
 3413TIP3    H110203   5.555   0.907   5.755 -0.7481 -1.5950 -0.2834
 3413TIP3    H210204   5.557   0.907   5.603  0.4587 -0.4014 -0.2779
 3414TIP3   OH210205   1.600   0.810   0.588  0.3466  0.1086 -1.1386
 3414TIP3    H110206   1.690   0.795   0.615  0.0607 -0.4138 -0.4560
 3414TIP3    H210207   1.602   0.896   0.546  1.1917  0.0278 -1.2898
 3415TIP3   OH210208   5.020   2.621   2.011  0.4480 -0.0516 -0.4810
 3415TIP3    H110209   5.033   2.627   2.106  1.2592  1.6176 -0.6512
 3415TIP3    H210210   5.098   2.574   1.980  1.0679  0.9388 -0.4711
 3416TIP3   OH210211   2.268   1.675   3.644  0.1238 -0.4551  0.1434
 3416TIP3    H110212   2.195   1.681   3.705  0.9047 -1.1596  1.1907
 3416TIP3    H210213   2.346   1.677   3.700  1.0002  1.9008 -1.0531
 3417TIP3   OH210214   5.532   1.081   2.051  0.3574  0.3858 -0.1705
 3417TIP3    H110215   5.607   1.071   1.993  1.7070  1.0238  1.3908
 3417TIP3    H210216   5.495   1.166   2.028 -0.1600 -0.1115 -1.2257
 3418TIP3   OH210217   0.058   4.642   0.341 -0.0494 -0.0284  0.0816
 3418TIP3    H110218  -0.027   4.667   0.304 -0.6756 -0.6058  1.0930
 3418TIP3    H210219   0.081   4.715   0.398  0.8644  0.8117 -1.3104
 3419TIP3   OH210220   6.185   2.163   0.603  0.0789 -0.3146  0.7667
 3419TIP3    H110221   6.121   2.092   0.611 -1.5070  0.8406 -0.8842
 3419TIP3    H210222   6.224   2.151   0.517  0.5885  0.1855  0.9220
 3420TIP3   OH210223   4.500   2.125   2.998 -0.3983  0.6962  0.0823
 3420TIP3    H110224   4.445   2.128   3.076 -0.3810 -0.0605  0.1375
 3420TIP3    H210225   4.449   2.169   2.930  0.1172  2.5321  0.8197
 3421TIP3   OH210226   0.882   3.403   2.717 -0.7186 -0.0283  0.0803
 3421TIP3    H110227   0.797   3.365   2.736 -0.8682 -0.7706 -1.8835
 3421TIP3    H210228   0.863   3.493   2.690 -0.8624 -0.1824 -0.3220
 3422TIP3   OH210229   6.442   1.474   2.357 -0.2196 -0.1169  0.4774
 3422TIP3    H110230   6.526   1.427   2.354  0.4093  1.0321 -1.1436
 3422TIP3    H210231   6.378   1.407   2.382  1.3761 -0.6350  3.6374
 3423TIP3   OH210232   4.632   0.150   4.272  0.1028  0.6439  0.1719
 3423TIP3    H110233   4.602   0.075   4.221 -2.2389 -0.6315  3.1316
 3423TIP3    H210234   4.587   0.225   4.233 -0.6701 -0.0950 -0.3957
 3424TIP3   OH210235   1.651   4.119   4.322  0.2700  0.1034  0.2634
 3424TIP3    H110236   1.568   4.158   4.349  0.8092  1.2580  0.2816
 3424TIP3    H210237   1.705   4.193   4.295  1.3596 -0.6172  0.4154
 3425TIP3   OH210238   0.646   3.980   4.124 -0.2321 -0.3639 -0.6869
 3425TIP3    H110239   0.716   3.948   4.181 -0.3775 -1.5439 -1.1536
 3425TIP3    H210240   0.681   4.061   4.087 -0.2794  0.6563  1.3513
 3426TIP3   OH210241   0.329   1.301   2.180 -0.4480  0.3273  0.4481
 3426TIP3    H110242   0.312   1.275   2.090 -1.1143 -0.6134  0.8323
 3426TIP3    H210243   0.336   1.219   2.228  0.9029  0.7866  1.0918
 3427TIP3   OH210244   2.782   1.054   3.595  0.0947 -0.1242  0.0720
 3427TIP3    H110245   2.749   1.001   3.523 -1.1524 -0.6490  1.0106
 3427TIP3    H210246   2.765   1.002   3.674 -0.0264  1.1230  0.8976
 3428TIP3   OH210247   2.606   6.609   3.428 -0.6273  0.3879 -0.1050
 3428TIP3    H110248   2.546   6.620   3.353 -2.2535 -1.2195  0.8890
 3428TIP3    H210249   2.564   6.544   3.483  2.0635 -0.8096  0.6953
 3429TIP3   OH210250   1.348   4.775   5.525 -0.1702 -0.5696 -0.1553
 3429TIP3    H110251   1.260   4.805   5.549 -0.1981 -0.5998 -0.2190
 3429TIP3    H210252   1.368   4.707   5.589  0.8489  1.1717  1.4715
 3430TIP3   OH210253   3.457   1.624   0.837  0.0214  0.2443 -0.0989
 3430TIP3    H110254   3.545   1.610   0.804 -0.7883  1.7764 -3.2795
 3430TIP3    H210255   3.403   1.635   0.759 -3.0371 -0.6373  1.7194
 3431TIP3   OH210256   7.204   6.080   3.821  0.1212  0.3883  0.2452
 3431TIP3    H110257   7.145   6.080   3.746  0.4620  0.1404 -0.0278
 3431TIP3    H210258   7.158   6.130   3.888 -0.3624  0.2599  0.0107
 3432TIP3   OH210259   5.126   1.987   3.866  0.3843 -0.1514  0.6759
 3432TIP3    H110260   5.142   2.081   3.872 -0.5654  0.1983 -1.4861
 3432TIP3    H210261   5.059   1.971   3.933  1.7470  0.3508  2.2257
 3433TIP3   OH210262   7.137   2.330   2.677  0.2450 -0.1617  0.2938
 3433TIP3    H110263   7.066   2.393   2.691  0.0716 -0.3367  0.2065
 3433TIP3    H210264   7.204   2.356   2.741 -0.0316 -0.1960  0.6014
 3434TIP3   OH210265   4.938   5.687   2.998 -0.0133 -0.0737 -0.3031
 3434TIP3    H110266   4.844   5.687   2.980  0.2455 -0.2018 -1.7850
 3434TIP3    H210267   4.956   5.600   3.036 -0.2885 -0.5747 -1.2848
 3435TIP3   OH210268   5.477   5.075   0.753  0.3208 -0.1445 -0.8173
 3435TIP3    H110269   5.441   4.997   0.713  0.9790 -0.4036 -0.9164
 3435TIP3    H210270   5.552   5.044   0.803 -1.2034 -0.0375  1.7021
 3436TIP3   OH210271   0.370   6.256   3.188  0.1410  0.6279 -0.7834
 3436TIP3    H110272   0.413   6.225   3.109  0.4571  0.0225 -0.3804
 3436TIP3    H210273   0.309   6.324   3.158  1.4023  1.5485 -1.3503
 3437TIP3   OH210274   4.004   1.784   2.591 -0.3885  0.4246 -0.2463
 3437TIP3    H110275   4.073   1.843   2.621  0.3330 -1.2931  1.6790
 3437TIP3    H210276   3.963   1.751   2.671 -0.7468 -1.6927 -1.2319
 3438TIP3   OH210277   1.379   2.855   1.157 -0.4206 -0.2844 -0.2186
 3438TIP3    H110278   1.472   2.837   1.139 -0.6290 -0.0165 -1.6502
 3438TIP3    H210279   1.372   2.850   1.253  0.9117 -1.0481 -0.1406
 3439TIP3   OH210280   1.067   4.149   0.622  0.1068  0.6497 -0.2432
 3439TIP3    H110281   1.093   4.234   0.584 -0.8710  1.0348 -0.0633
 3439TIP3    H210282   1.058   4.167   0.715 -2.2206  0.9076 -0.4712
 3440TIP3   OH210283   0.599   3.554   2.505  0.4161  0.0250  0.4829
 3440TIP3    H110284   0.524   3.596   2.548 -0.5089  1.2712 -2.1268
 3440TIP3    H210285   0.571   3.464   2.491  0.4893 -0.2344  1.8020
 3441TIP3   OH210286   3.184   2.686   5.521  0.1545  0.5361 -0.0042
 3441TIP3    H110287   3.169   2.776   5.548  1.4970  0.5169  0.8521
 3441TIP3    H210288   3.261   2.658   5.569  0.7418 -0.5464 -1.4807
 3442TIP3   OH210289   6.331   6.255   3.075 -0.5243  0.1850 -0.0066
 3442TIP3    H110290   6.305   6.345   3.092 -1.6643  0.0579 -0.9725
 3442TIP3    H210291   6.274   6.226   3.003 -0.8900 -1.6176  0.9410
 3443TIP3   OH210292   6.157   2.391   4.314 -0.2875  0.8517  0.1861
 3443TIP3    H110293   6.208   2.316   4.283  0.3035  1.3535 -0.0681
 3443TIP3    H210294   6.098   2.354   4.381 -0.2309  0.1080 -0.1643
 3444TIP3   OH210295   4.866   2.755   0.434  0.0284 -0.1650  0.6685
 3444TIP3    H110296   4.836   2.725   0.348 -0.1056 -1.7844  1.2468
 3444TIP3    H210297   4.920   2.831   0.415 -0.1360 -0.3896 -0.8333
 3445TIP3   OH210298   0.394   5.020   1.380 -0.1347  0.5084 -0.1773
 3445TIP3    H110299   0.460   5.069   1.331  0.2900  2.6593  2.3276
 3445TIP3    H210300   0.311   5.057   1.351 -0.1364 -0.5220 -1.5784
 3446TIP3   OH210301   5.876   4.993   4.473 -0.1533  0.0657  0.0472
 3446TIP3    H110302   5.938   5.029   4.536  0.9616 -0.7653 -0.5204
 3446TIP3    H210303   5.921   5.001   4.389 -0.8266 -0.5453 -0.3795
 3447TIP3   OH210304   2.494   5.134   3.070  0.1799 -0.1565 -0.1321
 3447TIP3    H110305   2.479   5.040   3.085  1.2311 -0.4485 -0.7611
 3447TIP3    H210306   2.483   5.174   3.156 -0.2711 -0.8595  0.1534
 3448TIP3   OH210307   5.154   4.879   4.447 -0.2506 -0.4060  0.0079
 3448TIP3    H110308   5.178   4.842   4.362 -0.0929  2.1731 -1.1616
 3448TIP3    H210309   5.085   4.942   4.428 -0.3752  0.0861  1.8379
 3449TIP3   OH210310   3.446   3.861   1.698  0.1749  0.3877  0.4648
 3449TIP3    H110311   3.409   3.935   1.649 -0.3604  0.7303  1.3659
 3449TIP3    H210312   3.386   3.847   1.771  0.3125 -0.8949  0.3605
 3450TIP3   OH210313   3.542   4.514   3.143  0.3689  0.1846 -0.1052
 3450TIP3    H110314   3.489   4.482   3.070 -0.7143  2.2085 -0.2734
 3450TIP3    H210315   3.480   4.530   3.213  0.9087  1.4206  0.1199
 3451TIP3   OH210316   4.773   3.411   3.212 -0.5101  0.2214 -0.2732
 3451TIP3    H110317   4.752   3.342   3.149 -0.3805 -0.0609 -0.0073
 3451TIP3    H210318   4.706   3.478   3.196  0.7913  1.1664 -2.2138
 3452TIP3   OH210319   3.467   6.009   1.943  0.2786 -0.3782  0.1423
 3452TIP3    H110320   3.556   6.042   1.929  0.3474  0.0689  1.4469
 3452TIP3    H210321   3.444   6.040   2.031 -0.7404 -1.4524  0.2795
 3453TIP3   OH210322   2.259   2.714   5.580 -0.1827  0.6876  0.4132
 3453TIP3    H110323   2.173   2.683   5.610 -0.9204  1.7770 -0.4709
 3453TIP3    H210324   2.322   2.653   5.619 -1.3277  0.0814  1.3781
 3454TIP3   OH210325   5.947   4.136   5.403  0.0657  0.3403 -0.5707
 3454TIP3    H110326   5.952   4.105   5.494 -0.8598  1.6275 -0.0507
 3454TIP3    H210327   5.968   4.058   5.350  0.5222 -0.4584  0.7256
 3455TIP3   OH210328   6.115   0.851   3.678 -0.2235  0.0643  0.1555
 3455TIP3    H110329   6.162   0.774   3.708 -0.5881 -0.2779 -0.1341
 3455TIP3    H210330   6.036   0.816   3.635 -0.1069  0.5667 -0.4889
 3456TIP3   OH210331   5.884   6.222   3.106  0.2326  0.2120 -0.1542
 3456TIP3    H110332   5.966   6.200   3.062  0.8693  0.2023  0.9987
 3456TIP3    H210333   5.838   6.279   3.044  0.7958 -0.3222 -1.0912
 3457TIP3   OH210334   3.863   1.919   5.077 -0.2469  0.0884 -0.0663
 3457TIP3    H110335   3.932   1.933   5.141 -0.0687 -0.5821 -0.1086
 3457TIP3    H210336   3.860   1.824   5.064 -0.0556  0.2371 -1.2901
 3458TIP3   OH210337   6.128   6.740   3.767 -0.1591 -0.1463  0.6592
 3458TIP3    H110338   6.103   6.746   3.675  0.0776 -0.5279  0.5660
 3458TIP3    H210339   6.200   6.677   3.768 -0.8079 -0.9082  1.2255
 3459TIP3   OH210340   3.880   4.383   0.487  0.1633  0.4906 -1.1591
 3459TIP3    H110341   3.885   4.318   0.556 -0.8559  0.7039 -0.8615
 3459TIP3    H210342   3.895   4.467   0.531  0.9493  0.5137 -1.4522
 3460TIP3   OH210343   5.306   5.907   5.448  0.1414 -0.4833 -0.1780
 3460TIP3    H110344   5.336   5.928   5.536  0.6378  1.9214 -0.8542
 3460TIP3    H210345   5.360   5.833   5.421 -0.2873 -1.5117  1.6402
 3461TIP3   OH210346   4.080   2.989   3.711 -0.0947  0.1971 -0.0071
 3461TIP3    H110347   4.175   2.998   3.724  0.1060 -1.4266 -0.1892
 3461TIP3    H210348   4.052   2.925   3.775 -1.0867  0.6297  0.0156
 3462TIP3   OH210349   4.517   2.853   4.729  0.1823  0.0233  0.2579
 3462TIP3    H110350   4.594   2.855   4.786  0.5098  0.0612 -0.1885
 3462TIP3    H210351   4.445   2.880   4.787  0.3178 -1.0459  0.9523
 3463TIP3   OH210352   6.581   2.225   4.331 -0.2352 -0.2311 -0.0029
 3463TIP3    H110353   6.669   2.254   4.305 -0.0462 -0.2804  0.5856
 3463TIP3    H210354   6.570   2.141   4.286 -0.2399  0.0721 -0.5905
 3464TIP3   OH210355   6.632   3.639   3.238 -0.3135  0.0083  0.1166
 3464TIP3    H110356   6.704   3.634   3.176 -0.7591 -0.7391 -0.3545
 3464TIP3    H210357   6.592   3.552   3.235 -1.6232  0.6048 -0.0998
 3465TIP3   OH210358   1.074   5.196   3.193  0.2334  0.2092 -0.6538
 3465TIP3    H110359   1.000   5.244   3.158 -1.7819 -1.1140  1.4801
 3465TIP3    H210360   1.041   5.107   3.205  1.7646 -0.1446  1.4593
 3466TIP3   OH210361   1.546   2.303   5.409  0.0553  0.4624 -0.1270
 3466TIP3    H110362   1.579   2.372   5.467 -0.1531 -0.0491  0.6122
 3466TIP3    H210363   1.491   2.249   5.465 -0.6568  0.3160 -0.9518
 3467TIP3   OH210364   5.048   5.608   2.292  0.0525 -0.1062  0.2231
 3467TIP3    H110365   5.031   5.628   2.200 -1.5954 -0.6149  0.3811
 3467TIP3    H210366   5.099   5.683   2.324  1.5175 -0.4046 -1.3323
 3468TIP3   OH210367   4.241   4.661   5.692 -0.5414 -0.0323  0.1611
 3468TIP3    H110368   4.212   4.751   5.677 -1.1471 -0.2421  0.0592
 3468TIP3    H210369   4.336   4.668   5.698 -0.5112  0.4991 -0.6790
 3469TIP3   OH210370   2.238   6.303   3.260  0.2538 -0.0305  0.1651
 3469TIP3    H110371   2.201   6.367   3.321 -0.3841 -0.0235 -0.2228
 3469TIP3    H210372   2.323   6.340   3.236  0.8453 -0.3791  1.5868
 3470TIP3   OH210373   2.474   4.096   4.271  0.0055 -0.3015 -0.1270
 3470TIP3    H110374   2.496   4.031   4.337  0.5063  0.5683  0.5931
 3470TIP3    H210375   2.505   4.179   4.308 -2.0697  0.6092 -0.2653
 3471TIP3   OH210376   2.811   0.049   2.204 -0.6442  0.3293 -0.1567
 3471TIP3    H110377   2.788  -0.006   2.129 -0.1290  1.0150 -0.8324
 3471TIP3    H210378   2.750   0.123   2.200 -0.7173  0.2922  0.1948
 3472TIP3   OH210379   2.211   3.707   2.423 -0.7770  0.7531 -0.2461
 3472TIP3    H110380   2.183   3.779   2.479 -0.0051  1.0173 -0.1883
 3472TIP3    H210381   2.141   3.642   2.431 -1.4392  1.4525 -0.2314
 3473TIP3   OH210382   3.052   4.062   4.568  0.2299  0.5818  0.1187
 3473TIP3    H110383   3.054   4.149   4.529  2.0002  0.7297  0.4576
 3473TIP3    H210384   3.084   4.004   4.498 -2.4710 -0.0940 -0.6648
 3474TIP3   OH210385   4.887   0.712   0.503 -0.1107  0.4658  0.2135
 3474TIP3    H110386   4.865   0.622   0.479 -1.4242  0.7974  0.0543
 3474TIP3    H210387   4.811   0.742   0.553  0.6242  1.2614  0.8777
 3475TIP3   OH210388   5.476   3.129   0.646 -0.1060 -1.2825  0.2085
 3475TIP3    H110389   5.447   3.148   0.735  1.8576  0.4382  0.5635
 3475TIP3    H210390   5.553   3.073   0.658  2.1510  1.5035 -0.1003
 3476TIP3   OH210391   2.042   0.833   5.520  0.8630  0.2414  0.1395
 3476TIP3    H110392   1.955   0.869   5.536  0.6952 -0.2432  0.3444
 3476TIP3    H210393   2.027   0.740   5.505  1.5396 -0.2886  2.3593
 3477TIP3   OH210394   0.757   4.360   1.556 -0.5066  0.8252  0.4792
 3477TIP3    H110395   0.797   4.424   1.615  1.2591  0.7648 -0.5744
 3477TIP3    H210396   0.824   4.293   1.544  0.1015  1.8590 -3.1789
 3478TIP3   OH210397   4.736   6.277   1.624 -0.1439 -0.1304  0.2763
 3478TIP3    H110398   4.809   6.270   1.685 -0.5766 -1.2191  0.6755
 3478TIP3    H210399   4.773   6.324   1.549  0.6043  0.4975  1.0123
 3479TIP3   OH210400   6.419   3.952   4.228  0.0313  0.4054  0.1109
 3479TIP3    H110401   6.409   3.857   4.219  0.8792  0.4665 -2.2748
 3479TIP3    H210402   6.333   3.987   4.205  0.4037  0.2611 -1.6652
 3480TIP3   OH210403   2.957   0.128   1.047  0.4204 -0.1841  0.0396
 3480TIP3    H110404   2.924   0.187   1.116 -0.2720  1.6896 -1.7817
 3480TIP3    H210405   2.878   0.099   1.001  0.8549 -1.6227  0.1496
 3481TIP3   OH210406   5.436   2.133   3.604  0.1637 -0.3272  0.1876
 3481TIP3    H110407   5.456   2.194   3.533 -1.7032  0.4871  0.2964
 3481TIP3    H210408   5.512   2.137   3.662  0.8684  0.4715 -0.7752
 3482TIP3   OH210409   3.748   3.254   0.586 -0.4073  0.2856  0.1179
 3482TIP3    H110410   3.802   3.333   0.592  0.0169 -0.0302  0.5451
 3482TIP3    H210411   3.771   3.204   0.664 -1.3054  0.1300  0.2890
 3483TIP3   OH210412   6.251   6.702   5.008  0.2584 -0.2133  0.1656
 3483TIP3    H110413   6.164   6.687   4.972  1.0631  0.3829 -2.2229
 3483TIP3    H210414   6.310   6.660   4.945  1.7521  0.6985  0.9083
 3484TIP3   OH210415   6.102   5.363   0.015  0.1352  0.0104 -0.5163
 3484TIP3    H110416   6.148   5.354   0.098 -1.3189 -2.3203  0.1399
 3484TIP3    H210417   6.051   5.443   0.024 -0.9553 -0.8229  1.4059
 3485TIP3   OH210418   3.340   3.613   0.969  0.0976  0.6560  0.1262
 3485TIP3    H110419   3.322   3.617   0.875  0.4160  0.8401  0.0704
 3485TIP3    H210420   3.305   3.529   0.997  0.7205  0.2406 -0.3159
 3486TIP3   OH210421   3.090   2.145   2.057  0.2282 -0.2323  0.1113
 3486TIP3    H110422   3.137   2.192   2.126  0.6628 -1.1040  0.4263
 3486TIP3    H210423   3.119   2.186   1.975  0.9670 -0.2642  0.3486
 3487TIP3   OH210424   4.195   6.297   1.077 -0.4669  0.0120  0.4665
 3487TIP3    H110425   4.252   6.326   1.005  0.8503 -1.0947  1.0124
 3487TIP3    H210426   4.247   6.232   1.124 -1.8266 -0.3018  1.6131
 3488TIP3   OH210427   2.121   5.215   0.693  0.0450 -0.1910 -0.2507
 3488TIP3    H110428   2.154   5.125   0.704  2.3411  0.5296 -0.7914
 3488TIP3    H210429   2.173   5.251   0.621  0.5121  2.1894  1.1976
 3489TIP3   OH210430   2.416   1.858   4.849 -0.1156 -0.0641  0.2794
 3489TIP3    H110431   2.509   1.845   4.867 -0.2007 -0.1787  0.6508
 3489TIP3    H210432   2.371   1.823   4.927 -0.4950 -0.5165 -0.1348
 3490TIP3   OH210433   5.594   4.140   3.794 -0.5176 -0.3065 -0.5384
 3490TIP3    H110434   5.590   4.129   3.699  0.3842 -1.4112 -0.4725
 3490TIP3    H210435   5.513   4.102   3.827 -1.2520  0.9076 -0.9238
 3491TIP3   OH210436   1.214   6.644   3.818 -0.3598 -0.3664 -0.1606
 3491TIP3    H110437   1.137   6.662   3.871  0.1392 -2.4751  1.4057
 3491TIP3    H210438   1.225   6.723   3.765 -1.1076  1.7627  2.6062
 3492TIP3   OH210439   3.906   5.595   5.437  0.0765 -0.2147  0.1211
 3492TIP3    H110440   4.002   5.587   5.437  0.0266 -0.8285 -0.2179
 3492TIP3    H210441   3.879   5.568   5.349 -0.2395  2.2655 -0.6464
 3493TIP3   OH210442   4.503   3.505   4.082  0.3726  0.0407  0.1254
 3493TIP3    H110443   4.558   3.564   4.031 -0.1110  1.1552  0.8551
 3493TIP3    H210444   4.565   3.459   4.139  0.7157  0.0961 -0.1954
 3494TIP3   OH210445   3.717   2.762   1.939 -0.1652  1.2809  0.0107
 3494TIP3    H110446   3.691   2.831   1.877  1.1559  1.8095  0.0096
 3494TIP3    H210447   3.636   2.736   1.982 -1.3847 -0.0334 -2.8389
 3495TIP3   OH210448   6.647   1.962   3.729  0.4881 -0.3938 -0.8570
 3495TIP3    H110449   6.665   1.936   3.819  2.3352  1.0777 -0.7502
 3495TIP3    H210450   6.587   2.037   3.738 -0.7931 -1.3596 -0.9742
 3496TIP3   OH210451   0.360   4.204   1.001 -0.3367 -0.7338 -0.2713
 3496TIP3    H110452   0.367   4.169   0.912  0.2359  1.6987 -1.2411
 3496TIP3    H210453   0.450   4.205   1.033 -0.0416  1.5555 -1.0075
 3497TIP3   OH210454   4.944   0.109   3.600 -0.3083  0.0342 -0.3659
 3497TIP3    H110455   4.898   0.028   3.579  2.4823 -1.4911 -1.0781
 3497TIP3    H210456   4.990   0.090   3.683  1.3932  0.3716 -1.1811
 3498TIP3   OH210457   2.748   1.423   4.257  0.0215 -0.4064 -0.2016
 3498TIP3    H110458   2.799   1.343   4.248  0.5149 -0.0135 -1.0136
 3498TIP3    H210459   2.764   1.471   4.176  1.6299  1.6147  1.2232
 3499TIP3   OH210460   6.980   0.636   2.647 -0.2658  0.3465  0.2106
 3499TIP3    H110461   6.966   0.727   2.621 -0.3343 -0.2937 -2.2869
 3499TIP3    H210462   7.052   0.607   2.591 -0.1145 -1.0872  1.1104
 3500TIP3   OH210463   2.738   2.165   2.312  0.3536  0.7114 -0.5201
 3500TIP3    H110464   2.808   2.161   2.247 -1.9106 -0.1232 -3.0987
 3500TIP3    H210465   2.731   2.075   2.345  1.0140  0.9750  0.3633
 3501TIP3   OH210466   3.577   0.628   2.923 -0.2260 -0.0581  0.0955
 3501TIP3    H110467   3.555   0.675   2.842 -0.9508 -1.2750 -0.4401
 3501TIP3    H210468   3.587   0.537   2.896 -0.2870 -0.4556  1.3518
 3502TIP3   OH210469   4.657   4.448   3.845 -0.8100 -0.4177  0.0141
 3502TIP3    H110470   4.602   4.429   3.921 -0.1368  2.9689  1.5481
 3502TIP3    H210471   4.595   4.461   3.773 -1.7493 -0.1866  0.8446
 3503TIP3   OH210472   5.211   1.559   5.907 -0.0727 -0.0350 -0.6118
 3503TIP3    H110473   5.284   1.509   5.872 -0.1604  0.9975 -2.3637
 3503TIP3    H210474   5.157   1.580   5.831 -1.3047  0.6855  0.4116
 3504TIP3   OH210475   1.168   5.211   1.575 -0.0416 -0.0964  0.4355
 3504TIP3    H110476   1.242   5.195   1.633  0.3875 -1.2144 -0.3807
 3504TIP3    H210477   1.171   5.305   1.557 -0.4465  0.3576  2.5367
 3505TIP3   OH210478   7.153   2.233   0.106  0.0450 -0.2191 -0.3213
 3505TIP3    H110479   7.078   2.283   0.139 -0.2318 -2.4305  2.8490
 3505TIP3    H210480   7.219   2.239   0.176  2.8638  1.4018 -2.8665
 3506TIP3   OH210481   0.330   2.679   2.971  0.0557  0.0964 -0.2683
 3506TIP3    H110482   0.415   2.655   2.932  0.7642  0.1149  1.1860
 3506TIP3    H210483   0.332   2.638   3.058 -1.5317 -0.0715 -0.2942
 3507TIP3   OH210484   0.301   3.173   2.233  0.1661  0.1437 -0.0956
 3507TIP3    H110485   0.318   3.260   2.198  1.8065  0.4916  1.4462
 3507TIP3    H210486   0.384   3.126   2.223 -0.0726 -0.5529  1.0407
 3508TIP3   OH210487   1.456   3.750   2.056 -0.3056  0.1682  0.0339
 3508TIP3    H110488   1.524   3.792   2.108 -1.8911  1.6575  0.9992
 3508TIP3    H210489   1.403   3.702   2.120  0.0534 -1.3457 -0.7544
 3509TIP3   OH210490   4.394   4.784   1.573 -0.5125 -0.8772  0.1250
 3509TIP3    H110491   4.450   4.706   1.584  1.3229  0.4945  1.1970
 3509TIP3    H210492   4.397   4.826   1.659  0.3827  1.5175 -1.0017
 3510TIP3   OH210493   4.175   2.369   5.519  0.3777  0.2227 -0.3856
 3510TIP3    H110494   4.268   2.384   5.538  0.4400 -0.3993 -0.1678
 3510TIP3    H210495   4.143   2.321   5.595  0.0108 -0.0581 -0.7127
 3511TIP3   OH210496   4.311   1.348   1.744  0.4350  0.2312  0.4675
 3511TIP3    H110497   4.296   1.370   1.836 -0.8099 -0.2378  0.3928
 3511TIP3    H210498   4.406   1.356   1.732  0.4095  2.1162  1.3083
 3512TIP3   OH210499   7.081   1.059   1.959  0.1152 -0.2880 -0.6581
 3512TIP3    H110500   7.063   0.988   2.021  1.7694 -1.1000 -1.0423
 3512TIP3    H210501   7.003   1.063   1.903  0.0094 -1.8739 -0.6622
 3513TIP3   OH210502   5.982   4.824   2.066  0.1972  0.3461  0.2088
 3513TIP3    H110503   5.999   4.911   2.100  0.7147  1.5035 -2.6828
 3513TIP3    H210504   6.068   4.784   2.057  0.2564  0.7301 -1.2148
 3514TIP3   OH210505   6.814   2.342   5.010  0.1005 -0.4326 -0.1963
 3514TIP3    H110506   6.759   2.293   5.071  1.7057 -1.8586  0.1719
 3514TIP3    H210507   6.772   2.330   4.925 -1.8019  1.0372  0.4421
 3515TIP3   OH210508   5.950   0.357   1.349 -0.1647 -0.2024 -0.5402
 3515TIP3    H110509   5.946   0.269   1.385 -1.5933  0.1569  0.2621
 3515TIP3    H210510   5.867   0.369   1.304  1.1276 -0.2452 -3.1614
 3516TIP3   OH210511   2.688   6.283   3.048 -0.1145 -0.0164 -0.0548
 3516TIP3    H110512   2.753   6.217   3.022  0.4080  0.9200 -1.2315
 3516TIP3    H210513   2.726   6.366   3.018 -1.1462  0.7224  0.6444
 3517TIP3   OH210514   4.868   4.856   3.269  0.4927  0.2987  0.1164
 3517TIP3    H110515   4.933   4.926   3.273 -0.2414  1.0664 -0.8464
 3517TIP3    H210516   4.875   4.812   3.354  3.9070 -1.1819 -0.7712
 3518TIP3   OH210517   2.202   6.808   2.098 -0.3272  0.2747 -0.2681
 3518TIP3    H110518   2.148   6.754   2.157 -0.1748 -0.8810 -1.1492
 3518TIP3    H210519   2.162   6.795   2.012 -0.1191  1.3889 -0.5448
 3519TIP3   OH210520   6.074   4.632   3.927 -0.3227  0.0424  0.2059
 3519TIP3    H110521   6.101   4.691   3.997 -2.5364  0.2368  0.9653
 3519TIP3    H210522   6.098   4.545   3.958 -0.5013  0.2071  0.8150
 3520TIP3   OH210523   4.960   1.783   3.693  0.4498  0.2001  0.1518
 3520TIP3    H110524   4.969   1.850   3.760 -1.2333  0.5667  0.0703
 3520TIP3    H210525   4.941   1.831   3.612 -1.2216 -0.3171  0.1794
 3521TIP3   OH210526   3.196   2.047   0.452 -0.0515  0.1296  0.2117
 3521TIP3    H110527   3.128   2.105   0.420  0.1564  0.7646  0.8850
 3521TIP3    H210528   3.161   1.959   0.440 -0.8216  0.4356  0.1782
 3522TIP3   OH210529   5.749   1.524   5.107  0.3147 -0.3188 -0.2297
 3522TIP3    H110530   5.806   1.498   5.180  1.3727  1.4945 -0.3485
 3522TIP3    H210531   5.667   1.551   5.149  0.5971 -0.1354  0.2080
 3523TIP3   OH210532   2.566   1.561   5.659 -0.9854 -0.0946  0.2426
 3523TIP3    H110533   2.502   1.554   5.729  0.5452  0.7854  1.8273
 3523TIP3    H210534   2.605   1.474   5.652 -1.2296 -0.2149  0.3905
 3524TIP3   OH210535   4.619   2.666   4.544  0.3391 -0.5128 -0.2881
 3524TIP3    H110536   4.714   2.669   4.544  0.3378  0.5965 -1.7685
 3524TIP3    H210537   4.592   2.732   4.608  0.5560 -0.2056 -0.5173
 3525TIP3   OH210538   2.777   6.297   0.317 -0.3319  0.2131 -0.7556
 3525TIP3    H110539   2.738   6.306   0.230 -0.7614  0.5005 -0.5368
 3525TIP3    H210540   2.752   6.209   0.345 -0.5831  0.2910 -0.7343
 3526TIP3   OH210541   1.143   6.757   3.291  0.1038 -0.4921  0.1531
 3526TIP3    H110542   1.114   6.667   3.275  0.2916 -0.8459  1.6456
 3526TIP3    H210543   1.236   6.756   3.269 -0.0239 -0.4979 -0.4080
 3527TIP3   OH210544   0.734   6.179   1.632  0.2002  0.5415  0.0193
 3527TIP3    H110545   0.758   6.111   1.569 -0.0050 -0.0434  0.5725
 3527TIP3    H210546   0.777   6.153   1.714 -1.2459  0.1682  0.6828
 3528TIP3   OH210547   6.205   2.693   5.521 -0.3109  0.0258  0.4749
 3528TIP3    H110548   6.287   2.703   5.472 -0.4505 -1.0725 -0.0249
 3528TIP3    H210549   6.136   2.711   5.456 -0.5022 -1.6078  0.1787
 3529TIP3   OH210550   2.785   2.596   2.894  0.0512 -0.2182  0.2546
 3529TIP3    H110551   2.867   2.550   2.876 -0.2558 -1.0021  0.8190
 3529TIP3    H210552   2.760   2.569   2.982 -0.7028  0.1854  0.1803
 3530TIP3   OH210553   6.046   3.334   2.193 -0.6831  0.6650 -0.5230
 3530TIP3    H110554   6.033   3.383   2.274  1.2556  1.5758 -0.6925
 3530TIP3    H210555   5.958   3.323   2.157 -1.5068  0.9294  1.2845
 3531TIP3   OH210556   2.052   4.341   5.787 -0.1133  0.1125  0.3856
 3531TIP3    H110557   2.117   4.323   5.854  1.1192  2.3193 -0.1048
 3531TIP3    H210558   2.098   4.323   5.704  0.5205  3.0601 -0.0328
 3532TIP3   OH210559   1.852   3.460   2.996 -0.0650 -1.3222  0.3090
 3532TIP3    H110560   1.865   3.550   2.969  0.3962 -0.9373  1.7174
 3532TIP3    H210561   1.838   3.412   2.914  0.7116 -0.1565 -0.5383
 3533TIP3   OH210562   6.550   1.879   2.301 -0.0767 -0.8341 -0.0851
 3533TIP3    H110563   6.492   1.819   2.348 -0.1728 -1.2402 -0.7218
 3533TIP3    H210564   6.493   1.924   2.239 -0.2730  0.8733  1.2511
 3534TIP3   OH210565   5.411   1.934   3.212  0.4569  0.2512 -0.0706
 3534TIP3    H110566   5.485   1.889   3.171  0.5620  0.3000  0.0636
 3534TIP3    H210567   5.334   1.900   3.166  0.4977 -0.4447  0.3604
 3535TIP3   OH210568   5.525   2.846   5.081 -0.8074 -0.1016  0.0779
 3535TIP3    H110569   5.546   2.902   5.157  0.7427 -1.6740  0.8739
 3535TIP3    H210570   5.439   2.809   5.102 -2.4179  2.6895 -0.9710
 3536TIP3   OH210571   1.653   4.288   2.835  0.1839 -0.4658  0.1100
 3536TIP3    H110572   1.658   4.348   2.910 -0.1766 -1.7739  1.2061
 3536TIP3    H210573   1.666   4.345   2.759 -1.4112  1.2360  1.0131
 3537TIP3   OH210574   2.241   1.427   3.540 -0.0738  0.0317  0.4397
 3537TIP3    H110575   2.226   1.370   3.616  2.3050 -0.7415  0.4171
 3537TIP3    H210576   2.266   1.511   3.577 -0.3475  0.0871  0.4988
 3538TIP3   OH210577   0.701   5.544   2.885  0.0473 -0.8813 -0.3112
 3538TIP3    H110578   0.765   5.489   2.839  2.3768  0.5283  1.0586
 3538TIP3    H210579   0.737   5.632   2.880 -1.9473  0.0261  0.3535
 3539TIP3   OH210580   1.618   6.083   1.877  0.4107  0.4094  0.3632
 3539TIP3    H110581   1.618   6.083   1.973  1.1188  4.0347  0.5013
 3539TIP3    H210582   1.700   6.126   1.853 -0.4172  0.8805 -1.8029
 3540TIP3   OH210583   6.391   2.614   2.020  0.0345  0.3643  0.8947
 3540TIP3    H110584   6.392   2.547   1.951 -0.4552  1.0823  0.1816
 3540TIP3    H210585   6.484   2.623   2.045  1.0239  3.2741 -2.8633
 3541TIP3   OH210586   3.060   0.875   5.448 -0.5874  0.2797  0.2444
 3541TIP3    H110587   3.101   0.924   5.520  1.3054 -0.9250  0.0647
 3541TIP3    H210588   3.100   0.912   5.369  1.0298 -1.5658  0.1150
 3542TIP3   OH210589   2.311   3.537   5.358 -0.3064 -0.1414 -0.3733
 3542TIP3    H110590   2.354   3.622   5.345 -0.2858 -0.0421  0.3035
 3542TIP3    H210591   2.370   3.474   5.316  1.6459 -0.2749  2.3001
 3543TIP3   OH210592   2.455   4.358   4.669 -0.1090 -0.0457  0.5916
 3543TIP3    H110593   2.458   4.268   4.702 -4.4973  0.1151  2.0473
 3543TIP3    H210594   2.451   4.412   4.747 -0.0456  1.2671 -0.2796
 3544TIP3   OH210595   1.914   3.516   2.342 -0.6124 -0.2285  0.6791
 3544TIP3    H110596   1.825   3.524   2.306 -0.6254 -0.2912  0.6971
 3544TIP3    H210597   1.910   3.566   2.424 -0.2289  0.9925 -0.0205
 3545TIP3   OH210598   3.585   0.675   3.966 -0.1432  0.4812 -0.1757
 3545TIP3    H110599   3.556   0.590   3.932 -0.3551  0.1126  0.8924
 3545TIP3    H210600   3.656   0.701   3.907 -0.7996  0.0871 -1.1614
 3546TIP3   OH210601   3.836   1.933   2.184 -0.0164  0.0232  0.5368
 3546TIP3    H110602   3.788   2.000   2.232 -0.2427  0.9415 -0.9015
 3546TIP3    H210603   3.773   1.900   2.119  0.3917 -0.9024  0.5955
 3547TIP3   OH210604   5.881   1.407   0.599  0.4914 -0.2595  0.0121
 3547TIP3    H110605   5.887   1.500   0.623  1.3590 -0.6097  1.2271
 3547TIP3    H210606   5.847   1.364   0.677 -0.3211 -0.9338 -0.6851
 3548TIP3   OH210607   0.498   6.542   1.627  0.9257 -0.6232  0.4560
 3548TIP3    H110608   0.411   6.550   1.667 -0.0117 -1.5786 -1.2746
 3548TIP3    H210609   0.521   6.450   1.638  1.6373 -0.4240  0.6848
 3549TIP3   OH210610   1.914   2.754   1.121  0.4108 -0.3218  0.2102
 3549TIP3    H110611   1.981   2.790   1.179  0.5895  1.2088 -0.8634
 3549TIP3    H210612   1.961   2.692   1.065 -0.0833 -3.2175  2.7422
 3550TIP3   OH210613   3.173   6.720   1.869 -0.5497 -0.0440  0.4135
 3550TIP3    H110614   3.174   6.721   1.965 -0.5142 -0.7306  0.4226
 3550TIP3    H210615   3.247   6.776   1.843 -0.5744  0.1631  0.7823
 3551TIP3   OH210616   0.034   2.561   4.901  0.1552 -0.7428 -0.3892
 3551TIP3    H110617  -0.046   2.581   4.851 -0.6192  0.9359  1.3876
 3551TIP3    H210618   0.054   2.470   4.878 -1.2410 -0.6538 -2.2394
 3552TIP3   OH210619   1.832   3.730   3.283  0.3955  0.2589  0.9756
 3552TIP3    H110620   1.774   3.776   3.345  0.9524  1.1688  0.8382
 3552TIP3    H210621   1.780   3.723   3.203 -0.7775 -1.9636  1.8268
 3553TIP3   OH210622   0.220   6.361   5.251  0.5906 -0.0310  0.3990
 3553TIP3    H110623   0.155   6.298   5.280  1.0110 -0.9438 -0.5780
 3553TIP3    H210624   0.202   6.440   5.303 -3.0213  0.7127 -1.6109
 3554TIP3   OH210625   3.766   2.929   3.282  0.5672 -0.3114  0.4101
 3554TIP3    H110626   3.837   2.993   3.286  1.7571 -1.5623 -0.1952
 3554TIP3    H210627   3.806   2.850   3.246 -1.3619 -0.7565 -0.8915
 3555TIP3   OH210628   5.507   4.793   0.894  0.2363  0.3205 -0.5774
 3555TIP3    H110629   5.494   4.825   0.984 -0.0722  0.2703 -0.6054
 3555TIP3    H210630   5.438   4.835   0.843 -0.2544 -0.4892 -0.5897
 3556TIP3   OH210631   1.732   1.004   1.449 -0.1621  0.1965  0.7040
 3556TIP3    H110632   1.734   0.926   1.395 -0.0204  1.0810 -0.6295
 3556TIP3    H210633   1.794   0.987   1.520  0.2317 -0.7054  0.1544
 3557TIP3   OH210634   3.286   4.749   2.650  0.0318  0.4175 -0.4839
 3557TIP3    H110635   3.352   4.815   2.674  0.6913 -0.2431 -0.4550
 3557TIP3    H210636   3.209   4.773   2.702  0.7466  0.2753  0.6821
 3558TIP3   OH210637   0.684   3.281   1.962 -0.3078  0.5840 -0.2389
 3558TIP3    H110638   0.647   3.235   2.038 -0.6657 -0.9796 -1.3171
 3558TIP3    H210639   0.778   3.282   1.978 -0.1696 -1.5008 -0.6595
 3559TIP3   OH210640   4.725   4.094   0.976 -0.7344  0.3704 -0.2081
 3559TIP3    H110641   4.765   4.174   0.943  0.5191 -0.6650 -1.3165
 3559TIP3    H210642   4.633   4.102   0.951 -0.5597  1.3075 -0.6183
 3560TIP3   OH210643   0.957   3.881   5.753 -0.3667 -0.3810 -0.2446
 3560TIP3    H110644   0.975   3.896   5.660 -1.8881 -2.5997 -1.0002
 3560TIP3    H210645   0.897   3.806   5.753 -0.1664 -0.6309  2.5621
 3561TIP3   OH210646   1.573   2.294   1.996 -0.1790  0.1344  0.0220
 3561TIP3    H110647   1.642   2.236   1.964  0.1498  0.7699 -0.4566
 3561TIP3    H210648   1.621   2.366   2.039 -0.5402  0.5374 -0.2429
 3562TIP3   OH210649   1.402   6.230   0.839  0.2354  0.3399 -0.5581
 3562TIP3    H110650   1.382   6.296   0.773 -0.8737  0.7520  0.1663
 3562TIP3    H210651   1.358   6.261   0.918  0.7217 -0.6466  0.1180
 3563TIP3   OH210652   6.665   0.773   4.024  0.5011  0.5564 -0.1339
 3563TIP3    H110653   6.635   0.852   4.068  1.6047  0.7670  0.2780
 3563TIP3    H210654   6.585   0.726   4.000 -0.1345  1.0212  1.0323
 3564TIP3   OH210655   6.361   1.946   3.243  0.1407  0.7238  0.4708
 3564TIP3    H110656   6.395   1.859   3.222 -0.8849  0.6682 -1.1390
 3564TIP3    H210657   6.267   1.935   3.248  0.0832  1.5172  1.5311
 3565TIP3   OH210658   6.918   2.791   2.141 -0.2723  0.6435  0.0009
 3565TIP3    H110659   6.846   2.729   2.145 -1.2147  1.5773 -1.4274
 3565TIP3    H210660   6.906   2.848   2.217  0.4473 -0.7188  1.1685
 3566TIP3   OH210661   6.661   0.298   1.459  0.1544  0.0099  0.1496
 3566TIP3    H110662   6.630   0.374   1.411  0.1825 -0.0476  0.0409
 3566TIP3    H210663   6.583   0.265   1.505 -0.2805 -0.9769 -1.2344
 3567TIP3   OH210664   3.510   3.773   4.316  0.1183  0.1407 -0.0330
 3567TIP3    H110665   3.560   3.834   4.370  0.5495 -0.0236 -0.2480
 3567TIP3    H210666   3.519   3.806   4.227 -2.2212  1.5789  0.1593
 3568TIP3   OH210667   3.419   2.628   1.345  0.0252  0.4934  0.5422
 3568TIP3    H110668   3.482   2.654   1.277  0.0410 -0.3938  0.2044
 3568TIP3    H210669   3.334   2.657   1.312 -0.1513 -1.1286 -0.5251
 3569TIP3   OH210670   4.843   5.458   1.261 -0.1401  0.0083  0.2500
 3569TIP3    H110671   4.754   5.486   1.284 -0.0423  0.1690  0.4309
 3569TIP3    H210672   4.900   5.524   1.299  0.0739 -0.2456  0.3746
 3570TIP3   OH210673   0.666   3.908   4.945  0.0165 -0.1459  0.4229
 3570TIP3    H110674   0.720   3.977   4.984 -0.5188  0.0290  0.8580
 3570TIP3    H210675   0.677   3.921   4.850 -0.6333  0.9862  0.4898
 3571TIP3   OH210676   1.055   3.584   1.160  0.1304 -0.4863  0.7517
 3571TIP3    H110677   1.125   3.649   1.166 -0.1717 -0.0718 -0.1206
 3571TIP3    H210678   1.080   3.517   1.224  1.0748 -0.1053  0.8050
 3572TIP3   OH210679   0.503   5.171   4.755  0.0051 -0.0424  0.4710
 3572TIP3    H110680   0.533   5.080   4.756  1.8928  0.5624  1.1004
 3572TIP3    H210681   0.579   5.223   4.781 -1.2991  1.6648  1.0726
 3573TIP3   OH210682   0.328   6.217   0.190  0.0183  0.2872  0.1959
 3573TIP3    H110683   0.279   6.293   0.157  1.3434  1.2049  0.2582
 3573TIP3    H210684   0.319   6.223   0.285  0.2451  0.4526  0.2072
 3574TIP3   OH210685   5.255   3.474   0.314  0.5231  0.1064  0.5783
 3574TIP3    H110686   5.264   3.381   0.336  0.2473  0.2385  1.2945
 3574TIP3    H210687   5.305   3.484   0.233 -0.1655 -0.8388  0.0105
 3575TIP3   OH210688   2.896   3.825   1.433 -0.3981 -0.1422 -0.0568
 3575TIP3    H110689   2.872   3.750   1.487 -2.2861  0.0430 -0.5889
 3575TIP3    H210690   2.949   3.788   1.362  1.8486 -0.4307  1.6465
 3576TIP3   OH210691   4.372   6.520   2.560  0.1526  0.0617 -0.1262
 3576TIP3    H110692   4.280   6.520   2.587 -0.1434  1.0620 -1.0494
 3576TIP3    H210693   4.373   6.471   2.477  0.4859 -0.1319 -0.0088
 3577TIP3   OH210694   3.581   5.429   5.453 -0.1680 -0.0677 -0.4033
 3577TIP3    H110695   3.613   5.503   5.504  0.9515 -1.6879  1.4341
 3577TIP3    H210696   3.512   5.465   5.397 -0.8868  2.0272  1.6616
 3578TIP3   OH210697   0.320   3.731   0.284  0.1076 -0.1548  0.3625
 3578TIP3    H110698   0.237   3.765   0.318 -0.1903 -0.0260 -0.4588
 3578TIP3    H210699   0.317   3.750   0.190  2.6710  3.2750  0.7655
 3579TIP3   OH210700   2.198   5.773   1.196 -0.8223 -0.3065  0.2285
 3579TIP3    H110701   2.222   5.700   1.139  1.2077  0.5078 -0.0213
 3579TIP3    H210702   2.231   5.851   1.151  2.3130  0.2752  3.1263
 3580TIP3   OH210703   4.494   5.680   0.442  0.5602  0.1016  0.1794
 3580TIP3    H110704   4.559   5.622   0.482  1.4282 -0.2354 -1.6067
 3580TIP3    H210705   4.432   5.621   0.399  1.3296  0.4441 -1.4657
 3581TIP3   OH210706   6.733   4.373   2.911 -0.0247 -0.5704  0.0095
 3581TIP3    H110707   6.805   4.385   2.972 -0.8530 -0.4108  0.9852
 3581TIP3    H210708   6.719   4.279   2.908  1.0559 -0.7078 -1.1899
 3582TIP3   OH210709   2.421   2.917   5.806 -0.1303 -0.8160 -0.3626
 3582TIP3    H110710   2.496   2.955   5.851 -1.1283  1.9827 -0.8868
 3582TIP3    H210711   2.414   2.828   5.843  1.6485 -0.1438  1.8319
 3583TIP3   OH210712   5.544   5.284   4.168 -0.2545 -0.1621  0.2885
 3583TIP3    H110713   5.567   5.263   4.077  1.8365  0.6468  0.5664
 3583TIP3    H210714   5.449   5.283   4.170 -0.3744  0.5220 -2.1062
 3584TIP3   OH210715   2.431   4.730   3.683  0.0286 -1.1232 -0.4834
 3584TIP3    H110716   2.432   4.700   3.773  1.3188  1.0672  0.2923
 3584TIP3    H210717   2.339   4.724   3.657 -0.4998 -1.0722  1.2437
 3585TIP3   OH210718   3.528   2.473   1.112 -0.1545  0.0128 -0.1910
 3585TIP3    H110719   3.435   2.452   1.119 -0.2834  0.6635  0.1870
 3585TIP3    H210720   3.560   2.472   1.202  0.3223 -0.6954 -0.3610
 3586TIP3   OH210721   2.417   4.398   5.811  0.3807  0.2214 -0.0184
 3586TIP3    H110722   2.402   4.450   5.891 -0.9204  0.4846 -0.4037
 3586TIP3    H210723   2.391   4.310   5.835 -0.4824  0.3957 -0.2731
 3587TIP3   OH210724   3.616   6.574   5.538 -0.6658 -0.7230 -0.5825
 3587TIP3    H110725   3.696   6.608   5.497 -0.1580 -0.2539  0.7554
 3587TIP3    H210726   3.580   6.649   5.586 -0.5237 -1.5750  0.9024
 3588TIP3   OH210727   3.597   4.926   1.821  0.1013  0.8143  0.4319
 3588TIP3    H110728   3.662   4.864   1.787 -0.6302  0.9283 -1.3154
 3588TIP3    H210729   3.647   4.989   1.871  0.9680 -0.7085  1.5566
 3589TIP3   OH210730   3.580   1.977   5.092  0.0385  0.7947 -0.3533
 3589TIP3    H110731   3.536   1.893   5.091  0.6207  0.4847 -0.9654
 3589TIP3    H210732   3.666   1.958   5.130  0.1656  1.1131 -0.4781
 3590TIP3   OH210733   0.915   2.024   0.811 -0.3003 -0.0889  0.0727
 3590TIP3    H110734   0.926   2.111   0.850 -0.0393 -0.2894  0.4554
 3590TIP3    H210735   0.951   2.032   0.723  1.2472 -0.2365  0.6607
 3591TIP3   OH210736   1.797   6.593   5.136 -0.0720 -0.5509 -0.8498
 3591TIP3    H110737   1.703   6.611   5.144  0.2935  0.5700  2.3624
 3591TIP3    H210738   1.839   6.678   5.148  1.3822 -1.3471  0.1109
 3592TIP3   OH210739   4.012   0.230   4.312 -0.4639  0.6291  0.6570
 3592TIP3    H110740   3.954   0.178   4.367 -1.8632 -0.2648 -1.5570
 3592TIP3    H210741   4.062   0.284   4.374  0.5258 -2.7453  3.0397
 3593TIP3   OH210742   4.345   4.699   0.295 -0.1955 -0.0470 -0.1681
 3593TIP3    H110743   4.309   4.670   0.211  0.6047  0.9522 -0.8762
 3593TIP3    H210744   4.317   4.790   0.302 -1.0869 -0.3828  1.1396
 3594TIP3   OH210745   2.154   6.210   2.284  0.2857 -0.3176  0.0098
 3594TIP3    H110746   2.172   6.132   2.231  1.0651  1.3492 -2.2930
 3594TIP3    H210747   2.062   6.229   2.268  0.6768  0.5509 -1.3202
 3595TIP3   OH210748   7.183   3.559   1.540 -0.4391 -0.6988  0.6308
 3595TIP3    H110749   7.114   3.619   1.512 -0.2074 -0.8028 -0.1680
 3595TIP3    H210750   7.211   3.594   1.625  1.4887  1.9031 -0.9152
 3596TIP3   OH210751   6.559   5.966   2.226 -0.0951  0.1364 -0.5608
 3596TIP3    H110752   6.622   6.037   2.235  0.9796 -0.6518 -1.4206
 3596TIP3    H210753   6.504   5.971   2.304  1.1430  0.7660  0.3003
 3597TIP3   OH210754   4.983   4.559   2.872 -0.2522  0.0865  0.7447
 3597TIP3    H110755   5.032   4.478   2.891  0.0646 -0.0094 -0.3822
 3597TIP3    H210756   4.981   4.606   2.955  1.0221 -0.3133  1.0312
 3598TIP3   OH210757   2.245   6.395   1.179  0.0577  0.1575  0.5355
 3598TIP3    H110758   2.170   6.336   1.175 -1.0857  1.5930 -0.5461
 3598TIP3    H210759   2.311   6.348   1.231 -1.8156 -0.8832  2.0888
 3599TIP3   OH210760   0.601   3.537   2.179  0.4734 -0.2307 -0.1412
 3599TIP3    H110761   0.508   3.518   2.168  0.4963  0.1592 -1.1823
 3599TIP3    H210762   0.638   3.458   2.218 -0.1037 -0.8192 -0.7718
 3600TIP3   OH210763   1.780   0.996   4.048 -0.1555 -0.1070 -0.7372
 3600TIP3    H110764   1.685   1.010   4.052 -0.1238 -0.1361  1.7849
 3600TIP3    H210765   1.809   1.050   3.975 -2.0364  0.3418 -1.2166
 3601TIP3   OH210766   3.848   4.533   2.044 -0.0192 -0.4240  0.1642
 3601TIP3    H110767   3.756   4.554   2.033  0.1570  0.4998  0.3547
 3601TIP3    H210768   3.850   4.441   2.068 -0.9940 -0.0809  1.6689
 3602TIP3   OH210769   3.926   3.127   0.756 -0.4189 -0.1322 -0.2832
 3602TIP3    H110770   4.003   3.151   0.706 -0.8251  0.8372 -0.4745
 3602TIP3    H210771   3.938   3.168   0.841 -1.1849  0.9250 -0.6567
 3603TIP3   OH210772   2.660   3.378   2.534 -0.7313  0.5817  0.0869
 3603TIP3    H110773   2.568   3.405   2.529 -0.9862 -0.2262  0.2241
 3603TIP3    H210774   2.676   3.333   2.451 -0.1803  1.5136 -0.3321
 3604TIP3   OH210775   4.623   6.416   0.801  0.3333 -0.5673 -0.1977
 3604TIP3    H110776   4.556   6.351   0.820  0.4509 -1.2492 -1.9643
 3604TIP3    H210777   4.595   6.494   0.848 -0.8647 -1.2935  0.3344
 3605TIP3   OH210778   2.063   3.649   2.134  0.3354 -0.8135  0.7107
 3605TIP3    H110779   1.996   3.683   2.075  0.4741 -1.5530  0.1082
 3605TIP3    H210780   2.014   3.622   2.212  0.1846  0.4232  1.0677
 3606TIP3   OH210781   3.844   2.240   0.493 -0.5708  0.0630  0.3813
 3606TIP3    H110782   3.868   2.250   0.585  0.2174 -1.5120  0.3823
 3606TIP3    H210783   3.894   2.164   0.464 -0.1239  1.0451 -1.5940
 3607TIP3   OH210784   3.993   4.870   4.129 -0.2085 -0.3950  0.3641
 3607TIP3    H110785   3.917   4.825   4.166 -0.1263 -0.1873  0.7816
 3607TIP3    H210786   3.958   4.921   4.056 -0.3366 -0.9682  0.0142
 3608TIP3   OH210787   3.761   3.588   0.001 -0.1652 -0.6128  0.5026
 3608TIP3    H110788   3.750   3.661   0.062  0.8466  0.5020 -0.6071
 3608TIP3    H210789   3.741   3.510   0.054 -0.2894  0.3780  1.9780
 3609TIP3   OH210790   7.004   4.904   5.038 -0.0008 -0.5624  0.3207
 3609TIP3    H110791   6.921   4.950   5.028  1.0308  1.6021  1.2494
 3609TIP3    H210792   7.021   4.905   5.132  1.6339  0.0780  0.0470
 3610TIP3   OH210793   2.860   1.944   0.254  0.1058  0.2697  0.0641
 3610TIP3    H110794   2.896   1.877   0.311 -1.0080 -0.8424 -0.4839
 3610TIP3    H210795   2.870   1.908   0.166 -2.3364 -0.1433 -0.1118
 3611TIP3   OH210796   5.848   4.545   2.834  0.0266 -0.3790 -0.4086
 3611TIP3    H110797   5.882   4.524   2.747  0.4341  0.6109 -0.5033
 3611TIP3    H210798   5.867   4.639   2.845 -2.0706  0.0652 -0.1937
 3612TIP3   OH210799   4.513   4.480   0.742 -0.1450  0.4901 -0.4278
 3612TIP3    H110800   4.516   4.535   0.820  1.5365 -0.2117  0.0574
 3612TIP3    H210801   4.605   4.468   0.717 -0.5569 -0.6539 -1.5327
 3613TIP3   OH210802   1.754   3.157   5.413 -0.2435  0.2728  0.3175
 3613TIP3    H110803   1.800   3.225   5.364  0.7928 -0.7467 -0.1836
 3613TIP3    H210804   1.711   3.203   5.485 -1.8082  1.8336 -1.5125
 3614TIP3   OH210805   0.090   2.143   0.890 -0.5053  0.2480 -0.0311
 3614TIP3    H110806   0.075   2.215   0.950  1.5886 -0.2820  1.2386
 3614TIP3    H210807   0.003   2.107   0.872 -1.4492  2.2281  0.3423
 3615TIP3   OH210808   1.835   4.163   5.447 -0.0721 -0.2263  0.6865
 3615TIP3    H110809   1.839   4.245   5.495  2.6718  0.3418 -0.3755
 3615TIP3    H210810   1.905   4.109   5.483 -0.3954 -1.2514 -0.1378
 3616TIP3   OH210811   6.317   6.171   5.675 -0.3261 -0.0946 -0.1623
 3616TIP3    H110812   6.224   6.188   5.692 -0.3099 -0.1986  0.0294
 3616TIP3    H210813   6.348   6.250   5.630  0.3270  1.4386  2.7762
 3617TIP3   OH210814   1.651   4.696   0.098  0.1422  0.2237  0.3437
 3617TIP3    H110815   1.633   4.603   0.112 -1.1581  0.4650  0.4387
 3617TIP3    H210816   1.663   4.732   0.186  0.4538  0.1876  0.3175
 3618TIP3   OH210817   1.022   0.693   4.566 -0.0877 -0.6298  0.8013
 3618TIP3    H110818   1.073   0.614   4.587 -0.9599 -1.6383 -0.6939
 3618TIP3    H210819   0.972   0.669   4.489  1.7314  2.3316 -1.5191
 3619TIP3   OH210820   0.806   4.143   1.178  0.2789 -0.1916  0.1345
 3619TIP3    H110821   0.725   4.173   1.138 -0.3940 -1.7760  0.2217
 3619TIP3    H210822   0.778   4.089   1.252  1.4170 -0.4819  0.3827
 3620TIP3   OH210823   0.200   3.996   0.429  0.3813 -0.1770 -0.1207
 3620TIP3    H110824   0.108   3.970   0.438  0.4766  0.1186  2.1915
 3620TIP3    H210825   0.196   4.087   0.402  0.0226 -0.4406 -1.0022
 3621TIP3   OH210826   2.127   4.617   1.314 -0.0461 -0.0829  0.1351
 3621TIP3    H110827   2.057   4.646   1.373 -1.1469 -0.7042 -0.8060
 3621TIP3    H210828   2.146   4.527   1.342  0.2388  0.0146  0.2585
 3622TIP3   OH210829   6.235   3.160   2.408  0.2709 -0.8358  0.2005
 3622TIP3    H110830   6.290   3.087   2.434  0.5708 -1.3279 -1.6457
 3622TIP3    H210831   6.296   3.233   2.397  0.1635 -0.6627  0.7346
 3623TIP3   OH210832   7.049   1.031   0.950  0.4975  0.4769  0.0492
 3623TIP3    H110833   7.138   1.026   0.985  0.4412  0.5849  0.2096
 3623TIP3    H210834   7.007   0.949   0.977  0.9488 -0.1620 -1.1430
 3624TIP3   OH210835   0.491   2.802   3.321  0.4415  0.2072 -0.1615
 3624TIP3    H110836   0.446   2.721   3.297 -0.6470  0.8065 -0.1826
 3624TIP3    H210837   0.460   2.821   3.409  1.5577  0.0189  0.2844
 3625TIP3   OH210838   6.224   2.661   3.097  0.2385  0.2595  0.2863
 3625TIP3    H110839   6.250   2.570   3.077 -1.2548 -0.7980  2.7348
 3625TIP3    H210840   6.305   2.711   3.090  1.6063 -1.7048  1.1992
 3626TIP3   OH210841   3.431   2.530   0.056 -0.4791 -0.2304  0.1797
 3626TIP3    H110842   3.489   2.465   0.097 -0.5826 -0.2770  0.2505
 3626TIP3    H210843   3.464   2.536  -0.034 -1.4548 -1.5624 -0.2946
 3627TIP3   OH210844   0.089   3.487   2.817  0.0625 -0.0106  1.1439
 3627TIP3    H110845   0.071   3.442   2.899 -1.1676 -0.0349  0.8860
 3627TIP3    H210846   0.094   3.580   2.840 -0.3200 -0.0141  1.2405
 3628TIP3   OH210847   6.304   3.632   5.101 -0.1643  0.1895 -0.2818
 3628TIP3    H110848   6.345   3.606   5.184  0.9246  2.0321 -0.1803
 3628TIP3    H210849   6.375   3.674   5.052 -1.1304  0.3764 -1.5582
 3629TIP3   OH210850   2.560   6.680   2.504 -0.0950  0.5506  0.2376
 3629TIP3    H110851   2.520   6.743   2.564  0.7680  2.0946 -0.7519
 3629TIP3    H210852   2.646   6.717   2.483  0.5989 -1.1378 -0.1249
 3630TIP3   OH210853   6.713   0.638   4.473  0.0384 -0.0793  0.1550
 3630TIP3    H110854   6.675   0.719   4.438  0.3946  1.4125  2.9251
 3630TIP3    H210855   6.698   0.643   4.568 -0.3925 -3.5559  0.4120
 3631TIP3   OH210856   4.212   6.751   5.886 -0.6037 -0.6694  0.2073
 3631TIP3    H110857   4.171   6.665   5.891 -1.7062 -0.2981 -1.5109
 3631TIP3    H210858   4.291   6.737   5.834 -1.1524 -0.5560 -0.6860
 3632TIP3   OH210859   3.500   4.853   2.474 -0.3203 -0.1654  0.2369
 3632TIP3    H110860   3.447   4.781   2.440 -0.1252 -0.0459 -0.3290
 3632TIP3    H210861   3.440   4.929   2.472 -0.9554 -0.5680  2.0989
 3633TIP3   OH210862   5.072   4.015   0.387 -0.4161  0.1047  0.0530
 3633TIP3    H110863   5.078   4.098   0.435  1.8932  0.5394 -0.8808
 3633TIP3    H210864   5.009   4.032   0.317 -0.5604  0.8282  0.3541
 3634TIP3   OH210865   1.739   3.264   3.580  0.5974  0.4412 -0.1349
 3634TIP3    H110866   1.735   3.333   3.647 -0.3676 -0.6386  0.9892
 3634TIP3    H210867   1.713   3.308   3.499  0.3659  1.4790  0.4733
 3635TIP3   OH210868   5.527   4.016   0.439  0.1234 -0.4471  0.5584
 3635TIP3    H110869   5.612   4.060   0.445  0.4606 -0.6110 -1.8702
 3635TIP3    H210870   5.504   3.994   0.529  2.0645  0.7009  1.3859
 3636TIP3   OH210871   2.735   0.425   1.428 -0.0771 -0.3188  0.3578
 3636TIP3    H110872   2.802   0.374   1.383  1.4525  0.7794  1.3217
 3636TIP3    H210873   2.662   0.429   1.365  1.6123  0.3573 -1.6651
 3637TIP3   OH210874   2.889   4.259   0.216 -0.5031  0.1661 -0.6598
 3637TIP3    H110875   2.875   4.353   0.223  0.2887  0.3038 -0.7712
 3637TIP3    H210876   2.891   4.241   0.122 -0.4606  0.0743 -0.6422
 3638TIP3   OH210877   4.526   4.358   3.369  0.3741 -0.1275  0.4900
 3638TIP3    H110878   4.546   4.370   3.276  0.4861 -0.3643  0.4836
 3638TIP3    H210879   4.564   4.435   3.412 -1.9517  1.3806  0.0304
 3639TIP3   OH210880   0.480   4.282   3.414  0.1812  0.6007  0.0842
 3639TIP3    H110881   0.509   4.275   3.323  0.3949  1.0842  0.1102
 3639TIP3    H210882   0.491   4.194   3.450 -0.5972  0.2271 -0.5598
 3640TIP3   OH210883   5.581   6.703   3.319  0.4199  0.2142  0.4788
 3640TIP3    H110884   5.499   6.659   3.342 -0.6154  1.9148  0.2759
 3640TIP3    H210885   5.565   6.740   3.232  1.6887 -0.0636  0.1083
 3641TIP3   OH210886   1.517   0.703   1.969 -0.1375 -0.1610 -0.3498
 3641TIP3    H110887   1.549   0.617   1.942 -0.0952 -0.6445  1.1815
 3641TIP3    H210888   1.581   0.765   1.932 -0.0238 -0.7825 -1.2325
 3642TIP3   OH210889   5.859   2.820   3.388  0.5416  0.4614 -0.2882
 3642TIP3    H110890   5.883   2.886   3.323  0.9417  0.9003  0.2932
 3642TIP3    H210891   5.906   2.846   3.467 -1.2258  0.8990  0.6809
 3643TIP3   OH210892   1.224   0.976   3.315  0.2142  0.5685  0.0748
 3643TIP3    H110893   1.273   0.900   3.344  0.3304  1.3238  2.0334
 3643TIP3    H210894   1.144   0.940   3.276 -0.3216 -0.5737  2.0876
 3644TIP3   OH210895   6.654   6.460   0.286  0.0274 -0.5249  0.5981
 3644TIP3    H110896   6.728   6.430   0.234 -0.0885 -0.8420  0.6129
 3644TIP3    H210897   6.664   6.415   0.370  0.2063 -0.0282  0.8423
 3645TIP3   OH210898   6.835   5.348   4.376  0.0668  0.1537 -0.8650
 3645TIP3    H110899   6.768   5.341   4.444 -1.2422  0.0921 -2.1105
 3645TIP3    H210900   6.800   5.297   4.303  0.3266  2.0625 -2.4009
 3646TIP3   OH210901   0.423   1.865   4.349  0.4261  0.5015 -0.3436
 3646TIP3    H110902   0.409   1.900   4.437 -0.8887 -1.6618  0.3919
 3646TIP3    H210903   0.344   1.891   4.301 -0.1294 -0.5947 -0.0571
 3647TIP3   OH210904   0.615   0.757   5.857 -0.2560 -0.1135 -0.5055
 3647TIP3    H110905   0.674   0.821   5.817  0.1530 -0.4573 -0.4569
 3647TIP3    H210906   0.541   0.752   5.797  0.4601 -0.7988 -1.3700
 3648TIP3   OH210907   0.504   3.938   1.079  0.1383  0.2934  0.2770
 3648TIP3    H110908   0.469   4.013   1.127 -0.2482  0.9320 -0.9797
 3648TIP3    H210909   0.528   3.972   0.993  0.0535 -1.0026 -0.2899
 3649TIP3   OH210910   3.279   2.919   1.878 -0.4626  0.3246 -0.4092
 3649TIP3    H110911   3.296   2.841   1.826  0.9664  0.7588 -0.6481
 3649TIP3    H210912   3.241   2.982   1.816  0.2113  0.4662 -0.6901
 3650TIP3   OH210913   1.103   2.373   5.291 -0.0776 -0.3666 -0.2143
 3650TIP3    H110914   1.031   2.344   5.234 -0.2647 -1.2061  0.4307
 3650TIP3    H210915   1.071   2.357   5.380  1.0404 -1.1177  0.0725
 3651TIP3   OH210916   1.851   6.518   3.115 -0.4076 -0.3754  0.5981
 3651TIP3    H110917   1.795   6.519   3.193  0.2364 -0.3096  1.0691
 3651TIP3    H210918   1.923   6.577   3.137  0.7807 -1.8033  0.7205
 3652TIP3   OH210919   3.758   5.131   5.538  0.2414 -0.0462  0.3726
 3652TIP3    H110920   3.828   5.191   5.514  0.3584 -0.0282  0.7545
 3652TIP3    H210921   3.741   5.081   5.458  0.3088  0.3269  0.1227
 3653TIP3   OH210922   1.781   4.329   5.817 -0.1605  0.1952 -0.0492
 3653TIP3    H110923   1.867   4.330   5.776 -0.4353  1.1627 -0.6242
 3653TIP3    H210924   1.799   4.324   5.911  0.5695  2.0675 -0.0593
 3654TIP3   OH210925   3.720   2.993   0.165  0.1657  0.5841  0.1249
 3654TIP3    H110926   3.629   3.013   0.143  0.3513  0.8469 -0.4421
 3654TIP3    H210927   3.750   3.067   0.218  0.0310  0.4722  0.3540
 3655TIP3   OH210928   0.630   4.821   0.323  0.7407  0.5933  0.1777
 3655TIP3    H110929   0.567   4.891   0.341 -0.3424 -0.3983  0.3506
 3655TIP3    H210930   0.691   4.860   0.260  0.2662  1.7465  0.3997
 3656TIP3   OH210931   5.425   5.649   3.941  0.4528  0.0800  0.7400
 3656TIP3    H110932   5.488   5.644   3.870 -0.1467 -0.3612  0.2182
 3656TIP3    H210933   5.414   5.742   3.958  1.7874  0.1504  1.3547
 3657TIP3   OH210934   0.938   6.085   0.327 -0.2478 -0.0186  0.2796
 3657TIP3    H110935   1.000   6.026   0.369  0.9310  1.0230  0.0719
 3657TIP3    H210936   0.969   6.093   0.237 -2.0511 -1.2824 -0.4922
 3658TIP3   OH210937   0.740   4.357   5.338  0.2177 -0.5237  0.4280
 3658TIP3    H110938   0.647   4.335   5.343  0.2880 -1.7797 -2.2003
 3658TIP3    H210939   0.741   4.452   5.321 -0.7401 -0.8634 -1.8482
 3659TIP3   OH210940   3.811   0.169   0.987 -0.1341 -0.1319  0.8710
 3659TIP3    H110941   3.786   0.257   1.015  0.8283  0.4851 -0.1219
 3659TIP3    H210942   3.859   0.182   0.906 -0.0259 -1.5934  0.6608
 3660TIP3   OH210943   1.202   1.631   5.772 -0.7135  0.0715 -0.0571
 3660TIP3    H110944   1.204   1.540   5.802  0.1692 -0.1881 -0.8493
 3660TIP3    H210945   1.259   1.632   5.696  0.6336  1.6504  0.9199
 3661TIP3   OH210946   1.930   6.266   1.833 -0.1642 -0.0946 -0.4077
 3661TIP3    H110947   1.914   6.319   1.755  3.8366 -0.5726 -1.8136
 3661TIP3    H210948   1.970   6.326   1.896  0.7930 -0.5761 -0.5279
 3662TIP3   OH210949   0.101   1.655   0.230  0.0848  0.2667  0.0313
 3662TIP3    H110950   0.163   1.709   0.180  0.5234 -1.6998 -1.6687
 3662TIP3    H210951   0.021   1.708   0.231  1.1933  2.0510  0.6826
 3663TIP3   OH210952   6.018   6.546   4.400  0.2921  0.4094  0.1568
 3663TIP3    H110953   6.036   6.640   4.389 -0.8136  0.5102 -1.0264
 3663TIP3    H210954   5.925   6.542   4.424  0.6814 -0.3254  1.6543
 3664TIP3   OH210955   4.035   1.993   5.275 -0.0745  0.1011 -0.0405
 3664TIP3    H110956   4.069   2.077   5.244 -3.8034  1.4918 -0.8623
 3664TIP3    H210957   4.050   1.995   5.369  2.8073  0.1196 -0.4011
 3665TIP3   OH210958   4.707   4.754   5.131  0.1996 -0.2311 -0.2867
 3665TIP3    H110959   4.780   4.706   5.168  0.4008  0.9816  0.9637
 3665TIP3    H210960   4.632   4.728   5.183 -0.0820 -0.6751 -0.8950
 3666TIP3   OH210961   2.392   3.457   5.041 -0.4475  0.1079 -0.5229
 3666TIP3    H110962   2.426   3.528   5.094 -0.2114  0.2658 -0.8791
 3666TIP3    H210963   2.331   3.411   5.098  0.4440 -0.2518  0.1653
 3667TIP3   OH210964   0.266   0.843   5.710  0.0143 -0.3342  0.3067
 3667TIP3    H110965   0.303   0.763   5.673 -0.3352 -0.4809  0.2814
 3667TIP3    H210966   0.253   0.900   5.635  1.0117  0.0525  0.4098
 3668TIP3   OH210967   4.735   3.228   3.652  0.0360  0.0302  0.5262
 3668TIP3    H110968   4.741   3.161   3.585  0.1961 -0.1821  0.7510
 3668TIP3    H210969   4.822   3.230   3.693  0.2084  0.7701  0.1484
 3669TIP3   OH210970   3.376   5.273   5.580 -0.2478 -0.3074 -0.0447
 3669TIP3    H110971   3.305   5.337   5.587 -0.6733 -0.3514 -2.9025
 3669TIP3    H210972   3.455   5.327   5.567  0.1080 -0.3058  1.8070
 3670TIP3   OH210973   0.843   1.680   3.107  0.0786  0.2940  0.5965
 3670TIP3    H110974   0.811   1.590   3.103  0.1739  0.2532  0.7437
 3670TIP3    H210975   0.920   1.676   3.163 -0.8388  0.7394  1.9584
 3671TIP3   OH210976   2.958   5.426   3.100 -0.3773  0.4230 -0.3906
 3671TIP3    H110977   2.901   5.501   3.115 -1.6838 -0.8524  1.5041
 3671TIP3    H210978   2.991   5.403   3.187 -0.4007 -1.4858 -0.8362
 3672TIP3   OH210979   3.207   3.216   5.730  0.3524 -0.3603 -0.0863
 3672TIP3    H110980   3.206   3.186   5.821  0.4859 -0.1942 -0.0291
 3672TIP3    H210981   3.275   3.284   5.728  0.9780 -0.9866 -0.5078
 3673TIP3   OH210982   2.439   5.294   1.208 -0.2791  0.7765 -0.4263
 3673TIP3    H110983   2.434   5.332   1.296 -1.1402  0.0200 -0.1339
 3673TIP3    H210984   2.350   5.301   1.174 -0.1012  0.4338 -0.9718
 3674TIP3   OH210985   6.282   5.418   3.778  0.0569 -0.1280  0.0796
 3674TIP3    H110986   6.199   5.443   3.820 -0.5727 -0.6963 -0.7957
 3674TIP3    H210987   6.326   5.364   3.843  0.6391  1.7342  1.3162
 3675TIP3   OH210988   1.232   5.829   3.943  0.2958  0.3064  0.1221
 3675TIP3    H110989   1.193   5.916   3.956  0.1434 -0.0679  2.5611
 3675TIP3    H210990   1.162   5.778   3.903 -0.7294  0.4906  1.5925
 3676TIP3   OH210991   1.521   0.160   3.518  0.0393  0.4958  0.3084
 3676TIP3    H110992   1.560   0.096   3.460  0.6058  1.8828 -0.9069
 3676TIP3    H210993   1.559   0.142   3.604  0.8835 -0.2040 -0.2025
 3677TIP3   OH210994   2.499   1.229   1.642 -0.1481 -0.3360 -0.3752
 3677TIP3    H110995   2.530   1.140   1.660 -0.7300 -0.6677 -0.9293
 3677TIP3    H210996   2.474   1.227   1.550 -0.3537  0.3498 -0.3405
 3678TIP3   OH210997   2.636   0.190   4.687  0.2924  0.3045  0.0674
 3678TIP3    H110998   2.645   0.123   4.619 -0.5556 -0.0374  0.2834
 3678TIP3    H210999   2.688   0.264   4.654 -1.0248  0.5793 -1.5173
 3679TIP3   OH211000   6.374   5.238   1.918  0.0401  0.1521  0.3668
 3679TIP3    H111001   6.329   5.172   1.865 -0.5641 -1.0286  2.2413
 3679TIP3    H211002   6.427   5.187   1.980 -2.5506  1.1869  3.7370
 3680TIP3   OH211003   0.949   3.231   2.048 -0.2578 -0.0507  0.2870
 3680TIP3    H111004   1.037   3.217   2.011  0.5771  0.5266  1.9639
 3680TIP3    H211005   0.957   3.205   2.139 -2.4257 -2.0112  0.0132
 3681TIP3   OH211006   0.600   0.726   1.829 -0.1876  0.0390 -0.2274
 3681TIP3    H111007   0.549   0.650   1.800 -0.6797  0.2992 -0.0547
 3681TIP3    H211008   0.620   0.709   1.921 -0.1168  0.0170 -0.2473
 3682TIP3   OH211009   4.218   4.980   2.698 -0.0280 -0.8052  0.2603
 3682TIP3    H111010   4.137   5.030   2.706 -1.1068 -2.4753  0.3480
 3682TIP3    H211011   4.263   5.018   2.623 -1.0531 -0.0558  0.0075
 3683TIP3   OH211012   5.514   6.151   0.805  0.2492 -0.1532 -0.4347
 3683TIP3    H111013   5.525   6.230   0.751 -0.7702  0.5187  0.3019
 3683TIP3    H211014   5.550   6.176   0.890 -1.6419  0.1326  0.3115
 3684TIP3   OH211015   4.989   6.674   2.538  0.0636 -0.3140  0.5253
 3684TIP3    H111016   4.979   6.761   2.500  1.0060 -1.1728 -1.8882
 3684TIP3    H211017   4.953   6.682   2.627  1.5352  2.9078  0.9758
 3685TIP3   OH211018   3.930   1.646   2.839 -0.0218  0.0703 -0.8094
 3685TIP3    H111019   3.866   1.576   2.849 -0.7712  0.7873 -0.4304
 3685TIP3    H211020   3.948   1.675   2.929  0.6966  0.0004 -0.9269
 3686TIP3   OH211021   3.438   3.745   0.419 -0.0861  0.4823 -0.2841
 3686TIP3    H111022   3.466   3.695   0.496  0.9888 -0.5789 -1.3279
 3686TIP3    H211023   3.416   3.678   0.354 -0.4078  1.3696 -1.1121
 3687TIP3   OH211024   6.450   1.205   3.673  0.1054  0.3326 -0.1519
 3687TIP3    H111025   6.387   1.186   3.604  0.3323 -0.5985 -0.1188
 3687TIP3    H211026   6.501   1.124   3.682 -0.0338  0.3735  1.2324
 3688TIP3   OH211027   1.236   0.660   1.927 -0.5434 -0.1682  0.6697
 3688TIP3    H111028   1.324   0.696   1.915 -0.5764  0.4316  2.0543
 3688TIP3    H211029   1.202   0.652   1.838  0.1258  1.5882  0.2003
 3689TIP3   OH211030   3.841   0.880   0.603 -0.4700  0.0606  0.2128
 3689TIP3    H111031   3.811   0.877   0.512  0.5611 -1.0887 -0.1262
 3689TIP3    H211032   3.842   0.789   0.631  2.2895  0.0108  0.2828
 3690TIP3   OH211033   5.471   3.785   2.316  0.0035  0.3658 -0.3803
 3690TIP3    H111034   5.537   3.845   2.352 -0.5049  0.3890  0.5459
 3690TIP3    H211035   5.407   3.843   2.275  0.5181  0.3465 -1.2282
 3691TIP3   OH211036   7.020   4.197   1.049  0.3209  0.4021 -0.3418
 3691TIP3    H111037   6.937   4.243   1.061 -1.2918 -2.8763  3.0640
 3691TIP3    H211038   7.084   4.250   1.097 -0.7999  0.7938  0.7744
 3692TIP3   OH211039   4.132   0.975   0.961  0.3782  0.5341 -0.2027
 3692TIP3    H111040   4.170   0.892   0.988  0.2031  0.8406  1.0535
 3692TIP3    H211041   4.199   1.017   0.908  0.8570  0.0257 -0.0011
 3693TIP3   OH211042   1.305   3.624   0.352  0.4543  0.4895  0.2859
 3693TIP3    H111043   1.337   3.695   0.295  1.1561 -1.4656 -1.9418
 3693TIP3    H211044   1.211   3.640   0.360  0.4484  1.2240 -0.9257
 3694TIP3   OH211045   0.181   2.774   5.324 -0.7229  0.4008 -0.5263
 3694TIP3    H111046   0.131   2.758   5.404 -1.5188  1.2830 -0.8304
 3694TIP3    H211047   0.239   2.847   5.346  1.3634 -1.3911  0.2023
 3695TIP3   OH211048   2.769   2.300   4.394  0.1069 -0.1118  0.3362
 3695TIP3    H111049   2.806   2.357   4.461  0.5541 -0.6149  0.5286
 3695TIP3    H211050   2.846   2.261   4.351 -0.1596  0.4605 -0.6945
 3696TIP3   OH211051   0.429   3.308   1.159  0.2132  0.5483  0.2849
 3696TIP3    H111052   0.478   3.226   1.153  0.0223  0.5273 -1.2704
 3696TIP3    H211053   0.482   3.363   1.217  0.5659 -0.5060  0.9907
 3697TIP3   OH211054   0.104   2.679   5.609 -0.8282  0.1638  0.0034
 3697TIP3    H111055   0.132   2.686   5.701 -1.7091  0.0199  0.2911
 3697TIP3    H211056   0.056   2.597   5.605  1.1884 -1.0541 -1.1484
 3698TIP3   OH211057   0.144   3.286   0.082  0.0141  0.7339  0.3075
 3698TIP3    H111058   0.136   3.336   0.163 -1.5386 -0.1504  0.7333
 3698TIP3    H211059   0.239   3.282   0.065  0.2534  3.1912  0.6127
 3699TIP3   OH211060   5.516   4.339   2.964  0.0307  0.3553 -0.1274
 3699TIP3    H111061   5.597   4.307   2.924 -0.0742  0.2384 -0.2454
 3699TIP3    H211062   5.469   4.260   2.989 -0.4511  0.4097 -0.8555
 3700TIP3   OH211063   1.575   0.816   3.355  0.4368 -0.4935 -0.3891
 3700TIP3    H111064   1.487   0.789   3.379  0.5466 -0.9417 -0.4766
 3700TIP3    H211065   1.611   0.741   3.309  0.9639 -0.4214 -0.1033
 3701TIP3   OH211066   5.693   5.110   2.819  0.4349 -0.1384  0.4344
 3701TIP3    H111067   5.760   5.067   2.767 -0.6509 -0.9699 -0.3334
 3701TIP3    H211068   5.621   5.047   2.822  0.0117  0.3844  1.9499
 3702TIP3   OH211069   1.245   6.178   4.909 -0.0337 -0.4174 -0.1198
 3702TIP3    H111070   1.179   6.246   4.922  1.0104  0.7240 -0.6103
 3702TIP3    H211071   1.325   6.226   4.887  0.5117 -1.8499 -1.4105
 3703TIP3   OH211072   2.151   2.984   3.750 -0.1813  0.0656  0.0642
 3703TIP3    H111073   2.094   2.907   3.759  1.9760 -1.5724  0.7556
 3703TIP3    H211074   2.148   3.025   3.837 -1.9886  1.3240 -0.5423
 3704TIP3   OH211075   2.114   4.061   2.220 -0.6073 -0.2178  0.3831
 3704TIP3    H111076   2.178   4.064   2.149 -0.8738 -0.7887  0.1116
 3704TIP3    H211077   2.031   4.045   2.176 -1.1756  1.8230  0.5999
 3705TIP3   OH211078   7.100   3.117   3.953  0.1533  0.4272 -0.0415
 3705TIP3    H111079   7.191   3.116   3.981 -0.3143  0.8751  1.6204
 3705TIP3    H211080   7.068   3.028   3.973 -0.6699  1.2483  2.7876
 3706TIP3   OH211081   2.753   0.223   3.205  0.2583  0.5208  0.8680
 3706TIP3    H111082   2.796   0.278   3.140  0.3354  0.3274  0.7538
 3706TIP3    H211083   2.760   0.134   3.169 -0.8467  0.5613  0.5045
 3707TIP3   OH211084   3.242   0.952   0.282  0.2251 -0.3440 -0.4164
 3707TIP3    H111085   3.211   0.878   0.333 -0.0474  0.4249  0.5695
 3707TIP3    H211086   3.323   0.978   0.326  0.1135  0.1752 -0.5156
 3708TIP3   OH211087   2.489   2.885   1.731  0.2643 -0.2197 -1.0663
 3708TIP3    H111088   2.525   2.798   1.747 -0.3125 -0.2054  0.4933
 3708TIP3    H211089   2.487   2.926   1.817 -3.9631 -0.4471 -0.8433
 3709TIP3   OH211090   2.315   1.259   3.753 -0.1116  0.1265  0.3757
 3709TIP3    H111091   2.406   1.274   3.727 -0.5669  1.3848 -0.5983
 3709TIP3    H211092   2.308   1.164   3.764  1.1205 -0.0541 -0.2830
 3710TIP3   OH211093   3.766   3.835   5.496 -0.2485  0.2600 -0.2122
 3710TIP3    H111094   3.763   3.743   5.471  0.6196  0.7778 -2.5111
 3710TIP3    H211095   3.736   3.882   5.418  0.5026  1.9785  0.4818
 3711TIP3   OH211096   3.096   2.542   3.742 -0.3532  1.0000  0.2382
 3711TIP3    H111097   3.122   2.623   3.697  1.9935 -0.8835 -2.1009
 3711TIP3    H211098   3.026   2.506   3.688 -0.3526  0.7373  0.4132
 3712TIP3   OH211099   0.063   5.702   1.603 -0.0069 -0.2857  0.0326
 3712TIP3    H111100   0.024   5.753   1.532 -0.6993 -1.3506 -0.3746
 3712TIP3    H211101   0.011   5.622   1.607  0.3338 -0.4657  1.4174
 3713TIP3   OH211102   0.084   5.558   2.346  0.8784 -0.0569  0.0638
 3713TIP3    H111103   0.038   5.619   2.287 -0.4074  0.1309  1.2270
 3713TIP3    H211104   0.045   5.573   2.432  2.8156 -0.2284  1.0302
 3714TIP3   OH211105   4.509   2.801   3.180  0.2727 -0.1947  0.0873
 3714TIP3    H111106   4.543   2.870   3.236  0.7418 -0.4921  0.1836
 3714TIP3    H211107   4.436   2.763   3.228  0.0212  0.2324  0.0364
 3715TIP3   OH211108   4.595   4.234   4.606 -0.4740 -0.6175 -0.3500
 3715TIP3    H111109   4.501   4.247   4.618 -0.5772 -0.8118 -0.9378
 3715TIP3    H211110   4.625   4.201   4.691 -1.0444 -1.1541 -0.3478
 3716TIP3   OH211111   1.684   1.750   3.669  0.1902  0.4361  1.0860
 3716TIP3    H111112   1.588   1.748   3.671  0.2060 -0.3305  1.6459
 3716TIP3    H211113   1.708   1.825   3.723 -0.1016  1.2347  0.1342
 3717TIP3   OH211114   6.390   0.080   2.859 -0.2807 -0.0538 -0.7077
 3717TIP3    H111115   6.326   0.017   2.824  0.0378 -1.4225  1.0353
 3717TIP3    H211116   6.465   0.073   2.801 -0.9552  0.1457 -1.6371
 3718TIP3   OH211117   2.852   3.706   0.121  0.1998  0.2167 -0.3748
 3718TIP3    H111118   2.912   3.774   0.089  0.8410  0.0826  0.4986
 3718TIP3    H211119   2.768   3.727   0.080  0.5637  1.1048 -0.6966
 3719TIP3   OH211120   0.204   6.290   2.340 -0.2748  0.0078  0.1906
 3719TIP3    H111121   0.280   6.251   2.383 -0.6522 -1.7847 -0.6947
 3719TIP3    H211122   0.226   6.383   2.334  0.7523 -0.0523  2.1671
 3720TIP3   OH211123   1.233   5.997   0.895 -0.2083  0.7070 -0.2551
 3720TIP3    H111124   1.275   6.075   0.858  0.1232  0.6612  0.0096
 3720TIP3    H211125   1.307   5.944   0.927 -0.5173  1.3972  1.7532
 3721TIP3   OH211126   6.485   2.751   4.562 -0.0411 -0.3270 -0.5752
 3721TIP3    H111127   6.478   2.812   4.488  0.8512 -0.3746 -0.7131
 3721TIP3    H211128   6.566   2.702   4.544  0.6855  0.2873  0.9040
 3722TIP3   OH211129   5.854   3.076   3.881 -0.0913 -0.0712  0.1060
 3722TIP3    H111130   5.878   3.017   3.810 -0.4809  0.8455 -0.7986
 3722TIP3    H211131   5.900   3.041   3.957 -0.5245 -1.7108 -0.3392
 3723TIP3   OH211132   3.458   1.961   2.904 -0.0112 -0.2784  0.1710
 3723TIP3    H111133   3.532   1.955   2.964  0.0978  0.5777  0.1377
 3723TIP3    H211134   3.485   1.910   2.827  1.6097  2.0332 -0.8850
 3724TIP3   OH211135   6.512   0.341   0.277  0.6725 -0.2082  0.2267
 3724TIP3    H111136   6.496   0.409   0.343 -1.3708 -1.4527  1.1036
 3724TIP3    H211137   6.522   0.390   0.195 -0.2025  1.2024  0.9047
 3725TIP3   OH211138   0.019   1.288   2.027 -0.1395  0.0331 -0.0949
 3725TIP3    H111139  -0.062   1.239   2.009 -1.2097 -0.9106  5.5371
 3725TIP3    H211140   0.089   1.229   1.999 -1.4744 -3.2180  2.7453
 3726TIP3   OH211141   0.333   1.231   3.594  0.1708  0.3037  0.0314
 3726TIP3    H111142   0.323   1.236   3.499  0.0018 -0.5724 -0.0038
 3726TIP3    H211143   0.426   1.248   3.609 -0.3455  3.9059  0.0110
 3727TIP3   OH211144   2.565   0.945   3.952 -0.6052  0.6094 -0.1007
 3727TIP3    H111145   2.531   1.007   3.887 -2.8103  0.4823  0.8313
 3727TIP3    H211146   2.607   0.877   3.900 -0.1507  1.7215 -1.2616
 3728TIP3   OH211147   1.300   3.279   1.590  0.0761 -0.3749 -0.6336
 3728TIP3    H111148   1.267   3.199   1.631 -0.1030 -0.1194 -0.2713
 3728TIP3    H211149   1.349   3.323   1.660 -0.3680  0.1449 -0.6383
 3729TIP3   OH211150   1.919   2.614   3.625  0.0248 -0.1897 -0.1886
 3729TIP3    H111151   1.973   2.568   3.561 -1.1946 -0.9960 -0.6714
 3729TIP3    H211152   1.934   2.707   3.607 -0.7393 -0.3892 -2.0632
 3730TIP3   OH211153   6.021   5.834   2.118 -0.7776  0.0671 -0.2457
 3730TIP3    H111154   5.993   5.798   2.202  1.1970 -0.5008  0.2211
 3730TIP3    H211155   6.106   5.874   2.136 -1.8265  3.0224 -1.2503
 3731TIP3   OH211156   3.546   3.099   3.208  0.3699 -0.0260  0.5360
 3731TIP3    H111157   3.622   3.040   3.213  0.0042 -0.5359  0.1901
 3731TIP3    H211158   3.477   3.054   3.257  0.4064  0.6261  1.1877
 3732TIP3   OH211159   1.614   6.509   2.987  0.9902 -0.0636 -0.3118
 3732TIP3    H111160   1.550   6.534   3.054  0.8377 -3.1592  0.8793
 3732TIP3    H211161   1.699   6.514   3.032  1.0349 -0.7376 -0.3073
 3733TIP3   OH211162   5.736   2.635   2.627 -0.7649 -0.0029  0.1903
 3733TIP3    H111163   5.795   2.560   2.627  0.6332  1.0425 -1.1276
 3733TIP3    H211164   5.662   2.607   2.573  0.7867  0.2596 -2.2464
 3734TIP3   OH211165   6.210   0.924   4.964 -0.0118  0.5712 -0.4366
 3734TIP3    H111166   6.299   0.954   4.981  0.2202 -0.8260  1.0230
 3734TIP3    H211167   6.171   0.911   5.050 -1.4858  0.6784 -1.0475
 3735TIP3   OH211168   2.498   2.791   2.167  0.9890  0.6343  0.1380
 3735TIP3    H111169   2.552   2.754   2.238  2.6793 -0.6014 -1.6862
 3735TIP3    H211170   2.439   2.721   2.143  0.3224  1.1021  0.3856
 3736TIP3   OH211171   6.649   5.097   2.422  0.1603 -0.3981  0.3265
 3736TIP3    H111172   6.706   5.027   2.453  1.3735 -0.0281 -0.9512
 3736TIP3    H211173   6.568   5.052   2.397  0.3177 -1.1046  1.0237
 3737TIP3   OH211174   6.827   5.030   4.361 -0.5812 -0.1855  0.3844
 3737TIP3    H111175   6.804   4.937   4.363 -0.8751 -0.1180  0.1466
 3737TIP3    H211176   6.917   5.031   4.328 -1.4025 -0.2511 -2.1003
 3738TIP3   OH211177   0.117   3.218   4.029 -0.2702 -0.2930 -0.1706
 3738TIP3    H111178   0.163   3.298   4.055  0.3022  0.0846 -2.1228
 3738TIP3    H211179   0.104   3.169   4.110  1.6224  0.6301  0.7562
 3739TIP3   OH211180   0.746   3.605   0.803  0.2681  0.1096  0.6917
 3739TIP3    H111181   0.765   3.580   0.894  1.2702 -0.4601  0.3531
 3739TIP3    H211182   0.665   3.655   0.808  0.5165  0.4271  1.9498
 3740TIP3   OH211183   2.974   6.522   5.785 -0.4349  0.4865  0.0379
 3740TIP3    H111184   3.031   6.581   5.735  0.1878 -0.8080 -0.8459
 3740TIP3    H211185   3.026   6.500   5.863 -0.7391  1.2220  0.4569
 3741TIP3   OH211186   5.201   2.190   2.374 -0.2119  0.1031 -0.3708
 3741TIP3    H111187   5.115   2.231   2.362 -0.2260  0.5629  1.1257
 3741TIP3    H211188   5.232   2.174   2.285 -1.0356  1.6238 -0.9716
 3742TIP3   OH211189   3.345   6.743   4.683 -0.2797  0.0346 -0.2869
 3742TIP3    H111190   3.293   6.744   4.603 -0.7205 -0.3755 -0.0136
 3742TIP3    H211191   3.280   6.732   4.753  0.0319  1.0835  0.1858
 3743TIP3   OH211192   4.895   1.033   1.838 -0.0853 -0.3925 -0.6857
 3743TIP3    H111193   4.961   1.081   1.888  1.0457 -1.5790 -0.9682
 3743TIP3    H211194   4.883   1.085   1.758  0.0325  0.1638 -0.3475
 3744TIP3   OH211195   6.664   5.799   5.662 -0.0355 -0.0234 -0.2589
 3744TIP3    H111196   6.754   5.781   5.639  0.9213  1.0818  2.2055
 3744TIP3    H211197   6.648   5.888   5.631 -0.4683 -0.3862 -1.1120
 3745TIP3   OH211198   4.893   3.096   4.132 -0.3677  0.3841  0.4026
 3745TIP3    H111199   4.921   3.113   4.222  0.5247  1.0746  0.0145
 3745TIP3    H211200   4.938   3.014   4.109 -2.3563 -1.0526  1.2925
 3746TIP3   OH211201   4.164   5.318   0.200  0.0258  0.3168 -0.6978
 3746TIP3    H111202   4.147   5.226   0.224  1.3659  0.1291 -0.3716
 3746TIP3    H211203   4.078   5.356   0.188 -0.6212 -0.5962  0.7219
 3747TIP3   OH211204   5.694   0.254   5.002 -0.0247 -0.3431  0.3995
 3747TIP3    H111205   5.605   0.218   4.991 -0.6678  0.8879  1.3580
 3747TIP3    H211206   5.747   0.178   5.025 -0.9371 -1.0252  0.3393
 3748TIP3   OH211207   5.353   5.299   5.837  0.4967  0.0105 -0.8882
 3748TIP3    H111208   5.425   5.248   5.801  0.6024  1.7411 -3.3919
 3748TIP3    H211209   5.379   5.390   5.824 -1.1286  0.6969  0.3218
 3749TIP3   OH211210   2.690   1.057   5.189  0.1661  0.0520 -0.6400
 3749TIP3    H111211   2.680   0.962   5.201 -1.7989  0.5305  2.8010
 3749TIP3    H211212   2.783   1.074   5.207  0.0983 -1.0323  0.9415
 3750TIP3   OH211213   1.895   1.372   5.911 -0.1264  0.0750  0.0618
 3750TIP3    H111214   1.843   1.401   5.836  2.3657  1.9710 -1.0676
 3750TIP3    H211215   1.958   1.310   5.876 -1.1982 -1.8219  1.3199
 3751TIP3   OH211216   0.739   2.953   4.901  0.7000  0.3403  0.0420
 3751TIP3    H111217   0.679   3.027   4.900  0.8728  0.5031 -1.4976
 3751TIP3    H211218   0.797   2.968   4.826  1.4958 -0.7450  0.4087
 3752TIP3   OH211219   3.228   6.251   3.391 -0.4004  0.0141 -0.3159
 3752TIP3    H111220   3.261   6.216   3.308 -0.5536 -0.1614 -0.3026
 3752TIP3    H211221   3.183   6.332   3.366 -0.4655 -0.0501 -0.4092
 3753TIP3   OH211222   7.180   4.130   3.938  0.4572  0.3287 -0.5268
 3753TIP3    H111223   7.131   4.145   3.856  0.0485  0.0551 -0.3335
 3753TIP3    H211224   7.113   4.108   4.002  0.6194  1.8743  0.2267
 3754TIP3   OH211225   3.969   3.474   5.185 -0.3233 -0.6454 -0.1737
 3754TIP3    H111226   3.908   3.410   5.148  0.5907 -0.6380 -1.7806
 3754TIP3    H211227   4.028   3.421   5.240 -3.4156 -0.3162  3.9058
 3755TIP3   OH211228   3.046   4.587   5.777 -0.0947 -0.6063 -0.2936
 3755TIP3    H111229   3.103   4.510   5.770 -1.6908 -1.6964 -3.0064
 3755TIP3    H211230   3.073   4.643   5.705 -0.0535  0.6260  0.6524
 3756TIP3   OH211231   4.537   5.823   0.895 -0.0807  0.3923  0.0302
 3756TIP3    H111232   4.601   5.781   0.954 -0.5162 -0.4997 -0.1183
 3756TIP3    H211233   4.517   5.907   0.937 -0.0332 -0.0300  0.9119
 3757TIP3   OH211234   2.344   2.386   3.721  0.1274 -0.2270  0.1042
 3757TIP3    H111235   2.263   2.361   3.766  1.1403 -1.9467  1.1184
 3757TIP3    H211236   2.384   2.451   3.778 -1.2331  1.8631 -1.1962
 3758TIP3   OH211237   2.364   1.486   5.862  0.4384 -0.1755 -0.1033
 3758TIP3    H111238   2.398   1.529   5.940 -1.9774 -0.7681  1.3836
 3758TIP3    H211239   2.391   1.394   5.870  0.1434 -0.2480  0.0838
 3759TIP3   OH211240   0.211   6.518   1.776  0.2582  0.7984  0.1496
 3759TIP3    H111241   0.124   6.495   1.809  0.8687 -1.1641  0.5517
 3759TIP3    H211242   0.196   6.590   1.715 -1.8890 -0.7426 -1.2580
 3760TIP3   OH211243   6.191   6.371   1.546 -0.0974 -0.1470  0.0286
 3760TIP3    H111244   6.226   6.327   1.624 -0.5502  1.6258  1.2960
 3760TIP3    H211245   6.203   6.307   1.475 -1.3506 -2.6150  1.8497
 3761TIP3   OH211246   3.038   5.285   1.900  0.0326 -0.3562 -0.6855
 3761TIP3    H111247   3.118   5.315   1.855 -0.0670  0.2159 -0.4970
 3761TIP3    H211248   3.053   5.308   1.991 -1.0213  1.2788 -0.8817
 3762TIP3   OH211249   2.420   6.026   0.227 -0.2321 -0.1698 -0.0743
 3762TIP3    H111250   2.473   6.003   0.304  1.3967 -0.4924 -1.2443
 3762TIP3    H211251   2.358   5.954   0.218  0.4670 -0.8046  0.1504
 3763TIP3   OH211252   4.420   0.701   3.512 -0.0751 -0.4195 -0.1197
 3763TIP3    H111253   4.376   0.755   3.447 -0.2309 -0.5475 -0.1232
 3763TIP3    H211254   4.480   0.646   3.461 -2.2669 -2.6191 -0.5488
 3764TIP3   OH211255   3.185   2.923   0.211  0.5545  0.0186  0.2037
 3764TIP3    H111256   3.167   2.834   0.242 -0.5076  0.1762  0.0550
 3764TIP3    H211257   3.138   2.980   0.271  1.7967  0.5414  0.7226
 3765TIP3   OH211258   0.597   1.299   0.140  0.0712  0.0191 -0.1874
 3765TIP3    H111259   0.595   1.290   0.045 -1.0880 -0.0430 -0.1749
 3765TIP3    H211260   0.532   1.367   0.159 -0.1554 -0.4047  0.5998
 3766TIP3   OH211261   4.146   2.317   0.925  0.2123  0.6044 -0.2685
 3766TIP3    H111262   4.215   2.383   0.936  0.8636 -0.2119  0.7603
 3766TIP3    H211263   4.104   2.312   1.011  1.6642 -1.8990  0.4151
 3767TIP3   OH211264   0.399   5.326   4.520  0.0705  0.0251 -0.2635
 3767TIP3    H111265   0.347   5.406   4.535  0.2486 -0.0066  0.5599
 3767TIP3    H211266   0.430   5.301   4.607  0.6216 -0.5371 -0.6165
 3768TIP3   OH211267   6.129   0.749   0.968  0.5020  0.1250  0.3974
 3768TIP3    H111268   6.071   0.704   1.030  1.6199 -0.6393  0.9340
 3768TIP3    H211269   6.084   0.742   0.884 -0.9442  0.9886  1.0501
 3769TIP3   OH211270  -0.015   5.469   5.458  0.2218 -0.3655 -0.0293
 3769TIP3    H111271   0.026   5.411   5.395 -0.1551 -0.4917 -0.1605
 3769TIP3    H211272   0.026   5.445   5.542  1.1246  0.1826 -0.2948
 3770TIP3   OH211273   4.479   6.323   1.579  0.3553 -0.2141 -0.0112
 3770TIP3    H111274   4.479   6.419   1.576  1.5205 -0.1587  0.8194
 3770TIP3    H211275   4.571   6.300   1.595  0.1773 -1.4989 -0.7318
 3771TIP3   OH211276   5.002   6.230   1.183 -0.1491 -0.2569  0.2621
 3771TIP3    H111277   4.949   6.206   1.106  1.6834  0.5806 -1.3488
 3771TIP3    H211278   4.998   6.326   1.186 -0.6321 -0.2951  1.5778
 3772TIP3   OH211279   7.016   3.676   4.657  0.7273  0.0734 -0.4680
 3772TIP3    H111280   7.051   3.680   4.746  1.6016 -1.2914 -0.7305
 3772TIP3    H211281   6.982   3.587   4.648 -1.7038  0.9425 -0.6800
 3773TIP3   OH211282   1.576   3.235   2.054  0.5636 -0.3595  0.0116
 3773TIP3    H111283   1.667   3.247   2.025  0.7553  0.7722  0.9732
 3773TIP3    H211284   1.584   3.202   2.144  0.0171 -0.1237  0.1503
 3774TIP3   OH211285   0.091   5.938   0.693  0.3778  0.0925  0.9884
 3774TIP3    H111286   0.015   5.886   0.669  0.5054  0.2811  0.1262
 3774TIP3    H211287   0.163   5.902   0.641  0.4148  1.2599  0.1690
 3775TIP3   OH211288   3.994   5.345   4.005 -0.1933  0.4386 -0.3328
 3775TIP3    H111289   3.922   5.367   3.945  0.0870  2.1130 -0.1161
 3775TIP3    H211290   3.950   5.306   4.080 -0.5718 -1.4688 -1.4857
 3776TIP3   OH211291   4.704   1.440   0.904 -0.2011 -0.3878  0.1061
 3776TIP3    H111292   4.734   1.380   0.972  0.7579  0.2933  0.3117
 3776TIP3    H211293   4.710   1.527   0.945 -0.4102 -0.0483 -0.5711
 3777TIP3   OH211294   4.131   2.801   0.246  0.0229 -0.4547 -0.4090
 3777TIP3    H111295   4.189   2.832   0.176 -1.1828  0.0075 -1.2348
 3777TIP3    H211296   4.156   2.854   0.323  0.2546  0.2016 -0.9251
 3778TIP3   OH211297   4.461   4.999   5.864  0.3508  0.2720  0.1128
 3778TIP3    H111298   4.371   4.997   5.897  0.1257  0.4792 -0.4610
 3778TIP3    H211299   4.455   5.051   5.784  0.9529  0.1425 -0.0194
 3779TIP3   OH211300   0.805   0.183   1.524 -0.3429 -0.0822  0.4248
 3779TIP3    H111301   0.901   0.181   1.524 -0.3073  0.7463  1.5795
 3779TIP3    H211302   0.782   0.269   1.490 -0.6449  0.1441  1.1820
 3780TIP3   OH211303   2.512   4.946   1.787 -0.0315  0.9086 -0.5586
 3780TIP3    H111304   2.424   4.909   1.784 -0.8340  2.6615  0.3878
 3780TIP3    H211305   2.545   4.936   1.697  0.4121 -3.3202 -0.1288
 3781TIP3   OH211306   1.704   6.022   0.442  0.0233  0.0219 -0.7373
 3781TIP3    H111307   1.643   6.069   0.498  0.8971  1.2476 -0.7971
 3781TIP3    H211308   1.781   6.008   0.497  0.1308 -0.5170 -1.0198
 3782TIP3   OH211309   3.644   2.579   0.523  0.3554  0.3326  0.0350
 3782TIP3    H111310   3.561   2.624   0.509 -0.2717 -0.6684  0.4071
 3782TIP3    H211311   3.621   2.502   0.575  1.7531  0.9105  1.6061
 3783TIP3   OH211312   6.238   5.223   2.213  0.5649  0.2563 -0.2839
 3783TIP3    H111313   6.315   5.260   2.254  0.4245  0.4356 -0.1784
 3783TIP3    H211314   6.257   5.226   2.119  0.8854 -0.1542 -0.2313
 3784TIP3   OH211315   0.883   3.916  -0.021  0.1333 -0.0281  0.4497
 3784TIP3    H111316   0.876   3.834   0.028 -0.8573 -0.5128 -0.4602
 3784TIP3    H211317   0.857   3.983   0.042 -0.2248 -0.5481  0.8713
 3785TIP3   OH211318   5.286   0.571   4.932 -0.2495  0.8628  0.1282
 3785TIP3    H111319   5.267   0.484   4.966  0.9733  0.5667  0.0900
 3785TIP3    H211320   5.286   0.627   5.010  1.6786  0.3315  0.5753
 3786TIP3   OH211321   4.025   0.194   5.389 -0.2224  0.9361  0.2136
 3786TIP3    H111322   4.107   0.227   5.426  0.1642 -0.7871  1.0161
 3786TIP3    H211323   3.964   0.195   5.463  0.3320 -1.7873  0.8207
 3787TIP3   OH211324   2.191   3.290   5.586 -0.1263 -0.0052  0.5713
 3787TIP3    H111325   2.233   3.376   5.586  0.5876 -0.3443 -0.6165
 3787TIP3    H211326   2.098   3.309   5.573  0.0683  0.5661 -0.0032
 3788TIP3   OH211327   1.923   0.116   2.117  0.9533 -0.2523 -0.3506
 3788TIP3    H111328   1.845   0.172   2.110  1.5821  0.5715 -1.1888
 3788TIP3    H211329   1.994   0.178   2.136  1.0547 -1.2604  3.0934
 3789TIP3   OH211330   3.574   0.131   2.627  1.0368  0.3210 -0.2852
 3789TIP3    H111331   3.619   0.115   2.543  0.4786 -0.4103 -0.4526
 3789TIP3    H211332   3.550   0.224   2.623  1.6953  0.4911 -0.5950
 3790TIP3   OH211333   4.621   0.674   5.380 -0.2157 -0.3671 -0.0284
 3790TIP3    H111334   4.564   0.735   5.427 -1.0258  0.2152 -1.7025
 3790TIP3    H211335   4.666   0.625   5.449 -0.7739  0.9836  1.3425
 3791TIP3   OH211336   6.511   1.277   0.929 -0.8221  0.8659 -0.4001
 3791TIP3    H111337   6.583   1.249   0.985 -0.1187 -0.6065 -1.9408
 3791TIP3    H211338   6.480   1.359   0.968 -0.0441  0.1706  1.7898
 3792TIP3   OH211339   4.037   1.933   1.456  0.2750 -0.0687 -0.4712
 3792TIP3    H111340   3.964   1.871   1.450  0.1385 -0.1263  1.2513
 3792TIP3    H211341   4.109   1.882   1.491 -0.2173  0.9448  2.2781
 3793TIP3   OH211342   4.414   5.495   3.164  0.6448 -0.0794  0.2415
 3793TIP3    H111343   4.479   5.531   3.104 -0.1298 -1.2640 -1.3777
 3793TIP3    H211344   4.350   5.565   3.174 -0.9035 -0.8438 -2.9647
 3794TIP3   OH211345   5.716   5.579   5.720  0.2054  0.2965  0.9504
 3794TIP3    H111346   5.742   5.665   5.685 -1.1013 -0.4449 -2.1214
 3794TIP3    H211347   5.777   5.564   5.793  4.8964  1.0386 -2.3296
 3795TIP3   OH211348   0.875   1.842   2.168  0.0727 -0.4505 -0.3393
 3795TIP3    H111349   0.930   1.911   2.204  0.9173 -1.9860  1.4883
 3795TIP3    H211350   0.934   1.790   2.114 -0.0305 -0.9520  0.0214
 3796TIP3   OH211351   1.798   0.621   3.185 -0.0661  0.2430  0.5694
 3796TIP3    H111352   1.891   0.642   3.192  0.0699  0.0325 -0.4929
 3796TIP3    H211353   1.786   0.545   3.243  0.6455 -0.3882 -0.0881
 3797TIP3   OH211354   5.688   0.339   1.262  0.4176 -0.3701 -0.0707
 3797TIP3    H111355   5.619   0.294   1.311  0.3259 -0.5429 -0.3600
 3797TIP3    H211356   5.662   0.431   1.262  0.2497 -0.4174 -0.0731
 3798TIP3   OH211357   4.372   1.712   3.663 -0.2120  0.1910  0.4416
 3798TIP3    H111358   4.401   1.672   3.581 -1.4990 -0.4580  0.2731
 3798TIP3    H211359   4.443   1.695   3.725 -0.2142 -1.3291  0.0556
 3799TIP3   OH211360   4.571   0.131   2.673 -0.1099  0.1848 -0.1905
 3799TIP3    H111361   4.636   0.153   2.606  0.5591 -0.4010  0.2532
 3799TIP3    H211362   4.622   0.120   2.753 -0.5708 -1.6428 -0.1155
 3800TIP3   OH211363   2.159   0.928   4.545 -0.1365 -0.9111  0.5372
 3800TIP3    H111364   2.239   0.981   4.543 -1.6056  1.4401  0.4884
 3800TIP3    H211365   2.157   0.886   4.459  0.1821  0.4173 -0.1652
 3801TIP3   OH211366   2.233   1.184   5.617 -0.0295  0.0388  0.1939
 3801TIP3    H111367   2.251   1.276   5.597 -1.6227  0.2431 -0.4507
 3801TIP3    H211368   2.169   1.188   5.689  0.3026 -0.5808  0.5319
 3802TIP3   OH211369   3.753   3.621   0.359  0.9070  0.0822 -0.7974
 3802TIP3    H111370   3.690   3.550   0.350  0.6634  0.3610 -1.3482
 3802TIP3    H211371   3.714   3.695   0.312  0.8399  0.7978  0.3423
 3803TIP3   OH211372   4.250   0.930   2.277  0.1750  0.2738 -0.4275
 3803TIP3    H111373   4.161   0.920   2.311 -0.0394 -1.6445 -1.4181
 3803TIP3    H211374   4.298   0.972   2.349 -1.2864  0.4872  0.4789
 3804TIP3   OH211375   5.436   1.277   5.115  0.3050  0.1224 -0.0182
 3804TIP3    H111376   5.438   1.362   5.071 -0.8209  0.3896  0.3903
 3804TIP3    H211377   5.407   1.216   5.047  0.9769  0.0934 -0.2765
 3805TIP3   OH211378   4.327   5.400   4.669 -0.7659  0.3068 -0.8252
 3805TIP3    H111379   4.263   5.334   4.642 -0.1071 -0.3533 -0.8196
 3805TIP3    H211380   4.305   5.477   4.617 -0.7246 -0.3360 -1.8209
 3806TIP3   OH211381   2.100   5.741   0.684 -0.1382 -0.4165  0.0300
 3806TIP3    H111382   2.062   5.718   0.599 -1.3028  2.0621 -0.2106
 3806TIP3    H211383   2.053   5.687   0.747  0.4745 -2.0124 -0.8049
 3807TIP3   OH211384   1.726   4.836   1.619 -0.1303 -0.0572  0.1202
 3807TIP3    H111385   1.732   4.928   1.591  0.3264 -0.1307 -0.0357
 3807TIP3    H211386   1.633   4.821   1.632 -0.1822  0.5227  0.4570
 3808TIP3   OH211387   2.232   2.111   0.622 -0.0847  0.3346  0.1940
 3808TIP3    H111388   2.208   2.066   0.541  1.1898  0.7439 -0.4323
 3808TIP3    H211389   2.325   2.132   0.612  0.1365  0.2732  1.8301
 3809TIP3   OH211390   2.015   4.941   3.757 -0.9885  0.2804  0.1317
 3809TIP3    H111391   2.081   5.010   3.754 -1.2094  0.4696 -0.7402
 3809TIP3    H211392   1.943   4.979   3.807 -0.4733  0.0972  1.0285
 3810TIP3   OH211393   0.139   4.467   1.364  0.3338  0.0816 -0.1744
 3810TIP3    H111394   0.115   4.543   1.417  0.2622  0.1539 -0.3088
 3810TIP3    H211395   0.215   4.430   1.408 -0.4261 -0.5534  0.6397
 3811TIP3   OH211396   6.538   3.781   2.562 -0.5865  0.7078  0.2093
 3811TIP3    H111397   6.609   3.777   2.498 -1.1653 -1.8121 -0.3927
 3811TIP3    H211398   6.583   3.786   2.646  0.2685  0.7272 -0.2344
 3812TIP3   OH211399   4.628   4.474   4.221  0.0747 -0.5483  0.3510
 3812TIP3    H111400   4.616   4.467   4.316  1.0071 -2.5420  0.3882
 3812TIP3    H211401   4.605   4.387   4.188  0.1108  0.0104 -1.2032
 3813TIP3   OH211402   1.334   4.243   5.159 -0.6992  0.0522 -0.5422
 3813TIP3    H111403   1.312   4.303   5.088 -1.2253  0.8817  0.2916
 3813TIP3    H211404   1.270   4.262   5.227  0.3939 -0.0366  0.5480
 3814TIP3   OH211405   4.766   2.256   5.840 -0.6080 -0.3987  0.1064
 3814TIP3    H111406   4.856   2.250   5.872 -0.5252 -0.5091 -0.1463
 3814TIP3    H211407   4.713   2.219   5.911 -0.3644 -1.3469 -0.1900
 3815TIP3   OH211408   0.976   3.249   2.332 -0.1105  0.5022  0.1664
 3815TIP3    H111409   1.036   3.275   2.403 -0.5135 -0.1251  0.7414
 3815TIP3    H211410   0.902   3.308   2.341  0.7171  1.7897 -1.0134
 3816TIP3   OH211411   3.506   5.690   3.481  0.3365  0.0144  0.0001
 3816TIP3    H111412   3.421   5.647   3.469  0.4423  0.0346 -0.8297
 3816TIP3    H211413   3.496   5.775   3.440 -0.0377  1.0470  2.1023
 3817TIP3   OH211414   6.427   5.501   1.919  0.1782  0.1757 -0.3474
 3817TIP3    H111415   6.517   5.514   1.889  1.6180  0.0710  3.4761
 3817TIP3    H211416   6.417   5.406   1.925 -0.7277  0.1224 -1.9382
 3818TIP3   OH211417   0.521   6.137   4.698 -0.1923 -0.0337 -0.1863
 3818TIP3    H111418   0.613   6.114   4.696 -0.0965  0.3806 -1.5362
 3818TIP3    H211419   0.492   6.116   4.787  1.0224 -0.8249  0.0330
 3819TIP3   OH211420   3.522   3.184   0.286  0.1160  0.3534 -0.3613
 3819TIP3    H111421   3.451   3.192   0.221  0.5270 -0.4431 -0.9166
 3819TIP3    H211422   3.499   3.106   0.337  1.3665 -0.8436 -1.5475
 3820TIP3   OH211423   3.060   1.219   3.258 -0.1381  0.0117  0.6590
 3820TIP3    H111424   2.982   1.198   3.309 -1.9041  1.2146 -1.3790
 3820TIP3    H211425   3.081   1.137   3.212 -2.1618  0.3929 -1.1281
 3821TIP3   OH211426   1.569   5.852   1.277 -0.3512 -0.1903 -0.0959
 3821TIP3    H111427   1.498   5.832   1.339 -0.3660 -1.4555 -0.5033
 3821TIP3    H211428   1.527   5.850   1.191 -0.7480  3.3593 -0.1381
 3822TIP3   OH211429   4.314   3.675   5.108 -0.5219  0.5356 -0.4626
 3822TIP3    H111430   4.230   3.685   5.063 -0.5315  1.6310 -0.2325
 3822TIP3    H211431   4.372   3.739   5.066 -0.4527  1.3802  0.8334
 3823TIP3   OH211432   5.489   1.845   5.874 -0.7660  0.1345  0.6657
 3823TIP3    H111433   5.414   1.882   5.828 -1.1121  1.5098  2.2644
 3823TIP3    H211434   5.563   1.859   5.815 -1.5682 -0.3010 -0.4755
 3824TIP3   OH211435   3.992   0.023   5.831  0.3437  0.1320  0.9113
 3824TIP3    H111436   4.013  -0.005   5.742  1.0780  0.7048  0.8953
 3824TIP3    H211437   3.896   0.020   5.835  0.2923  0.3282  0.0247
 3825TIP3   OH211438   1.536   2.420   1.518  0.2699  0.4328  0.0579
 3825TIP3    H111439   1.613   2.388   1.565  0.6546  0.9102 -0.2366
 3825TIP3    H211440   1.463   2.401   1.576  0.4373 -1.3008 -0.2544
 3826TIP3   OH211441   3.239   3.238   3.219  0.0361 -0.0946  0.0343
 3826TIP3    H111442   3.322   3.199   3.247  0.2723 -0.9496 -1.7476
 3826TIP3    H211443   3.174   3.198   3.277  0.5166 -1.7712 -0.5092
 3827TIP3   OH211444   2.745   2.331   0.203 -0.3014 -0.4479 -0.5598
 3827TIP3    H111445   2.655   2.328   0.238 -0.5379  1.5209 -0.8905
 3827TIP3    H211446   2.782   2.411   0.240  1.6678 -1.6659  0.2654
 3828TIP3   OH211447   4.169   1.227   3.923 -0.1403  0.0077 -0.6998
 3828TIP3    H111448   4.220   1.304   3.948  2.5603 -1.8163 -0.1728
 3828TIP3    H211449   4.114   1.208   3.999 -0.4728  1.0884 -0.6564
 3829TIP3   OH211450   2.733   2.783   3.625  0.1749 -0.0923  0.1748
 3829TIP3    H111451   2.700   2.733   3.550 -0.6841  0.3769  0.2149
 3829TIP3    H211452   2.668   2.853   3.636  2.1877  2.0802 -0.9438
 3830TIP3   OH211453   1.851   6.468   5.439  0.4227 -0.0916 -0.5611
 3830TIP3    H111454   1.946   6.456   5.444  0.6916  0.2379 -3.3989
 3830TIP3    H211455   1.815   6.382   5.459  1.4172 -0.6878 -1.2082
 3831TIP3   OH211456   2.249   5.944   4.163 -0.5381  0.2684  0.8953
 3831TIP3    H111457   2.223   5.980   4.248 -0.4488  0.9568  0.6376
 3831TIP3    H211458   2.291   6.017   4.118 -0.0447 -0.2598  0.4918
 3832TIP3   OH211459   5.992   5.562   4.323  0.2085 -0.0546  0.1295
 3832TIP3    H111460   5.961   5.587   4.236  0.2044  2.1339  0.7143
 3832TIP3    H211461   5.939   5.486   4.346  1.5281 -1.9236 -2.5167
 3833TIP3   OH211462   3.723   1.611   0.764 -0.2160  0.1304 -0.4110
 3833TIP3    H111463   3.728   1.532   0.817  1.5481  0.6960  0.3639
 3833TIP3    H211464   3.791   1.600   0.698 -0.2345  0.8184 -0.5531
 3834TIP3   OH211465   0.627   0.634   0.659  0.8560  0.0263  0.1435
 3834TIP3    H111466   0.646   0.656   0.750 -1.6194  1.6559  0.3473
 3834TIP3    H211467   0.641   0.716   0.611 -0.8692  0.0363 -0.4019
 3835TIP3   OH211468   1.414   1.692   1.859 -1.2122 -0.2577 -0.6789
 3835TIP3    H111469   1.384   1.783   1.866  2.3494  1.0235  0.5350
 3835TIP3    H211470   1.443   1.684   1.768  0.8758  0.8386 -0.1900
 3836TIP3   OH211471   6.009   6.453   1.163  0.0951  0.2738  0.0020
 3836TIP3    H111472   5.928   6.493   1.195 -0.1372  0.0170 -0.2522
 3836TIP3    H211473   6.066   6.526   1.142 -0.5862  0.4926 -1.1362
 3837TIP3   OH211474   4.780   1.779   2.183 -0.0215  0.0606  0.0596
 3837TIP3    H111475   4.840   1.779   2.258 -0.1961 -2.0333  0.2525
 3837TIP3    H211476   4.694   1.797   2.221  0.3090  2.2837 -0.1169
 3838TIP3   OH211477   1.217   5.386   2.921  0.4388  0.7647  0.2474
 3838TIP3    H111478   1.278   5.341   2.979  1.1716  0.5410 -0.6732
 3838TIP3    H211479   1.273   5.429   2.856 -0.3947 -0.4157 -1.3275
 3839TIP3   OH211480   2.292   0.625   0.894  0.0137 -0.5526 -0.1705
 3839TIP3    H111481   2.240   0.548   0.916 -1.8320  0.9482  1.0529
 3839TIP3    H211482   2.254   0.659   0.813  0.1229 -0.3344 -0.1330
 3840TIP3   OH211483   0.690   0.164   5.672 -0.3028  0.4268 -0.0679
 3840TIP3    H111484   0.596   0.147   5.675 -0.1150 -0.5594  0.9755
 3840TIP3    H211485   0.717   0.132   5.586 -0.8066  0.1195 -0.1180
 3841TIP3   OH211486   0.342   5.588   2.472  0.9333  0.2154 -0.5843
 3841TIP3    H111487   0.258   5.569   2.431  0.6519  0.1043  0.0359
 3841TIP3    H211488   0.322   5.604   2.564  1.4672  1.1892 -0.6176
 3842TIP3   OH211489   2.538   6.089   2.065 -0.0900 -0.0171 -0.2440
 3842TIP3    H111490   2.534   6.113   2.157  1.5599 -0.8778  0.0840
 3842TIP3    H211491   2.611   6.140   2.030 -0.0943 -0.4155 -0.8442
 3843TIP3   OH211492   5.358   0.932   4.881 -0.5533 -0.1399  1.0172
 3843TIP3    H111493   5.305   0.906   4.806 -0.4990  0.6171  0.7045
 3843TIP3    H211494   5.440   0.884   4.870 -0.9069 -0.7859  1.1308
 3844TIP3   OH211495   2.958   2.884   1.383  0.5859 -1.3300 -0.3275
 3844TIP3    H111496   2.957   2.799   1.427 -0.6024 -1.2084 -0.0782
 3844TIP3    H211497   2.879   2.928   1.414  0.5730 -0.5911 -1.3500
 3845TIP3   OH211498   6.708   3.647   0.386  0.2195 -0.5353  0.1840
 3845TIP3    H111499   6.708   3.596   0.305  2.3434 -0.1843 -0.0987
 3845TIP3    H211500   6.663   3.729   0.363 -0.9255 -1.2103 -0.0625
 3846TIP3   OH211501   6.916   0.940   2.876  0.0836 -0.2133  0.1529
 3846TIP3    H111502   6.879   0.861   2.837  1.1777 -0.7697  0.2027
 3846TIP3    H211503   6.842   1.000   2.883 -0.8416 -1.3314  0.3800
 3847TIP3   OH211504   3.819   4.176   5.352 -0.1987 -0.3231 -0.1712
 3847TIP3    H111505   3.853   4.087   5.356  1.3045  0.2023 -0.6037
 3847TIP3    H211506   3.833   4.211   5.440 -1.6446 -0.7897  0.2661
 3848TIP3   OH211507   2.542   0.037   4.183  0.0091  0.0928 -0.1722
 3848TIP3    H111508   2.524  -0.031   4.118 -0.6054  1.1025 -1.1010
 3848TIP3    H211509   2.458   0.082   4.195  0.7097  1.6479 -0.7493
 3849TIP3   OH211510   1.255   0.983   0.108  0.0909  0.0722 -0.2731
 3849TIP3    H111511   1.222   1.031   0.184  0.2004 -0.7505  0.3039
 3849TIP3    H211512   1.315   0.918   0.145  0.7665  0.1916 -1.1367
 3850TIP3   OH211513   0.585   1.684   5.323 -0.4016  0.2492  0.5536
 3850TIP3    H111514   0.596   1.609   5.265 -1.6699  1.6942 -1.7490
 3850TIP3    H211515   0.639   1.665   5.399  1.1152 -1.9189 -0.9649
 3851TIP3   OH211516   1.914   2.332   3.526  0.0780  0.5049  0.2201
 3851TIP3    H111517   1.828   2.369   3.547  0.1362  0.4704  0.5221
 3851TIP3    H211518   1.895   2.243   3.498  0.0773  0.2572  0.9879
 3852TIP3   OH211519   2.809   6.703   5.891 -0.4023 -0.1613  0.5600
 3852TIP3    H111520   2.840   6.784   5.851 -1.7938  0.5268  0.8076
 3852TIP3    H211521   2.851   6.634   5.841  1.6556  0.6909  1.0147
 3853TIP3   OH211522   4.144   3.657   1.526  0.2832 -0.2468  0.8043
 3853TIP3    H111523   4.161   3.577   1.576  2.5590  0.8326  1.9428
 3853TIP3    H211524   4.220   3.666   1.468  1.2773  2.1901  2.3189
 3854TIP3   OH211525   3.231   4.814   0.887  0.4230  0.0119  0.6055
 3854TIP3    H111526   3.324   4.810   0.910  0.3931  1.7612  1.1797
 3854TIP3    H211527   3.223   4.760   0.809  1.6386 -1.3530  1.3703
 3855TIP3   OH211528   0.240   1.418   0.229  0.3231 -0.5054 -0.1324
 3855TIP3    H111529   0.190   1.499   0.235  0.5231 -0.4654  1.2320
 3855TIP3    H211530   0.299   1.432   0.155 -0.9615 -0.1709 -1.1255
 3856TIP3   OH211531   1.325   1.077   5.512  0.2031 -0.7497 -0.1907
 3856TIP3    H111532   1.335   1.155   5.565  1.8729 -0.6058 -0.6625
 3856TIP3    H211533   1.340   1.004   5.572 -1.3304 -0.7384  0.2436
 3857TIP3   OH211534   1.032   5.236   3.498 -0.3533  0.1959  0.1378
 3857TIP3    H111535   0.959   5.294   3.477  1.3682  1.9088 -1.5739
 3857TIP3    H211536   1.032   5.172   3.426 -0.9962 -0.7000  0.9133
 3858TIP3   OH211537   1.689   3.995   5.302  0.2848 -0.2672  0.0476
 3858TIP3    H111538   1.644   4.056   5.243  1.3998  0.2390 -0.3100
 3858TIP3    H211539   1.729   4.050   5.368 -0.3283 -0.7825  0.8613
 3859TIP3   OH211540   6.557   1.656   4.397  0.0988 -0.0195 -0.0536
 3859TIP3    H111541   6.604   1.661   4.313  2.0513  1.9839  1.0410
 3859TIP3    H211542   6.482   1.714   4.386  1.2719  1.5791  0.0569
 3860TIP3   OH211543   4.928   0.008   0.677 -0.5146 -0.1839  0.6799
 3860TIP3    H111544   4.985  -0.042   0.735 -0.4995  0.0774  0.8894
 3860TIP3    H211545   4.988   0.058   0.621 -0.4996 -1.3354 -0.3694
 3861TIP3   OH211546   2.231   2.245   3.249  0.0660  0.6093 -0.3149
 3861TIP3    H111547   2.318   2.216   3.223 -0.1970  0.2454 -0.8145
 3861TIP3    H211548   2.180   2.242   3.168 -0.4342  0.7175 -0.0064
 3862TIP3   OH211549   4.537   1.894   2.280 -0.1020 -0.0181 -0.2539
 3862TIP3    H111550   4.471   1.892   2.211 -0.1271  1.3567 -0.2887
 3862TIP3    H211551   4.513   1.821   2.338 -1.4381  0.2377 -0.4541
 3863TIP3   OH211552   0.860   4.300   0.348 -0.1841 -0.7807 -0.1370
 3863TIP3    H111553   0.873   4.385   0.307  2.7054 -0.4511  1.1855
 3863TIP3    H211554   0.769   4.299   0.376 -0.1574  2.1015  0.2661
 3864TIP3   OH211555   3.685   5.060   4.084  0.2868  0.6506  0.2287
 3864TIP3    H111556   3.757   5.099   4.133  0.9238  1.1022 -1.0226
 3864TIP3    H211557   3.633   5.014   4.150  3.0677 -1.8858  0.8839
 3865TIP3   OH211558   0.049   1.915   5.599 -0.7908 -0.4355 -0.1730
 3865TIP3    H111559   0.058   1.856   5.525 -0.3524 -0.6840  0.0678
 3865TIP3    H211560   0.139   1.924   5.633 -0.9148  0.0466  0.0350
 3866TIP3   OH211561   3.033   4.088   4.248 -0.4923  0.3083 -0.1273
 3866TIP3    H111562   3.071   4.021   4.191  0.0431  0.6398 -0.1659
 3866TIP3    H211563   3.090   4.164   4.237 -0.0796  0.2163  1.2481
 3867TIP3   OH211564   3.920   6.103   0.966 -0.1415 -0.3753  0.1287
 3867TIP3    H111565   3.837   6.056   0.960 -0.4951  0.3753 -1.3397
 3867TIP3    H211566   3.977   6.045   1.017 -1.4927 -0.9931  0.9749
 3868TIP3   OH211567   2.155   6.526   2.890  0.4144  0.3832  0.4296
 3868TIP3    H111568   2.172   6.432   2.888 -1.0218  0.1054 -0.2041
 3868TIP3    H211569   2.182   6.558   2.804 -0.7582  0.1996 -0.0318
 3869TIP3   OH211570   3.492   0.090   2.100  0.0089  0.1369 -0.2885
 3869TIP3    H111571   3.530   0.017   2.053 -0.5878 -0.9851  0.9085
 3869TIP3    H211572   3.566   0.148   2.118  0.7768 -0.9088  0.0332
 3870TIP3   OH211573   0.711   4.869   0.999 -0.2304  0.1093  0.0273
 3870TIP3    H111574   0.668   4.835   0.921 -1.0434 -2.1985  1.3737
 3870TIP3    H211575   0.763   4.942   0.968 -0.3434 -0.8635 -2.7026
 3871TIP3   OH211576   1.474   1.477   1.278 -1.3015 -0.7464 -0.1428
 3871TIP3    H111577   1.480   1.572   1.269 -0.9848 -0.7227  0.2726
 3871TIP3    H211578   1.473   1.462   1.373  1.1912 -1.3071 -0.1482
 3872TIP3   OH211579   6.151   0.052   2.513 -0.1328  0.1241  0.0654
 3872TIP3    H111580   6.062   0.042   2.479  0.4341 -0.0749 -1.4367
 3872TIP3    H211581   6.194   0.112   2.451  1.0237 -0.4545  0.2838
 3873TIP3   OH211582   2.217   3.924   0.320 -0.6375  0.1908 -0.2672
 3873TIP3    H111583   2.181   3.839   0.347  0.0424 -0.2128 -0.6077
 3873TIP3    H211584   2.214   3.977   0.400  0.9007 -0.8280  0.5208
 3874TIP3   OH211585   2.085   1.648   0.916  0.5369  0.2757  0.3063
 3874TIP3    H111586   2.172   1.681   0.937 -0.3462  3.1312 -0.1601
 3874TIP3    H211587   2.066   1.681   0.828 -0.7651 -0.8971  0.0912
 3875TIP3   OH211588   4.133   6.595   5.588 -0.2557 -0.2278 -0.1537
 3875TIP3    H111589   4.184   6.674   5.566  1.3486 -1.0195  0.5144
 3875TIP3    H211590   4.150   6.535   5.516 -2.6350  0.4648 -1.4032
 3876TIP3   OH211591   5.339   0.706   4.197 -0.1971 -0.5074 -0.2811
 3876TIP3    H111592   5.260   0.700   4.144 -1.1722  3.2176  0.4929
 3876TIP3    H211593   5.411   0.705   4.134 -1.1699  0.9480 -1.4755
 3877TIP3   OH211594   5.443   5.001   0.238  0.1053 -0.3695  0.2467
 3877TIP3    H111595   5.518   4.952   0.206 -0.4946  0.0287 -1.8801
 3877TIP3    H211596   5.401   4.942   0.301  1.0359 -1.3907 -0.0577
 3878TIP3   OH211597   6.759   2.762   3.298  0.5273  0.1713 -0.0982
 3878TIP3    H111598   6.742   2.675   3.263  0.2395 -0.7122  2.0796
 3878TIP3    H211599   6.847   2.756   3.335  0.5011  0.8173  0.0848
 3879TIP3   OH211600   5.229   4.241   3.667  0.0671 -0.2313  0.1826
 3879TIP3    H111601   5.231   4.145   3.670 -1.4204 -0.2956 -0.1652
 3879TIP3    H211602   5.203   4.267   3.756 -1.1752 -0.2458 -0.1560
 3880TIP3   OH211603   0.888   0.397   5.363  0.0071 -0.0885  0.2680
 3880TIP3    H111604   0.796   0.422   5.351 -0.3406 -1.4267 -0.0659
 3880TIP3    H211605   0.895   0.313   5.318  1.1264 -0.5465  1.2755
 3881TIP3   OH211606   3.807   0.850   3.207 -0.0456 -0.2296 -0.3069
 3881TIP3    H111607   3.897   0.819   3.193  0.1415 -1.3976  2.6395
 3881TIP3    H211608   3.804   0.869   3.301 -2.1957  2.2725 -0.7676
 3882TIP3   OH211609   1.888   0.287   0.956  0.4865 -0.1443  0.6058
 3882TIP3    H111610   1.879   0.252   0.867  0.8222 -0.8806  0.8596
 3882TIP3    H211611   1.800   0.317   0.979  0.8374  2.3519 -0.9014
 3883TIP3   OH211612   6.653   3.749   4.313 -0.7615  0.5412  0.0358
 3883TIP3    H111613   6.558   3.732   4.312 -0.5159 -0.9749 -0.4931
 3883TIP3    H211614   6.686   3.700   4.238  0.5934  0.1301  0.8738
 3884TIP3   OH211615   4.246   6.765   4.431  1.1596  0.2113  0.0891
 3884TIP3    H111616   4.180   6.698   4.416  1.3885 -0.2230  0.9780
 3884TIP3    H211617   4.297   6.767   4.349  0.0661  0.5546 -0.6001
 3885TIP3   OH211618   3.922   4.146   3.753 -0.8498 -0.1681  0.2911
 3885TIP3    H111619   3.831   4.123   3.771 -0.7804  1.0760  2.5439
 3885TIP3    H211620   3.917   4.221   3.694 -1.3342  0.2458  0.8419
 3886TIP3   OH211621   0.712   6.591   3.140 -0.8157  0.2290 -0.5362
 3886TIP3    H111622   0.783   6.652   3.117  0.3499 -0.2498  1.5774
 3886TIP3    H211623   0.716   6.524   3.072  0.7205  0.2625 -0.5160
 3887TIP3   OH211624   1.543   0.077   4.300  0.3880  0.5637 -0.0238
 3887TIP3    H111625   1.453   0.047   4.310  0.2236  1.5143  1.7093
 3887TIP3    H211626   1.586   0.009   4.247 -1.1834 -0.1843 -0.3754
 3888TIP3   OH211627   0.546   1.933   0.605 -0.2808  0.1499  1.5190
 3888TIP3    H111628   0.518   1.982   0.528  0.7174  0.3474  1.2753
 3888TIP3    H211629   0.512   1.844   0.591  4.1035 -1.3316 -1.7329
 3889TIP3   OH211630   6.235   4.675   1.750 -0.4239 -0.2126  0.2116
 3889TIP3    H111631   6.267   4.625   1.675  0.7262 -0.2735  0.7331
 3889TIP3    H211632   6.200   4.755   1.711 -0.2649 -0.4444 -0.4346
 3890TIP3   OH211633   3.072   2.319   4.130 -0.1266  0.1274 -0.3282
 3890TIP3    H111634   3.024   2.383   4.078  0.5554 -0.5367 -1.8182
 3890TIP3    H211635   3.162   2.323   4.097 -0.1869 -2.0174 -0.8963
 3891TIP3   OH211636   0.179   3.128   1.730  0.3206 -0.4806  0.7208
 3891TIP3    H111637   0.235   3.203   1.711 -1.0838  0.2684 -0.6782
 3891TIP3    H211638   0.208   3.060   1.668 -1.0527  0.3213 -0.8756
 3892TIP3   OH211639   4.733   3.726   3.044  0.2866 -0.4414 -0.3666
 3892TIP3    H111640   4.673   3.800   3.053 -1.0781 -1.5462  0.0395
 3892TIP3    H211641   4.701   3.662   3.108  3.2024 -0.2698  1.4119
 3893TIP3   OH211642   0.941   6.806   1.616 -0.2560  0.0691 -0.4997
 3893TIP3    H111643   0.912   6.727   1.663  0.5411  0.4454  0.6600
 3893TIP3    H211644   1.031   6.819   1.644 -0.8316  2.2561  0.5609
 3894TIP3   OH211645   6.522   4.913   1.686  0.1538 -0.3456  0.3560
 3894TIP3    H111646   6.530   4.904   1.781 -0.1633  0.2510  0.4406
 3894TIP3    H211647   6.588   4.979   1.662 -0.0872 -0.1474  0.2262
 3895TIP3   OH211648   1.461   0.942   1.236  0.2420  0.1662  0.1818
 3895TIP3    H111649   1.525   0.957   1.305  0.8623  0.9153 -0.5341
 3895TIP3    H211650   1.420   0.858   1.258 -1.1104  1.3563  2.6373
 3896TIP3   OH211651   0.008   5.791   1.256 -0.3658 -0.6830 -0.2411
 3896TIP3    H111652   0.085   5.792   1.199 -1.8933  1.2284 -2.4359
 3896TIP3    H211653  -0.030   5.704   1.243  2.1819 -2.3308  2.1753
 3897TIP3   OH211654   2.327   2.785   2.491 -0.6156  0.1019  0.1752
 3897TIP3    H111655   2.260   2.785   2.559 -0.4722 -2.1421  0.4119
 3897TIP3    H211656   2.279   2.802   2.410 -1.0400  1.1435  0.6305
 3898TIP3   OH211657   7.141   5.935   0.016 -0.3921  0.1312  0.3008
 3898TIP3    H111658   7.133   5.841  -0.002  1.1988 -0.1231  0.7672
 3898TIP3    H211659   7.233   5.955  -0.001 -0.4858  1.3975  1.1483
 3899TIP3   OH211660   3.503   5.147   0.105  0.1436  0.4655 -0.1221
 3899TIP3    H111661   3.575   5.116   0.160  0.5757  0.7274 -0.5399
 3899TIP3    H211662   3.519   5.107   0.019  1.0863  2.3497 -0.8659
 3900TIP3   OH211663   2.986   1.568   3.679  0.6360  0.1915  0.4175
 3900TIP3    H111664   2.906   1.611   3.708  0.6344 -0.8130  2.0571
 3900TIP3    H211665   3.049   1.585   3.749  0.4575 -2.8664  1.4842
 3901TIP3   OH211666   5.425   1.452   2.884 -0.0594 -0.1549  0.3268
 3901TIP3    H111667   5.381   1.503   2.952 -1.9365  1.8609 -2.2148
 3901TIP3    H211668   5.480   1.516   2.837 -0.0150 -1.1259 -1.0027
 3902TIP3   OH211669   5.378   0.046   0.459 -0.1091 -0.2829  0.4805
 3902TIP3    H111670   5.397   0.134   0.492  0.7444 -0.0028 -0.6985
 3902TIP3    H211671   5.448  -0.009   0.495  1.1598  0.1320 -1.2507
 3903TIP3   OH211672   5.151   1.964   1.185 -0.0459 -0.0150 -0.0032
 3903TIP3    H111673   5.242   1.970   1.154 -0.0122  0.0011  0.0979
 3903TIP3    H211674   5.153   2.006   1.271  0.0807 -1.0211  0.4977
 3904TIP3   OH211675   1.092   2.729   5.439  0.3955 -0.2013  0.3065
 3904TIP3    H111676   1.097   2.809   5.492 -3.9821  0.5251  0.0014
 3904TIP3    H211677   1.042   2.668   5.493  0.3296 -1.3271 -0.9739
 3905TIP3   OH211678   6.572   3.449   1.640 -0.2633 -0.5198  0.7743
 3905TIP3    H111679   6.491   3.501   1.644 -0.7789 -1.1371 -0.8285
 3905TIP3    H211680   6.547   3.362   1.671 -0.1896 -0.6710  0.4194
 3906TIP3   OH211681   4.078   0.845   2.854 -0.1831 -0.2344  0.5464
 3906TIP3    H111682   4.083   0.892   2.771  0.5069 -0.3646  0.5083
 3906TIP3    H211683   4.148   0.779   2.848  0.0558 -0.0593  1.3381
 3907TIP3   OH211684   6.299   1.394   3.361 -0.2909  0.2029 -0.2789
 3907TIP3    H111685   6.308   1.324   3.296  0.7397  0.3461 -0.3050
 3907TIP3    H211686   6.204   1.408   3.367 -0.5511 -1.4204 -0.0244
 3908TIP3   OH211687   5.776   1.618   1.664  0.7465  0.4247 -0.0236
 3908TIP3    H111688   5.868   1.600   1.641  0.5805  0.9951 -1.2190
 3908TIP3    H211689   5.734   1.637   1.580 -0.8607 -1.4284  0.3033
 3909TIP3   OH211690   2.432   1.802   1.312  0.3580  0.0910 -0.6721
 3909TIP3    H111691   2.460   1.807   1.403  1.4734  0.2811 -1.0066
 3909TIP3    H211692   2.509   1.829   1.262 -0.3753  0.4415 -1.6531
 3910TIP3   OH211693   5.508   5.418   1.965  0.4656 -0.2581  0.0397
 3910TIP3    H111694   5.451   5.380   1.899  0.1010  0.2586  0.0611
 3910TIP3    H211695   5.499   5.359   2.041 -0.7840  0.3441  0.3833
 3911TIP3   OH211696   0.064   4.166   0.745 -0.4327  0.1419 -0.5132
 3911TIP3    H111697   0.104   4.231   0.688 -0.9522  0.9908  0.0491
 3911TIP3    H211698  -0.012   4.212   0.783 -1.5156 -1.1710 -1.0010
 3912TIP3   OH211699   3.277   3.759   0.052 -0.5739 -0.0769 -0.2994
 3912TIP3    H111700   3.188   3.787   0.031 -1.0040 -0.8784  0.3926
 3912TIP3    H211701   3.268   3.706   0.132  0.3074 -1.4085 -1.0363
 3913TIP3   OH211702   1.868   3.881   3.608 -0.4245 -0.0161 -0.4903
 3913TIP3    H111703   1.800   3.814   3.614  1.3774 -2.0448 -1.2905
 3913TIP3    H211704   1.946   3.839   3.643  0.7595  1.7460 -0.8946
 3914TIP3   OH211705   7.129   3.633   4.943  0.2331  0.1119 -0.1753
 3914TIP3    H111706   7.051   3.646   4.996  0.4672 -0.2423  0.2649
 3914TIP3    H211707   7.166   3.721   4.932  0.1500  0.1946  0.2019
 3915TIP3   OH211708   4.760   5.032   1.258  0.1093  0.7882 -0.0040
 3915TIP3    H111709   4.781   5.108   1.312 -0.4906  0.9882 -0.0446
 3915TIP3    H211710   4.801   4.958   1.304  1.5617  1.2501 -0.4948
 3916TIP3   OH211711   6.750   0.384   5.009 -0.5379 -0.1990  0.1114
 3916TIP3    H111712   6.656   0.383   5.023 -0.6030  0.3447 -0.2402
 3916TIP3    H211713   6.760   0.377   4.914 -0.2090 -0.6262  0.1712
 3917TIP3   OH211714   0.305   0.258   2.217 -0.4977  0.4807 -0.2320
 3917TIP3    H111715   0.353   0.244   2.298 -0.9944  0.0634 -0.0022
 3917TIP3    H211716   0.301   0.353   2.207 -0.5507  0.5375  0.3060
 3918TIP3   OH211717   1.745   0.761   1.327 -0.5836 -0.1080  0.0543
 3918TIP3    H111718   1.741   0.777   1.233  0.8276 -2.9296 -0.5788
 3918TIP3    H211719   1.718   0.670   1.338  0.7849 -0.3242  2.2084
 3919TIP3   OH211720   7.050   4.261   0.022  0.5717 -0.1754  0.9634
 3919TIP3    H111721   6.974   4.230   0.073 -0.3186 -0.6195 -0.5427
 3919TIP3    H211722   7.031   4.353   0.005  0.7302 -0.1011  1.1827
 3920TIP3   OH211723   1.391   6.602   4.020 -0.7311  0.4269  0.4011
 3920TIP3    H111724   1.324   6.588   3.953 -0.8366 -0.1997  0.6260
 3920TIP3    H211725   1.406   6.696   4.020 -0.9690  0.4709 -0.2726
 3921TIP3   OH211726   5.879   3.907   1.801 -0.0682 -0.2182 -0.3068
 3921TIP3    H111727   5.878   3.901   1.896  0.3626  0.1402 -0.2721
 3921TIP3    H211728   5.970   3.929   1.780 -0.0200 -0.8916 -0.8420
 3922TIP3   OH211729   0.773   6.584   4.116 -0.6071  0.1200  0.3314
 3922TIP3    H111730   0.678   6.593   4.128 -0.6611 -1.1825  1.1064
 3922TIP3    H211731   0.784   6.500   4.072  0.1618  0.6017 -0.4181
 3923TIP3   OH211732   5.953   2.320   0.521 -0.1372 -0.0897 -0.1534
 3923TIP3    H111733   6.012   2.373   0.467  1.1679 -0.6997  0.6058
 3923TIP3    H211734   6.011   2.278   0.584 -1.6155  0.7834  1.8972
 3924TIP3   OH211735   0.084   4.496   3.623  0.1207  0.1237 -0.2387
 3924TIP3    H111736   0.011   4.518   3.681  1.2701 -1.6813  2.1036
 3924TIP3    H211737   0.078   4.401   3.611  1.8963 -0.0470 -0.1445
 3925TIP3   OH211738   0.332   3.782   5.525 -0.0246 -0.0245 -0.1630
 3925TIP3    H111739   0.349   3.868   5.486  0.4293  0.5573  1.2329
 3925TIP3    H211740   0.240   3.785   5.550  0.1973  0.4396  0.6845
 3926TIP3   OH211741   3.934   0.852   4.238 -0.3484  0.2667 -0.3629
 3926TIP3    H111742   3.872   0.920   4.263 -0.5371 -0.7626  2.2977
 3926TIP3    H211743   3.946   0.801   4.317  1.6827 -1.3325 -1.6128
 3927TIP3   OH211744   0.863   2.535   1.307 -0.5648 -0.9961 -0.2732
 3927TIP3    H111745   0.808   2.609   1.335  0.7767  0.1277 -0.4724
 3927TIP3    H211746   0.853   2.533   1.211 -0.8577 -1.3038 -0.2395
 3928TIP3   OH211747   5.464   5.198   0.410  0.4296 -0.0070  0.3527
 3928TIP3    H111748   5.450   5.136   0.338  0.8085 -1.7464  1.6991
 3928TIP3    H211749   5.548   5.170   0.448  0.3906  1.0811  1.2716
 3929TIP3   OH211750   2.430   3.146   2.865  0.0546  0.4330  0.9347
 3929TIP3    H111751   2.400   3.085   2.798 -0.4435  0.7470  0.8645
 3929TIP3    H211752   2.359   3.210   2.873  0.5459  0.9770  1.0384
 3930TIP3   OH211753   2.183   2.123   5.667  0.3912  0.1749 -0.6869
 3930TIP3    H111754   2.121   2.051   5.666  0.5362 -0.1973  2.8496
 3930TIP3    H211755   2.130   2.202   5.663 -0.4015 -0.1483  1.7501
 3931TIP3   OH211756   6.549   2.435   1.832  0.2664 -0.4279  0.6175
 3931TIP3    H111757   6.573   2.345   1.853  0.5027 -0.3364  0.7411
 3931TIP3    H211758   6.475   2.427   1.771  1.0473 -0.7314 -0.3258
 3932TIP3   OH211759   7.054   1.510   2.789 -0.0673 -0.3437 -0.0604
 3932TIP3    H111760   7.045   1.465   2.704  1.3695 -0.5602 -0.1156
 3932TIP3    H211761   6.965   1.508   2.826 -0.9910  0.7863 -2.0580
 3933TIP3   OH211762   5.967   1.809   2.603 -0.1995 -0.2828 -0.0436
 3933TIP3    H111763   5.897   1.774   2.549  0.4039 -0.5575 -0.6650
 3933TIP3    H211764   6.041   1.750   2.588 -0.3885 -1.1596  2.1049
 3934TIP3   OH211765   5.027   1.435   1.961  0.4797 -0.9524  0.9985
 3934TIP3    H111766   5.094   1.441   2.029  1.4087 -0.5317  0.0832
 3934TIP3    H211767   5.048   1.356   1.912 -0.4432 -1.4927  1.4484
 3935TIP3   OH211768   3.849   5.889   2.193 -0.3609 -0.1312 -0.1009
 3935TIP3    H111769   3.856   5.984   2.187 -1.0412 -0.0537  0.1781
 3935TIP3    H211770   3.892   5.865   2.274  0.5412 -0.1561 -0.5768
 3936TIP3   OH211771   0.848   5.653   2.448 -0.2588  0.4618 -0.4581
 3936TIP3    H111772   0.774   5.597   2.425  0.0736 -0.8974  1.5160
 3936TIP3    H211773   0.812   5.742   2.446 -1.7131 -0.0919 -0.3644
 3937TIP3   OH211774   1.045   4.537   3.672 -0.2522  1.0377 -0.6318
 3937TIP3    H111775   0.999   4.621   3.669  0.3637  1.3674 -0.9369
 3937TIP3    H211776   1.119   4.553   3.731 -0.2963  0.6236 -0.4642
 3938TIP3   OH211777   0.267   2.668   2.447 -0.0763 -0.9088 -0.5700
 3938TIP3    H111778   0.271   2.752   2.401  0.3448 -0.8598 -0.4501
 3938TIP3    H211779   0.241   2.690   2.536 -1.2759 -1.0425 -0.8728
 3939TIP3   OH211780   6.120   6.719   5.366  0.2383  0.4134 -0.6567
 3939TIP3    H111781   6.191   6.713   5.302  0.8140 -0.6628  0.0461
 3939TIP3    H211782   6.052   6.770   5.322  1.3661  1.3043 -1.4113
 3940TIP3   OH211783   3.012   6.120   2.477 -0.0563  0.0673 -0.6656
 3940TIP3    H111784   2.921   6.147   2.466  0.0711  1.1370  0.5311
 3940TIP3    H211785   3.050   6.187   2.535  0.8322 -1.6667  0.8891
 3941TIP3   OH211786   5.693   2.748   4.422 -0.5333  0.1935 -0.0528
 3941TIP3    H111787   5.741   2.741   4.339 -0.7201 -3.0885 -0.0241
 3941TIP3    H211788   5.621   2.686   4.413 -0.2676 -0.6457  2.7423
 3942TIP3   OH211789   1.685   2.404   1.292  0.5548  0.1205  0.0428
 3942TIP3    H111790   1.639   2.416   1.375  2.7345 -1.8563  1.6485
 3942TIP3    H211791   1.637   2.459   1.230 -0.3422  2.8115  2.8814
 3943TIP3   OH211792   3.984   1.475   5.572  0.2566  0.0788  0.2146
 3943TIP3    H111793   3.916   1.457   5.637 -1.4836  0.9573 -1.2658
 3943TIP3    H211794   3.993   1.392   5.524  0.6556 -0.2055  0.7713
 3944TIP3   OH211795   5.690   3.474   3.507  0.3401 -0.2749  0.5676
 3944TIP3    H111796   5.757   3.494   3.571  0.6781 -0.7876  0.3767
 3944TIP3    H211797   5.677   3.380   3.514  0.0406 -0.2618  0.2159
 3945TIP3   OH211798   2.974   3.203   2.089 -0.2409 -0.0894 -0.1469
 3945TIP3    H111799   2.980   3.123   2.140  2.6359  0.2157  0.1223
 3945TIP3    H211800   3.000   3.272   2.150 -0.7667  0.8234 -0.9229
 3946TIP3   OH211801   0.083   3.099   1.998  0.5780 -0.1354 -0.3881
 3946TIP3    H111802   0.125   3.096   1.913  0.4173  0.6727 -0.5052
 3946TIP3    H211803   0.152   3.078   2.060  0.7156 -0.6434 -0.7134
 3947TIP3   OH211804   1.980   6.308   3.909 -0.1733  0.2674  0.2852
 3947TIP3    H111805   2.034   6.294   3.987 -0.2223  0.0002  0.2731
 3947TIP3    H211806   1.895   6.335   3.942 -0.0112  0.7784  0.3018
 3948TIP3   OH211807   3.443   4.375   0.130 -0.6370 -1.0208  0.0251
 3948TIP3    H111808   3.465   4.411   0.045  1.5806  0.5415  1.1588
 3948TIP3    H211809   3.460   4.281   0.122  0.5929 -0.7374 -0.9693
 3949TIP3   OH211810   5.961   5.333   3.355 -0.1630  0.0992  0.5091
 3949TIP3    H111811   6.053   5.359   3.359 -0.4841  1.4087 -0.1059
 3949TIP3    H211812   5.962   5.238   3.368  1.3061  0.0493  0.1712
 3950TIP3   OH211813   5.132   3.780   5.099 -0.4786 -0.8733  0.7004
 3950TIP3    H111814   5.221   3.813   5.105 -0.4527 -0.7335 -0.2475
 3950TIP3    H211815   5.081   3.837   5.156 -0.3508  0.5215 -0.5260
 3951TIP3   OH211816   0.058   1.164   5.786  0.4168 -0.7048  0.4222
 3951TIP3    H111817   0.115   1.226   5.740 -0.6691  0.4862  0.6268
 3951TIP3    H211818   0.002   1.128   5.717 -2.0973  2.0393  0.8317
 3952TIP3   OH211819   3.400   5.505   3.789 -0.2522 -0.0960  0.7399
 3952TIP3    H111820   3.473   5.549   3.834  0.6372 -1.4629  0.6905
 3952TIP3    H211821   3.406   5.414   3.817 -1.7233 -0.3147  0.4184
 3953TIP3   OH211822   4.088   2.455   1.980  0.4114 -0.2560 -0.6013
 3953TIP3    H111823   4.072   2.413   1.895 -1.9747 -1.1764  0.2293
 3953TIP3    H211824   4.065   2.388   2.044 -0.6504  1.3411  0.7651
 3954TIP3   OH211825   3.895   6.368   0.977 -0.1740  0.9753  0.5509
 3954TIP3    H111826   3.812   6.343   0.935  0.0823  0.6168  0.2479
 3954TIP3    H211827   3.934   6.284   1.002  2.5677  0.5871 -3.9400
 3955TIP3   OH211828   6.996   4.081   3.251  0.3856 -0.2299  0.6560
 3955TIP3    H111829   7.091   4.070   3.244  0.3069 -0.3549 -0.3389
 3955TIP3    H211830   6.966   4.002   3.295  0.6105 -0.8216 -0.2161
 3956TIP3   OH211831   4.206   3.545   1.767 -0.0456  0.0132 -0.3914
 3956TIP3    H111832   4.293   3.548   1.726 -0.3363 -0.1447 -1.0301
 3956TIP3    H211833   4.159   3.477   1.719 -0.4947  0.0313  0.0147
 3957TIP3   OH211834   0.701   4.121   4.614  0.2374  0.5473 -0.1865
 3957TIP3    H111835   0.719   4.139   4.706 -1.0836  1.9192 -0.1570
 3957TIP3    H211836   0.691   4.207   4.573 -1.5704 -0.0268 -1.0823
 3958TIP3   OH211837   5.480   6.556   4.395 -0.1657 -0.0110  0.1681
 3958TIP3    H111838   5.463   6.561   4.489 -1.0634  0.9396 -0.0279
 3958TIP3    H211839   5.408   6.505   4.360 -1.1725  1.6774 -0.3026
 3959TIP3   OH211840   6.448   6.339   3.446  0.3211 -0.6230 -0.3747
 3959TIP3    H111841   6.510   6.317   3.377  0.4257 -0.4103 -0.3493
 3959TIP3    H211842   6.363   6.341   3.402  0.2321 -1.5881 -0.2782
 3960TIP3   OH211843   5.465   2.063   4.388  0.2086  0.8410 -0.4750
 3960TIP3    H111844   5.396   1.997   4.390  0.9656  0.0162  1.6806
 3960TIP3    H211845   5.419   2.146   4.376 -0.8408  0.0505 -2.3247
 3961TIP3   OH211846   3.270   5.958   2.431 -0.5904 -0.2259 -0.3813
 3961TIP3    H111847   3.181   5.963   2.396 -0.8745  0.2383  0.3864
 3961TIP3    H211848   3.280   6.038   2.483 -0.6923 -1.5266  1.7464
 3962TIP3   OH211849   3.753   4.479   0.934 -0.0976  0.0577  0.2111
 3962TIP3    H111850   3.832   4.435   0.963 -0.8137 -0.4571  1.4698
 3962TIP3    H211851   3.758   4.566   0.974  1.4980  1.3661 -2.5745
 3963TIP3   OH211852   0.945   2.651   2.883 -0.5041 -0.4216 -0.5703
 3963TIP3    H111853   0.929   2.557   2.883 -2.6248 -0.1455 -2.5846
 3963TIP3    H211854   0.870   2.688   2.929  0.5008  0.3082  0.5352
 3964TIP3   OH211855   2.516   1.024   4.971 -0.0875  0.2390 -0.0037
 3964TIP3    H111856   2.545   0.940   4.936 -0.2665 -0.2446  0.9780
 3964TIP3    H211857   2.576   1.040   5.044  0.1201  1.1073 -0.3526
 3965TIP3   OH211858   6.745   4.406   5.271 -0.4097 -0.2081  0.0284
 3965TIP3    H111859   6.699   4.428   5.191  0.0123 -0.0886 -0.1865
 3965TIP3    H211860   6.789   4.487   5.297 -1.2061 -0.0188  0.8371
 3966TIP3   OH211861   5.438   1.940   2.304 -0.1984  0.4581 -0.3238
 3966TIP3    H111862   5.351   1.902   2.294 -0.5982  1.1622  0.3791
 3966TIP3    H211863   5.498   1.866   2.292 -0.8472  0.1337 -1.6896
 3967TIP3   OH211864   2.541   6.306   3.996  0.1276 -0.0185 -0.3238
 3967TIP3    H111865   2.614   6.248   4.017 -1.6941 -2.4948 -0.3636
 3967TIP3    H211866   2.471   6.247   3.969 -1.9131  2.2377 -0.2674
 3968TIP3   OH211867   4.722   1.967   4.766  0.4870 -0.1637  0.6091
 3968TIP3    H111868   4.673   2.041   4.801 -0.1725  0.0542 -0.7254
 3968TIP3    H211869   4.682   1.949   4.681  1.8620 -0.8414  0.0692
 3969TIP3   OH211870   4.793   4.993   0.960  1.0220 -0.3573  0.0469
 3969TIP3    H111871   4.790   4.907   1.001 -1.0749 -0.3130  0.1296
 3969TIP3    H211872   4.793   5.055   1.033  1.1378 -0.2837 -0.0148
 3970TIP3   OH211873   2.784   5.728   3.677 -0.3905 -0.0695  0.0540
 3970TIP3    H111874   2.705   5.751   3.727 -1.0954  1.7684 -1.7509
 3970TIP3    H211875   2.855   5.774   3.723 -0.0855 -2.5040  2.2604
 3971TIP3   OH211876   6.777   1.632   2.782 -0.0219  0.0159 -0.3057
 3971TIP3    H111877   6.771   1.576   2.705  0.1177  0.7292 -0.8489
 3971TIP3    H211878   6.723   1.588   2.848  2.0462 -2.0506  0.1256
 3972TIP3   OH211879   4.007   0.126   0.439 -0.4711  0.2693 -0.2939
 3972TIP3    H111880   3.979   0.061   0.374 -0.2782  0.5792 -0.6969
 3972TIP3    H211881   4.012   0.078   0.521 -1.2958 -0.0001 -0.3888
 3973TIP3   OH211882   2.236   4.650   0.375  0.6863 -0.6027 -0.2745
 3973TIP3    H111883   2.283   4.647   0.459 -0.9085 -1.7885  0.6297
 3973TIP3    H211884   2.240   4.561   0.342 -1.6490 -0.9740  0.2865
 3974TIP3   OH211885   5.535   2.164   3.320  0.1146  0.2841 -0.4913
 3974TIP3    H111886   5.489   2.087   3.287 -0.0475  0.2242 -0.1376
 3974TIP3    H211887   5.628   2.140   3.316  0.1687  0.6581 -1.8419
 3975TIP3   OH211888   4.149   0.114   4.675 -0.1554  0.1128  0.3549
 3975TIP3    H111889   4.179   0.042   4.620 -2.4706  0.8932 -2.1622
 3975TIP3    H211890   4.061   0.087   4.703 -1.6136  2.2970 -1.6673
 3976TIP3   OH211891   3.320   2.135   0.699  0.0890 -0.2770 -0.4007
 3976TIP3    H111892   3.241   2.101   0.657 -0.2242 -0.2852  0.1976
 3976TIP3    H211893   3.350   2.205   0.640 -0.2445 -0.4088 -0.7286
 3977TIP3   OH211894   3.726   4.618   5.721  0.7150  0.2034 -0.5151
 3977TIP3    H111895   3.633   4.614   5.699  0.0926  2.6694  1.2389
 3977TIP3    H211896   3.756   4.527   5.712 -2.2441 -1.0088  0.4416
 3978TIP3   OH211897   0.122   4.253   2.393 -0.2519 -0.6048 -0.2378
 3978TIP3    H111898   0.211   4.272   2.361 -0.0449  0.8139  1.0418
 3978TIP3    H211899   0.075   4.336   2.383 -0.9296 -0.8680  0.6577
 3979TIP3   OH211900   1.037   0.075   3.264  0.6840 -0.5535 -0.5421
 3979TIP3    H111901   0.950   0.062   3.303  1.8868 -0.9551  2.1996
 3979TIP3    H211902   1.078  -0.011   3.267  1.7836 -0.0403 -0.1674
 3980TIP3   OH211903   5.088   1.102   0.464  0.2122  0.4366 -0.6771
 3980TIP3    H111904   4.998   1.125   0.438  0.2619  0.1075 -1.1554
 3980TIP3    H211905   5.083   1.010   0.490  0.2188  0.6901  0.2486
 3981TIP3   OH211906   2.723   3.624   4.842 -0.4289  0.0335  0.5871
 3981TIP3    H111907   2.630   3.611   4.821 -0.1697 -0.3103 -0.4163
 3981TIP3    H211908   2.767   3.616   4.758  0.3666  1.7078  0.8077
 3982TIP3   OH211909   3.968   5.484   1.278  0.1499 -0.3449  0.1312
 3982TIP3    H111910   3.943   5.574   1.299 -1.3952 -0.8362  0.4721
 3982TIP3    H211911   4.017   5.454   1.354 -0.0268 -0.0508  0.3624
 3983TIP3   OH211912   1.183   2.125   5.045  0.6011  0.0237  0.0723
 3983TIP3    H111913   1.199   2.194   5.109  1.0083  0.1500 -0.1588
 3983TIP3    H211914   1.123   2.164   4.982  1.1936  0.3296 -0.3122
 3984TIP3   OH211915   1.781   3.270   1.575  0.1489 -0.0535  0.4036
 3984TIP3    H111916   1.871   3.253   1.547  0.1688 -0.1984  0.5483
 3984TIP3    H211917   1.763   3.201   1.639  0.1694  0.3683  0.8796
 3985TIP3   OH211918   1.031   1.353   5.410  0.1773  0.3663  0.1057
 3985TIP3    H111919   1.014   1.357   5.316  0.3262  1.6899  0.1217
 3985TIP3    H211920   0.965   1.293   5.444  1.1687 -1.4784 -1.0598
 3986TIP3   OH211921   0.376   2.655   5.556  0.0720  0.2615  0.2513
 3986TIP3    H111922   0.424   2.718   5.501  0.2403 -0.2384 -0.1820
 3986TIP3    H211923   0.286   2.688   5.557  0.1859  0.5831  0.1383
 3987TIP3   OH211924   4.977   1.433   0.409  0.2368  0.3198  0.1070
 3987TIP3    H111925   4.936   1.352   0.439 -0.1628  0.7405  0.7322
 3987TIP3    H211926   4.904   1.496   0.403  0.3903  0.3932 -1.2758
 3988TIP3   OH211927   2.114   3.929   5.858  0.0617  0.1573 -0.0175
 3988TIP3    H111928   2.156   3.860   5.909 -1.8198 -1.7628 -0.8721
 3988TIP3    H211929   2.091   3.887   5.775 -1.6691  1.6591 -0.3696
 3989TIP3   OH211930   6.798   1.962   2.357  0.6726  0.1302 -0.6975
 3989TIP3    H111931   6.820   1.993   2.269  1.6864 -0.3357 -0.6258
 3989TIP3    H211932   6.706   1.937   2.351  1.3307 -2.2429 -2.3436
 3990TIP3   OH211933   5.089   5.143   5.614 -0.2223  0.0487 -0.1120
 3990TIP3    H111934   5.010   5.094   5.632 -0.0669 -0.9342 -1.8962
 3990TIP3    H211935   5.089   5.154   5.518  3.1757 -2.5123 -0.5838
 3991TIP3   OH211936   3.745   5.831   2.953 -0.4264  0.0233 -0.7342
 3991TIP3    H111937   3.731   5.773   3.027  0.4941  1.9021  1.0388
 3991TIP3    H211938   3.747   5.774   2.876  0.5818 -2.2768  0.9048
 3992TIP3   OH211939   4.917   6.394   3.918 -0.1772 -0.5628 -0.3534
 3992TIP3    H111940   4.869   6.431   3.992  1.4545 -1.1534  1.0657
 3992TIP3    H211941   4.863   6.321   3.889 -2.4312  1.5587 -1.8957
 3993TIP3   OH211942   0.573   6.586   2.713  0.0647 -0.7980 -0.1128
 3993TIP3    H111943   0.622   6.538   2.646 -1.5156 -1.0648 -1.1507
 3993TIP3    H211944   0.494   6.617   2.667  0.0374  1.0175  1.0510
 3994TIP3   OH211945   4.598   0.418   0.182  0.0266 -0.0852  0.6052
 3994TIP3    H111946   4.557   0.363   0.249  0.2369 -1.2722 -0.2057
 3994TIP3    H211947   4.679   0.371   0.160  0.9112  1.2546  0.8481
 3995TIP3   OH211948   6.012   0.044   5.326 -0.1586 -0.3212  0.2216
 3995TIP3    H111949   6.012  -0.018   5.400 -0.5248  0.6725  1.0788
 3995TIP3    H211950   6.080   0.107   5.348 -1.2588  0.8281  0.4633
 3996TIP3   OH211951   0.987   2.275   0.915  0.4342  0.5907 -0.0204
 3996TIP3    H111952   1.033   2.326   0.982  1.1736 -0.0962  0.0057
 3996TIP3    H211953   0.895   2.281   0.939  0.6077  1.0658  0.5576
 3997TIP3   OH211954   3.123   0.999   3.751 -0.1973 -0.1298 -0.2629
 3997TIP3    H111955   3.180   0.922   3.759  1.7082  1.1483 -0.7882
 3997TIP3    H211956   3.163   1.051   3.681 -1.2136  1.5222  0.3350
 3998TIP3   OH211957   3.386   0.874   1.673 -0.6866  0.1041 -0.1097
 3998TIP3    H111958   3.377   0.934   1.747  1.0101 -1.0499  1.1032
 3998TIP3    H211959   3.407   0.789   1.713  0.2813 -0.5547 -1.9006
 3999TIP3   OH211960   2.951   6.478   4.484 -0.0852 -0.1684  0.3785
 3999TIP3    H111961   2.857   6.489   4.473 -0.0723  0.4386  0.7995
 3999TIP3    H211962   2.960   6.431   4.567 -0.0599 -1.5224 -0.3670
 4000TIP3   OH211963   1.118   1.457   2.346  0.0492 -0.5938  0.0725
 4000TIP3    H111964   1.028   1.427   2.361  0.1227 -1.0446 -0.3467
 4000TIP3    H211965   1.132   1.443   2.252  0.5940 -0.6264  0.1564
 4001TIP3   OH211966   0.468   0.662   5.237 -0.2280  0.3081 -0.0181
 4001TIP3    H111967   0.490   0.689   5.326  1.8946 -2.5784  0.4846
 4001TIP3    H211968   0.500   0.733   5.182 -0.2751  1.4959  1.4165
 4002TIP3   OH211969   4.554   4.800   3.800  0.6736 -0.0071 -0.0878
 4002TIP3    H111970   4.462   4.782   3.781  1.0513 -1.4906 -0.6634
 4002TIP3    H211971   4.553   4.886   3.843 -0.9792 -0.0625  0.0641
 4003TIP3   OH211972   4.599   3.545   1.113 -0.4357  0.0028  0.3033
 4003TIP3    H111973   4.571   3.607   1.180 -0.2618 -0.4136  0.7705
 4003TIP3    H211974   4.574   3.585   1.031 -2.7452 -0.4970  0.6997
 4004TIP3   OH211975   3.662   2.960   3.533  0.2063  0.3198 -0.3045
 4004TIP3    H111976   3.729   3.023   3.505 -0.1825  1.9898  2.1208
 4004TIP3    H211977   3.683   2.880   3.486  3.0958  1.1545 -0.6542
 4005TIP3   OH211978   7.009   5.054   1.742  0.3432 -0.1551  0.4065
 4005TIP3    H111979   6.965   5.133   1.773  1.1334 -0.1462  1.5424
 4005TIP3    H211980   6.949   5.017   1.678 -0.6957  0.5805  0.9350
 4006TIP3   OH211981   0.562   3.487   1.319  0.5209 -0.2662 -0.1291
 4006TIP3    H111982   0.590   3.452   1.404 -1.3825  0.4294  0.8302
 4006TIP3    H211983   0.644   3.494   1.269  1.2999 -3.8040  0.3976
 4007TIP3   OH211984   5.576   3.701   4.371  0.3482  0.3405  0.6935
 4007TIP3    H111985   5.643   3.637   4.395  1.6316  1.0532 -0.8736
 4007TIP3    H211986   5.601   3.781   4.417 -0.5878  0.0828  1.6982
 4008TIP3   OH211987   1.751   3.125   4.685  0.0953 -0.2568 -0.0351
 4008TIP3    H111988   1.799   3.139   4.604 -0.4336  0.6135 -0.2155
 4008TIP3    H211989   1.698   3.204   4.695  0.6091 -0.0656  1.4750
 4009TIP3   OH211990   3.789   3.575   4.819 -0.3489  0.3111  0.5823
 4009TIP3    H111991   3.784   3.491   4.772 -2.9089 -0.4898  2.0998
 4009TIP3    H211992   3.795   3.551   4.911 -0.2568  1.8085  0.9937
 4010TIP3   OH211993   2.996   6.184   3.993 -0.7704 -0.6047 -0.3166
 4010TIP3    H111994   3.030   6.125   3.926 -0.6704 -0.3176 -0.5187
 4010TIP3    H211995   3.014   6.272   3.960  2.0317 -0.3936  1.4059
 4011TIP3   OH211996   6.548   4.884   0.468 -0.2405  0.3966 -0.0826
 4011TIP3    H111997   6.554   4.850   0.557  0.4333  0.2608 -0.1737
 4011TIP3    H211998   6.462   4.855   0.436  0.1695 -0.9316 -0.0345
 4012TIP3   OH211999   6.769   3.773   2.373  0.7524 -0.2830  0.2529
 4012TIP3    H112000   6.828   3.804   2.305  2.3182 -2.1199  0.6857
 4012TIP3    H212001   6.777   3.678   2.370 -0.8619 -0.5055  1.5277
 4013TIP3   OH212002   5.946   1.358   5.003  0.4896 -0.5061  0.4126
 4013TIP3    H112003   5.993   1.284   5.042  0.4441 -0.1472  1.1602
 4013TIP3    H212004   5.891   1.392   5.074 -0.4425 -0.5335 -0.2764
 4014TIP3   OH212005   5.395   4.173   5.376  0.0544 -0.1465  0.1680
 4014TIP3    H112006   5.388   4.214   5.463  0.4300 -0.5850  0.4131
 4014TIP3    H212007   5.408   4.246   5.316 -0.6038  0.1904  0.4329
 4015TIP3   OH212008   1.880   5.304   0.464  0.2523  0.5553  0.3032
 4015TIP3    H112009   1.916   5.260   0.387  1.5155  0.0151  1.1704
 4015TIP3    H212010   1.891   5.241   0.535 -1.6663  0.7195  0.7898
 4016TIP3   OH212011   4.987   6.015   2.374 -0.3055  0.1355 -0.5576
 4016TIP3    H112012   5.034   5.932   2.364 -0.0610  0.1217  0.5589
 4016TIP3    H212013   4.952   6.012   2.463  0.1931  1.4629 -0.2922
 4017TIP3   OH212014   5.330   1.708   5.419  0.5072 -0.4502  0.0917
 4017TIP3    H112015   5.332   1.616   5.391  0.1451 -1.1163  2.0910
 4017TIP3    H212016   5.237   1.730   5.421  0.3125 -1.1676  2.8344
 4018TIP3   OH212017   2.625   5.767   0.192  0.1144  0.1273 -0.0090
 4018TIP3    H112018   2.563   5.726   0.252  0.6046  0.0669  0.4670
 4018TIP3    H212019   2.686   5.813   0.249 -0.8226  2.1390 -0.5514
 4019TIP3   OH212020   3.803   4.718   1.065 -0.1251  0.7065  0.3037
 4019TIP3    H112021   3.789   4.811   1.085 -1.4971  0.7698 -0.7875
 4019TIP3    H212022   3.800   4.675   1.151 -0.0601  1.5997  0.7710
 4020TIP3   OH212023   4.593   5.319   4.093 -0.0667 -0.6389  0.3572
 4020TIP3    H112024   4.578   5.237   4.139  2.3506 -0.7269  1.1326
 4020TIP3    H212025   4.631   5.377   4.159 -1.0794  0.9072 -0.3485
 4021TIP3   OH212026   7.238   1.942   0.590 -0.3235 -0.1497 -0.4657
 4021TIP3    H112027   7.156   1.989   0.577 -0.8212 -0.8135  0.2142
 4021TIP3    H212028   7.231   1.865   0.533 -0.3940 -0.4702 -0.0270
 4022TIP3   OH212029   1.883   4.010   4.568 -0.2868  0.6735  0.4642
 4022TIP3    H112030   1.898   3.951   4.495  2.1377 -1.6513  2.6067
 4022TIP3    H212031   1.790   4.001   4.589 -0.4945 -0.4505 -0.8291
 4023TIP3   OH212032   4.061   6.676   5.261 -0.4911 -0.5695 -0.6661
 4023TIP3    H112033   4.087   6.768   5.272 -1.6303 -0.1851 -1.0714
 4023TIP3    H212034   4.142   6.631   5.237  0.5286 -0.0713  1.5934
 4024TIP3   OH212035   5.176   4.789   3.687  0.5702 -0.2664 -0.4114
 4024TIP3    H112036   5.099   4.733   3.681  0.5341 -0.3614  0.8346
 4024TIP3    H212037   5.243   4.734   3.728  1.3167 -0.1851 -1.4740
 4025TIP3   OH212038   5.379   5.367   1.463 -0.1358  0.5045  0.5716
 4025TIP3    H112039   5.409   5.454   1.488 -2.1557  1.4590 -0.1295
 4025TIP3    H212040   5.325   5.382   1.386  2.7252 -1.8624 -2.1559
 4026TIP3   OH212041   2.047   4.585   4.238  0.1480  0.2327  0.2102
 4026TIP3    H112042   1.965   4.622   4.206  0.3397  0.2129 -0.3168
 4026TIP3    H212043   2.026   4.551   4.325 -0.6546 -0.6975 -0.3211
 4027TIP3   OH212044   5.991   6.064   1.346  0.4645 -0.0327  0.1405
 4027TIP3    H112045   6.050   5.988   1.339 -1.2057 -1.3886  0.1103
 4027TIP3    H212046   5.989   6.084   1.440 -0.3159 -1.1017  0.3792
 4028TIP3   OH212047   5.443   0.992   0.509  0.0860  0.5567 -0.2548
 4028TIP3    H112048   5.416   0.904   0.535 -1.6158  0.6309 -1.6152
 4028TIP3    H212049   5.417   1.000   0.417 -0.0964  2.5842 -0.0886
 4029TIP3   OH212050   5.695   1.517   4.820  0.0641  0.3443  0.2783
 4029TIP3    H112051   5.764   1.545   4.760 -0.3758 -0.7495 -0.8061
 4029TIP3    H212052   5.734   1.525   4.907  0.6548  2.1734 -0.1111
 4030TIP3   OH212053   0.669   2.969   3.171 -0.1267  0.3678 -0.0766
 4030TIP3    H112054   0.711   3.023   3.237 -1.6147  0.0518  1.1749
 4030TIP3    H212055   0.601   2.921   3.218  1.2929 -2.8609 -1.0402
 4031TIP3   OH212056   6.709   1.814   5.618 -0.1891  0.1958 -0.6687
 4031TIP3    H112057   6.751   1.729   5.632  0.5428  0.8988  1.7095
 4031TIP3    H212058   6.620   1.791   5.590 -0.3566 -1.4054  0.9758
 4032TIP3   OH212059   6.806   2.876   1.587  0.2494  0.4172 -0.1248
 4032TIP3    H112060   6.827   2.868   1.680  1.4160  2.3648 -0.1507
 4032TIP3    H212061   6.820   2.789   1.551  0.4882 -0.1962  1.3888
 4033TIP3   OH212062   1.874   5.295   3.672  0.1612  0.2587  0.3114
 4033TIP3    H112063   1.803   5.358   3.663  0.5060  0.6412  0.2386
 4033TIP3    H212064   1.832   5.209   3.663 -0.5943  0.3919  2.1011
 4034TIP3   OH212065   3.861   5.151   3.140  0.3029  0.1128 -0.3498
 4034TIP3    H112066   3.776   5.143   3.181  0.6290 -0.5275  0.2255
 4034TIP3    H212067   3.856   5.095   3.062  0.3651 -0.3413 -0.0302
 4035TIP3   OH212068   2.301   4.186   4.091  0.3588 -0.6961 -0.2811
 4035TIP3    H112069   2.363   4.178   4.164  2.5913 -0.5853 -2.0494
 4035TIP3    H212070   2.231   4.241   4.126  1.3386 -0.6270  1.7741
 4036TIP3   OH212071   2.400   3.898   3.020  0.0817 -1.1702 -0.1219
 4036TIP3    H112072   2.343   3.901   2.943  0.3678  4.0878 -0.4406
 4036TIP3    H212073   2.479   3.854   2.990 -0.1428 -0.0101 -2.6144
 4037TIP3   OH212074   5.258   0.886   5.264 -0.0996 -0.2319  0.1904
 4037TIP3    H112075   5.327   0.824   5.240  0.5205  0.5383 -0.0827
 4037TIP3    H212076   5.197   0.884   5.190  0.1063 -0.2529  0.0195
 4038TIP3   OH212077   3.270   3.114   2.548 -0.0916 -0.0447  0.1935
 4038TIP3    H112078   3.202   3.048   2.563  1.0490 -1.3844 -0.3289
 4038TIP3    H212079   3.268   3.168   2.627 -0.9178 -0.8178  0.7257
 4039TIP3   OH212080   0.371   2.888   3.638  0.1321 -0.0119  0.2473
 4039TIP3    H112081   0.390   2.975   3.604  0.6731 -0.1963  0.0647
 4039TIP3    H212082   0.387   2.895   3.733 -0.8769  0.3665  0.3975
 4040TIP3   OH212083   3.070   0.246   4.513  0.2724 -0.3305 -0.7334
 4040TIP3    H112084   3.021   0.182   4.462  1.0781 -1.1058 -0.5597
 4040TIP3    H212085   3.153   0.203   4.532 -0.0903 -0.1677  1.4534
 4041TIP3   OH212086   4.780   3.303   3.989 -0.0800 -0.0085 -0.1144
 4041TIP3    H112087   4.827   3.236   4.039 -2.7657 -1.0614  1.1763
 4041TIP3    H212088   4.738   3.255   3.917 -0.8806  0.5170 -0.0110
 4042TIP3   OH212089   1.145   3.312   0.310 -0.2821  0.4294  0.1307
 4042TIP3    H112090   1.083   3.286   0.242  0.4130  1.4673 -0.9380
 4042TIP3    H212091   1.198   3.380   0.269  2.0198 -0.8740  0.7631
 4043TIP3   OH212092   0.705   3.841   2.275 -0.0510  0.6866 -0.1338
 4043TIP3    H112093   0.771   3.777   2.303  1.1266  1.2768 -1.4209
 4043TIP3    H212094   0.623   3.792   2.276  0.7229 -0.6932 -0.4940
 4044TIP3   OH212095   4.008   5.146   2.696 -0.0437  0.0603  0.0900
 4044TIP3    H112096   3.937   5.112   2.750 -0.1002 -0.0096 -0.0289
 4044TIP3    H212097   3.983   5.238   2.680 -1.2209 -0.5338 -1.7708
 4045TIP3   OH212098   2.877   3.081   4.749 -0.3211  0.5701 -0.1911
 4045TIP3    H112099   2.854   3.005   4.694  1.0777 -0.5176  0.6482
 4045TIP3    H212100   2.949   3.123   4.701 -0.7120  1.0377 -0.3700
 4046TIP3   OH212101   6.752   3.530   4.882  0.4430 -0.6348  0.0235
 4046TIP3    H112102   6.685   3.464   4.900 -0.7509  0.4232 -0.3628
 4046TIP3    H212103   6.792   3.547   4.967 -0.1922 -0.8799  0.3823
 4047TIP3   OH212104   1.952   2.034   1.721  0.2473 -0.6363 -0.1490
 4047TIP3    H112105   2.025   1.972   1.718 -0.0808 -1.0257 -0.4808
 4047TIP3    H212106   1.954   2.076   1.635 -0.2986 -1.1180 -0.4092
 4048TIP3   OH212107   0.247   5.525   0.215 -0.1655 -0.0963 -0.1274
 4048TIP3    H112108   0.183   5.594   0.193  0.0615  0.5180  1.0680
 4048TIP3    H212109   0.232   5.458   0.148 -0.8281  0.8245 -0.9517
 4049TIP3   OH212110   6.779   6.356   5.870  0.5948  0.0843  0.0140
 4049TIP3    H112111   6.741   6.348   5.782  2.0532  0.7367 -0.7097
 4049TIP3    H212112   6.798   6.266   5.896 -1.1433 -0.2431  0.2955
 4050TIP3   OH212113   5.449   1.188   2.962 -0.2904 -0.0321  0.1341
 4050TIP3    H112114   5.472   1.167   2.872  1.3278 -0.4020  0.6009
 4050TIP3    H212115   5.430   1.282   2.961 -0.8284 -0.1366 -0.6701
 4051TIP3   OH212116   1.050   5.758   2.250 -0.5192 -0.5352  0.2671
 4051TIP3    H112117   1.103   5.770   2.329  1.2129 -0.3537 -0.8557
 4051TIP3    H212118   0.960   5.771   2.279  0.1854  1.1964  1.9027
 4052TIP3   OH212119   0.333   1.060   2.300  0.5925  0.0643 -0.2715
 4052TIP3    H112120   0.273   0.999   2.343 -0.1630  1.6399  1.0191
 4052TIP3    H212121   0.420   1.022   2.315  0.1405 -0.7698  0.3643
 4053TIP3   OH212122   3.107   0.752   4.094  0.5638  0.0940 -0.7864
 4053TIP3    H112123   3.109   0.675   4.037  0.6217  0.3830 -1.1762
 4053TIP3    H212124   3.014   0.773   4.101  0.4733 -0.5351  0.0352
 4054TIP3   OH212125   4.573   5.245   5.051 -0.2793 -0.0207  0.6619
 4054TIP3    H112126   4.482   5.255   5.024 -0.3019 -0.6443  0.4949
 4054TIP3    H212127   4.574   5.166   5.105  0.0161  0.4514  1.3606
 4055TIP3   OH212128   2.161   2.640   3.221  0.5810 -0.2890  0.1112
 4055TIP3    H112129   2.209   2.607   3.297  0.1694 -0.6368  0.2267
 4055TIP3    H212130   2.167   2.735   3.228  0.6513 -0.3202  0.5150
 4056TIP3   OH212131   1.167   1.630   5.146 -0.0626  0.1830 -0.8262
 4056TIP3    H112132   1.184   1.638   5.240 -0.9105  0.0144 -0.6565
 4056TIP3    H212133   1.253   1.645   5.106  0.5917 -1.0168  0.0275
 4057TIP3   OH212134   7.172   4.034   3.506 -0.1734  0.0632  0.1957
 4057TIP3    H112135   7.234   4.080   3.449  0.5570  1.7848  2.2532
 4057TIP3    H212136   7.224   3.965   3.547  0.1077  0.7579  1.0317
 4058TIP3   OH212137   3.663   6.316   0.524 -0.3519  0.1076 -0.3857
 4058TIP3    H112138   3.704   6.349   0.444  0.8576 -0.7999 -0.1713
 4058TIP3    H212139   3.715   6.353   0.594 -1.0943  0.4804 -0.0193
 4059TIP3   OH212140   2.876   4.138   3.280 -0.0438 -0.5798 -0.3299
 4059TIP3    H112141   2.957   4.104   3.244  0.3491  2.2237 -2.4401
 4059TIP3    H212142   2.899   4.226   3.310 -1.8384 -0.5607  1.1804
 4060TIP3   OH212143   2.061   0.585   4.217 -0.1114  0.3861  0.3836
 4060TIP3    H112144   1.993   0.602   4.282 -0.0289  1.9887  0.0767
 4060TIP3    H212145   2.133   0.642   4.242  0.3679  0.1588 -0.4342
 4061TIP3   OH212146   1.579   1.957   1.727  0.0516  0.3107  0.1169
 4061TIP3    H112147   1.533   2.022   1.674 -0.8369 -0.1410  0.3121
 4061TIP3    H212148   1.538   1.874   1.705  1.2705 -0.2228 -0.2281
 4062TIP3   OH212149   6.421   1.328   5.046  0.2332 -0.7938  0.2316
 4062TIP3    H112150   6.365   1.405   5.051  0.7885 -0.4531  2.8202
 4062TIP3    H212151   6.431   1.310   4.953 -1.7882  0.8631 -0.3491
 4063TIP3   OH212152   6.039   3.764   5.655  0.1471  0.8650 -0.4776
 4063TIP3    H112153   6.125   3.736   5.687 -1.1889 -0.8558  1.9060
 4063TIP3    H212154   6.038   3.736   5.563  1.7453  0.0455 -0.2869
 4064TIP3   OH212155   5.531   2.854   3.160  0.1219 -0.6500  0.0041
 4064TIP3    H112156   5.462   2.914   3.131  0.2057 -0.1651  0.7768
 4064TIP3    H212157   5.511   2.772   3.116 -1.4507 -0.7675  0.8585
 4065TIP3   OH212158   5.576   6.784   3.068 -0.5271 -0.1607  0.0756
 4065TIP3    H112159   5.588   6.828   2.983  0.0161  2.3420  1.3362
 4065TIP3    H212160   5.612   6.697   3.055  1.9934  0.9792 -1.5934
 4066TIP3   OH212161   2.502   5.482   3.291 -0.1509 -0.1120  0.0599
 4066TIP3    H112162   2.564   5.438   3.233  1.1717  0.3062  1.1040
 4066TIP3    H212163   2.454   5.541   3.234 -0.0177 -0.8780 -0.8796
 4067TIP3   OH212164   1.910   4.621   0.023  0.6352 -0.0362  0.5039
 4067TIP3    H112165   1.979   4.685   0.043 -0.8629  1.4936  0.9858
 4067TIP3    H212166   1.830   4.660   0.057 -0.6255 -1.4140 -0.7157
 4068TIP3   OH212167   4.034   1.146   4.154 -0.1787 -0.4501 -0.1330
 4068TIP3    H112168   4.083   1.108   4.227  0.4417 -0.4659 -0.5501
 4068TIP3    H212169   3.944   1.119   4.170  0.0972 -1.2639  0.1203
 4069TIP3   OH212170   3.606   0.991   1.306 -0.0867  0.2076 -0.1058
 4069TIP3    H112171   3.531   0.932   1.301 -0.3806  0.6385 -1.0088
 4069TIP3    H212172   3.650   0.982   1.221 -0.0600  1.1779 -0.2125
 4070TIP3   OH212173   6.365   2.589   0.154  0.5339 -0.1559  0.7025
 4070TIP3    H112174   6.386   2.682   0.162  0.2986 -0.2220  2.2298
 4070TIP3    H212175   6.451   2.546   0.154  0.7380  0.1039 -1.4592
 4071TIP3   OH212176   5.755   2.062   4.822 -0.3144 -0.1507  0.0415
 4071TIP3    H112177   5.780   2.142   4.869 -2.2302 -0.3799  1.5419
 4071TIP3    H212178   5.825   2.051   4.757  0.8138  1.8798  0.7939
 4072TIP3   OH212179   0.391   1.544   3.372 -0.3457  0.3191  0.0211
 4072TIP3    H112180   0.344   1.566   3.452 -0.0140 -0.4620  0.4439
 4072TIP3    H212181   0.323   1.509   3.314 -0.6705  1.3496 -0.2304
 4073TIP3   OH212182   2.763   2.601   0.313 -0.1632 -0.2417  0.0750
 4073TIP3    H112183   2.681   2.598   0.265 -0.3399  0.4702  0.3202
 4073TIP3    H212184   2.777   2.694   0.331  0.3560 -0.4174  0.6093
 4074TIP3   OH212185   3.321  -0.009   4.691 -0.3343 -0.6957 -0.2942
 4074TIP3    H112186   3.312   0.057   4.623 -0.5418 -2.5956 -2.2430
 4074TIP3    H212187   3.416  -0.020   4.702 -0.2452  1.1735  1.4483
 4075TIP3   OH212188   5.419   3.755   4.641 -0.7934  0.1578  0.5628
 4075TIP3    H112189   5.340   3.784   4.688 -0.6953  0.1657  0.7232
 4075TIP3    H212190   5.411   3.796   4.555  0.0411  1.8400  1.2416
 4076TIP3   OH212191   4.409   6.657   4.622 -0.7432  0.1453  0.1083
 4076TIP3    H112192   4.485   6.694   4.666  0.7790 -0.2163 -2.0885
 4076TIP3    H212193   4.375   6.728   4.567  1.2726 -1.0480 -2.9445
 4077TIP3   OH212194   7.012   6.696   2.627  0.7410 -0.7173 -0.6481
 4077TIP3    H112195   7.070   6.746   2.684  0.2671  0.2585 -0.9943
 4077TIP3    H212196   6.992   6.616   2.677 -1.0739  0.8774  1.3732
 4078TIP3   OH212197   0.273   4.870   2.563 -0.2957 -0.2773  0.8508
 4078TIP3    H112198   0.285   4.788   2.611 -0.2603 -0.5262  0.4225
 4078TIP3    H212199   0.263   4.936   2.631 -0.8662 -0.7128  1.2061
 4079TIP3   OH212200   2.863   4.600   0.443  0.2017  0.5808 -0.1233
 4079TIP3    H112201   2.950   4.566   0.464 -0.6086 -2.1236 -0.7327
 4079TIP3    H212202   2.803   4.529   0.465 -1.8845  2.2856  0.1035
 4080TIP3   OH212203   0.692   3.654   1.733  0.0343  0.4260 -0.0565
 4080TIP3    H112204   0.713   3.598   1.658 -0.6274 -1.4986  1.1200
 4080TIP3    H212205   0.739   3.736   1.716 -0.5613  0.2862 -2.8220
 4081TIP3   OH212206   4.423   3.009   5.170  0.2184 -0.1220 -0.1867
 4081TIP3    H112207   4.433   2.948   5.097  0.2135  0.0275 -0.3137
 4081TIP3    H212208   4.487   3.077   5.153 -0.7208  0.6391 -0.7982
 4082TIP3   OH212209   4.298   4.758   4.885 -0.1661 -0.0458  0.5456
 4082TIP3    H112210   4.217   4.796   4.917  0.0869  1.6757 -0.6658
 4082TIP3    H212211   4.363   4.829   4.894  1.3059 -1.4571  1.7608
 4083TIP3   OH212212   3.428   5.088   3.926  0.0588 -0.0364  0.1423
 4083TIP3    H112213   3.513   5.075   3.969  0.4260 -2.4965 -1.1405
 4083TIP3    H212214   3.446   5.149   3.854  0.5532  0.0433  0.3308
 4084TIP3   OH212215   6.391   6.557   3.799  0.2254 -0.1406  0.6404
 4084TIP3    H112216   6.454   6.558   3.727 -0.2381  1.0331  0.2220
 4084TIP3    H212217   6.411   6.478   3.848  0.4008 -1.1056 -0.9206
 4085TIP3   OH212218   7.127   6.401   3.115 -0.2131 -0.4539  0.3429
 4085TIP3    H112219   7.147   6.473   3.175  3.9569 -0.4331 -0.7656
 4085TIP3    H212220   7.119   6.324   3.171 -1.1038  0.2831  1.2528
 4086TIP3   OH212221   5.893   5.945   4.127 -0.5383  0.4117 -0.1252
 4086TIP3    H112222   5.909   5.851   4.129 -1.6418  0.2198  0.1643
 4086TIP3    H212223   5.830   5.957   4.056  1.6137  1.2946 -2.0228
 4087TIP3   OH212224   0.171   5.946   4.259  0.0894 -0.2188  0.7632
 4087TIP3    H112225   0.089   5.909   4.292 -0.5389  1.3532  1.0779
 4087TIP3    H212226   0.157   5.958   4.165  0.5311 -1.3167  0.5404
 4088TIP3   OH212227   2.657   5.996   5.785  0.0571 -0.5982 -0.3092
 4088TIP3    H112228   2.744   5.975   5.818 -0.5281 -0.7437  1.2231
 4088TIP3    H212229   2.670   6.074   5.730  1.1391 -0.6198 -0.1047
 4089TIP3   OH212230   2.955   0.971   4.456  0.0896  0.3113  0.5181
 4089TIP3    H112231   3.042   1.009   4.443  0.3842 -0.4526  0.1803
 4089TIP3    H212232   2.971   0.878   4.465 -0.8690 -0.2061 -2.1042
 4090TIP3   OH212233   3.094   6.589   0.870 -0.2883 -0.2347 -0.2596
 4090TIP3    H112234   3.068   6.535   0.796  0.0464  0.5179 -0.9453
 4090TIP3    H212235   3.098   6.678   0.834  1.1558 -0.0353  0.3372
 4091TIP3   OH212236   0.026   5.070   5.412 -0.3208 -0.2839 -0.1644
 4091TIP3    H112237   0.059   5.002   5.470 -1.3556 -1.2287 -0.6598
 4091TIP3    H212238   0.008   5.144   5.470 -1.6768 -1.3277  0.7993
 4092TIP3   OH212239   4.216   1.751   1.581  0.0033  0.8666  0.1445
 4092TIP3    H112240   4.149   1.727   1.645 -0.9098  1.2763 -0.6355
 4092TIP3    H212241   4.282   1.681   1.588 -1.9662 -1.2785 -1.1830
 4093TIP3   OH212242   5.282   5.401   4.206  0.2624 -0.6640 -0.2294
 4093TIP3    H112243   5.241   5.315   4.189 -0.3228 -0.4779  0.1809
 4093TIP3    H212244   5.216   5.464   4.177  0.5677 -0.3559 -0.2442
 4094TIP3   OH212245   6.609   1.908   1.910  0.6387 -0.7445 -0.1942
 4094TIP3    H112246   6.643   1.834   1.961 -0.8374 -0.4471  1.3208
 4094TIP3    H212247   6.559   1.868   1.840 -0.0849 -1.2242  0.5708
 4095TIP3   OH212248   5.373   0.386   4.224 -0.5446 -0.7310  0.4064
 4095TIP3    H112249   5.291   0.340   4.207 -0.2396 -0.7524 -1.1309
 4095TIP3    H212250   5.353   0.478   4.207 -0.1431 -0.7940 -0.4681
 4096TIP3   OH212251   0.354   1.103   4.157 -0.3482 -0.5362 -0.4077
 4096TIP3    H112252   0.375   1.054   4.077  0.1763  1.5139 -1.5846
 4096TIP3    H212253   0.319   1.187   4.126 -1.6036 -0.2643  1.5408
 4097TIP3   OH212254   1.067   2.973   4.110 -0.5141 -0.0720  0.0522
 4097TIP3    H112255   1.020   2.954   4.191 -0.7528  2.8960  0.7562
 4097TIP3    H212256   1.154   3.001   4.138 -0.9429  2.0702 -0.5079
 4098TIP3   OH212257   7.018   4.049   2.949 -0.3711 -0.4035  0.5023
 4098TIP3    H112258   7.114   4.052   2.946 -0.3610 -0.8422  0.3111
 4098TIP3    H212259   6.996   4.068   3.040 -0.1529  0.8061  0.3112
 4099TIP3   OH212260   0.078   0.742   0.622 -0.1738 -0.1429 -0.0224
 4099TIP3    H112261   0.164   0.701   0.632 -0.0504  0.0727 -0.1919
 4099TIP3    H212262   0.089   0.804   0.550 -0.1301  0.8064  0.7748
 4100TIP3   OH212263   4.859   4.658   0.080  0.0918  0.3601  0.1773
 4100TIP3    H112264   4.818   4.678   0.163  0.0148  1.5964 -0.1434
 4100TIP3    H212265   4.887   4.567   0.088 -2.4325 -0.4543  0.5127
 4101TIP3   OH212266   0.834   0.789   1.720 -0.0456 -0.4990  0.0303
 4101TIP3    H112267   0.744   0.764   1.743 -0.5488  0.4208 -0.8643
 4101TIP3    H212268   0.864   0.840   1.795 -0.7101  0.2094 -0.1759
 4102TIP3   OH212269   2.252   1.729   5.638 -0.1571  0.0103 -0.6982
 4102TIP3    H112270   2.247   1.791   5.711 -0.3423 -1.0288  0.1912
 4102TIP3    H212271   2.256   1.784   5.560  0.3845  1.1544  0.1087
 4103TIP3   OH212272   4.532   6.631   3.030 -1.1717  0.1380  0.1732
 4103TIP3    H112273   4.469   6.692   3.067 -0.1862  0.5097  1.2958
 4103TIP3    H212274   4.583   6.683   2.968 -1.5028  0.0078 -0.2119
 4104TIP3   OH212275   0.719   0.821   1.245 -0.0086  0.2675  0.2315
 4104TIP3    H112276   0.756   0.905   1.271 -0.9970  0.7901 -0.0012
 4104TIP3    H212277   0.636   0.843   1.203  0.3995 -0.7094 -1.1738
 4105TIP3   OH212278   5.771   3.302   4.634 -1.0510 -0.0064 -0.3114
 4105TIP3    H112279   5.811   3.322   4.719 -1.4691 -1.3316  0.2189
 4105TIP3    H212280   5.768   3.387   4.589  0.0129  0.5533  0.6274
 4106TIP3   OH212281   1.920   4.174   1.215 -0.5550  0.4477 -0.3968
 4106TIP3    H112282   1.905   4.252   1.268  1.5996  2.4771 -2.5122
 4106TIP3    H212283   2.015   4.172   1.202 -0.6448 -2.0125 -1.1965
 4107TIP3   OH212284   1.320   1.561   3.643  0.9386  0.4436 -0.3960
 4107TIP3    H112285   1.367   1.563   3.727  1.0060  1.4663 -0.4435
 4107TIP3    H212286   1.377   1.609   3.583  0.5485  0.3551 -0.8428
 4108TIP3   OH212287   4.830   6.247   2.652  0.2819  0.1990 -0.1373
 4108TIP3    H112288   4.885   6.295   2.715  1.0965 -0.6151 -0.2052
 4108TIP3    H212289   4.842   6.155   2.675 -0.6218 -0.0265 -0.5255
 4109TIP3   OH212290   3.795   6.681   4.362  0.0815  0.5282 -0.1438
 4109TIP3    H112291   3.720   6.737   4.345  1.9015  3.2568  0.2075
 4109TIP3    H212292   3.846   6.684   4.281  0.9090  0.5583  0.3620
 4110TIP3   OH212293   0.326   2.680   1.226 -0.8908 -0.7324 -0.1449
 4110TIP3    H112294   0.345   2.774   1.222 -2.3924 -0.3669  0.6879
 4110TIP3    H212295   0.260   2.667   1.158  0.5551 -1.5592 -1.4707
 4111TIP3   OH212296   0.583   1.196   3.705 -0.5082  0.6595  0.4407
 4111TIP3    H112297   0.651   1.194   3.638 -0.4070 -0.2424  0.5520
 4111TIP3    H212298   0.628   1.169   3.785 -1.2242 -1.1711  0.2737
 4112TIP3   OH212299   6.943   2.280   0.994  0.6656 -0.4367  0.2913
 4112TIP3    H112300   6.948   2.209   0.929 -1.1005 -1.0706  0.7966
 4112TIP3    H212301   6.962   2.359   0.944 -0.3669 -0.9419 -0.9510
 4113TIP3   OH212302   4.818   5.108   0.728 -0.0567  0.4332  0.2480
 4113TIP3    H112303   4.730   5.146   0.724 -0.1367  0.2093 -0.2735
 4113TIP3    H212304   4.828   5.081   0.819 -0.0384  1.5841  0.6015
 4114TIP3   OH212305   1.153   1.405   0.380  0.1675  0.3573 -0.1137
 4114TIP3    H112306   1.067   1.404   0.422  0.2337  1.0398  0.0552
 4114TIP3    H212307   1.175   1.498   0.372  0.2210  0.2413 -1.5431
 4115TIP3   OH212308   1.251   4.863   1.040  0.3761 -0.5994  0.2651
 4115TIP3    H112309   1.260   4.881   1.133  0.7089  2.1552 -0.2106
 4115TIP3    H212310   1.335   4.824   1.014 -0.5722 -3.7492  1.4747
 4116TIP3   OH212311   3.909   5.803   4.943  0.5972 -0.2183 -0.4500
 4116TIP3    H112312   3.913   5.884   4.892 -1.8638 -0.4813 -1.1730
 4116TIP3    H212313   3.956   5.823   5.024  0.0280  1.9470 -0.6059
 4117TIP3   OH212314   3.354   4.470   2.576 -0.3519 -0.1078 -0.3520
 4117TIP3    H112315   3.427   4.495   2.519 -1.8287 -0.3511 -2.4285
 4117TIP3    H212316   3.327   4.552   2.618  0.4213  0.1586 -0.3451
 4118TIP3   OH212317   5.654   2.623   5.542 -0.5936 -0.3479  0.0412
 4118TIP3    H112318   5.714   2.595   5.472 -0.9659  1.3264 -1.0142
 4118TIP3    H212319   5.694   2.703   5.576 -0.8943 -0.6604  1.1649
 4119TIP3   OH212320   6.837   3.890   3.414 -0.1686  0.4849  0.1249
 4119TIP3    H112321   6.796   3.916   3.496  0.7248  0.2231  0.6725
 4119TIP3    H212322   6.882   3.808   3.435 -1.0995 -0.3437 -0.9979
 4120TIP3   OH212323   2.928   2.676   1.535 -0.0277  0.0918 -0.3024
 4120TIP3    H112324   2.890   2.591   1.514  0.5966  0.0958 -1.5001
 4120TIP3    H212325   2.930   2.678   1.631  1.1403 -1.7912 -0.2398
 4121TIP3   OH212326   6.551   5.053   0.738  0.2465  0.3198 -1.0625
 4121TIP3    H112327   6.492   5.128   0.742  1.7669  1.5515 -0.4860
 4121TIP3    H212328   6.503   4.982   0.781 -1.0209  1.0857 -1.1539
 4122TIP3   OH212329   5.857   4.218   1.318 -0.3178  0.4073  0.5164
 4122TIP3    H112330   5.856   4.251   1.228 -2.7849  1.6115  0.9036
 4122TIP3    H212331   5.901   4.286   1.368  2.8827 -1.1431  0.0346
 4123TIP3   OH212332   3.239   5.288   0.964 -0.6983 -0.3848  0.0873
 4123TIP3    H112333   3.174   5.310   1.031 -0.7550 -0.4846  0.0646
 4123TIP3    H212334   3.313   5.253   1.013 -1.2447 -1.7010  0.0116
 4124TIP3   OH212335   2.631   2.726   4.103 -0.0465 -0.2567  0.2562
 4124TIP3    H112336   2.634   2.694   4.193  1.8690  0.5387  0.5101
 4124TIP3    H212337   2.623   2.821   4.110  0.0501 -0.1879 -0.4298
 4125TIP3   OH212338   6.015   0.505   5.803  0.7732 -0.3967 -0.5649
 4125TIP3    H112339   6.000   0.573   5.869 -2.4670 -0.9021 -0.6332
 4125TIP3    H212340   6.014   0.423   5.853 -1.2362 -0.7499 -1.1241
 4126TIP3   OH212341   3.567   4.819   0.396  0.1180 -0.5355  0.0092
 4126TIP3    H112342   3.572   4.754   0.466 -0.7462 -0.8855 -0.2388
 4126TIP3    H212343   3.540   4.769   0.319 -0.2767  0.0634 -0.2524
 4127TIP3   OH212344   1.134   2.372   2.702  0.1422  0.0763  0.2077
 4127TIP3    H112345   1.076   2.398   2.631  0.9539 -1.9864 -1.3226
 4127TIP3    H212346   1.210   2.430   2.694 -0.6771  1.2755  0.7992
 4128TIP3   OH212347   0.806   6.069   3.335 -0.0307 -0.0417 -0.0438
 4128TIP3    H112348   0.881   6.014   3.310 -0.2705 -0.4917  0.2117
 4128TIP3    H212349   0.755   6.013   3.394 -1.2050 -0.1777 -1.1539
 4129TIP3   OH212350   2.420   0.998   5.712  0.0883 -0.0025  0.1418
 4129TIP3    H112351   2.358   1.065   5.685 -1.0055 -1.4706 -1.1721
 4129TIP3    H212352   2.499   1.016   5.659  0.4493  1.2314  1.0506
 4130TIP3   OH212353   1.494   0.152   0.546 -0.0048  0.1239  0.3027
 4130TIP3    H112354   1.416   0.114   0.586 -1.5470  0.5332 -2.1460
 4130TIP3    H212355   1.474   0.245   0.539  0.0115  0.0023 -1.7495
 4131TIP3   OH212356   2.424   4.074   0.570 -0.4093 -0.2191  0.0832
 4131TIP3    H112357   2.406   4.026   0.652 -0.4104  1.1000  0.8825
 4131TIP3    H212358   2.337   4.093   0.535 -0.4391  0.3344  0.4521
 4132TIP3   OH212359   0.799   6.095   1.888 -0.1351 -0.1367  0.1337
 4132TIP3    H112360   0.792   6.002   1.906 -1.5512 -0.3775 -1.3648
 4132TIP3    H212361   0.853   6.130   1.959 -1.0565 -1.7903  1.7365
 4133TIP3   OH212362   2.219   5.214   2.379  0.8222  0.0758 -0.1625
 4133TIP3    H112363   2.303   5.227   2.423  0.8735  1.0684 -0.5295
 4133TIP3    H212364   2.209   5.292   2.324  0.5807 -0.9495 -1.6228
 4134TIP3   OH212365   2.805   0.488   1.686  0.0165  0.8245  0.2640
 4134TIP3    H112366   2.895   0.457   1.698 -1.0389 -2.6105  0.5952
 4134TIP3    H212367   2.782   0.458   1.598 -1.5810 -0.8906  1.1796
 4135TIP3   OH212368   3.687   1.213   3.332 -0.1297  0.0519  0.4961
 4135TIP3    H112369   3.598   1.210   3.298 -0.1696  1.2313  0.4376
 4135TIP3    H212370   3.716   1.122   3.334 -0.5548 -0.1833 -1.5754
 4136TIP3   OH212371   1.208   2.363   4.377  0.4761 -0.3247 -0.1175
 4136TIP3    H112372   1.294   2.397   4.404  1.2581 -1.2684 -1.3108
 4136TIP3    H212373   1.183   2.418   4.303  1.3754 -1.7466 -1.5430
 4137TIP3   OH212374   6.386   5.122   0.042  0.1974  0.0694 -0.3461
 4137TIP3    H112375   6.341   5.061   0.099 -0.7332 -0.3299 -1.4787
 4137TIP3    H212376   6.326   5.136  -0.031  0.8426  1.5033 -0.6398
 4138TIP3   OH212377   6.488   3.935   1.398 -0.3195 -0.9474  0.0821
 4138TIP3    H112378   6.435   3.907   1.324  1.2649 -2.0014 -0.7026
 4138TIP3    H212379   6.578   3.914   1.373  0.4730  0.5210  1.4736
 4139TIP3   OH212380   1.980   1.066   4.723  0.0367  0.0530  0.2565
 4139TIP3    H112381   2.010   1.157   4.723  1.0329 -0.2570  0.4483
 4139TIP3    H212382   2.033   1.024   4.655 -1.8523  0.0476 -1.2922
 4140TIP3   OH212383   3.275   4.688   1.118  0.0759  0.3355 -0.4083
 4140TIP3    H112384   3.208   4.641   1.167  1.1414 -0.1241  0.6501
 4140TIP3    H212385   3.225   4.746   1.060 -1.2558 -1.4454 -1.1507
 4141TIP3   OH212386   2.589   0.703   2.350 -0.2771 -0.4034 -0.2502
 4141TIP3    H112387   2.500   0.675   2.328 -0.3387 -0.0070 -0.5139
 4141TIP3    H212388   2.642   0.676   2.276 -0.1492 -0.7864 -0.0182
 4142TIP3   OH212389   2.072   2.229   2.443 -0.4467  0.1281 -0.1292
 4142TIP3    H112390   2.033   2.153   2.399  0.0695  0.9178 -2.0872
 4142TIP3    H212391   2.130   2.266   2.377  0.3827  1.4178  1.2819
 4143TIP3   OH212392   0.388   0.331   4.964 -0.6417  0.2523  0.3686
 4143TIP3    H112393   0.317   0.276   4.995  0.1746 -0.5196  0.8922
 4143TIP3    H212394   0.388   0.319   4.869 -0.3225 -0.8395  0.4986
 4144TIP3   OH212395   0.428   2.850   4.794  0.2295  0.1008  0.3958
 4144TIP3    H112396   0.491   2.779   4.809  0.5778  0.2895 -0.1264
 4144TIP3    H212397   0.415   2.889   4.881  0.4530 -0.2566  0.5938
 4145TIP3   OH212398   4.397   3.123   1.528 -0.2160  0.1850 -0.1252
 4145TIP3    H112399   4.398   3.038   1.485 -0.4036 -0.2629  0.7177
 4145TIP3    H212400   4.412   3.187   1.458  1.0864 -0.6073 -0.6005
 4146TIP3   OH212401   4.272   4.289   3.411  0.6284  0.5645 -0.1296
 4146TIP3    H112402   4.261   4.237   3.332  1.5152 -1.3995  0.9382
 4146TIP3    H212403   4.362   4.322   3.405  0.4223  1.1000 -0.3097
 4147TIP3   OH212404   5.169   4.782   5.548 -0.0454  0.0268  0.4014
 4147TIP3    H112405   5.180   4.876   5.564  0.1893  0.2668 -1.0542
 4147TIP3    H212406   5.257   4.746   5.556 -0.4692 -0.6531  3.9746
 4148TIP3   OH212407   6.698   3.908   3.181  0.4330 -0.2135  0.4623
 4148TIP3    H112408   6.754   3.907   3.259  0.2434 -3.0798  0.6718
 4148TIP3    H212409   6.656   3.822   3.181 -0.1141 -0.0267 -2.4542
 4149TIP3   OH212410   4.329   6.499   1.238  0.3207 -0.1702 -0.1006
 4149TIP3    H112411   4.271   6.431   1.204  0.9015 -0.2965 -0.8349
 4149TIP3    H212412   4.325   6.569   1.172 -0.4001  0.5947  0.7206
 4150TIP3   OH212413   4.534   3.528   5.235 -0.2425  0.3043 -0.2587
 4150TIP3    H112414   4.605   3.591   5.225 -0.9590  1.0556 -0.8076
 4150TIP3    H212415   4.454   3.580   5.222 -0.9388 -0.3286  1.2415
 4151TIP3   OH212416   0.492   5.609   1.858  0.2308  0.5063 -0.0704
 4151TIP3    H112417   0.414   5.613   1.803 -0.2500 -1.1816  0.4330
 4151TIP3    H212418   0.531   5.524   1.839  2.1107  1.3870 -0.4676
 4152TIP3   OH212419   7.006   3.456   2.422 -0.2415 -0.0303 -0.4245
 4152TIP3    H112420   7.093   3.422   2.446 -0.4001  0.5388  1.0958
 4152TIP3    H212421   6.945   3.396   2.465 -0.5295  1.9555  2.1771
 4153TIP3   OH212422   6.012   0.228   4.537  0.0589  0.5709 -0.5616
 4153TIP3    H112423   5.940   0.276   4.577 -0.3623 -0.3048 -0.2537
 4153TIP3    H212424   6.083   0.233   4.601 -0.4258 -0.3405  0.0694
 4154TIP3   OH212425   6.687   3.093   2.220 -0.5114  0.5335 -0.1431
 4154TIP3    H112426   6.729   3.159   2.164 -0.9374  0.8213 -0.1265
 4154TIP3    H212427   6.595   3.094   2.194 -0.0746 -2.0925 -2.1533
 4155TIP3   OH212428   3.044   4.435   4.008 -0.4821  0.1495 -0.5001
 4155TIP3    H112429   3.091   4.482   3.939 -0.2119  1.1559  0.3384
 4155TIP3    H212430   2.969   4.492   4.028  0.8582  1.2575  1.8366
 4156TIP3   OH212431   2.803   3.680   2.270 -0.2237  0.0970 -0.0781
 4156TIP3    H112432   2.879   3.636   2.308  0.0302  1.0890  0.5804
 4156TIP3    H212433   2.839   3.750   2.216 -0.6291 -0.5066 -1.1718
 4157TIP3   OH212434   4.017   5.047   4.404 -0.9335  0.5592  0.2530
 4157TIP3    H112435   4.026   4.981   4.336 -1.5482  1.6586 -0.9229
 4157TIP3    H212436   4.045   5.002   4.484  0.0297 -0.6801 -0.7383
 4158TIP3   OH212437   6.133   0.715   4.646 -0.1992 -0.0101  0.1997
 4158TIP3    H112438   6.041   0.709   4.623 -0.3643  0.7373  0.6459
 4158TIP3    H212439   6.139   0.682   4.735  0.1300 -1.0078 -0.1782
 4159TIP3   OH212440   3.968   2.470   1.495  0.1591 -0.4759  0.4648
 4159TIP3    H112441   4.001   2.474   1.406 -2.8370  1.8244 -0.7506
 4159TIP3    H212442   3.918   2.389   1.499 -2.2518  0.8161 -1.1238
 4160TIP3   OH212443   4.468   3.118   1.815 -0.2883  0.1139 -0.3140
 4160TIP3    H112444   4.378   3.110   1.847 -0.6461  2.4865 -0.5780
 4160TIP3    H212445   4.464   3.094   1.723 -1.3603  3.1247 -1.1675
 4161TIP3   OH212446   4.483   3.813   5.724 -0.1318 -0.3131  0.4939
 4161TIP3    H112447   4.530   3.785   5.646  0.8298  2.6848 -0.1374
 4161TIP3    H212448   4.391   3.815   5.697 -0.0105 -1.0101  0.0195
 4162TIP3   OH212449   3.879   6.150   3.417 -0.4390 -0.2029 -0.5369
 4162TIP3    H112450   3.785   6.156   3.438 -0.3977  0.1929 -0.4457
 4162TIP3    H212451   3.898   6.057   3.418 -0.3862 -0.2128  1.4793
 4163TIP3   OH212452   4.351   2.934   2.919  0.6999 -0.0274 -0.4027
 4163TIP3    H112453   4.412   2.920   2.991 -0.8119 -0.0200  0.9528
 4163TIP3    H212454   4.320   3.024   2.931  0.7526  0.1218 -1.3297
 4164TIP3   OH212455   5.880  -0.014   2.491  0.1129 -0.7496 -0.4223
 4164TIP3    H112456   5.815  -0.023   2.560  0.3796 -0.1814 -0.0886
 4164TIP3    H212457   5.850   0.060   2.438  0.8751  0.0401  0.1994
 4165TIP3   OH212458   2.568   0.484   0.526 -0.7830 -0.0200  0.1462
 4165TIP3    H112459   2.564   0.478   0.621 -1.4574  0.6678  0.1699
 4165TIP3    H212460   2.574   0.393   0.496  1.4174 -0.1767  0.9063
 4166TIP3   OH212461   2.817   3.391   3.481  0.3564  0.2275 -0.2336
 4166TIP3    H112462   2.830   3.312   3.429 -1.1816  0.3084 -0.8083
 4166TIP3    H212463   2.724   3.389   3.505  0.5253  1.3363  0.5992
 4167TIP3   OH212464   6.357   1.910   1.036  0.0091  0.1101  0.1365
 4167TIP3    H112465   6.424   1.841   1.042  0.3667  0.4884  0.5231
 4167TIP3    H212466   6.406   1.989   1.015 -0.1753  0.6115  1.5066
 4168TIP3   OH212467   0.025   0.871   5.243  0.0249 -0.0290  0.5642
 4168TIP3    H112468   0.023   0.798   5.181 -0.6084  0.8889 -0.5282
 4168TIP3    H212469  -0.038   0.846   5.310  0.6453 -0.9905  0.8193
 4169TIP3   OH212470   3.455   1.916   5.621 -0.1948 -0.2168  0.3465
 4169TIP3    H112471   3.488   2.004   5.633 -1.5793  0.3776  0.0225
 4169TIP3    H212472   3.525   1.859   5.654  1.7864  0.8709 -1.7323
 4170TIP3   OH212473   2.937   4.863   2.030 -0.0347 -0.2964 -0.2135
 4170TIP3    H112474   2.990   4.937   2.057  0.2025 -0.6211  0.2149
 4170TIP3    H212475   2.924   4.876   1.936 -0.8570  0.8289  0.0288
 4171TIP3   OH212476   2.388   2.875   3.884 -0.3806  0.0438  0.4336
 4171TIP3    H112477   2.297   2.904   3.877 -0.5476 -0.5207  0.1275
 4171TIP3    H212478   2.437   2.932   3.824 -0.2451  1.4351  1.8219
 4172TIP3   OH212479   1.635   5.055   2.255 -0.1657  0.0415 -0.7078
 4172TIP3    H112480   1.610   4.994   2.325 -0.2666 -1.1193 -1.7085
 4172TIP3    H212481   1.717   5.093   2.284  0.4048 -1.3114 -0.4479
 4173TIP3   OH212482   5.977   2.996   3.218  0.1231  0.1087  0.7509
 4173TIP3    H112483   6.025   3.014   3.137  3.1883 -3.4515  1.5123
 4173TIP3    H212484   6.027   3.041   3.286 -0.8580  0.8441  1.0070
 4174TIP3   OH212485   5.050   5.392   0.768 -0.0577 -0.4417 -0.2162
 4174TIP3    H112486   5.085   5.314   0.812 -0.7994 -1.0367 -0.6359
 4174TIP3    H212487   5.081   5.384   0.678 -0.5725 -0.5493 -0.3915
 4175TIP3   OH212488   1.550   3.457   3.114 -0.0523  0.2371 -0.3537
 4175TIP3    H112489   1.459   3.479   3.094 -0.7956 -1.4781  0.9454
 4175TIP3    H212490   1.568   3.379   3.060  0.0676 -0.4483  0.6533
 4176TIP3   OH212491   4.890   5.895   5.565  0.1166 -0.4586  0.5801
 4176TIP3    H112492   4.813   5.924   5.614  1.0303 -0.1698  1.9160
 4176TIP3    H212493   4.924   5.821   5.615  0.3801 -0.9544 -0.3146
 4177TIP3   OH212494   2.790   5.014   0.752 -0.0697 -0.2002 -0.2634
 4177TIP3    H112495   2.883   5.012   0.728 -0.0384 -0.4206 -0.1238
 4177TIP3    H212496   2.761   4.923   0.741 -0.4841  0.0239 -1.1478
 4178TIP3   OH212497   0.850   3.914   5.236 -0.3430  0.3248 -0.2248
 4178TIP3    H112498   0.871   3.911   5.330 -1.6326  0.6677  0.1037
 4178TIP3    H212499   0.879   3.829   5.203 -0.4235 -0.0495  0.6238
 4179TIP3   OH212500   0.667   1.821   2.365  0.1673  0.0946  0.4853
 4179TIP3    H112501   0.575   1.828   2.341 -0.0254  0.4248  1.2934
 4179TIP3    H212502   0.713   1.808   2.282 -0.6143 -0.1749  0.0898
 4180TIP3   OH212503   6.068   2.661   1.370  0.0564 -0.1629  0.4727
 4180TIP3    H112504   5.994   2.715   1.395 -0.5795 -1.3246  1.1716
 4180TIP3    H212505   6.079   2.677   1.276 -1.7394 -0.7384  0.1284
 4181TIP3   OH212506   2.684   1.076   2.621 -0.2145 -0.2738 -0.2276
 4181TIP3    H112507   2.633   1.155   2.640 -0.5919 -0.6363  0.2937
 4181TIP3    H212508   2.771   1.109   2.597 -0.7958  0.3871 -1.5926
 4182TIP3   OH212509   4.521   4.302   0.471 -0.0543  0.5936  0.2437
 4182TIP3    H112510   4.555   4.214   0.456 -1.3686 -0.1915  1.6286
 4182TIP3    H212511   4.598   4.354   0.494  0.8678  0.0537 -1.4176
 4183TIP3   OH212512   3.984   1.365   3.345 -0.4457  0.2155  0.0244
 4183TIP3    H112513   4.018   1.403   3.426  0.0361  0.2140 -0.1728
 4183TIP3    H212514   3.908   1.315   3.373  0.5906 -1.0469  0.7162
 4184TIP3   OH212515   4.426   0.145   0.024 -0.3371 -0.5212 -0.0235
 4184TIP3    H112516   4.337   0.172   0.043  0.1127  0.7944  0.2946
 4184TIP3    H212517   4.442   0.172  -0.066  0.4405  1.2552  0.6072
 4185TIP3   OH212518   4.018   5.929   2.418  0.0939 -0.0820 -0.3058
 4185TIP3    H112519   4.100   5.944   2.371  1.6320 -2.4335  1.3551
 4185TIP3    H212520   4.017   5.996   2.487  0.5037  0.0911 -0.4649
 4186TIP3   OH212521   2.915   1.664   1.140  0.2161 -0.1535  0.0420
 4186TIP3    H112522   2.892   1.724   1.069  0.8230 -1.7681 -1.6069
 4186TIP3    H212523   2.867   1.583   1.119  2.1749 -1.4163  0.1637
 4187TIP3   OH212524   4.819   5.609   0.636  0.2960  0.1879 -0.7423
 4187TIP3    H112525   4.812   5.703   0.657  0.5584 -0.1420  0.9566
 4187TIP3    H212526   4.890   5.577   0.692 -0.8571 -1.3442 -0.0732
 4188TIP3   OH212527   6.472   4.020   4.482 -0.5983  0.1686 -0.7496
 4188TIP3    H112528   6.450   3.998   4.392  0.5847  0.5918 -1.1559
 4188TIP3    H212529   6.511   3.940   4.518 -0.4364  0.2144 -0.8245
 4189TIP3   OH212530   2.885   1.878   1.805 -0.0800 -0.0109  0.1265
 4189TIP3    H112531   2.852   1.855   1.892  0.8040 -0.7378  0.2878
 4189TIP3    H212532   2.838   1.820   1.746  0.0380 -0.2115  0.2278
 4190TIP3   OH212533   1.495   6.318   4.790  1.0622 -0.2900  0.7280
 4190TIP3    H112534   1.441   6.386   4.752 -0.5151 -0.6757  2.1395
 4190TIP3    H212535   1.584   6.354   4.790  0.7553  0.5623 -1.1924
 4191TIP3   OH212536   3.510   4.671   3.392  0.1916  0.1758 -0.1113
 4191TIP3    H112537   3.571   4.609   3.432 -1.3844 -0.9643  0.6177
 4191TIP3    H212538   3.565   4.726   3.336  1.6213 -1.9823 -0.9503
 4192TIP3   OH212539   0.656   0.133   0.598 -0.7945  0.2272  0.6754
 4192TIP3    H112540   0.714   0.059   0.583 -2.3879 -1.0196  0.3929
 4192TIP3    H212541   0.711   0.199   0.639  0.8364 -0.8339  0.2803
 4193TIP3   OH212542   0.915   5.451   0.189 -0.4117 -0.1475 -0.3928
 4193TIP3    H112543   0.832   5.454   0.238 -0.9302  1.3120 -1.2985
 4193TIP3    H212544   0.888   5.450   0.097  0.5092  3.3200 -0.8203
 4194TIP3   OH212545   5.138   5.398   2.806  0.0737  0.5268  0.4138
 4194TIP3    H112546   5.073   5.450   2.759 -0.0548  0.1411  0.1573
 4194TIP3    H212547   5.197   5.462   2.846 -0.6514  0.8817  0.9135
 4195TIP3   OH212548   0.500   3.337   4.709 -0.1420  0.7620  0.4869
 4195TIP3    H112549   0.499   3.261   4.652 -0.3812  0.1066  1.3509
 4195TIP3    H212550   0.583   3.381   4.690 -0.2511  0.5956 -0.4043
 4196TIP3   OH212551   1.047   2.021   2.552 -0.3006 -0.1422  0.0494
 4196TIP3    H112552   1.121   1.977   2.595 -0.3489 -1.9480 -1.5559
 4196TIP3    H212553   1.050   1.989   2.462 -1.4098  1.9200 -0.7833
 4197TIP3   OH212554   5.460   0.031   1.104 -0.1008  0.3298  0.1298
 4197TIP3    H112555   5.447   0.033   1.199  0.4642  0.5419  0.2063
 4197TIP3    H212556   5.372   0.041   1.067 -0.4792 -0.9401  0.6337
 4198TIP3   OH212557   2.720   5.366   0.269 -0.6883 -0.4640 -0.3367
 4198TIP3    H112558   2.720   5.305   0.196 -0.2913 -0.2008 -0.5588
 4198TIP3    H212559   2.744   5.450   0.231 -1.8912 -0.0120 -0.1537
 4199TIP3   OH212560   2.165   4.933   0.721  0.4479  0.0868 -0.5320
 4199TIP3    H112561   2.182   4.846   0.757 -0.5869 -1.1657 -2.8457
 4199TIP3    H212562   2.142   4.917   0.630 -0.5637  2.7341 -0.8320
 4200TIP3   OH212563   0.621   0.697   5.499  0.0715 -0.0720 -0.3294
 4200TIP3    H112564   0.649   0.615   5.541 -1.1294 -0.3966 -0.1473
 4200TIP3    H212565   0.703   0.742   5.479  0.8026 -1.7218 -1.2575
 4201TIP3   OH212566   1.098   1.304   3.629  0.4912  0.2741 -0.5442
 4201TIP3    H112567   1.010   1.293   3.665  0.0170  1.4634 -1.2697
 4201TIP3    H212568   1.124   1.393   3.656  0.6693  0.6790 -1.9621
 4202TIP3   OH212569   2.669   1.533   4.627 -0.6781 -0.8988  0.5948
 4202TIP3    H112570   2.597   1.528   4.564  0.8311  0.9542 -1.4172
 4202TIP3    H212571   2.661   1.453   4.679 -3.4682 -1.3168 -0.2972
 4203TIP3   OH212572   2.904   5.924   4.783  0.5497 -0.6772  0.3512
 4203TIP3    H112573   2.904   5.848   4.726 -1.0706 -1.2284  1.0072
 4203TIP3    H212574   2.880   5.997   4.726 -0.7681 -1.1747  0.2305
 4204TIP3   OH212575   3.465   5.450   0.320 -0.0269  0.2503 -0.2239
 4204TIP3    H112576   3.396   5.401   0.364 -0.6183  1.1079 -0.1634
 4204TIP3    H212577   3.546   5.421   0.361 -0.3611 -0.6129 -0.1489
 4205TIP3   OH212578   2.128   2.369   0.577 -0.2033  0.4366  0.0057
 4205TIP3    H112579   2.173   2.290   0.609 -0.1779  0.3463 -0.2550
 4205TIP3    H212580   2.191   2.412   0.520 -1.0401 -0.5920 -1.7564
 4206TIP3   OH212581   5.015   5.674   3.742 -0.1296  0.0415  0.1208
 4206TIP3    H112582   4.928   5.674   3.783 -0.3354  1.6935 -0.2563
 4206TIP3    H212583   5.060   5.599   3.782 -1.9383 -1.2929 -0.1899
 4207TIP3   OH212584   5.743   1.125   1.398  0.2006  0.1905  0.0698
 4207TIP3    H112585   5.670   1.184   1.417  1.3115  1.8201 -0.5261
 4207TIP3    H212586   5.711   1.039   1.425 -2.5770  0.5334 -1.6741
 4208TIP3   OH212587   0.970   4.183   1.537 -0.2420  0.3903 -0.6315
 4208TIP3    H112588   1.057   4.218   1.517  0.1699 -0.7268 -0.9145
 4208TIP3    H212589   0.978   4.089   1.519 -1.3228  0.1663 -0.0253
 4209TIP3   OH212590   3.133   0.991   0.617  0.2771 -0.4682 -0.2031
 4209TIP3    H112591   3.092   1.032   0.693 -0.0377 -0.8032 -0.1906
 4209TIP3    H212592   3.183   0.918   0.653  0.7731 -0.1502 -0.2341
 4210TIP3   OH212593   4.381   1.933   4.395 -0.2600 -0.0832 -0.1271
 4210TIP3    H112594   4.414   1.887   4.318 -1.4921  0.9819 -1.3493
 4210TIP3    H212595   4.329   2.005   4.360 -0.3637  0.8145  1.7137
 4211TIP3   OH212596   1.114   4.253   2.551  0.5013  0.0193 -0.0864
 4211TIP3    H112597   1.150   4.329   2.598 -0.9467  0.2455  0.7374
 4211TIP3    H212598   1.080   4.196   2.621 -0.7879 -0.1197 -0.7843
 4212TIP3   OH212599   0.367   1.207   3.304 -0.0975 -0.2924 -0.7868
 4212TIP3    H112600   0.436   1.269   3.282  1.4391 -1.3294  0.7603
 4212TIP3    H212601   0.397   1.124   3.266 -1.5071 -0.3757 -1.7836
 4213TIP3   OH212602   2.685   2.798   3.173 -0.6166 -1.1441  0.3391
 4213TIP3    H112603   2.596   2.823   3.196 -0.7446 -1.3626  0.0855
 4213TIP3    H212604   2.678   2.707   3.144 -0.1641 -1.4576  1.1995
 4214TIP3   OH212605   3.308   6.418   2.066  0.4782 -0.4525  0.7037
 4214TIP3    H112606   3.367   6.376   2.003 -0.3559  1.0014 -1.1578
 4214TIP3    H212607   3.363   6.483   2.110  1.0339 -1.3648  1.3693
 4215TIP3   OH212608   5.423   0.174   4.982  0.0420  0.1936  0.3449
 4215TIP3    H112609   5.410   0.254   4.931  0.1049  1.1742  1.7945
 4215TIP3    H212610   5.336   0.135   4.989  0.1619 -0.4392 -1.2027
 4216TIP3   OH212611   4.809   6.459   0.579  0.2468  0.3562  0.3565
 4216TIP3    H112612   4.840   6.539   0.622 -0.9600 -0.4371  2.8848
 4216TIP3    H212613   4.730   6.435   0.627 -0.1766 -1.6376 -1.2058
 4217TIP3   OH212614   6.513   0.800   5.283  0.4920 -0.4050  0.1354
 4217TIP3    H112615   6.425   0.782   5.317  0.5970  0.6424  1.0091
 4217TIP3    H212616   6.572   0.768   5.351  0.7555 -0.0479  0.0757
 4218TIP3   OH212617   6.543   6.474   2.239 -0.0305 -0.5737  0.5886
 4218TIP3    H112618   6.501   6.559   2.224  0.0069 -0.7585 -0.7152
 4218TIP3    H212619   6.614   6.471   2.175 -0.3137 -1.7736  0.3043
 4219TIP3   OH212620   4.684   2.876   5.867  0.4271 -0.3679 -0.1189
 4219TIP3    H112621   4.669   2.942   5.799  1.9232  2.5971  2.1552
 4219TIP3    H212622   4.598   2.837   5.881 -0.7664  1.7014 -1.1166
 4220TIP3   OH212623   7.145   2.484   5.492  0.3049 -0.2776 -0.5231
 4220TIP3    H112624   7.138   2.389   5.502  0.2905 -0.3943 -1.5235
 4220TIP3    H212625   7.080   2.506   5.425  0.2931  0.4411 -0.2832
 4221TIP3   OH212626   3.550   3.232   2.973 -0.1534 -0.1502 -0.1831
 4221TIP3    H112627   3.521   3.320   2.998  1.0736  0.1124  0.4043
 4221TIP3    H212628   3.552   3.184   3.056  1.6545  0.0305 -0.0881
 4222TIP3   OH212629   2.715   5.163   0.081 -0.5168  0.5581 -0.5812
 4222TIP3    H112630   2.808   5.142   0.077  0.3097  3.8112 -1.3002
 4222TIP3    H212631   2.681   5.135  -0.004  0.2625  1.1341 -1.0987
 4223TIP3   OH212632   3.301   0.888   3.536  0.1288 -0.3796 -0.2089
 4223TIP3    H112633   3.360   0.829   3.583  0.3672 -0.9293 -1.1743
 4223TIP3    H212634   3.329   0.976   3.561  1.1275 -0.6390 -0.3692
 4224TIP3   OH212635   4.700   0.153   0.111  0.0349  0.0323  0.1405
 4224TIP3    H112636   4.604   0.154   0.105  0.0943 -0.0528 -1.0811
 4224TIP3    H212637   4.730   0.172   0.022  1.1626  0.5327  0.6048
 4225TIP3   OH212638   5.277   2.990   1.699  0.3624 -0.4747  0.2345
 4225TIP3    H112639   5.294   2.902   1.731  0.2908  0.3063  2.6376
 4225TIP3    H212640   5.182   2.998   1.698  0.3795  0.1099  1.7112
 4226TIP3   OH212641   7.065   1.636   5.830 -0.0673  0.1313  0.2136
 4226TIP3    H112642   7.078   1.607   5.739 -0.4472  1.6266 -0.3512
 4226TIP3    H212643   7.092   1.561   5.883 -0.5957 -1.0661 -1.1390
 4227TIP3   OH212644   5.820   2.834   4.983 -0.2963 -0.0379 -0.0695
 4227TIP3    H112645   5.856   2.788   4.908  0.9228 -0.1848  0.5787
 4227TIP3    H212646   5.725   2.823   4.975 -0.0773 -3.4532  0.5217
 4228TIP3   OH212647   3.111   2.479   1.747 -0.1375 -0.1503  0.3924
 4228TIP3    H112648   3.130   2.568   1.777  0.7569 -0.4968  0.9096
 4228TIP3    H212649   3.162   2.470   1.666  0.7687 -0.5861  0.9925
 4229TIP3   OH212650   6.416   3.836   3.192  0.0053  0.3545  0.9884
 4229TIP3    H112651   6.452   3.781   3.262  0.0300  1.7515  2.1186
 4229TIP3    H212652   6.493   3.880   3.156 -0.0644 -0.0256  0.3692
 4230TIP3   OH212653   5.402   6.707   2.287 -0.0075 -0.0758  0.2896
 4230TIP3    H112654   5.351   6.631   2.315 -0.2916 -0.2446 -0.6346
 4230TIP3    H212655   5.344   6.754   2.227  0.2349  0.7722  0.7100
 4231TIP3   OH212656   5.329   6.828   5.272  0.0897  0.4781  0.2073
 4231TIP3    H112657   5.266   6.756   5.276 -0.1207  0.5167 -1.7395
 4231TIP3    H212658   5.408   6.788   5.235  0.1735  1.0997 -0.3055
 4232TIP3   OH212659   6.966   4.509   2.094  0.0759  0.4260 -0.5074
 4232TIP3    H112660   6.990   4.495   2.002 -0.4057 -2.2672 -0.3321
 4232TIP3    H212661   6.885   4.458   2.105 -0.2137  1.2003  1.2770
 4233TIP3   OH212662   4.700   1.120   0.718  0.0724 -0.3079  0.1563
 4233TIP3    H112663   4.606   1.120   0.736  0.2790 -0.3762  1.2880
 4233TIP3    H212664   4.737   1.181   0.782  0.9542 -1.3146  0.6480
 4234TIP3   OH212665   1.298   1.686   0.454  0.0536  0.1584 -0.6536
 4234TIP3    H112666   1.339   1.720   0.375 -0.9616  0.4299 -1.0811
 4234TIP3    H212667   1.247   1.759   0.488  0.4966  0.0439  0.2668
 4235TIP3   OH212668   7.060   1.517   5.597 -0.5033  0.1052  0.8006
 4235TIP3    H112669   7.004   1.444   5.573 -1.4800  1.2585 -0.5333
 4235TIP3    H212670   7.145   1.495   5.559 -0.9358 -0.0631 -0.0792
 4236TIP3   OH212671   1.526   6.182   5.481  0.1638 -0.0413 -0.6407
 4236TIP3    H112672   1.518   6.163   5.387  1.0103  0.8948 -0.9253
 4236TIP3    H212673   1.455   6.132   5.522 -1.4547  1.0656 -1.9709
 4237TIP3   OH212674   4.353   2.448   1.767  0.3727 -0.0919 -0.2374
 4237TIP3    H112675   4.265   2.427   1.737  0.5617  0.8567 -1.5459
 4237TIP3    H212676   4.411   2.402   1.707  0.7793 -0.5655  0.5046
 4238TIP3   OH212677   2.495   6.381   3.210 -0.1069  0.3172  0.1490
 4238TIP3    H112678   2.499   6.477   3.213 -0.6809  0.3253  0.9314
 4238TIP3    H212679   2.566   6.356   3.150  2.2138  1.0970  2.3575
 4239TIP3   OH212680   0.701   4.102   5.643  0.2488  0.3218 -0.3381
 4239TIP3    H112681   0.757   4.180   5.653  2.3661 -1.2801  1.3016
 4239TIP3    H212682   0.671   4.083   5.732 -3.5385  1.4165 -1.2283
 4240TIP3   OH212683   2.735   2.264   3.431 -0.2852  0.5465 -0.6061
 4240TIP3    H112684   2.646   2.253   3.463 -0.1761  0.7329 -0.2350
 4240TIP3    H212685   2.784   2.296   3.507 -0.0356  1.0347 -0.9717
 4241TIP3   OH212686   2.523   5.680   5.797 -0.2097 -0.7349 -0.1166
 4241TIP3    H112687   2.560   5.768   5.804 -0.9862 -0.1680 -2.4312
 4241TIP3    H212688   2.484   5.663   5.883  1.3197  0.5146  0.8700
 4242TIP3   OH212689   6.953   5.097   3.280 -0.0220  0.6017 -0.6243
 4242TIP3    H112690   7.044   5.087   3.250 -0.0254  0.8869 -0.7326
 4242TIP3    H212691   6.911   5.016   3.253  0.5395 -0.1560  0.6960
 4243TIP3   OH212692   5.591   4.418   3.830 -0.1914  0.0337 -0.0232
 4243TIP3    H112693   5.520   4.422   3.894  0.0927 -1.1654  0.3966
 4243TIP3    H212694   5.631   4.332   3.843 -2.0434 -1.6436 -3.8449
 4244TIP3   OH212695   4.574   4.087   5.672  0.1752 -0.0770  0.6110
 4244TIP3    H112696   4.527   4.013   5.710  1.3474 -0.8443  0.6164
 4244TIP3    H212697   4.510   4.129   5.614 -0.3341 -1.4545  0.1427
 4245TIP3   OH212698  -0.015   6.667   4.958  0.2257  0.7401  0.4353
 4245TIP3    H112699   0.049   6.596   4.970 -0.7909 -0.6549 -1.7099
 4245TIP3    H212700   0.038   6.747   4.956  1.7043 -0.1925  0.4516
 4246TIP3   OH212701   6.894   1.328   5.535 -0.0533 -0.1378 -0.3331
 4246TIP3    H112702   6.898   1.241   5.575  1.7774 -0.1461 -0.4532
 4246TIP3    H212703   6.890   1.312   5.441 -3.1991 -0.0942 -0.3162
 4247TIP3   OH212704   5.126   1.968   2.552  0.2121 -0.2403  0.6458
 4247TIP3    H112705   5.163   2.032   2.491  0.0485  1.7725  2.5542
 4247TIP3    H212706   5.202   1.920   2.586  0.5993  0.5617  0.9414
 4248TIP3   OH212707   0.134   3.351   1.418 -0.3399 -0.5806 -0.8451
 4248TIP3    H112708   0.077   3.404   1.475 -0.8915 -2.0537  0.0357
 4248TIP3    H212709   0.179   3.415   1.363  2.3386  1.2725  3.0417
 4249TIP3   OH212710   2.416   6.485   1.866  0.0528 -0.0755  0.3529
 4249TIP3    H112711   2.468   6.502   1.943  1.2032 -1.1819 -0.1443
 4249TIP3    H212712   2.365   6.406   1.888  2.0034 -1.7255 -0.7134
 4250TIP3   OH212713   0.949   4.098   4.157  0.1901 -0.6214 -0.0427
 4250TIP3    H112714   0.905   4.165   4.208  0.8120  1.4180 -2.0150
 4250TIP3    H212715   0.910   4.016   4.186 -1.5224  0.6809  1.5584
 4251TIP3   OH212716   1.762   4.102   2.123  0.2350 -0.3459  0.0676
 4251TIP3    H112717   1.799   4.158   2.055  0.1131 -1.0765 -0.6218
 4251TIP3    H212718   1.786   4.144   2.205  0.2668  0.6282 -0.4303
 4252TIP3   OH212719   1.364   4.665   1.398  0.4328  0.3682 -0.2739
 4252TIP3    H112720   1.284   4.618   1.420  0.9605 -0.8410 -0.8572
 4252TIP3    H212721   1.336   4.732   1.336  0.1274 -1.3712 -2.1322
 4253TIP3   OH212722   2.867   5.583   5.378 -0.1992 -0.2716  0.2577
 4253TIP3    H112723   2.935   5.581   5.311 -1.2248 -0.9517 -0.7988
 4253TIP3    H212724   2.879   5.501   5.426 -0.8631 -0.8794 -0.5725
 4254TIP3   OH212725   1.655   3.372   0.407 -0.5551 -0.2453  0.6647
 4254TIP3    H112726   1.729   3.348   0.352  1.5930  0.7149  2.9545
 4254TIP3    H212727   1.626   3.457   0.372  0.2489 -0.0202  0.5182
 4255TIP3   OH212728   3.615   3.003   2.218  0.2358  0.3010  0.7455
 4255TIP3    H112729   3.573   3.083   2.251 -0.4209  0.2981 -0.0368
 4255TIP3    H212730   3.551   2.967   2.155  0.3301 -1.0773  1.4107
 4256TIP3   OH212731   3.600   1.188   5.786  0.4605 -0.1174 -0.1212
 4256TIP3    H112732   3.686   1.196   5.744  0.2477 -3.5691 -1.4771
 4256TIP3    H212733   3.559   1.112   5.744 -3.2868  1.3265  0.5048
 4257TIP3   OH212734   2.879   6.611   1.055  0.2422  0.5459 -0.0232
 4257TIP3    H112735   2.891   6.537   1.116 -0.5659  0.7072  0.3384
 4257TIP3    H212736   2.958   6.609   1.000  0.2748 -0.5318  0.0376
 4258TIP3   OH212737   6.863   4.554   0.319  0.4872 -0.5989  0.0384
 4258TIP3    H112738   6.860   4.649   0.313 -1.6448 -0.5866  0.3236
 4258TIP3    H212739   6.825   4.523   0.237  0.0231 -1.1597  0.4527
 4259TIP3   OH212740   2.443   2.166   2.070 -0.2355 -0.2137 -0.2655
 4259TIP3    H112741   2.458   2.169   1.976 -1.4216 -0.9847 -0.4966
 4259TIP3    H212742   2.423   2.075   2.089 -0.4160  0.0072  0.6718
 4260TIP3   OH212743   2.992   2.492   3.463  1.0185 -0.3243  0.0326
 4260TIP3    H112744   2.903   2.525   3.452  1.2935  0.2175 -0.5749
 4260TIP3    H212745   2.983   2.422   3.528  0.1636 -0.2238  0.0349
 4261TIP3   OH212746   0.446   2.939   1.172 -0.0136  0.6814 -0.1731
 4261TIP3    H112747   0.451   2.951   1.077 -0.3049 -2.0964 -0.6179
 4261TIP3    H212748   0.534   2.958   1.203  0.8944 -1.0960 -1.4389
 4262TIP3   OH212749   7.213   4.010   1.684 -0.2620 -0.5425 -0.1315
 4262TIP3    H112750   7.190   3.949   1.754  0.2026  0.5158  0.9792
 4262TIP3    H212751   7.168   3.976   1.607 -0.6655 -1.8267  0.6378
 4263TIP3   OH212752   6.417   1.114   0.743  0.3603  0.0791 -0.0658
 4263TIP3    H112753   6.460   1.169   0.809  3.4151 -1.5457 -0.5513
 4263TIP3    H212754   6.382   1.040   0.793  0.0747  0.3068  0.0723
 4264TIP3   OH212755   5.753   6.192   2.438 -0.3482 -0.0198  0.0269
 4264TIP3    H112756   5.841   6.213   2.470  0.3709 -1.4501 -0.9139
 4264TIP3    H212757   5.738   6.253   2.366  0.6140 -0.9171 -0.9533
 4265TIP3   OH212758   0.117   4.029   1.365 -0.2919  0.1675  0.2482
 4265TIP3    H112759   0.022   4.036   1.375 -0.5773 -0.9467 -1.2619
 4265TIP3    H212760   0.134   4.055   1.275  0.6285 -1.0906  0.0181
 4266TIP3   OH212761   4.698   3.810   4.025  0.3609  0.3699  0.1939
 4266TIP3    H112762   4.729   3.734   3.975 -0.7367 -0.2059  0.3440
 4266TIP3    H212763   4.607   3.822   3.997  0.2008  0.9826  0.9356
 4267TIP3   OH212764   4.621   5.839   0.203  0.2491 -0.2241 -0.3870
 4267TIP3    H112765   4.671   5.762   0.178 -0.3370 -0.2268 -1.6257
 4267TIP3    H212766   4.540   5.804   0.240  0.3632 -0.2048 -0.1163
 4268TIP3   OH212767   3.084   3.977   3.162 -0.0017  0.3943  0.1828
 4268TIP3    H112768   3.079   3.882   3.152 -0.8407  0.4210  0.3356
 4268TIP3    H212769   3.117   4.008   3.078  2.3211 -0.1894  0.7853
 4269TIP3   OH212770   1.131   5.291   0.354  0.7111  0.1061 -0.4427
 4269TIP3    H112771   1.065   5.223   0.339  1.0542 -0.3075 -0.0868
 4269TIP3    H212772   1.173   5.303   0.270  0.4055  0.1375 -0.5936
 4270TIP3   OH212773   2.167   4.125   0.521  0.4256 -0.4248  0.4236
 4270TIP3    H112774   2.128   4.208   0.493 -0.0800 -0.4893  0.9338
 4270TIP3    H212775   2.147   4.119   0.614  0.6979 -0.9946  0.4472
 4271TIP3   OH212776   6.967   5.609   1.706  0.1247  0.2026 -0.0740
 4271TIP3    H112777   6.962   5.583   1.614  0.1834  2.6637 -0.8339
 4271TIP3    H212778   6.996   5.700   1.704 -1.1169  0.7322  2.3397
 4272TIP3   OH212779   6.727   2.127   1.660 -0.4315  0.6869  0.1824
 4272TIP3    H112780   6.659   2.153   1.597 -0.6669  0.2585  0.2586
 4272TIP3    H212781   6.681   2.072   1.723  0.1422 -0.2440 -0.1875
 4273TIP3   OH212782   0.865   4.341   5.610 -0.0840  0.3713 -0.1360
 4273TIP3    H112783   0.821   4.356   5.526  0.7554  0.9687 -0.4936
 4273TIP3    H212784   0.863   4.426   5.653  0.3626  0.3106  0.0107
 4274TIP3   OH212785   4.245   1.727   2.912 -0.0724 -0.2578  0.1841
 4274TIP3    H112786   4.291   1.795   2.864  0.5692 -0.1488  0.9292
 4274TIP3    H212787   4.233   1.763   3.000 -0.7978 -0.6338  0.2448
 4275TIP3   OH212788   1.836   6.644   2.810  0.1966 -0.2795 -0.4751
 4275TIP3    H112789   1.847   6.585   2.885  1.2196 -1.9232 -1.8540
 4275TIP3    H212790   1.761   6.608   2.763  0.4090 -0.0599 -0.9791
 4276TIP3   OH212791   4.094   4.905   1.900  0.1588  0.0078 -0.2744
 4276TIP3    H112792   4.038   4.978   1.874 -0.4920 -0.8450 -1.3517
 4276TIP3    H212793   4.172   4.912   1.844 -0.1434 -0.4190 -0.7558
 4277TIP3   OH212794   0.705   0.549   4.918 -0.0072 -0.6156  0.5532
 4277TIP3    H112795   0.735   0.563   4.828 -0.3254 -1.1434  0.3600
 4277TIP3    H212796   0.618   0.588   4.920  0.3317  0.1529  0.8764
 4278TIP3   OH212797   6.791   3.209   4.563 -0.2550  0.1929  0.1315
 4278TIP3    H112798   6.817   3.190   4.473  1.2783 -0.5573  0.6843
 4278TIP3    H212799   6.780   3.123   4.604  0.8777  0.4770  1.1154
 4279TIP3   OH212800   4.285   1.545   3.201 -0.0650  0.0625  0.6846
 4279TIP3    H112801   4.190   1.533   3.190 -0.0578 -0.5618  1.2606
 4279TIP3    H212802   4.324   1.491   3.133 -0.1251  1.3479 -0.4237
 4280TIP3   OH212803   5.372   2.523   5.256  0.0048 -0.0953 -0.7537
 4280TIP3    H112804   5.342   2.446   5.207 -0.5172 -0.3889  0.0183
 4280TIP3    H212805   5.327   2.597   5.215  0.3912 -0.2032 -1.4005
 4281TIP3   OH212806   5.348   4.907   4.673  0.5265  0.1222 -0.6072
 4281TIP3    H112807   5.373   4.815   4.672 -0.0536 -0.0464 -1.4902
 4281TIP3    H212808   5.293   4.917   4.595 -0.4297  0.9332  0.1537
 4282TIP3   OH212809   5.149   1.530   3.920  0.3286  0.2952  0.3453
 4282TIP3    H112810   5.212   1.458   3.915  1.1939  0.8965  1.9162
 4282TIP3    H212811   5.102   1.526   3.837  2.6352  0.0029 -1.0589
 4283TIP3   OH212812   5.961   5.561   5.378 -0.1387  0.6482 -0.6983
 4283TIP3    H112813   6.003   5.639   5.341 -0.3180  0.7152 -0.7617
 4283TIP3    H212814   5.880   5.552   5.327 -0.2121  0.5337 -0.5592
 4284TIP3   OH212815   0.903   4.158   2.971  0.1685 -0.1468 -0.0803
 4284TIP3    H112816   0.881   4.083   2.915  0.2717 -1.0902  1.1051
 4284TIP3    H212817   0.990   4.138   3.004 -0.3485 -0.1907  1.3179
 4285TIP3   OH212818   5.068   2.468   1.046  0.6291 -0.2435  0.0945
 4285TIP3    H112819   5.056   2.373   1.036  0.2288 -0.3194  1.2557
 4285TIP3    H212820   5.020   2.506   0.972 -3.8764 -0.7059  2.4955
 4286TIP3   OH212821   6.205   3.608   0.091  0.4833 -0.2055 -0.3892
 4286TIP3    H112822   6.293   3.626   0.057  0.8767  1.5224  1.3783
 4286TIP3    H212823   6.146   3.640   0.022  1.2628  1.2062 -0.4395
 4287TIP3   OH212824   2.166   1.173   4.332 -0.0114  0.1272 -0.2558
 4287TIP3    H112825   2.131   1.200   4.247 -0.7477  1.9302  0.5618
 4287TIP3    H212826   2.197   1.083   4.318  0.7921  0.7045 -2.6633
 4288TIP3   OH212827   6.320   3.817   2.432 -0.0646 -0.0244 -0.7086
 4288TIP3    H112828   6.356   3.901   2.402 -1.2629  0.7536 -0.0503
 4288TIP3    H212829   6.379   3.790   2.502  0.7405 -0.1016 -1.3993
 4289TIP3   OH212830   2.257   0.762   2.618 -0.2007  0.1225 -0.1503
 4289TIP3    H112831   2.165   0.762   2.642 -0.9439  2.6162 -2.5629
 4289TIP3    H212832   2.278   0.853   2.600  2.5770 -0.4590 -0.3555
 4290TIP3   OH212833   6.192   1.493   5.616  0.0745 -0.2425 -0.3268
 4290TIP3    H112834   6.243   1.426   5.660  0.9235  0.9552  0.5757
 4290TIP3    H212835   6.103   1.458   5.613  0.5068 -1.4027  0.1000
 4291TIP3   OH212836   3.141   0.463   4.880  0.0316  0.4018  0.5682
 4291TIP3    H112837   3.054   0.501   4.876 -0.3083 -0.4451 -0.8383
 4291TIP3    H212838   3.128   0.371   4.859  1.3760  0.5047 -0.9520
 4292TIP3   OH212839   4.959   3.639   1.170  0.0108 -1.1035  0.1074
 4292TIP3    H112840   4.981   3.723   1.210 -0.7871 -1.1064  0.5772
 4292TIP3    H212841   5.024   3.578   1.206 -0.1324 -0.9217  0.6854
 4293TIP3   OH212842   6.516   4.558   0.215  0.1927 -0.5852 -0.1225
 4293TIP3    H112843   6.462   4.634   0.195 -0.7568 -1.6415 -1.9213
 4293TIP3    H212844   6.490   4.533   0.304 -1.4542 -0.3592 -0.5043
 4294TIP3   OH212845   3.497   6.333   1.894  0.1130  0.6939 -0.1223
 4294TIP3    H112846   3.569   6.283   1.931  0.9009  1.0422 -1.1504
 4294TIP3    H212847   3.505   6.320   1.800 -1.2520  0.6323 -0.2511
 4295TIP3   OH212848   6.825   4.962   3.718 -0.1301 -0.2092  0.2156
 4295TIP3    H112849   6.885   4.933   3.787 -0.6960 -0.6159  0.5478
 4295TIP3    H212850   6.823   4.889   3.657 -0.5442 -0.3377  0.3798
 4296TIP3   OH212851   7.003   6.319   0.371 -0.4985  0.0959 -0.3108
 4296TIP3    H112852   7.052   6.354   0.444 -1.3592 -1.0639  0.8674
 4296TIP3    H212853   6.974   6.396   0.322  0.4468  0.8656  0.3202
 4297TIP3   OH212854   5.071   6.392   2.849 -0.1975 -0.3530 -0.4193
 4297TIP3    H112855   5.091   6.298   2.853  2.7989  0.2121  1.2048
 4297TIP3    H212856   4.982   6.399   2.884 -0.6358 -2.5946 -0.9298
 4298TIP3   OH212857   1.936   2.479   3.869  0.0465  0.7486 -0.3705
 4298TIP3    H112858   1.895   2.499   3.785  1.4589  0.6246 -1.1287
 4298TIP3    H212859   2.017   2.530   3.868  0.9620 -0.6367  0.1274
 4299TIP3   OH212860   3.177   4.339   4.238  0.1262  0.1768 -0.1025
 4299TIP3    H112861   3.246   4.390   4.279 -0.0842  0.5687 -0.2346
 4299TIP3    H212862   3.160   4.382   4.155 -1.1468  0.8411  0.4797
 4300TIP3   OH212863   2.559   6.158   2.346 -0.3473  0.0523  0.1551
 4300TIP3    H112864   2.488   6.221   2.362 -0.4310 -0.1237  0.4776
 4300TIP3    H212865   2.561   6.104   2.425 -0.2807 -0.3544 -0.1229
 4301TIP3   OH212866   4.286   0.455   1.645 -0.2286  0.2479 -0.2680
 4301TIP3    H112867   4.380   0.471   1.652  0.0684 -1.1789 -0.7031
 4301TIP3    H212868   4.271   0.374   1.693 -1.4019  0.9254  0.5681
 4302TIP3   OH212869   4.935   1.788   0.233  0.0204 -0.4075  0.2114
 4302TIP3    H112870   5.017   1.751   0.265 -0.8529 -1.2038  1.6615
 4302TIP3    H212871   4.868   1.727   0.264 -1.2086  0.7548 -0.0672
 4303TIP3   OH212872   3.632   1.691   3.996 -0.1076 -0.6011  0.7515
 4303TIP3    H112873   3.669   1.647   4.072 -0.6618 -0.4777  1.1000
 4303TIP3    H212874   3.698   1.755   3.970 -0.2452 -0.1014  1.6147
 4304TIP3   OH212875   2.103   1.418   2.809  0.6516  0.2841 -0.6152
 4304TIP3    H112876   2.023   1.384   2.769 -0.0474  0.4322  0.6261
 4304TIP3    H212877   2.085   1.420   2.903  1.8969  0.8972 -0.3623
 4305TIP3   OH212878   2.418   4.730   5.267  0.5220  0.3889 -0.2578
 4305TIP3    H112879   2.368   4.666   5.216  0.1386 -0.0459  0.6374
 4305TIP3    H212880   2.502   4.688   5.283  0.8540  0.7514 -0.9833
 4306TIP3   OH212881   2.071   3.574   5.781  0.0257  0.0023 -0.0600
 4306TIP3    H112882   2.161   3.598   5.760 -0.0893  0.3640 -0.1570
 4306TIP3    H212883   2.045   3.514   5.711 -0.7124  2.0301 -1.6361
 4307TIP3   OH212884   1.541   0.571   2.262  0.1925 -0.0202  0.0094
 4307TIP3    H112885   1.453   0.548   2.234  0.3606 -0.6604 -0.0320
 4307TIP3    H212886   1.563   0.649   2.212  0.0783 -0.5228 -0.8518
 4308TIP3   OH212887   2.163   0.181   3.250  0.9834 -0.2272  0.0661
 4308TIP3    H112888   2.124   0.260   3.213  1.6241  0.0498 -0.0353
 4308TIP3    H212889   2.140   0.112   3.188 -1.0063 -0.4674  0.9893
 4309TIP3   OH212890   6.492   4.825   3.833  0.6541 -0.1066  0.3119
 4309TIP3    H112891   6.412   4.877   3.844 -0.1351 -1.1482 -0.3633
 4309TIP3    H212892   6.563   4.885   3.858 -0.1624  1.5381 -1.0772
 4310TIP3   OH212893   5.086   3.646   4.457 -0.1207 -0.2696 -0.0010
 4310TIP3    H112894   5.181   3.649   4.445 -0.3075 -1.2386 -2.2642
 4310TIP3    H212895   5.054   3.723   4.412 -0.4466 -0.1643  0.4074
 4311TIP3   OH212896   0.799   0.052   2.785 -0.1212 -0.4673  0.3583
 4311TIP3    H112897   0.850   0.018   2.711 -0.2949 -1.6659  0.7783
 4311TIP3    H212898   0.708   0.039   2.759 -0.2051  0.3133  0.2399
 4312TIP3   OH212899   1.804   2.659   5.448  0.5316  0.0606  0.1991
 4312TIP3    H112900   1.866   2.587   5.460  0.7012  0.3406  1.1030
 4312TIP3    H212901   1.805   2.676   5.354  0.5954 -1.0180 -0.0161
 4313TIP3   OH212902   6.905   1.577   4.940  0.2082 -0.2664  0.4252
 4313TIP3    H112903   6.848   1.573   5.017 -0.4491  1.1827  0.0342
 4313TIP3    H212904   6.990   1.606   4.975  0.6519 -2.0648  0.9506
 4314TIP3   OH212905   6.458   3.247   0.798 -0.6613  0.4548  0.4907
 4314TIP3    H112906   6.540   3.264   0.844 -0.3673 -0.9716  0.5551
 4314TIP3    H212907   6.449   3.320   0.737  1.7888 -0.3966 -1.0409
 4315TIP3   OH212908   0.368   4.050   2.451 -0.2259 -0.3593  0.3323
 4315TIP3    H112909   0.431   4.093   2.393 -1.5893 -0.5442 -1.3835
 4315TIP3    H212910   0.350   4.115   2.519  1.0085  0.0816  0.2665
 4316TIP3   OH212911   0.291   0.687   3.849  0.1372 -0.6416  0.0643
 4316TIP3    H112912   0.233   0.707   3.776  0.0638  0.1130  0.3161
 4316TIP3    H212913   0.232   0.670   3.923  0.2164 -0.8836  0.0709
 4317TIP3   OH212914   0.080   3.051   4.291 -0.0523  0.4552  0.1306
 4317TIP3    H112915  -0.009   3.065   4.324 -0.6549 -1.7027 -0.4113
 4317TIP3    H212916   0.135   3.057   4.370 -0.8225  0.6344  0.6701
 4318TIP3   OH212917   5.564   2.332   2.338 -0.4428 -0.1689 -0.4427
 4318TIP3    H112918   5.530   2.418   2.364  0.9867  0.6845 -1.2763
 4318TIP3    H212919   5.511   2.270   2.388 -0.2986  1.2465  1.6229
 4319TIP3   OH212920   6.486   4.012   2.885 -0.8740  0.0740  0.3873
 4319TIP3    H112921   6.436   4.017   2.803 -0.5114 -0.2136  0.1407
 4319TIP3    H212922   6.491   3.918   2.904  0.6343 -0.0284 -0.2834
 4320TIP3   OH212923   3.970   2.109   2.360 -0.2356 -0.1693  0.0086
 4320TIP3    H112924   3.929   2.027   2.332  0.3529 -0.9695  1.3501
 4320TIP3    H212925   4.064   2.090   2.361 -0.1807 -0.0635  1.9382
 4321TIP3   OH212926   1.370   0.799   0.738  0.5703 -0.0875 -0.0075
 4321TIP3    H112927   1.328   0.884   0.724 -0.7614 -0.7105  0.0419
 4321TIP3    H212928   1.448   0.801   0.682  1.2767  1.6317  0.9463
 4322TIP3   OH212929   1.174   2.580   4.763  0.2487 -0.0325  0.6658
 4322TIP3    H112930   1.101   2.525   4.735  0.8714  0.0205 -1.2054
 4322TIP3    H212931   1.248   2.520   4.769  0.5490  0.2948  0.3066
 4323TIP3   OH212932   2.147   6.656   1.222  0.2245  0.4973 -0.1679
 4323TIP3    H112933   2.183   6.685   1.306  0.1710  1.6558 -0.5214
 4323TIP3    H212934   2.179   6.566   1.211  0.4044  0.4064  0.9866
 4324TIP3   OH212935   6.643   4.980   1.121  0.4401  0.3044 -0.0908
 4324TIP3    H112936   6.704   5.044   1.085  0.1819  0.4183 -0.3238
 4324TIP3    H212937   6.674   4.966   1.211  1.6224 -0.6376 -0.6134
 4325TIP3   OH212938   0.986   4.239   0.007 -0.1429  0.4507 -0.2653
 4325TIP3    H112939   0.960   4.282   0.088  0.0681  0.3091 -0.1225
 4325TIP3    H212940   0.924   4.272  -0.059 -0.2582  0.6312 -0.0662
 4326TIP3   OH212941   1.322   5.980   5.082  0.0674 -0.2475  0.0441
 4326TIP3    H112942   1.300   6.041   5.012  0.7715  2.5309  2.0735
 4326TIP3    H212943   1.403   5.938   5.053  0.0193  0.3645 -1.0454
 4327TIP3   OH212944   0.583   5.977   3.862 -0.6099 -0.1584  0.0014
 4327TIP3    H112945   0.545   6.015   3.783  0.7319 -1.4482 -1.3353
 4327TIP3    H212946   0.671   6.015   3.867 -1.7106  2.4627  2.8120
 4328TIP3   OH212947   0.312   1.886   5.651  0.3286  0.0932 -0.2357
 4328TIP3    H112948   0.354   1.927   5.727  2.3984 -0.7724 -0.8227
 4328TIP3    H212949   0.373   1.901   5.579 -0.8286 -0.4646 -1.3670
 4329TIP3   OH212950   4.411   6.147   5.662  0.3694  0.7979 -0.3267
 4329TIP3    H112951   4.420   6.092   5.584  0.0825  0.3622 -0.0584
 4329TIP3    H212952   4.500   6.152   5.698  0.3567  0.3240 -0.2279
 4330TIP3   OH212953   1.748   1.400   2.044  0.0119 -0.9528  0.4362
 4330TIP3    H112954   1.730   1.454   1.967 -1.4282 -1.8304  0.1177
 4330TIP3    H212955   1.760   1.463   2.115 -1.8965 -0.1728  0.1403
 4331TIP3   OH212956   2.083   5.463   3.167  0.1955  0.1197 -0.2941
 4331TIP3    H112957   2.151   5.433   3.105  0.8610 -0.4444  0.6817
 4331TIP3    H212958   2.076   5.557   3.150  1.9634  0.4000  0.2342
 4332TIP3   OH212959   6.162   3.063   3.717  0.1672 -1.0975 -0.2194
 4332TIP3    H112960   6.152   3.158   3.717 -3.1879 -1.3265  1.3565
 4332TIP3    H212961   6.240   3.047   3.770 -0.3623  0.7609  1.2107
 4333TIP3   OH212962   3.197   0.310   5.479 -0.0775  0.0838 -0.1623
 4333TIP3    H112963   3.119   0.255   5.486 -0.5748  0.8170  0.2237
 4333TIP3    H212964   3.164   0.399   5.491  0.8001  0.4134 -0.1562
 4334TIP3   OH212965   7.169   2.861   4.626  0.0225  0.3648 -0.1512
 4334TIP3    H112966   7.103   2.911   4.578 -0.3418  0.4199  0.3961
 4334TIP3    H212967   7.127   2.840   4.710  0.8861  0.8567  0.4190
 4335TIP3   OH212968   0.894   0.068   0.976  0.2529 -0.5786  0.0498
 4335TIP3    H112969   0.908   0.163   0.982 -1.2055 -0.4379  1.9060
 4335TIP3    H212970   0.959   0.030   1.035 -2.1725 -0.3604  3.0741
 4336TIP3   OH212971   2.874   0.353   5.177  0.0675  0.6328 -0.0644
 4336TIP3    H112972   2.919   0.436   5.162  1.0777  0.4669  1.7860
 4336TIP3    H212973   2.894   0.301   5.100  1.9163  1.0764  0.0626
 4337TIP3   OH212974   0.465   5.295   5.318 -0.4244  1.0554 -0.3542
 4337TIP3    H112975   0.482   5.350   5.243  1.6326  0.1949 -0.5977
 4337TIP3    H212976   0.423   5.217   5.282  0.8839  0.4871 -0.7093
 4338TIP3   OH212977   1.665   5.287   3.884  0.1988  0.2652  0.1082
 4338TIP3    H112978   1.713   5.369   3.891  2.3559 -0.8808 -0.3573
 4338TIP3    H212979   1.584   5.310   3.838  0.5507  2.1684  0.3603
 4339TIP3   OH212980   0.794   6.612   1.736  0.5024 -0.1853 -0.0085
 4339TIP3    H112981   0.771   6.621   1.829 -0.3457 -1.2469 -0.0915
 4339TIP3    H212982   0.717   6.644   1.689  0.2480 -1.1947 -0.3155
 4340TIP3   OH212983   4.552   0.202   1.081 -0.3073  0.0947 -0.1295
 4340TIP3    H112984   4.487   0.201   1.011 -0.7383  0.7743  0.2537
 4340TIP3    H212985   4.602   0.283   1.067 -1.1078  0.8040  0.9767
 4341TIP3   OH212986   7.197   2.061   2.407  0.0868  0.4404  0.6595
 4341TIP3    H112987   7.228   2.126   2.343 -1.3865  1.0684  0.5519
 4341TIP3    H212988   7.193   1.979   2.358  0.0904  0.6773  0.2533
 4342TIP3   OH212989   6.991   5.862   2.965  0.3107  0.6408 -0.1698
 4342TIP3    H112990   7.077   5.882   2.928 -0.1531 -0.0720 -1.7219
 4342TIP3    H212991   6.941   5.943   2.953 -0.2385  0.0373 -2.4339
 4343TIP3   OH212992   4.201   0.663   4.310 -0.6438  0.3622  0.1768
 4343TIP3    H112993   4.113   0.667   4.349 -1.5447 -2.5340 -1.2924
 4343TIP3    H212994   4.226   0.571   4.316  0.4949  0.3299 -3.0758
 4344TIP3   OH212995   6.510   5.915   2.706 -0.1514 -0.3200  0.1013
 4344TIP3    H112996   6.557   5.977   2.762 -1.9341  0.0253  1.3329
 4344TIP3    H212997   6.549   5.830   2.726 -0.8451 -0.2318  2.0755
 4345TIP3   OH212998   1.953   0.150   1.744  0.0621 -0.2705  0.6822
 4345TIP3    H112999   1.961   0.201   1.664 -0.9585  0.4185  1.0062
 4345TIP3    H213000   2.009   0.195   1.808  1.7030 -1.3992  0.1203
 4346TIP3   OH213001   2.690   4.401   0.595 -0.2927  0.2684 -0.6621
 4346TIP3    H113002   2.667   4.317   0.635  1.4134  0.4179  0.7813
 4346TIP3    H213003   2.651   4.398   0.508 -0.6756 -1.8257 -0.4673
 4347TIP3   OH213004   6.177   0.763   3.141  0.8344  0.3018  0.1546
 4347TIP3    H113005   6.157   0.857   3.142  0.5415  0.2711 -0.9385
 4347TIP3    H213006   6.164   0.738   3.049 -0.8480 -1.1873  0.7548
 4348TIP3   OH213007   3.051   5.386   0.165  0.0070  0.1238  0.1950
 4348TIP3    H113008   2.996   5.308   0.162  0.6212 -0.3427  1.0226
 4348TIP3    H213009   3.140   5.353   0.169  0.3926  0.8810 -1.2808
 4349TIP3   OH213010   6.440   5.371   3.986  0.1466 -0.2029  0.0876
 4349TIP3    H113011   6.389   5.363   4.067 -2.1951  0.6469 -1.1806
 4349TIP3    H213012   6.520   5.416   4.013 -0.1575 -0.7480  2.0707
 4350TIP3   OH213013   0.924   2.560   5.608 -0.5428  0.6024 -0.3086
 4350TIP3    H113014   0.931   2.601   5.694 -1.2909 -1.0896  0.6139
 4350TIP3    H213015   0.830   2.549   5.594 -0.4477  1.1890 -1.5321
 4351TIP3   OH213016   4.458   6.783   5.756  0.1780  0.3861 -0.7844
 4351TIP3    H113017   4.529   6.827   5.803  0.0995  1.5783 -1.7382
 4351TIP3    H213018   4.498   6.701   5.726  1.6310  1.6141 -2.4420
 4352TIP3   OH213019   5.309   0.295   1.196 -0.0007 -0.1078  0.0112
 4352TIP3    H113020   5.358   0.340   1.127 -0.2692 -0.6419 -0.5398
 4352TIP3    H213021   5.376   0.255   1.251  0.2097  0.0685 -0.1147
 4353TIP3   OH213022   1.881   0.256   3.896  0.5586  0.0462 -0.0995
 4353TIP3    H113023   1.793   0.291   3.912  0.6637  1.1164 -1.6110
 4353TIP3    H213024   1.866   0.176   3.846  0.3816 -1.1329  1.7811
 4354TIP3   OH213025   3.957   1.662   5.081  0.0886  0.1943 -1.1126
 4354TIP3    H113026   4.012   1.656   5.003 -1.2202 -1.4566 -1.9706
 4354TIP3    H213027   4.018   1.651   5.154  0.9163 -1.9799 -2.0324
 4355TIP3   OH213028   4.928   3.101   2.653 -0.2795  0.3498  0.5316
 4355TIP3    H113029   4.902   3.033   2.590  2.4169 -1.5057  1.2540
 4355TIP3    H213030   4.884   3.180   2.622 -0.2848 -0.7937 -2.8028
 4356TIP3   OH213031   4.806   6.216   3.426 -0.1735  0.3627 -0.7661
 4356TIP3    H113032   4.781   6.302   3.392 -0.2895  0.1247 -1.2996
 4356TIP3    H213033   4.901   6.218   3.431 -0.2191  0.8848  0.2200
 4357TIP3   OH213034   2.791   6.342   4.190  0.2156 -0.0015  0.1913
 4357TIP3    H113035   2.765   6.416   4.245  2.9997  0.1790  1.4761
 4357TIP3    H213036   2.838   6.383   4.117  0.8188 -0.4111  0.3375
 4358TIP3   OH213037   4.498   2.848   3.744 -0.4273 -0.4772 -0.1787
 4358TIP3    H113038   4.462   2.929   3.780  1.4641 -1.0070  3.3582
 4358TIP3    H213039   4.551   2.876   3.670 -0.6426  1.4031  0.3394
 4359TIP3   OH213040   6.213   2.802   5.770 -0.5021  0.1090 -0.1510
 4359TIP3    H113041   6.164   2.733   5.813 -1.1776  0.7256  0.0959
 4359TIP3    H213042   6.205   2.782   5.676  0.8136 -1.1245 -0.0224
 4360TIP3   OH213043   4.666   6.492   1.942 -0.0188  0.2871 -0.0151
 4360TIP3    H113044   4.581   6.522   1.974  0.2571  1.5423 -0.3723
 4360TIP3    H213045   4.673   6.530   1.854  0.2624 -1.0939 -0.6112
 4361TIP3   OH213046   2.993   6.343   4.727  0.1406  0.8480 -0.1342
 4361TIP3    H113047   3.060   6.276   4.738  1.5548  2.1763 -0.2805
 4361TIP3    H213048   2.912   6.295   4.710  0.6891 -0.8530  1.8032
 4362TIP3   OH213049   0.816   5.174   0.399  0.3974  0.0494  0.0545
 4362TIP3    H113050   0.856   5.244   0.450  0.5321 -0.6878  0.9767
 4362TIP3    H213051   0.883   5.149   0.335  0.8994 -0.2163  0.6719
 4363TIP3   OH213052   4.926   1.197   2.749  0.0168  0.4230  0.2211
 4363TIP3    H113053   4.986   1.269   2.728 -0.6195  0.8641 -0.1170
 4363TIP3    H213054   4.983   1.123   2.769  0.6842  0.3453 -1.7814
 4364TIP3   OH213055   5.590   2.384   1.505  0.1171  0.2745  0.0231
 4364TIP3    H113056   5.665   2.329   1.527 -0.7663 -0.4707  1.2947
 4364TIP3    H213057   5.548   2.339   1.431  0.3517  0.1477 -0.0324
 4365TIP3   OH213058   0.467   1.211   1.715 -0.5095  0.4353  0.4759
 4365TIP3    H113059   0.526   1.169   1.777 -0.3528  0.7362  0.5341
 4365TIP3    H213060   0.521   1.227   1.637 -0.0572  2.1490  1.0904
 4366TIP3   OH213061   0.048   3.807   3.680 -0.3841 -0.4945 -0.2447
 4366TIP3    H113062   0.132   3.761   3.671 -0.9981 -1.6760 -0.1156
 4366TIP3    H213063   0.061   3.866   3.754 -0.1958 -1.9078  0.8764
 4367TIP3   OH213064   4.680   0.992   5.061 -0.3085 -0.0749  0.7778
 4367TIP3    H113065   4.760   1.034   5.032 -0.1519  1.5751  3.2702
 4367TIP3    H213066   4.703   0.899   5.070  0.6258 -0.0053 -0.6684
 4368TIP3   OH213067   6.536   0.010   3.511 -0.4568  0.2195 -0.0355
 4368TIP3    H113068   6.505   0.052   3.591 -0.3557 -0.1360  0.1948
 4368TIP3    H213069   6.496   0.060   3.440 -1.6244 -0.2721  0.2523
 4369TIP3   OH213070   3.983   3.061   3.000 -0.3872  0.2418 -0.4528
 4369TIP3    H113071   3.893   3.028   2.998 -1.4804  2.8436  0.1543
 4369TIP3    H213072   4.004   3.078   2.908 -0.4110 -0.6129 -0.6216
 4370TIP3   OH213073   3.378   2.245   4.423  0.3840  0.1279  0.3831
 4370TIP3    H113074   3.458   2.242   4.475  0.7294  0.9635 -0.0670
 4370TIP3    H213075   3.406   2.222   4.334 -0.2599 -1.6365  0.6104
 4371TIP3   OH213076   3.717   0.545   4.500  0.4316 -0.1612  0.2925
 4371TIP3    H113077   3.624   0.551   4.523  0.6270  0.0645  1.0582
 4371TIP3    H213078   3.720   0.566   4.407 -0.2740 -0.0908  0.2768
 4372TIP3   OH213079   1.852   5.989   5.439 -0.2182  0.2534 -0.1955
 4372TIP3    H113080   1.800   5.909   5.435 -1.0959  0.6070  2.2647
 4372TIP3    H213081   1.924   5.968   5.499  0.4011  0.8507 -0.7207
 4373TIP3   OH213082   1.623   4.546   1.350 -0.5632 -0.2596 -0.1870
 4373TIP3    H113083   1.530   4.559   1.369 -0.2949  1.7036  0.0430
 4373TIP3    H213084   1.647   4.621   1.295  0.0418 -2.6936 -3.6169
 4374TIP3   OH213085   5.826   4.661   0.481 -0.6142  0.3683  0.3319
 4374TIP3    H113086   5.765   4.588   0.472  0.6529 -0.9534  1.7300
 4374TIP3    H213087   5.818   4.689   0.572  0.4887  0.4975  0.4076
 4375TIP3   OH213088   2.867   1.437   5.516  0.4817  0.7698  0.0153
 4375TIP3    H113089   2.868   1.357   5.462  2.4847  0.0605  1.0180
 4375TIP3    H213090   2.851   1.406   5.605  0.5185  1.5759  0.3113
 4376TIP3   OH213091   2.576   4.326   4.410 -0.1558  0.4787 -0.6977
 4376TIP3    H113092   2.666   4.358   4.407  0.0377  0.0128 -0.0480
 4376TIP3    H213093   2.551   4.330   4.502 -0.3450 -0.6285 -0.6895
 4377TIP3   OH213094   6.749   4.302   0.439  0.0939  0.2833 -0.2478
 4377TIP3    H113095   6.774   4.384   0.396 -0.0848 -0.8973 -2.7976
 4377TIP3    H213096   6.654   4.297   0.426  0.2052 -0.6515 -0.7755
 4378TIP3   OH213097   0.706   3.541   4.630  0.4463  0.0696 -0.0847
 4378TIP3    H113098   0.627   3.582   4.665  0.4530  2.3543 -2.4275
 4378TIP3    H213099   0.675   3.487   4.558  0.8455 -0.8846  0.4418
 4379TIP3   OH213100   3.817   1.035   2.653  0.5449  0.6910 -0.3494
 4379TIP3    H113101   3.905   1.002   2.670 -0.0403 -0.4592  0.5957
 4379TIP3    H213102   3.818   1.125   2.686  0.7126 -0.0820  1.9670
 4380TIP3   OH213103   0.720   2.113   4.686  0.1425 -0.4238  0.3530
 4380TIP3    H113104   0.659   2.173   4.644  0.0154  0.6598  1.9783
 4380TIP3    H213105   0.675   2.029   4.685  0.2977 -0.5290 -1.9163
 4381TIP3   OH213106   5.395   6.395   0.701 -0.4689 -0.2696  0.4826
 4381TIP3    H113107   5.318   6.432   0.745  0.5200 -0.5113  2.5582
 4381TIP3    H213108   5.443   6.471   0.670 -0.4118  0.0276  1.2603
 4382TIP3   OH213109   6.976   2.734   0.155 -0.2623 -0.5858  0.6231
 4382TIP3    H113110   7.069   2.751   0.145 -0.8839  2.0537 -2.0978
 4382TIP3    H213111   6.945   2.801   0.215 -0.7889  0.2716 -0.5721
 4383TIP3   OH213112   3.940   2.473   2.663 -0.0504  0.2493 -0.0249
 4383TIP3    H113113   3.998   2.444   2.734  1.5418  1.3659 -0.8087
 4383TIP3    H213114   3.895   2.393   2.635  1.0394 -0.6456  0.6890
 4384TIP3   OH213115   0.337   1.528   4.634 -0.2033 -0.5444  0.1080
 4384TIP3    H113116   0.429   1.506   4.622 -0.7881 -2.0023 -2.3550
 4384TIP3    H213117   0.338   1.620   4.661  1.9725 -0.8149  1.1463
 4385TIP3   OH213118   3.162   2.381   4.569 -0.0364 -0.7007  0.2214
 4385TIP3    H113119   3.136   2.439   4.498 -1.6342 -0.5696  0.8768
 4385TIP3    H213120   3.229   2.324   4.530  0.4478  0.5513 -0.8569
 4386TIP3   OH213121   6.669   1.541   2.532 -0.4130  0.4468  0.1145
 4386TIP3    H113122   6.674   1.446   2.520 -1.7900  0.3299  0.3786
 4386TIP3    H213123   6.730   1.576   2.467 -0.3006 -0.5867 -0.3599
 4387TIP3   OH213124   5.196   3.947   3.235  0.5241 -0.1613 -0.0539
 4387TIP3    H113125   5.183   3.932   3.141  1.5129 -0.2232 -0.1909
 4387TIP3    H213126   5.169   3.865   3.276 -0.1077 -0.0642 -0.2554
 4388TIP3   OH213127   0.233   2.996   2.662 -0.4071  0.6582  0.4377
 4388TIP3    H113128   0.260   2.994   2.570  1.0140  0.8176  0.8132
 4388TIP3    H213129   0.312   2.971   2.710 -1.4347 -0.5209  1.5735
 4389TIP3   OH213130   7.002   4.602   0.974  0.0812  0.0296 -0.1735
 4389TIP3    H113131   6.984   4.534   1.039 -0.8601 -2.0170 -2.4329
 4389TIP3    H213132   6.916   4.641   0.956  0.2235  0.1067 -0.6949
 4390TIP3   OH213133   0.567   2.735   1.009  0.2749 -0.8805 -0.1204
 4390TIP3    H113134   0.551   2.752   1.101 -0.7342 -0.2576 -0.3946
 4390TIP3    H213135   0.533   2.812   0.964 -0.9311 -1.9674 -1.1395
 4391TIP3   OH213136   1.799   3.356   4.366  0.0637  0.5979 -0.3025
 4391TIP3    H113137   1.867   3.290   4.351  0.7177  1.1414  0.1983
 4391TIP3    H213138   1.832   3.435   4.323 -1.0291  0.4496 -1.4918
 4392TIP3   OH213139   0.714   1.237   3.478 -0.0577 -0.0614 -0.7269
 4392TIP3    H113140   0.810   1.241   3.469 -0.0476  1.9058 -0.1326
 4392TIP3    H213141   0.681   1.260   3.391  0.0492  1.8394 -0.3075
 4393TIP3   OH213142   3.127   4.385   2.445  0.3025  0.9676 -0.6479
 4393TIP3    H113143   3.138   4.389   2.540 -1.2388 -0.6422 -0.3491
 4393TIP3    H213144   3.214   4.403   2.409  0.9718  1.2739  1.0610
 4394TIP3   OH213145   0.338   6.301   2.906 -0.0909 -0.0289  0.3377
 4394TIP3    H113146   0.267   6.249   2.944  1.1573 -2.5732 -0.6345
 4394TIP3    H213147   0.312   6.312   2.814  1.4138 -2.3378 -0.4330
 4395TIP3   OH213148   2.382   6.394   2.345  0.2362  0.2590  0.0136
 4395TIP3    H113149   2.338   6.472   2.310  0.8325  0.9242  0.7078
 4395TIP3    H213150   2.314   6.327   2.348 -0.1970  0.6448 -0.9350
 4396TIP3   OH213151   2.184   4.449   4.056 -0.1074  0.0999 -0.3022
 4396TIP3    H113152   2.271   4.457   4.096 -0.0554 -0.0915 -0.3730
 4396TIP3    H213153   2.127   4.501   4.111 -0.0790 -0.3460  0.1521
 4397TIP3   OH213154   1.351   2.474   5.228 -0.1249 -0.3807  0.1577
 4397TIP3    H113155   1.263   2.439   5.238  0.1337 -2.2510 -2.8105
 4397TIP3    H213156   1.407   2.418   5.282 -0.5996  0.1908  1.2616
 4398TIP3   OH213157   6.251   0.977   0.554  0.0222 -0.2405  0.6718
 4398TIP3    H113158   6.181   0.983   0.618 -0.4161 -3.4751  0.6377
 4398TIP3    H213159   6.326   1.018   0.596 -1.3515  1.6754  1.4149
 4399TIP3   OH213160   6.839   1.592   4.247  0.1397 -0.1525  0.5947
 4399TIP3    H113161   6.919   1.573   4.199  0.7020 -0.4514  1.6293
 4399TIP3    H213162   6.852   1.553   4.334 -0.8001  0.4726  1.0422
 4400TIP3   OH213163   5.425   5.633   1.522 -0.9200  0.0343  0.0581
 4400TIP3    H113164   5.400   5.690   1.449 -1.6180 -1.8281 -1.2219
 4400TIP3    H213165   5.520   5.626   1.516 -1.0930 -1.5751 -1.9166
 4401TIP3   OH213166   2.148   4.410   2.507 -0.2021 -0.5895  0.5825
 4401TIP3    H113167   2.126   4.317   2.512  0.0205 -0.6561  0.3297
 4401TIP3    H213168   2.191   4.420   2.421  0.3718 -0.3809  0.8888
 4402TIP3   OH213169   2.809   0.380   4.604 -0.2540 -0.1695 -0.1604
 4402TIP3    H113170   2.897   0.362   4.570  0.9900  2.2442  1.4844
 4402TIP3    H213171   2.774   0.448   4.546 -0.5367 -0.2461 -0.0812
 4403TIP3   OH213172   1.925   2.240   5.725 -0.3939 -0.1250  0.5173
 4403TIP3    H113173   1.874   2.194   5.658 -2.2699  0.6408  1.3501
 4403TIP3    H213174   1.914   2.186   5.804 -2.6577  1.6190  1.5194
 4404TIP3   OH213175   6.610   6.574   1.195 -0.0004  0.1968 -0.3852
 4404TIP3    H113176   6.518   6.552   1.206  0.4028 -1.1254  0.7086
 4404TIP3    H213177   6.630   6.553   1.104 -1.4787  3.5174 -1.6360
 4405TIP3   OH213178   6.870   5.952   3.841 -0.8766  0.1627 -0.1512
 4405TIP3    H113179   6.807   5.990   3.780 -0.8725  1.0082  0.3580
 4405TIP3    H213180   6.919   6.027   3.874  0.3204 -0.4662 -0.4394
 4406TIP3   OH213181   1.262   2.759   0.183 -0.0222  0.2246 -0.1876
 4406TIP3    H113182   1.209   2.681   0.166  0.9646 -0.4409 -0.2953
 4406TIP3    H213183   1.286   2.791   0.096 -0.6490  0.8111 -0.1484
 4407TIP3   OH213184   3.856   5.808   3.952  0.1021 -0.1561 -0.4617
 4407TIP3    H113185   3.851   5.876   4.020  1.0217  0.2825 -0.8051
 4407TIP3    H213186   3.822   5.851   3.874  2.0286  0.4250 -1.0315
 4408TIP3   OH213187   5.041   4.358   2.558  0.1105  0.4397  0.3458
 4408TIP3    H113188   5.090   4.410   2.495 -0.1536 -0.9074 -1.0236
 4408TIP3    H213189   4.968   4.414   2.584  0.4472  1.1659 -0.2421
 4409TIP3   OH213190   5.766   5.996   4.853  0.6528 -0.0150 -0.5102
 4409TIP3    H113191   5.713   6.010   4.932  2.3893 -0.9980  0.9248
 4409TIP3    H213192   5.765   5.901   4.840  1.4111  0.0234 -0.9048
 4410TIP3   OH213193   2.318   5.583   1.039 -0.2393 -0.0022 -0.5576
 4410TIP3    H113194   2.251   5.520   1.067 -1.2294  1.0090 -0.6183
 4410TIP3    H213195   2.333   5.563   0.947  0.4322 -0.9972 -0.2585
 4411TIP3   OH213196   0.385   0.335   5.386 -0.3712  0.2106 -0.2218
 4411TIP3    H113197   0.369   0.339   5.292  0.3519  0.4012 -0.3393
 4411TIP3    H213198   0.297   0.329   5.425 -0.6641 -0.0423 -0.9107
 4412TIP3   OH213199   4.700   4.733   0.663  0.6213  0.4204  0.2994
 4412TIP3    H113200   4.656   4.797   0.720 -1.0851 -0.3680 -0.0683
 4412TIP3    H213201   4.630   4.698   0.608  1.7234 -0.9208 -0.3046
 4413TIP3   OH213202   6.440   4.859   5.524  0.1334 -0.2095  0.4004
 4413TIP3    H113203   6.458   4.912   5.602 -2.3229 -0.6253  1.3511
 4413TIP3    H213204   6.450   4.921   5.451 -0.5214  1.0226  1.3032
 4414TIP3   OH213205   0.558   1.600   0.289  0.2158 -0.0873 -0.3824
 4414TIP3    H113206   0.557   1.611   0.384  3.0674  0.6074 -0.3374
 4414TIP3    H213207   0.506   1.673   0.255 -0.4217 -0.0641  0.6119
 4415TIP3   OH213208   3.742   5.247   4.883 -0.6009 -0.3610  0.1997
 4415TIP3    H113209   3.670   5.282   4.936  0.0880  0.1082  0.8593
 4415TIP3    H213210   3.737   5.296   4.801 -0.4686  0.3522  0.6050
 4416TIP3   OH213211   6.889   0.084   1.223 -0.0269  0.0159 -0.1529
 4416TIP3    H113212   6.805   0.115   1.256  0.1377 -0.4455  0.7292
 4416TIP3    H213213   6.868   0.004   1.175 -0.3518  1.0382 -1.7748
 4417TIP3   OH213214   6.288   6.490   5.196  0.3953 -0.4463  0.2831
 4417TIP3    H113215   6.258   6.424   5.134 -0.0398 -0.6583  0.7160
 4417TIP3    H213216   6.296   6.570   5.143 -0.7876 -0.4165  0.1163
 4418TIP3   OH213217   2.245   2.791   1.554  0.6312  0.5164  0.9011
 4418TIP3    H113218   2.321   2.830   1.596  0.8442 -0.6531  1.6587
 4418TIP3    H213219   2.191   2.865   1.527  2.5981  1.4359 -0.7923
 4419TIP3   OH213220   4.356   2.524   4.493 -0.6971 -0.2857  0.5113
 4419TIP3    H113221   4.301   2.589   4.450  0.3496  0.7239  0.6535
 4419TIP3    H213222   4.441   2.533   4.451 -0.1847 -0.6277  1.4514
 4420TIP3   OH213223   5.294   1.574   4.335  0.1243  0.1826  0.7961
 4420TIP3    H113224   5.228   1.506   4.338 -0.1836  0.5138  2.0927
 4420TIP3    H213225   5.331   1.568   4.247 -1.8770  0.2444 -0.0865
 4421TIP3   OH213226   0.174   0.303   3.846 -0.0300  0.1487  0.2743
 4421TIP3    H113227   0.132   0.325   3.930  0.9186 -1.5208  1.2519
 4421TIP3    H213228   0.102   0.299   3.784 -0.9428  0.1251  1.2943
 4422TIP3   OH213229   6.535   4.954   5.765  0.3046  0.2673  0.2548
 4422TIP3    H113230   6.557   4.876   5.817  0.4281  0.3127  0.2719
 4422TIP3    H213231   6.617   5.004   5.763  1.3177 -1.2484 -2.6688
 4423TIP3   OH213232   1.026   5.889   1.071  0.1250 -0.5284 -0.5305
 4423TIP3    H113233   1.034   5.984   1.062  1.7151 -0.5611  0.2600
 4423TIP3    H213234   1.084   5.853   1.004  2.9896 -0.8401  1.9173
 4424TIP3   OH213235   0.092   2.141   1.276  0.2169 -0.2478 -0.6874
 4424TIP3    H113236   0.117   2.222   1.230  0.6582 -1.9065 -3.5869
 4424TIP3    H213237   0.171   2.115   1.323 -0.7501  2.4443  2.8886
 4425TIP3   OH213238   4.494   1.372   0.718  0.3733  0.8132 -0.1661
 4425TIP3    H113239   4.466   1.285   0.748 -0.8144  1.3400  0.3008
 4425TIP3    H213240   4.563   1.397   0.780 -0.2796  0.7974  0.5863
 4426TIP3   OH213241   3.473   5.744   2.171 -0.2948 -0.2640  0.0043
 4426TIP3    H113242   3.511   5.824   2.206 -1.0550 -0.6777  1.8895
 4426TIP3    H213243   3.548   5.692   2.144  0.2469  0.7378 -0.4953
 4427TIP3   OH213244   0.433   0.942   1.582  0.7305  0.3178 -0.3139
 4427TIP3    H113245   0.472   0.855   1.570 -0.0742  0.1610 -2.2123
 4427TIP3    H213246   0.507   1.002   1.587  1.3323 -0.1059 -2.6510
 4428TIP3   OH213247   2.116   3.496   0.939  0.4258  0.0108 -0.4197
 4428TIP3    H113248   2.065   3.424   0.975  1.6591 -1.1646 -0.9230
 4428TIP3    H213249   2.120   3.561   1.009 -0.9766 -0.2590 -0.0743
 4429TIP3   OH213250   0.284   5.612   2.731  0.0028 -0.1768  0.4515
 4429TIP3    H113251   0.205   5.565   2.756  0.0361  0.2472  1.3793
 4429TIP3    H213252   0.356   5.554   2.756  0.0062 -0.3580  0.0370
 4430TIP3   OH213253   2.190   2.832   3.523  0.3331  0.4422  0.2092
 4430TIP3    H113254   2.198   2.878   3.606  1.3058 -0.3380  0.5656
 4430TIP3    H213255   2.266   2.774   3.520 -0.1411 -0.1576 -0.8383
 4431TIP3   OH213256   6.811   6.556   3.244  0.1489 -0.2843  0.7364
 4431TIP3    H113257   6.888   6.519   3.288  0.5056 -2.8104 -1.7311
 4431TIP3    H213258   6.790   6.493   3.175 -4.2111  0.2058  1.3004
 4432TIP3   OH213259   7.113   2.223   4.314 -0.4842 -0.6081  0.0080
 4432TIP3    H113260   7.191   2.267   4.347 -1.7998  1.0407  1.0684
 4432TIP3    H213261   7.145   2.170   4.241  1.4411  0.9317 -0.3529
 4433TIP3   OH213262   1.242   4.422   2.100  0.3024  0.3061 -0.0009
 4433TIP3    H113263   1.214   4.384   2.183  1.5350 -2.8082 -0.8910
 4433TIP3    H213264   1.166   4.413   2.042 -0.7860  3.0703  0.8235
 4434TIP3   OH213265   5.503   2.644   2.983  0.5367 -0.0248  0.4579
 4434TIP3    H113266   5.418   2.634   3.026  1.1658 -0.1203  1.7322
 4434TIP3    H213267   5.482   2.654   2.890 -0.7952 -1.4561  0.5542
 4435TIP3   OH213268   3.943   2.209   4.187 -0.2768 -0.0537 -0.9515
 4435TIP3    H113269   3.869   2.194   4.245  0.9086 -0.6132  0.4856
 4435TIP3    H213270   3.970   2.300   4.205  0.0617 -0.2117 -0.6452
 4436TIP3   OH213271   2.820   3.109   2.358  0.5715 -0.1491  0.1462
 4436TIP3    H113272   2.726   3.092   2.368  1.0342 -1.5159  3.8936
 4436TIP3    H213273   2.853   3.034   2.309  0.0073 -1.0571  1.1016
 4437TIP3   OH213274   0.446   4.057   4.847  0.5751 -0.0476 -0.1014
 4437TIP3    H113275   0.523   4.029   4.896  0.0488 -1.2316  0.0856
 4437TIP3    H213276   0.383   3.987   4.860 -1.2497  1.7449  1.3521
 4438TIP3   OH213277   6.135   0.836   2.194 -0.3364 -0.3202  0.0292
 4438TIP3    H113278   6.089   0.902   2.143  0.0556 -0.0556  0.0074
 4438TIP3    H213279   6.184   0.886   2.260 -0.7582 -0.6530  0.6019
 4439TIP3   OH213280   7.058   2.308   3.080  0.3216  0.1356  0.1711
 4439TIP3    H113281   7.040   2.303   3.174 -0.6279 -0.1558 -0.0256
 4439TIP3    H213282   7.150   2.334   3.076  0.0345  1.4313  1.1794
 4440TIP3   OH213283   0.668   1.567   3.396 -0.1081  0.4253  0.7640
 4440TIP3    H113284   0.655   1.659   3.371 -0.8533  0.5616  1.5741
 4440TIP3    H213285   0.579   1.532   3.404  0.1800 -0.4884  0.0716
 4441TIP3   OH213286   4.947   2.304   0.271  0.4531 -0.3346  0.1655
 4441TIP3    H113287   5.040   2.303   0.248  0.0996 -0.4337 -1.3857
 4441TIP3    H213288   4.910   2.375   0.218 -0.2386  0.2129  1.3264
 4442TIP3   OH213289   1.192   1.035   2.026 -0.0550 -0.1400 -0.0504
 4442TIP3    H113290   1.222   1.052   1.936 -2.0769 -0.3647 -0.8332
 4442TIP3    H213291   1.257   0.975   2.062  0.1303 -1.1172 -1.8461
 4443TIP3   OH213292   4.518   6.012   5.439 -0.2580 -0.4763  0.4902
 4443TIP3    H113293   4.459   5.954   5.390 -1.0056  0.1488  0.6282
 4443TIP3    H213294   4.546   6.077   5.376 -0.4773 -0.2192  0.6550
 4444TIP3   OH213295   5.888   6.575   0.896  0.0163  0.3264  0.6505
 4444TIP3    H113296   5.903   6.523   0.817  0.4471  1.1832  0.1582
 4444TIP3    H213297   5.882   6.510   0.966 -1.9167 -0.5623 -0.2727
 4445TIP3   OH213298   6.031   3.322   4.845  0.4415  0.1425 -0.4707
 4445TIP3    H113299   6.093   3.295   4.778  0.4211 -0.8450 -0.1088
 4445TIP3    H213300   6.053   3.413   4.863 -0.4050  0.8451 -2.7446
 4446TIP3   OH213301   1.924   4.970   0.899  0.0597 -0.2991  0.5796
 4446TIP3    H113302   1.951   4.957   0.990  0.3764  0.7647  0.6442
 4446TIP3    H213303   1.998   4.935   0.848  1.8536  2.8366  0.7552
 4447TIP3   OH213304   3.531   1.773   4.589 -0.1312  0.3574 -0.3396
 4447TIP3    H113305   3.611   1.817   4.562 -0.1638 -0.8362 -2.6522
 4447TIP3    H213306   3.561   1.700   4.643  0.4252 -0.3084 -1.4994
 4448TIP3   OH213307   5.501   5.800   2.664 -0.3779  0.1405 -0.3628
 4448TIP3    H113308   5.459   5.815   2.749  0.7138 -0.9552  0.4141
 4448TIP3    H213309   5.457   5.860   2.604 -3.1129 -0.9834  0.3527
 4449TIP3   OH213310   4.989   4.894   3.870 -0.3621 -0.4540  0.4517
 4449TIP3    H113311   5.050   4.874   3.799 -0.2669  0.6805  0.1994
 4449TIP3    H213312   4.915   4.834   3.855 -0.4651 -0.0475 -0.7703
 4450TIP3   OH213313   5.083   3.232   3.063 -0.2782 -0.3315 -0.2198
 4450TIP3    H113314   5.109   3.321   3.042  0.5546 -0.5339 -0.0824
 4450TIP3    H213315   5.053   3.235   3.153  1.2361 -0.4737  0.3116
 4451TIP3   OH213316   2.961   3.367   4.932 -0.1685  0.2402  0.8204
 4451TIP3    H113317   3.045   3.335   4.899 -0.1275  0.0854  1.0791
 4451TIP3    H213318   2.947   3.321   5.014 -0.2213  0.7098  1.0805
 4452TIP3   OH213319   1.497   0.311   4.907  0.1358  0.4546  0.4365
 4452TIP3    H113320   1.512   0.232   4.856 -0.8097  0.9947 -0.7290
 4452TIP3    H213321   1.403   0.329   4.897  0.2416  1.4736  1.0553
 4453TIP3   OH213322   5.297   2.664   0.911  0.2117  0.4343 -0.3408
 4453TIP3    H113323   5.238   2.639   0.840  0.2060 -0.0810 -0.1541
 4453TIP3    H213324   5.240   2.708   0.974  0.2597  1.1300 -0.7644
 4454TIP3   OH213325   0.534   0.874   0.067  0.6181 -0.2565 -0.1377
 4454TIP3    H113326   0.595   0.923   0.122  0.3614 -0.5808  0.4396
 4454TIP3    H213327   0.460   0.855   0.124 -0.7670  1.4939 -1.2345
 4455TIP3   OH213328   4.204   5.152   3.994  0.4022  0.1992  0.5857
 4455TIP3    H113329   4.134   5.215   3.981  0.3336 -0.1249 -0.7780
 4455TIP3    H213330   4.208   5.139   4.089 -3.1698 -1.7943  0.6256
 4456TIP3   OH213331   1.094   0.117   2.953  0.5655  0.4482 -0.2550
 4456TIP3    H113332   1.019   0.075   2.994  0.1910  0.4105 -0.9805
 4456TIP3    H213333   1.159   0.047   2.943  0.7889  0.5215  0.5478
 4457TIP3   OH213334   6.814   5.246   1.244 -0.2178 -0.2194 -0.5027
 4457TIP3    H113335   6.822   5.332   1.285  0.5770 -0.4203 -0.2190
 4457TIP3    H213336   6.903   5.221   1.221 -0.1423 -1.8012  1.1807
 4458TIP3   OH213337   0.440   1.886   3.397  0.3037  0.1784 -0.1090
 4458TIP3    H113338   0.462   1.822   3.329  1.5692 -0.3022  0.7369
 4458TIP3    H213339   0.437   1.970   3.350  2.4571  0.0514 -0.5568
 4459TIP3   OH213340   3.342   4.055   0.307  0.5366  0.0204 -0.1309
 4459TIP3    H113341   3.248   4.068   0.296  0.4487 -0.7158 -0.3523
 4459TIP3    H213342   3.351   3.963   0.333  1.1646  0.2066  0.3479
 4460TIP3   OH213343   6.550   1.031   4.083 -0.7932  0.1723  0.2356
 4460TIP3    H113344   6.529   1.070   4.168  0.9372  3.2688 -0.5989
 4460TIP3    H213345   6.491   1.075   4.022 -0.8600 -0.7845 -0.4080
 4461TIP3   OH213346   1.706   1.640   2.556  0.1892  0.0096  0.1058
 4461TIP3    H113347   1.758   1.719   2.570  1.6006 -0.6903 -0.9431
 4461TIP3    H213348   1.663   1.654   2.472  0.5490 -0.3792 -0.1470
 4462TIP3   OH213349   0.566   4.835   3.376 -0.0509  0.0160 -0.3519
 4462TIP3    H113350   0.616   4.770   3.426 -0.4254 -0.4064 -0.5198
 4462TIP3    H213351   0.607   4.918   3.398  0.7302 -0.3194 -0.4804
 4463TIP3   OH213352   1.669   3.993   4.901  0.4873  0.7095  0.4904
 4463TIP3    H113353   1.659   4.075   4.949  1.9696  1.4868 -0.4698
 4463TIP3    H213354   1.604   3.934   4.941 -0.7623  2.3923  1.0378
 4464TIP3   OH213355   4.731   6.140   4.131  0.2671 -0.3126 -0.4722
 4464TIP3    H113356   4.733   6.071   4.197  0.1159 -1.5874 -1.7393
 4464TIP3    H213357   4.756   6.219   4.178  1.1078 -1.3413  0.9020
 4465TIP3   OH213358   5.241   0.667   2.855  0.1638 -0.0198  0.1865
 4465TIP3    H113359   5.296   0.671   2.777  1.1850 -0.0360  0.8808
 4465TIP3    H213360   5.288   0.610   2.915 -0.9926 -0.6326  0.5331
 4466TIP3   OH213361   2.501   2.177   1.771  0.1946  0.3961 -0.5091
 4466TIP3    H113362   2.407   2.194   1.779  0.0614 -0.6313  0.4792
 4466TIP3    H213363   2.514   2.150   1.681 -0.6835 -0.6364 -0.3416
 4467TIP3   OH213364   5.168   4.375   0.110 -0.6551 -0.3143  0.1606
 4467TIP3    H113365   5.080   4.402   0.082 -0.1699  0.7129 -0.4497
 4467TIP3    H213366   5.161   4.281   0.123 -1.3339 -0.6188 -1.9477
 4468TIP3   OH213367   3.098   4.960   4.264  0.2271 -0.0439  0.4511
 4468TIP3    H113368   3.007   4.964   4.293 -0.2534  0.9358 -1.0580
 4468TIP3    H213369   3.126   5.052   4.260  1.0199 -0.2912  0.1247
 4469TIP3   OH213370   0.787   1.538   5.049  0.6144 -0.1365 -0.1042
 4469TIP3    H113371   0.707   1.494   5.079  0.8000 -1.3722 -1.3394
 4469TIP3    H213372   0.761   1.579   4.967  1.2039 -0.4143 -0.4325
 4470TIP3   OH213373   6.063   6.073   0.999  0.9546 -0.2193  0.0907
 4470TIP3    H113374   6.029   6.162   1.009  0.2838 -0.4470 -0.1024
 4470TIP3    H213375   6.121   6.078   0.923  1.9545  0.3351  0.8542
 4471TIP3   OH213376   6.908   2.977   2.334  0.2531 -0.4886 -0.5703
 4471TIP3    H113377   6.985   3.017   2.295  0.4565  0.0092  0.3203
 4471TIP3    H213378   6.834   3.016   2.286  0.5009 -0.0246 -0.5807
 4472TIP3   OH213379   1.095   6.078   3.982 -0.3890  0.3281 -0.0263
 4472TIP3    H113380   1.093   6.116   3.894 -0.4436  1.1218  0.3155
 4472TIP3    H213381   1.168   6.121   4.026 -0.1741 -0.2819  0.2287
 4473TIP3   OH213382   5.711   4.899   4.238  0.3227 -0.3195 -0.1724
 4473TIP3    H113383   5.759   4.905   4.321 -0.8270 -1.2420  0.5781
 4473TIP3    H213384   5.779   4.886   4.172  1.2001 -0.3075  0.7101
 4474TIP3   OH213385   3.532   3.552   1.894 -0.2758 -0.5258  0.2292
 4474TIP3    H113386   3.496   3.613   1.958 -1.4529 -1.2178  0.2439
 4474TIP3    H213387   3.456   3.505   1.859  0.5061 -1.2816 -0.5072
 4475TIP3   OH213388   6.909   2.811   2.814  0.3368 -0.6716  0.3433
 4475TIP3    H113389   6.901   2.828   2.908  1.1765  0.3859  0.2420
 4475TIP3    H213390   6.880   2.893   2.773  0.9340 -0.7642 -0.2817
 4476TIP3   OH213391   5.871   2.943   0.489 -0.7543  0.8962  0.5672
 4476TIP3    H113392   5.831   2.917   0.572 -1.5003  0.4416  0.0785
 4476TIP3    H213393   5.956   2.900   0.489 -1.2261 -0.0706  0.5894
 4477TIP3   OH213394   3.244   2.352   0.304  0.1798  0.3782 -0.1424
 4477TIP3    H113395   3.309   2.307   0.249  2.1639 -0.0730  2.3635
 4477TIP3    H213396   3.167   2.295   0.302  0.3733  0.1145 -1.9576
 4478TIP3   OH213397   2.336   0.256   0.558  0.4462 -0.1572  0.2415
 4478TIP3    H113398   2.362   0.198   0.629  0.5571  0.3284  0.6020
 4478TIP3    H213399   2.297   0.198   0.492 -1.2350 -0.4337  1.4155
 4479TIP3   OH213400   0.499   1.414   2.479 -0.2553  0.1699  0.4554
 4479TIP3    H113401   0.517   1.452   2.393 -1.6940 -1.3734 -0.5926
 4479TIP3    H213402   0.568   1.349   2.491 -1.7057 -1.7184 -0.9487
 4480TIP3   OH213403   6.786   0.373   1.777 -0.1652 -0.2538  0.1529
 4480TIP3    H113404   6.709   0.401   1.727  0.4387 -1.5546 -1.5915
 4480TIP3    H213405   6.856   0.367   1.713  0.8541 -1.2130  1.3017
 4481TIP3   OH213406   4.315   4.973   2.956  0.0586  0.6584 -0.2355
 4481TIP3    H113407   4.256   4.957   2.883 -1.1318 -0.0047  0.8255
 4481TIP3    H213408   4.316   5.068   2.966  0.0561  0.7402 -0.9517
 4482TIP3   OH213409   1.496   0.552   5.116 -0.3642  0.2316 -0.0647
 4482TIP3    H113410   1.526   0.470   5.075  2.7906  1.4731 -0.5352
 4482TIP3    H213411   1.554   0.563   5.191  2.1471  3.8436 -2.2055
 4483TIP3   OH213412   6.352   1.682   1.429 -0.3747  0.1592  0.1230
 4483TIP3    H113413   6.381   1.648   1.345  1.8782  1.9210  0.0890
 4483TIP3    H213414   6.373   1.612   1.491  0.4888 -0.0849 -0.4287
 4484TIP3   OH213415   1.134   6.097   5.550 -0.0799  0.4899 -0.3882
 4484TIP3    H113416   1.121   6.134   5.463  0.6098  0.5783 -0.4648
 4484TIP3    H213417   1.199   6.028   5.536  0.6944  1.0841  0.1866
 4485TIP3   OH213418   3.759   2.498   0.829 -0.7078  0.1246 -0.7199
 4485TIP3    H113419   3.837   2.533   0.786 -0.2406  0.1653  0.1476
 4485TIP3    H213420   3.776   2.404   0.835  1.6389  0.5625  3.9267
 4486TIP3   OH213421   1.709   5.186   2.922  0.5449 -0.3827  0.3026
 4486TIP3    H113422   1.791   5.231   2.940  0.3292 -0.5680  1.8823
 4486TIP3    H213423   1.642   5.254   2.929  0.3785 -0.6146  1.0189
 4487TIP3   OH213424   6.729   5.037   1.827  0.1610  0.6419 -0.0584
 4487TIP3    H113425   6.759   4.949   1.804  2.4829  1.2836  0.2936
 4487TIP3    H213426   6.729   5.038   1.923  0.2431  1.0612 -0.0621
 4488TIP3   OH213427   4.491   0.958   1.144  0.1800 -0.2263 -0.5397
 4488TIP3    H113428   4.452   0.989   1.063 -0.4064 -2.6392 -1.2700
 4488TIP3    H213429   4.418   0.949   1.205  0.4005  0.2170 -0.2059
 4489TIP3   OH213430   3.938   1.297   2.706 -0.1869 -0.7221 -0.0267
 4489TIP3    H113431   4.021   1.283   2.662 -0.9150  0.3980 -1.8660
 4489TIP3    H213432   3.908   1.382   2.675 -1.1262 -0.2053  2.0966
 4490TIP3   OH213433   3.378   1.557   4.949 -0.2127 -0.3352 -0.8119
 4490TIP3    H113434   3.429   1.628   4.987  1.4102 -1.0187 -1.6332
 4490TIP3    H213435   3.287   1.583   4.963  0.3353  1.1837  0.2021
 4491TIP3   OH213436   3.675   1.974   2.472 -0.0019 -0.5193 -0.2070
 4491TIP3    H113437   3.657   1.885   2.444  0.1481 -0.3989 -0.6908
 4491TIP3    H213438   3.680   2.025   2.391  1.5629 -0.3715 -0.0624
 4492TIP3   OH213439   4.938   3.967   2.284 -0.2695  0.3447  0.3967
 4492TIP3    H113440   4.952   4.033   2.351  3.6272 -0.3952  0.5538
 4492TIP3    H213441   4.959   4.011   2.202 -1.0342  0.1719  0.1016
 4493TIP3   OH213442   1.097   0.148   0.679  0.8907  0.0561 -0.0063
 4493TIP3    H113443   1.145   0.113   0.754  0.4686  0.8633  0.6688
 4493TIP3    H213444   1.029   0.083   0.661  1.2005 -0.2988  0.1052
 4494TIP3   OH213445   4.507   4.640   0.512  0.6197  0.2981  0.0876
 4494TIP3    H113446   4.484   4.553   0.544  2.1704 -0.8667 -1.7737
 4494TIP3    H213447   4.447   4.655   0.439  0.6660  0.6113  0.1130
 4495TIP3   OH213448   1.987   0.710   2.608 -0.4451  1.0412 -0.1314
 4495TIP3    H113449   2.010   0.645   2.542  0.5597  2.0099 -0.7613
 4495TIP3    H213450   1.900   0.684   2.638 -0.2750 -0.2893 -0.7335
 4496TIP3   OH213451   0.985   4.737   5.246 -0.8049 -0.2031  0.2635
 4496TIP3    H113452   1.035   4.688   5.180  0.2261  1.4446 -0.2197
 4496TIP3    H213453   1.013   4.827   5.236 -2.4847  0.4844  1.3119
 4497TIP3   OH213454   4.260   1.214   5.369 -0.1384 -0.2070  0.5587
 4497TIP3    H113455   4.318   1.256   5.305 -2.0633  0.7852 -0.6387
 4497TIP3    H213456   4.302   1.229   5.453  2.1218 -0.9242 -0.3708
 4498TIP3   OH213457   3.799   6.438   0.283  0.4510 -0.2460  0.3143
 4498TIP3    H113458   3.847   6.519   0.263  0.3134 -0.4973 -1.1851
 4498TIP3    H213459   3.733   6.432   0.213  1.6194 -2.5656 -0.6921
 4499TIP3   OH213460   2.443   0.176   1.848 -0.3719  0.1089 -0.1763
 4499TIP3    H113461   2.522   0.195   1.796  0.4076 -0.3360  0.8119
 4499TIP3    H213462   2.371   0.203   1.792  0.4573 -0.0132 -1.3430
 4500TIP3   OH213463   6.559   6.058   0.076  0.1081  0.4596  0.0855
 4500TIP3    H113464   6.531   6.045  -0.015 -0.5836  0.7917  0.2409
 4500TIP3    H213465   6.593   5.973   0.103  2.3677  0.8943 -1.1492
 4501TIP3   OH213466   2.967   2.536   5.032 -0.0501 -0.4892  0.0752
 4501TIP3    H113467   2.875   2.512   5.042  0.3240 -1.6382  1.1412
 4501TIP3    H213468   2.994   2.566   5.119 -0.3461  3.6327 -1.0718
 4502TIP3   OH213469   4.789   6.344   1.357  0.3503 -0.7816 -0.2954
 4502TIP3    H113470   4.704   6.345   1.313  0.2745 -0.1610 -0.1468
 4502TIP3    H213471   4.837   6.273   1.316 -0.8797 -2.3371  0.8402
 4503TIP3   OH213472   3.613   5.347   4.033  0.0203 -0.2961  0.0499
 4503TIP3    H113473   3.677   5.276   4.030 -1.1927 -1.4040 -0.3807
 4503TIP3    H213474   3.655   5.419   3.985  1.4721 -0.5095  0.9194
 4504TIP3   OH213475   5.910   6.457   3.309  0.7946 -0.3469 -0.5883
 4504TIP3    H113476   5.904   6.373   3.264 -0.3005  0.8038 -2.7196
 4504TIP3    H213477   5.825   6.468   3.352  1.2161 -0.6607  0.3427
 4505TIP3   OH213478   3.016   3.801   4.793 -0.2604  0.3203  0.4756
 4505TIP3    H113479   3.002   3.712   4.758 -1.5484  0.5013  0.4811
 4505TIP3    H213480   3.110   3.804   4.813  0.4862  0.0436 -2.5040
 4506TIP3   OH213481   2.214   2.659   1.812 -0.6632  0.1160 -0.0235
 4506TIP3    H113482   2.263   2.681   1.733 -0.5304 -0.0201  0.0207
 4506TIP3    H213483   2.170   2.740   1.837  0.2513  0.4823  0.4451
 4507TIP3   OH213484   0.317   1.119   0.784 -0.3320  0.1576 -0.1648
 4507TIP3    H113485   0.329   1.035   0.829 -0.2427 -0.1892 -0.8138
 4507TIP3    H213486   0.364   1.182   0.837  1.8908 -0.6570 -1.0666
 4508TIP3   OH213487   5.320   0.989   4.316  0.1611  0.2048 -0.3298
 4508TIP3    H113488   5.415   0.999   4.310  0.3081 -1.2844 -1.0521
 4508TIP3    H213489   5.303   0.904   4.275 -1.6461  1.1050 -1.5395
 4509TIP3   OH213490   0.949   4.020   3.309  0.6644  0.6672  0.1449
 4509TIP3    H113491   0.971   3.956   3.377 -0.0950  1.4134  1.1201
 4509TIP3    H213492   0.995   4.099   3.335  1.2230  0.6660 -0.8039
 4510TIP3   OH213493   2.260   0.639   4.409  0.2268 -0.4133  0.3161
 4510TIP3    H113494   2.190   0.639   4.474 -0.9861  0.3445 -0.9534
 4510TIP3    H213495   2.291   0.548   4.408 -1.2150 -0.9307  0.4065
 4511TIP3   OH213496   1.252   1.057   5.817  1.0138  0.0583 -0.8248
 4511TIP3    H113497   1.297   1.081   5.898  0.6223  2.1821 -1.1640
 4511TIP3    H213498   1.319   1.012   5.765  2.1186  1.1622 -0.4220
 4512TIP3   OH213499   0.629   1.922   2.055 -0.0277  0.4140  1.0890
 4512TIP3    H113500   0.707   1.897   2.105 -0.0745  0.9040  1.4180
 4512TIP3    H213501   0.647   2.012   2.027  0.6769 -0.3712 -1.1293
 4513TIP3   OH213502   0.955   0.908   1.950  0.0508  0.2966  0.3127
 4513TIP3    H113503   0.889   0.956   1.999  0.5349 -0.2912  1.5850
 4513TIP3    H213504   1.037   0.953   1.969  0.0117  1.2476 -1.5451
 4514TIP3   OH213505   0.041   6.432   4.765  0.2038 -0.2062  0.5188
 4514TIP3    H113506   0.118   6.394   4.806  0.4466 -0.9798 -0.6030
 4514TIP3    H213507  -0.020   6.359   4.754 -0.6411  0.3696  1.2593
 4515TIP3   OH213508   3.175   4.319   5.820  0.1009 -0.2344  0.1189
 4515TIP3    H113509   3.088   4.282   5.838  0.9200 -1.6800  1.3630
 4515TIP3    H213510   3.205   4.351   5.905  1.3929 -1.1540  0.0325
 4516TIP3   OH213511   1.641   3.578   5.302  0.5781 -0.3999  0.7859
 4516TIP3    H113512   1.584   3.653   5.318  1.5675  0.9951 -1.6981
 4516TIP3    H213513   1.581   3.507   5.278 -0.4678 -0.9255  4.3780
 4517TIP3   OH213514   3.516   2.125   1.684 -0.2585  1.0426  0.2515
 4517TIP3    H113515   3.519   2.054   1.749  0.6978  0.5928 -0.2707
 4517TIP3    H213516   3.446   2.100   1.624  0.4849  0.1998 -0.2895
 4518TIP3   OH213517   6.593   6.359   5.660  0.0843 -0.6065 -0.1026
 4518TIP3    H113518   6.507   6.373   5.699 -1.4304 -2.7072 -2.3760
 4518TIP3    H213519   6.592   6.413   5.581  0.5972 -1.0874 -0.4423
 4519TIP3   OH213520   3.147   3.055   1.165  0.1973  0.5574 -0.0385
 4519TIP3    H113521   3.211   3.027   1.230 -0.4466 -0.4182  0.2117
 4519TIP3    H213522   3.064   3.020   1.198 -0.0147 -0.7426 -1.8281
 4520TIP3   OH213523   3.731   1.835   0.057 -0.2981  0.3556 -0.0909
 4520TIP3    H113524   3.770   1.842  -0.030  0.6011  0.0682  0.2810
 4520TIP3    H213525   3.758   1.749   0.089 -0.3627  0.5850  0.5967
 4521TIP3   OH213526   0.963   0.941   4.664  0.1904  0.0334  0.6132
 4521TIP3    H113527   1.008   0.864   4.629  0.0780  0.6776 -1.0118
 4521TIP3    H213528   0.879   0.943   4.618  1.0477  2.3087 -1.0426
 4522TIP3   OH213529   2.280   1.611   2.785  0.2276  0.2977 -0.0804
 4522TIP3    H113530   2.225   1.536   2.807  0.8137  0.0886  0.7137
 4522TIP3    H213531   2.292   1.656   2.869  0.4452  0.9012 -0.4314
 4523TIP3   OH213532   4.750   2.409   2.247 -0.0392  0.3216 -0.0253
 4523TIP3    H113533   4.752   2.501   2.221  0.3657  0.4231  0.3519
 4523TIP3    H213534   4.724   2.362   2.167 -1.0858  0.8297  0.0030
 4524TIP3   OH213535   6.008   5.559   4.781 -0.7773 -0.2351  0.0789
 4524TIP3    H113536   5.916   5.583   4.797 -0.2768  0.4962  2.1955
 4524TIP3    H213537   6.043   5.542   4.868  0.9238 -1.2643 -0.7638
 4525TIP3   OH213538   4.534   4.164   1.660  0.0675  0.0341  0.0622
 4525TIP3    H113539   4.538   4.125   1.748 -0.2949 -1.4276 -0.5333
 4525TIP3    H213540   4.596   4.113   1.608 -1.1872 -0.5016 -0.9960
 4526TIP3   OH213541   5.951   0.808   1.548 -0.4567  0.3629 -0.1534
 4526TIP3    H113542   5.899   0.756   1.487 -0.9381  0.6650 -0.0060
 4526TIP3    H213543   5.894   0.821   1.623  0.6585 -1.3035  1.0350
 4527TIP3   OH213544   3.740   0.568   1.129 -0.5877 -0.0257 -0.0272
 4527TIP3    H113545   3.670   0.634   1.124 -2.3967 -1.7026  1.1964
 4527TIP3    H213546   3.736   0.537   1.220  0.2514 -1.7199 -0.5283
 4528TIP3   OH213547   5.924   0.655   2.217  0.2225 -0.2364  0.4122
 4528TIP3    H113548   5.997   0.716   2.225  0.2815 -0.5308  2.6269
 4528TIP3    H213549   5.965   0.568   2.218 -0.0222 -0.3773 -0.5631
 4529TIP3   OH213550   2.417   0.092   0.777 -0.1905  0.3861 -0.3753
 4529TIP3    H113551   2.468   0.012   0.777 -1.0935 -0.2785  1.8791
 4529TIP3    H213552   2.334   0.068   0.819 -1.0668  2.1657 -0.9685
 4530TIP3   OH213553   3.565   0.401   3.927  0.1146 -0.0559  0.5152
 4530TIP3    H113554   3.547   0.405   3.833  1.8483  1.2797  0.1696
 4530TIP3    H213555   3.530   0.317   3.956  0.9340 -1.2176 -1.6558
 4531TIP3   OH213556   1.762   3.376   5.055 -0.5089 -0.1127 -0.0694
 4531TIP3    H113557   1.728   3.290   5.030  1.7953 -0.3713 -2.7982
 4531TIP3    H213558   1.723   3.437   4.992 -0.4866  0.5104  0.5120
 4532TIP3   OH213559   1.049   4.934   4.436  0.0576 -0.7472 -0.3089
 4532TIP3    H113560   1.106   4.871   4.391 -1.2522 -2.9228  0.9150
 4532TIP3    H213561   0.961   4.915   4.402 -0.6248 -0.8621  1.4545
 4533TIP3   OH213562   2.670   4.493   0.288 -0.2931  0.0644 -0.4513
 4533TIP3    H113563   2.675   4.461   0.198  2.3707  0.6697 -0.6100
 4533TIP3    H213564   2.751   4.543   0.300 -0.4923 -0.1104  2.3166
 4534TIP3   OH213565   2.361   4.368   0.677  0.5816  0.3160 -0.0157
 4534TIP3    H113566   2.383   4.319   0.598  0.4722  0.2448 -0.0017
 4534TIP3    H213567   2.432   4.347   0.738  0.7147  0.4428 -0.1252
 4535TIP3   OH213568   4.100   6.268   5.239 -0.0998  0.1060  0.0908
 4535TIP3    H113569   4.076   6.246   5.329 -0.3218 -0.9822 -0.2141
 4535TIP3    H213570   4.051   6.348   5.219  0.7257  0.9297  1.2563
 4536TIP3   OH213571   2.059   5.346   3.413 -0.0763  0.3786 -0.2304
 4536TIP3    H113572   1.972   5.353   3.451  0.0294 -1.0374  0.3369
 4536TIP3    H213573   2.053   5.394   3.330 -2.2382 -1.9137 -1.5619
 4537TIP3   OH213574   4.902   6.256   4.901  0.0249 -1.0599  0.0782
 4537TIP3    H113575   4.847   6.285   4.974 -0.9463  1.1278 -1.4228
 4537TIP3    H213576   4.990   6.284   4.925 -0.5663  1.3721 -0.3342
 4538TIP3   OH213577   6.394   1.400   1.513  0.2342 -0.1692 -0.4794
 4538TIP3    H113578   6.325   1.361   1.460 -0.8486  1.2553 -0.1771
 4538TIP3    H213579   6.372   1.375   1.603 -0.8984  1.6318 -0.1952
 4539TIP3   OH213580   4.323   2.136   0.177 -0.0423  0.4518  0.4780
 4539TIP3    H113581   4.228   2.142   0.181 -0.0367  0.2916  0.8891
 4539TIP3    H213582   4.342   2.115   0.086 -0.3867  0.7115  0.3430
 4540TIP3   OH213583   2.332   0.387   4.909 -0.4035  0.1661 -0.1719
 4540TIP3    H113584   2.328   0.318   4.843  0.3916 -0.5347  0.4884
 4540TIP3    H213585   2.251   0.377   4.958  0.6406 -1.7737  1.3069
 4541TIP3   OH213586   5.205   3.074   3.300  0.0353 -0.1945  0.5804
 4541TIP3    H113587   5.292   3.072   3.339  1.1930  0.7097 -1.7756
 4541TIP3    H213588   5.174   3.163   3.315  0.5028  0.1704 -0.4941
 4542TIP3   OH213589   4.027   2.296   3.595  0.0421 -0.6684  0.5324
 4542TIP3    H113590   4.049   2.324   3.684 -0.0903  0.7166  0.1465
 4542TIP3    H213591   3.933   2.306   3.589  0.3036  1.6604 -0.5277
 4543TIP3   OH213592   0.691   4.724   3.635 -0.8435 -0.1339 -0.0810
 4543TIP3    H113593   0.647   4.771   3.706 -2.9706 -2.0860 -0.0029
 4543TIP3    H213594   0.784   4.737   3.652 -1.2832 -0.0344  2.7538
 4544TIP3   OH213595   1.637   1.384   3.214 -0.2364  0.6063  0.9193
 4544TIP3    H113596   1.642   1.371   3.309 -1.6756  0.7798  1.0428
 4544TIP3    H213597   1.691   1.314   3.178  1.4095  1.3103  1.8732
 4545TIP3   OH213598   3.581   4.416   0.406  0.0587 -0.2217  0.1774
 4545TIP3    H113599   3.627   4.359   0.344  2.1696  0.7285  0.7616
 4545TIP3    H213600   3.647   4.436   0.472 -0.1306  3.9084 -0.6520
 4546TIP3   OH213601   3.174   5.545   4.053  0.6804 -0.7289  0.2242
 4546TIP3    H113602   3.187   5.559   3.959 -0.2934 -1.5972 -0.0627
 4546TIP3    H213603   3.255   5.577   4.094  0.2637  1.7000 -0.6991
 4547TIP3   OH213604   0.564   6.240   3.398  0.5596  0.1345  0.3367
 4547TIP3    H113605   0.644   6.225   3.348  0.5227 -1.3287  0.6821
 4547TIP3    H213606   0.497   6.258   3.332  0.4486 -2.0716 -0.2161
 4548TIP3   OH213607   5.836   3.956   1.204 -0.2876  0.0180  0.1976
 4548TIP3    H113608   5.903   3.968   1.137 -0.5218  1.1153  0.1431
 4548TIP3    H213609   5.789   4.040   1.207 -1.6005 -0.6901  0.3020
 4549TIP3   OH213610   6.488   1.932   5.769  0.5740 -0.2431  0.0407
 4549TIP3    H113611   6.579   1.905   5.783  0.9742  1.1395  0.3288
 4549TIP3    H213612   6.495   2.023   5.737 -0.6493 -0.6298 -1.4659
 4550TIP3   OH213613   3.351   6.405   1.136  0.0648 -0.5618 -0.0881
 4550TIP3    H113614   3.425   6.386   1.193 -0.7914 -0.9109  0.9499
 4550TIP3    H213615   3.379   6.481   1.085  0.6888  0.1051  1.1698
 4551TIP3   OH213616   3.712   4.534   4.458 -0.0399 -0.0184 -0.4845
 4551TIP3    H113617   3.768   4.457   4.455 -0.7216 -0.5689  0.3637
 4551TIP3    H213618   3.625   4.500   4.478 -0.1201  1.0666  1.2190
 4552TIP3   OH213619   5.814   3.637   0.220  0.2620  0.3373  0.1565
 4552TIP3    H113620   5.833   3.622   0.128 -0.1221 -0.8811  0.2527
 4552TIP3    H213621   5.740   3.697   0.221 -0.7004 -0.8053 -0.3813
 4553TIP3   OH213622   5.273   4.928   1.281 -0.3213 -0.4023 -0.1169
 4553TIP3    H113623   5.274   4.979   1.362  0.7384  0.4474 -0.6318
 4553TIP3    H213624   5.345   4.964   1.230 -1.5437 -0.2858 -1.8380
 4554TIP3   OH213625   0.675   4.460   3.575 -0.0621 -0.0672  0.0766
 4554TIP3    H113626   0.696   4.548   3.607  0.3049 -1.0059  2.6926
 4554TIP3    H213627   0.580   4.451   3.588 -0.6930  0.9037 -3.0251
 4555TIP3   OH213628   0.141   6.434   5.782 -0.1981 -0.0082 -0.0759
 4555TIP3    H113629   0.234   6.441   5.759 -0.3214 -2.4214 -1.5678
 4555TIP3    H213630   0.102   6.516   5.751  1.3784  1.0532  0.5992
 4556TIP3   OH213631   2.885   1.648   4.527 -0.1308 -0.4509  0.8549
 4556TIP3    H113632   2.821   1.606   4.584 -0.2434  0.4499  1.4250
 4556TIP3    H213633   2.839   1.662   4.445 -0.7560  0.3665  1.3237
 4557TIP3   OH213634   2.963   5.582   1.314  0.9800 -0.2149 -0.1069
 4557TIP3    H113635   2.935   5.631   1.237 -0.6359 -0.2942  0.3865
 4557TIP3    H213636   2.988   5.649   1.378  1.7416 -0.1337 -0.4843
 4558TIP3   OH213637   6.741   3.513   5.564  0.1366 -0.6310  0.3448
 4558TIP3    H113638   6.739   3.609   5.566 -0.8329 -0.5577 -1.7870
 4558TIP3    H213639   6.673   3.487   5.627 -0.9748  0.1550 -0.4916
 4559TIP3   OH213640   0.597   3.108   4.565  0.0994  0.1182 -0.2614
 4559TIP3    H113641   0.549   3.028   4.585 -0.4804  0.2543 -1.0631
 4559TIP3    H213642   0.689   3.085   4.577 -0.1218 -0.3608  0.5402
 4560TIP3   OH213643   6.274   3.309   2.689  0.3211  0.8579 -0.2008
 4560TIP3    H113644   6.315   3.293   2.604 -1.7425  0.0405 -1.1144
 4560TIP3    H213645   6.245   3.400   2.684 -0.7616  0.5052 -0.8678
 4561TIP3   OH213646   3.429   6.705   3.582  0.8609  0.0724  0.1112
 4561TIP3    H113647   3.400   6.616   3.561  1.3887 -0.3424  1.0487
 4561TIP3    H213648   3.520   6.707   3.551  1.1575 -0.0477  0.9456
 4562TIP3   OH213649   2.493   4.982   4.585 -0.0948  0.3350 -0.1187
 4562TIP3    H113650   2.567   4.923   4.603 -0.6400  0.4096  2.8418
 4562TIP3    H213651   2.417   4.935   4.619 -0.8317  1.8399  0.3698
 4563TIP3   OH213652   6.512   4.349   0.748  0.5962 -0.5435 -0.0370
 4563TIP3    H113653   6.513   4.426   0.691 -1.4962 -0.1075  0.4495
 4563TIP3    H213654   6.605   4.331   0.766  1.1766  0.9445 -1.3544
 4564TIP3   OH213655   0.232   1.574   4.125 -0.8926 -0.1894  0.4487
 4564TIP3    H113656   0.226   1.563   4.220  1.0336 -2.1950  0.4049
 4564TIP3    H213657   0.324   1.591   4.108 -1.4560  1.9017 -0.9886
 4565TIP3   OH213658   0.386   5.022   0.553  0.3141  0.5195 -0.2942
 4565TIP3    H113659   0.395   5.033   0.459 -2.2528 -3.1646 -1.1923
 4565TIP3    H213660   0.298   4.987   0.565  1.9093 -3.2647  2.9081
 4566TIP3   OH213661   4.144   4.211   0.374 -0.3061  0.0076  0.6636
 4566TIP3    H113662   4.211   4.190   0.308  0.5206 -0.6135  1.6670
 4566TIP3    H213663   4.074   4.147   0.359  0.0087 -0.3208  0.5719
 4567TIP3   OH213664   1.008   4.775   4.930 -0.4331  0.1354 -0.4901
 4567TIP3    H113665   0.980   4.867   4.939 -0.9217  0.0699 -1.2038
 4567TIP3    H213666   1.092   4.781   4.883 -1.5535  0.1583 -2.6478
 4568TIP3   OH213667   6.136   4.231   2.519 -0.0425 -0.0240 -0.1175
 4568TIP3    H113668   6.198   4.302   2.502  1.5788 -1.4705 -0.6812
 4568TIP3    H213669   6.087   4.222   2.438 -1.7218  1.7364  0.6381
 4569TIP3   OH213670   3.693   3.944   1.647  0.1008  0.1512 -0.2843
 4569TIP3    H113671   3.747   3.866   1.634 -1.0746 -0.6872 -0.3435
 4569TIP3    H213672   3.612   3.911   1.687 -0.4835  1.3190 -0.4425
 4570TIP3   OH213673   4.419   5.724   2.294 -0.6546  0.7461 -1.0093
 4570TIP3    H113674   4.473   5.708   2.216  0.2189  1.9072 -0.6601
 4570TIP3    H213675   4.468   5.789   2.344 -0.1422 -1.4724  1.5647
 4571TIP3   OH213676   4.383   5.790   1.904 -0.2412  0.4425 -0.0546
 4571TIP3    H113677   4.430   5.840   1.970  1.2300 -1.2481  0.2766
 4571TIP3    H213678   4.291   5.794   1.931  0.3093 -0.2249  2.1628
 4572TIP3   OH213679   2.914   5.868   2.376 -0.5812 -0.2720  0.9563
 4572TIP3    H113680   2.941   5.948   2.422  0.6460  0.4487 -0.9067
 4572TIP3    H213681   2.970   5.865   2.298 -0.9733 -2.6751  0.6918
 4573TIP3   OH213682   5.246   2.554   1.731  0.2544 -0.2143 -0.1535
 4573TIP3    H113683   5.312   2.496   1.769  0.3446  0.5726  0.9369
 4573TIP3    H213684   5.277   2.642   1.751 -1.9231  0.1858  1.8685
 4574TIP3   OH213685   1.415   1.796   3.534  0.5829 -0.0056  0.1569
 4574TIP3    H113686   1.495   1.847   3.521 -0.6714  1.7615 -0.9981
 4574TIP3    H213687   1.344   1.859   3.524 -1.0361 -1.8897 -0.7918
 4575TIP3   OH213688   3.331   1.162   3.644  0.4778 -0.0129 -0.0218
 4575TIP3    H113689   3.283   1.226   3.591  0.7284 -0.2446 -0.5415
 4575TIP3    H213690   3.325   1.195   3.733  0.6235  0.7502 -0.2851
 4576TIP3   OH213691   5.544   6.397   5.831  0.1049  0.6631 -0.5969
 4576TIP3    H113692   5.479   6.337   5.795  2.0421 -1.4644 -0.8534
 4576TIP3    H213693   5.553   6.370   5.922  0.1638  1.3536 -0.3989
 4577TIP3   OH213694   2.811   3.996   1.232 -0.3075  0.1920 -0.1144
 4577TIP3    H113695   2.728   3.983   1.185 -0.0890 -0.7492 -0.2525
 4577TIP3    H213696   2.803   3.940   1.309  0.1997  0.0941 -0.1311
 4578TIP3   OH213697   0.244   4.303   1.752  0.5561  0.5067 -0.1960
 4578TIP3    H113698   0.215   4.367   1.817 -0.0708  0.7096 -0.6684
 4578TIP3    H213699   0.337   4.323   1.738  0.7928  0.2340  0.8877
 4579TIP3   OH213700   7.043   2.437   1.444  0.1235 -0.3411 -0.4450
 4579TIP3    H113701   7.022   2.354   1.400 -0.8563  0.2102 -1.0484
 4579TIP3    H213702   6.996   2.432   1.528  1.7540 -1.2659  0.4583
 4580TIP3   OH213703   2.408   4.516   4.869  0.5333 -0.0650 -0.2753
 4580TIP3    H113704   2.358   4.598   4.862  0.9391  0.3319  1.1597
 4580TIP3    H213705   2.393   4.487   4.959 -0.4159 -2.1367 -1.0416
 4581TIP3   OH213706   5.611   4.537   1.172  0.1661  1.0601  0.7842
 4581TIP3    H113707   5.536   4.564   1.226 -0.0738 -1.1722  1.6836
 4581TIP3    H213708   5.572   4.509   1.089 -0.4555 -2.4287  2.0736
 4582TIP3   OH213709   5.525   2.649   3.370  0.2103 -0.3100  0.9296
 4582TIP3    H113710   5.484   2.654   3.457  1.3346 -1.3002  1.5415
 4582TIP3    H213711   5.470   2.586   3.322 -1.2309  1.2626  0.4192
 4583TIP3   OH213712   4.419   6.401   2.840 -0.2868 -0.0013 -0.0835
 4583TIP3    H113713   4.375   6.472   2.886  0.7109 -0.1205  1.0997
 4583TIP3    H213714   4.479   6.444   2.779  2.1668  0.3094  2.3606
 4584TIP3   OH213715   2.782   0.693   5.743 -0.0099 -0.3144 -0.2074
 4584TIP3    H113716   2.829   0.685   5.826 -0.5743  0.1410  0.1627
 4584TIP3    H213717   2.691   0.704   5.767 -0.3189 -1.1887 -0.9251
 4585TIP3   OH213718   6.207   3.485   1.426 -0.2746  0.4761 -0.3444
 4585TIP3    H113719   6.269   3.551   1.394  0.0924 -0.0262 -0.6871
 4585TIP3    H213720   6.121   3.522   1.407 -0.1005  1.3269  0.4198
 4586TIP3   OH213721   3.352   0.807   2.981 -0.3732  0.1047  0.3605
 4586TIP3    H113722   3.345   0.894   2.943  1.2308 -0.4039 -1.2820
 4586TIP3    H213723   3.446   0.792   2.990 -0.6058 -1.4345  0.6217
 4587TIP3   OH213724   4.970   2.762   2.905  0.2048  0.0959 -0.1115
 4587TIP3    H113725   4.986   2.856   2.899  2.5017 -0.2158  0.4065
 4587TIP3    H213726   5.008   2.726   2.825  1.7567 -0.6265  0.9019
 4588TIP3   OH213727   7.145   5.030   2.568 -0.0922  0.1690 -0.5264
 4588TIP3    H113728   7.178   5.095   2.630  0.0685 -1.0306  0.6898
 4588TIP3    H213729   7.215   5.023   2.502 -0.4892  1.8316 -1.1934
 4589TIP3   OH213730   1.092   1.863   1.996 -0.5716 -0.1088 -0.5368
 4589TIP3    H113731   1.157   1.915   1.948 -0.3036  0.9035  0.8742
 4589TIP3    H213732   1.012   1.871   1.943 -0.2232  0.7728 -0.9530
 4590TIP3   OH213733   3.876   3.895   1.062 -0.3625  0.2668  0.0845
 4590TIP3    H113734   3.856   3.805   1.088  0.7073 -0.1864 -0.6049
 4590TIP3    H213735   3.791   3.933   1.038 -0.7022 -0.8619 -0.5365
 4591TIP3   OH213736   0.949   3.332   3.892 -0.1282  0.2632 -0.2974
 4591TIP3    H113737   0.889   3.290   3.831 -1.8652 -0.9317  2.0630
 4591TIP3    H213738   1.036   3.301   3.865 -0.8911 -0.7611 -1.7281
 4592TIP3   OH213739   0.672   2.950   0.561  0.1851  0.1740  0.5478
 4592TIP3    H113740   0.614   2.898   0.616  1.7031 -0.5077  1.6009
 4592TIP3    H213741   0.634   3.037   0.560 -1.8647 -0.6793 -0.4092
 4593TIP3   OH213742   2.084   0.226   2.928 -0.2978 -0.0848 -0.2069
 4593TIP3    H113743   2.030   0.148   2.937 -0.1635 -0.0513  1.0616
 4593TIP3    H213744   2.029   0.297   2.964  0.5427 -0.0437  1.0494
 4594TIP3   OH213745   0.099   3.712   3.994 -0.3617 -0.0969  0.4091
 4594TIP3    H113746   0.105   3.637   3.935 -0.1763  0.8962 -0.8844
 4594TIP3    H213747   0.177   3.705   4.049  0.9812  0.4433 -1.3331
 4595TIP3   OH213748   0.466   4.493   2.899 -0.0056 -0.1317 -0.3118
 4595TIP3    H113749   0.543   4.550   2.904  0.1287 -0.4092  1.8239
 4595TIP3    H213750   0.492   4.413   2.947 -0.8694 -1.1699 -1.5092
 4596TIP3   OH213751   0.020   0.395   1.819  0.0357  0.3356  0.1305
 4596TIP3    H113752   0.095   0.453   1.833  0.2509 -0.0330  0.5116
 4596TIP3    H213753   0.038   0.319   1.874 -0.3027 -0.0429 -0.2832
 4597TIP3   OH213754   4.573   4.130   3.987  0.0930 -0.4679 -0.9089
 4597TIP3    H113755   4.666   4.151   3.987  0.7386 -3.0147  0.4694
 4597TIP3    H213756   4.563   4.065   3.918 -0.6533 -0.2726 -0.9921
 4598TIP3   OH213757   5.840   2.044   1.381  0.0257 -0.0040 -0.2788
 4598TIP3    H113758   5.759   2.003   1.349 -1.2288  1.0367  1.3588
 4598TIP3    H213759   5.883   2.077   1.303 -1.3304 -0.2770 -1.1735
 4599TIP3   OH213760   2.921   6.408   3.337 -0.1781 -0.0516 -0.2944
 4599TIP3    H113761   3.002   6.454   3.314  0.3041 -0.5724  0.3385
 4599TIP3    H213762   2.852   6.474   3.326  0.2959  0.3384 -1.0413
 4600TIP3   OH213763   0.511   6.301   1.748  0.1046  0.0237  0.0052
 4600TIP3    H113764   0.506   6.355   1.827  0.6012  0.6322 -0.3718
 4600TIP3    H213765   0.582   6.239   1.766  0.9106  0.8233 -0.3515
 4601TIP3   OH213766   5.192   4.684   1.940  0.5163  0.0543  0.5948
 4601TIP3    H113767   5.101   4.681   1.971  0.1893  0.7607 -0.2498
 4601TIP3    H213768   5.240   4.728   2.010  0.1568 -0.0537  0.9143
 4602TIP3   OH213769   5.028   4.444   1.042  0.0366  0.3704 -0.4607
 4602TIP3    H113770   4.959   4.395   0.997 -0.6449  0.2603  0.6625
 4602TIP3    H213771   4.985   4.479   1.120  1.4167 -0.3243  0.6627
 4603TIP3   OH213772   2.322   4.405   3.504 -0.0403 -0.5637  0.2243
 4603TIP3    H113773   2.406   4.366   3.531 -0.3668 -1.8751 -0.5505
 4603TIP3    H213774   2.285   4.440   3.585  1.0135 -0.4264  0.6695
 4604TIP3   OH213775   1.603   1.145   1.861 -0.2017  0.3690 -0.2019
 4604TIP3    H113776   1.624   1.160   1.953  1.1480 -0.4212 -0.3514
 4604TIP3    H213777   1.683   1.171   1.814 -1.2657  1.8769 -1.2743
 4605TIP3   OH213778   3.368   6.509   2.456  0.3333 -0.6034  0.1806
 4605TIP3    H113779   3.300   6.573   2.474  0.3077  0.8995 -4.0202
 4605TIP3    H213780   3.321   6.427   2.439 -0.5569  0.2980 -2.1605
 4606TIP3   OH213781   2.799   3.546   3.230 -0.1467  0.7790 -0.3362
 4606TIP3    H113782   2.864   3.476   3.223  0.0779  0.5737  2.6521
 4606TIP3    H213783   2.715   3.501   3.228 -0.0153  0.4191  1.0379
 4607TIP3   OH213784   2.972   1.289   1.671  0.2028 -0.0844  0.1947
 4607TIP3    H113785   3.066   1.295   1.658  0.4728 -2.1445  0.8941
 4607TIP3    H213786   2.944   1.218   1.613 -1.1218  1.1753 -0.8034
 4608TIP3   OH213787   5.653   3.992   0.824  0.3795  0.1534  0.3977
 4608TIP3    H113788   5.698   3.961   0.745 -0.9106 -1.5418  0.2839
 4608TIP3    H213789   5.700   3.951   0.897  0.9589  0.9310  0.4725
 4609TIP3   OH213790   5.908   4.328   3.373 -0.4855 -0.4662 -0.2536
 4609TIP3    H113791   5.831   4.287   3.335 -1.6736 -0.9681  2.4626
 4609TIP3    H213792   5.949   4.259   3.426  1.6785 -0.1089 -1.3492
 4610TIP3   OH213793   1.508   1.883   0.767 -0.5165 -0.2945 -0.5297
 4610TIP3    H113794   1.508   1.961   0.823  0.6166 -0.2576 -0.5467
 4610TIP3    H213795   1.552   1.816   0.820  0.4762 -0.2924 -1.3211
 4611TIP3   OH213796   3.126   2.506   0.022 -0.0835 -0.2361  0.3163
 4611TIP3    H113797   3.112   2.411   0.023  0.2073 -0.3504 -1.5558
 4611TIP3    H213798   3.221   2.516   0.019 -0.1297 -0.0059 -1.6738
 4612TIP3   OH213799   2.543   3.438   3.158 -0.3550 -0.4391 -0.0258
 4612TIP3    H113800   2.530   3.465   3.067  1.3368  1.3078  0.1729
 4612TIP3    H213801   2.457   3.448   3.198 -0.5168  1.8394 -0.7616
 4613TIP3   OH213802   5.811   3.116   2.191 -0.3228  0.1807 -0.1322
 4613TIP3    H113803   5.768   3.202   2.201  1.8942  1.7459 -2.8503
 4613TIP3    H213804   5.874   3.113   2.263 -0.7824  0.5823  0.2983
 4614TIP3   OH213805   4.792   0.586   1.671 -0.2073 -0.1062 -0.3169
 4614TIP3    H113806   4.844   0.656   1.712  0.7748 -0.7064 -0.5212
 4614TIP3    H213807   4.845   0.557   1.597  0.0101 -1.9527  0.5152
 4615TIP3   OH213808   0.385   6.582   5.137  0.6958  0.0443 -0.0976
 4615TIP3    H113809   0.378   6.575   5.042 -0.3171  0.7164 -0.0901
 4615TIP3    H213810   0.317   6.524   5.171  0.3467  0.6066  0.1847
 4616TIP3   OH213811   2.164   2.923   3.261  0.6044  0.6626 -0.2760
 4616TIP3    H113812   2.186   2.910   3.353  1.2058 -0.0580 -0.5104
 4616TIP3    H213813   2.245   2.957   3.222  0.3643  0.9222 -0.5540
 4617TIP3   OH213814   3.588   4.162   0.650 -0.0259 -0.6155 -0.5588
 4617TIP3    H113815   3.514   4.162   0.710 -0.0756 -3.9002 -0.4817
 4617TIP3    H213816   3.553   4.131   0.567  0.7710  0.3953 -1.3042
 4618TIP3   OH213817   5.588   0.877   1.366 -0.3084  0.1614  0.5618
 4618TIP3    H113818   5.596   0.837   1.453  0.1476  1.1103  0.9728
 4618TIP3    H213819   5.667   0.850   1.321 -0.5184 -0.2878  0.4607
 4619TIP3   OH213820   0.135   3.737   2.080 -0.4553 -0.5934  0.4463
 4619TIP3    H113821   0.224   3.751   2.113 -0.8668  1.8680  0.7037
 4619TIP3    H213822   0.083   3.721   2.159 -0.7821  1.5328  0.7423
 4620TIP3   OH213823   2.207   6.005   2.113  0.6280  0.3744 -0.3668
 4620TIP3    H113824   2.194   5.915   2.143  0.6739  0.6065  0.3649
 4620TIP3    H213825   2.301   6.014   2.102  0.6356  0.3715 -0.3043
 4621TIP3   OH213826   4.873   3.357   1.111 -0.1695  0.4603 -0.2180
 4621TIP3    H113827   4.848   3.447   1.133 -2.1092 -0.5568  2.0842
 4621TIP3    H213828   4.808   3.329   1.046 -0.9750  0.0033  0.7688
 4622TIP3   OH213829   2.662   3.238   5.548 -0.1270  0.2012 -0.0800
 4622TIP3    H113830   2.751   3.210   5.570  0.1928  1.6425  0.5872
 4622TIP3    H213831   2.625   3.164   5.500  0.1505 -1.9719  2.7588
 4623TIP3   OH213832   1.522   0.692   4.026  0.4117  0.3643  0.0639
 4623TIP3    H113833   1.463   0.620   4.050 -1.2214  1.8296  0.5773
 4623TIP3    H213834   1.511   0.757   4.095  3.8701  0.0845  1.0866
 4624TIP3   OH213835   0.125   4.448   1.958  0.0694 -0.0607  0.4504
 4624TIP3    H113836   0.039   4.471   1.994 -0.6000 -2.5012  0.5653
 4624TIP3    H213837   0.185   4.463   2.031 -0.3389  1.0049  0.5864
 4625TIP3   OH213838   1.623   6.356   2.408 -0.0600 -0.1351 -0.6684
 4625TIP3    H113839   1.643   6.299   2.482  1.3953  1.0674 -0.0787
 4625TIP3    H213840   1.708   6.377   2.371 -0.7358 -0.2722 -2.3742
 4626TIP3   OH213841   4.869   4.025   5.109  0.1679  0.6215 -0.1859
 4626TIP3    H113842   4.911   3.972   5.176  0.2850  2.5209  1.3405
 4626TIP3    H213843   4.786   4.052   5.148 -0.4747  0.5480 -1.4275
 4627TIP3   OH213844   5.370   3.167   1.147 -0.2790  0.0106  0.6271
 4627TIP3    H113845   5.381   3.161   1.242 -0.3049  1.9063  0.7861
 4627TIP3    H213846   5.389   3.258   1.126  0.0628 -0.4388 -1.2534
 4628TIP3   OH213847   1.361   6.140   4.142  0.4788  0.2046  0.0234
 4628TIP3    H113848   1.420   6.067   4.155  0.0366 -0.1118  0.2778
 4628TIP3    H213849   1.306   6.141   4.220 -1.8088 -1.3410 -1.4344
 4629TIP3   OH213850   6.151   1.162   2.087 -0.5426  0.0604 -0.2588
 4629TIP3    H113851   6.202   1.231   2.044  0.3235 -1.2034 -1.3333
 4629TIP3    H213852   6.118   1.203   2.167  0.9565  1.3514 -0.2595
 4630TIP3   OH213853   1.938   4.755   2.850  0.4331 -0.1768  0.2261
 4630TIP3    H113854   1.983   4.839   2.849  0.5850 -0.2579 -0.0097
 4630TIP3    H213855   2.006   4.691   2.828 -0.1423 -0.1216 -2.0030
 4631TIP3   OH213856   6.034   1.082   4.787  0.3222 -0.4644  0.1632
 4631TIP3    H113857   6.092   1.058   4.860 -0.1390  0.8055  0.9789
 4631TIP3    H213858   6.079   1.051   4.709  1.6076 -0.4125  0.8641
 4632TIP3   OH213859   2.959   6.526   2.302 -0.3450  0.0736  0.5126
 4632TIP3    H113860   2.934   6.532   2.209  1.3789 -2.0904 -0.1699
 4632TIP3    H213861   2.920   6.603   2.342 -2.1504  0.4569 -1.7766
 4633TIP3   OH213862   4.017   2.591   5.735  0.1449 -0.0889  1.0094
 4633TIP3    H113863   3.958   2.533   5.687 -0.9200  1.5810  0.2551
 4633TIP3    H213864   4.092   2.603   5.677 -1.0153  1.7052 -0.1749
 4634TIP3   OH213865   0.619   6.782   4.910  0.3693  0.4350 -0.3118
 4634TIP3    H113866   0.527   6.798   4.890  0.1087  1.7915  1.5965
 4634TIP3    H213867   0.644   6.710   4.853 -1.7221  0.3713 -1.2609
 4635TIP3   OH213868   6.776   1.424   0.449  0.5632 -0.3022 -0.3002
 4635TIP3    H113869   6.818   1.418   0.363  2.0112 -3.0468  0.4560
 4635TIP3    H213870   6.699   1.367   0.442 -0.0870  0.5361 -0.1399
 4636TIP3   OH213871   6.640   4.976   5.107 -0.0069 -0.6794  0.3124
 4636TIP3    H113872   6.713   5.035   5.128 -0.5198 -0.1112  0.5124
 4636TIP3    H213873   6.643   4.966   5.012 -0.6394  0.6317  0.1342
 4637TIP3   OH213874   7.190   6.186   0.222  0.0433  0.4304 -0.4892
 4637TIP3    H113875   7.160   6.177   0.132  0.6766 -1.0078 -0.5846
 4637TIP3    H213876   7.113   6.217   0.270 -1.2539 -1.8449 -0.9716
 4638TIP3   OH213877   5.948   1.205   2.966 -0.2794  0.1203 -0.3880
 4638TIP3    H113878   5.868   1.195   3.018 -0.3726 -0.4505 -0.6272
 4638TIP3    H213879   5.917   1.206   2.875  0.0167 -0.4995 -0.4979
 4639TIP3   OH213880   6.248   3.451   5.500 -0.2627 -0.2990 -0.0891
 4639TIP3    H113881   6.162   3.422   5.531 -0.0084 -0.2475  0.6763
 4639TIP3    H213882   6.292   3.370   5.473 -1.6990 -0.0975 -3.6084
 4640TIP3   OH213883   1.084   2.531   4.189 -0.4210 -0.5030 -0.3182
 4640TIP3    H113884   1.000   2.531   4.144  0.0837  0.6401 -1.3062
 4640TIP3    H213885   1.147   2.500   4.124  0.0700 -0.4559  0.1205
 4641TIP3   OH213886   7.214  -0.008   0.837  0.5722  0.1677  0.3821
 4641TIP3    H113887   7.252   0.069   0.794  2.5911 -2.3011 -2.6193
 4641TIP3    H213888   7.120   0.009   0.837  0.8080  1.9023 -1.7728
 4642TIP3   OH213889   3.362   2.973   3.372  0.5238 -0.3255  0.0627
 4642TIP3    H113890   3.276   2.931   3.375  0.2033  0.2700 -0.5148
 4642TIP3    H213891   3.424   2.900   3.375  0.0124 -0.7454  0.7952
 4643TIP3   OH213892   3.572   4.482   2.404 -0.4880  0.3411 -0.1927
 4643TIP3    H113893   3.631   4.464   2.331 -0.9699  2.3023 -1.1084
 4643TIP3    H213894   3.631   4.496   2.479 -0.0285 -3.5734  0.4033
 4644TIP3   OH213895   4.691   2.875   5.234 -0.3303 -0.6848  0.5221
 4644TIP3    H113896   4.660   2.866   5.145 -0.6098  0.8091  0.4425
 4644TIP3    H213897   4.677   2.789   5.274  0.1514 -1.4758 -0.9595
 4645TIP3   OH213898   1.610   5.378   0.445  0.3290 -0.1988  0.0883
 4645TIP3    H113899   1.566   5.327   0.513 -0.3839 -1.4053 -1.2290
 4645TIP3    H213900   1.702   5.352   0.452  0.0854 -1.1645 -0.1017
 4646TIP3   OH213901   3.755   2.288   3.533 -0.8563 -0.3072 -0.4115
 4646TIP3    H113902   3.770   2.200   3.500 -1.8784 -0.4525 -0.5198
 4646TIP3    H213903   3.667   2.285   3.572 -1.2711  0.8796 -1.1896
 4647TIP3   OH213904   5.655   5.210   5.282  0.2739  0.1804 -1.0107
 4647TIP3    H113905   5.643   5.202   5.377  1.8420  1.6389 -0.6398
 4647TIP3    H213906   5.571   5.244   5.250 -0.6099 -1.2673 -0.3168
 4648TIP3   OH213907   2.214   3.447   3.807  0.1033  0.5834  0.2952
 4648TIP3    H113908   2.175   3.401   3.882  0.1471 -0.3824 -0.2573
 4648TIP3    H213909   2.146   3.447   3.740 -0.1900  2.0875  0.5589
 4649TIP3   OH213910   0.610   1.665   4.841  0.1600 -0.0293  0.6272
 4649TIP3    H113911   0.529   1.681   4.889  0.2392  1.4133  0.3223
 4649TIP3    H213912   0.624   1.744   4.790 -0.2177 -1.6904 -2.2580
 4650TIP3   OH213913   5.046   2.388   3.205  0.6327 -0.1541 -0.1170
 4650TIP3    H113914   5.064   2.295   3.216  0.8342 -0.1916 -0.7015
 4650TIP3    H213915   5.055   2.403   3.110 -0.7060  0.1816 -0.2137
 4651TIP3   OH213916   1.343   0.726   3.445  0.1083 -0.0880 -0.3406
 4651TIP3    H113917   1.318   0.642   3.406  2.4919 -1.8206  1.5637
 4651TIP3    H213918   1.293   0.730   3.527 -0.2802  0.5650 -0.6017
 4652TIP3   OH213919   6.906   3.517   4.421  0.1555 -0.3771  0.5598
 4652TIP3    H113920   6.841   3.587   4.426  1.2307  0.6097  1.1569
 4652TIP3    H213921   6.900   3.473   4.506  0.7782  0.1967  0.9079
 4653TIP3   OH213922   0.137   2.664   1.047  0.0677 -0.3461 -0.2635
 4653TIP3    H113923   0.056   2.645   1.094  1.6914 -1.3243  2.2859
 4653TIP3    H213924   0.107   2.710   0.968 -2.8024  2.0762  1.9695
 4654TIP3   OH213925   4.397   0.107   3.711  0.2365  0.1568  0.6828
 4654TIP3    H113926   4.424   0.030   3.761  2.7484  1.8194  2.0515
 4654TIP3    H213927   4.324   0.144   3.761  0.2622 -0.2606  1.0317
 4655TIP3   OH213928   0.165   6.276   1.659  0.2384 -0.0265 -0.3312
 4655TIP3    H113929   0.193   6.350   1.713  0.8843  1.1208 -2.1401
 4655TIP3    H213930   0.244   6.247   1.614 -0.4656 -0.1674 -1.5434
 4656TIP3   OH213931   3.783   6.748   2.754  0.3541  0.6509  0.1018
 4656TIP3    H113932   3.714   6.682   2.759 -0.7180  1.7927  1.2087
 4656TIP3    H213933   3.765   6.795   2.673  2.7097 -1.9769 -2.1642
 4657TIP3   OH213934   5.665   1.211   4.466  0.0137 -0.0511 -0.2453
 4657TIP3    H113935   5.725   1.195   4.394  0.4936 -2.6323  0.6222
 4657TIP3    H213936   5.694   1.153   4.536 -2.5806 -0.3313  0.7440
 4658TIP3   OH213937   1.057   1.377   4.401 -0.4068  0.2828 -0.1111
 4658TIP3    H113938   1.107   1.354   4.479 -1.4250 -0.0548  0.4620
 4658TIP3    H213939   1.123   1.391   4.333  0.4166 -1.4148  0.2744
 4659TIP3   OH213940   1.649   1.909   4.535  0.6066  0.1493 -0.0830
 4659TIP3    H113941   1.677   1.824   4.568  0.2059  0.1108  0.1579
 4659TIP3    H213942   1.692   1.917   4.449 -0.6488 -1.0077 -0.8407
 4660TIP3   OH213943   3.884   0.609   1.845  0.4984 -0.4808  0.6069
 4660TIP3    H113944   3.898   0.539   1.909  0.4725 -1.1136 -0.0613
 4660TIP3    H213945   3.971   0.624   1.808  0.3206 -0.9072  0.0024
 4661TIP3   OH213946   3.741   4.957   4.730 -0.3800 -0.5184 -0.3697
 4661TIP3    H113947   3.645   4.951   4.738 -0.4126 -1.7845 -1.3075
 4661TIP3    H213948   3.760   5.050   4.739 -1.6441 -0.3090  0.4122
 4662TIP3   OH213949   1.605   5.918   3.197  0.3749  0.0304  0.8086
 4662TIP3    H113950   1.680   5.959   3.241  0.2193 -0.3442  1.4325
 4662TIP3    H213951   1.529   5.948   3.247  0.2154 -0.5799  0.9391
 4663TIP3   OH213952   6.315   1.433   3.805 -0.1455  0.4599  0.0536
 4663TIP3    H113953   6.367   1.359   3.774  1.6839  1.5998  0.2470
 4663TIP3    H213954   6.379   1.500   3.827 -1.4656  0.8852  3.2734
 4664TIP3   OH213955   5.067   4.327   3.867  0.8232  0.2398  1.1147
 4664TIP3    H113956   5.014   4.250   3.890  0.2671  0.0026 -0.7552
 4664TIP3    H213957   5.063   4.383   3.945 -1.5811 -0.1245  1.3367
 4665TIP3   OH213958   5.077   6.227   3.520  0.2160  0.1880 -0.3933
 4665TIP3    H113959   5.059   6.306   3.570  3.1345  0.4759  0.4253
 4665TIP3    H213960   5.121   6.169   3.583  0.0040 -1.2353 -1.5168
 4666TIP3   OH213961   3.249   1.342   3.039  0.0830  0.3681 -0.2379
 4666TIP3    H113962   3.299   1.387   2.971 -1.6418  2.4404 -0.2596
 4666TIP3    H213963   3.203   1.272   2.993 -1.1408  1.8016 -1.3325
 4667TIP3   OH213964   2.761   0.378   2.046 -0.2644  0.5011  0.3082
 4667TIP3    H113965   2.812   0.330   1.981 -1.1781  1.1148 -0.8880
 4667TIP3    H213966   2.692   0.316   2.072 -1.0352  0.8963 -0.7320
 4668TIP3   OH213967   3.581   5.793   0.730  0.2102  0.4712 -0.3630
 4668TIP3    H113968   3.651   5.778   0.667 -0.8990 -1.7734 -1.1662
 4668TIP3    H213969   3.501   5.792   0.678 -0.7339 -1.3516  1.0078
 4669TIP3   OH213970   2.571   6.412   2.710  0.3077  0.1295  0.2342
 4669TIP3    H113971   2.605   6.459   2.785 -2.9646 -0.7227  2.4509
 4669TIP3    H213972   2.539   6.480   2.651  2.9734  0.8066 -0.5940
 4670TIP3   OH213973   1.871   5.849   3.773 -0.1633 -0.4660  0.1441
 4670TIP3    H113974   1.957   5.859   3.732 -0.4896  0.3696 -0.3530
 4670TIP3    H213975   1.817   5.918   3.734 -0.4078  0.5607  2.1490
 4671TIP3   OH213976   5.007   3.600   0.281  0.5340 -0.7039  0.1863
 4671TIP3    H113977   5.060   3.523   0.297  3.1949  1.1285  0.7764
 4671TIP3    H213978   5.056   3.650   0.215 -0.5795  0.9765  0.5669
 4672TIP3   OH213979   1.446   3.793   5.363  0.0642  0.4333  0.2602
 4672TIP3    H113980   1.469   3.821   5.274  0.5447  0.6386  0.4441
 4672TIP3    H213981   1.405   3.870   5.402 -1.2861 -0.0237 -0.1683
 4673TIP3   OH213982   3.353   4.246   0.503  0.1825 -0.0001 -0.6483
 4673TIP3    H113983   3.353   4.187   0.427  0.7263  1.1742 -1.5961
 4673TIP3    H213984   3.392   4.327   0.470  0.8291  0.4037  1.0031
 4674TIP3   OH213985   0.288   6.241   2.634  0.5885  0.0074 -0.0004
 4674TIP3    H113986   0.262   6.150   2.624 -2.5626  0.8685 -0.8583
 4674TIP3    H213987   0.378   6.244   2.602 -0.2127 -2.2735 -2.8396
 4675TIP3   OH213988   5.015   2.926   0.253  0.5045  0.2098  0.4317
 4675TIP3    H113989   5.029   3.015   0.285 -2.9554  1.1871 -0.4356
 4675TIP3    H213990   5.029   2.931   0.158 -1.8841  0.4499  0.0403
 4676TIP3   OH213991   1.743   6.106   4.129  0.1011  0.1802 -0.1417
 4676TIP3    H113992   1.830   6.093   4.164  0.3898  1.5580 -0.3219
 4676TIP3    H213993   1.689   6.130   4.204 -0.1223 -0.5784 -0.0459
 4677TIP3   OH213994   6.016   1.962   0.642 -0.1010  0.1919  0.0623
 4677TIP3    H113995   6.038   1.904   0.715 -1.6459  1.9265  2.0345
 4677TIP3    H213996   5.951   1.913   0.592  0.8867 -0.9843 -0.1156
 4678TIP3   OH213997   5.624   0.973   3.795 -0.0947  0.1971  0.0227
 4678TIP3    H113998   5.719   0.965   3.787  0.1707  2.2380  0.5296
 4678TIP3    H213999   5.590   0.962   3.706  0.6346 -0.3266 -0.1913
 4679TIP3   OH214000   6.169   2.305   2.589  0.0690 -0.1181 -0.0084
 4679TIP3    H114001   6.222   2.240   2.636 -0.9856  0.0069  1.4148
 4679TIP3    H214002   6.129   2.255   2.517  2.6606 -0.0433 -1.6379
 4680TIP3   OH214003   4.275   0.993   2.980  0.0774 -0.2163 -0.0540
 4680TIP3    H114004   4.329   0.968   2.905 -0.0362  0.1540 -0.2676
 4680TIP3    H214005   4.186   0.964   2.957 -0.1599  0.8099 -0.5452
 4681TIP3   OH214006   3.313   6.714   1.017 -0.4218  0.1616 -0.1204
 4681TIP3    H114007   3.217   6.714   1.013 -0.3968 -0.9980 -1.1860
 4681TIP3    H214008   3.335   6.800   1.053 -1.8673  0.2686  0.5772
 4682TIP3   OH214009   2.163   1.868   1.667  0.3096  0.2648  0.1968
 4682TIP3    H114010   2.155   1.773   1.659  1.4423  0.0622  1.1482
 4682TIP3    H214011   2.218   1.894   1.593 -1.2223  0.4089 -0.9347
 4683TIP3   OH214012   3.361   1.944   4.741 -0.5435  0.0016  0.3786
 4683TIP3    H114013   3.440   1.982   4.781  0.7511 -1.4946 -0.6256
 4683TIP3    H214014   3.394   1.894   4.667 -2.5839  0.2101 -0.7288
 4684TIP3   OH214015   3.683   0.592   4.206  0.1387 -0.4528 -0.0560
 4684TIP3    H114016   3.756   0.532   4.191  0.0158 -0.7931  0.6679
 4684TIP3    H214017   3.647   0.608   4.119  1.1949 -0.1223 -0.4565
 4685TIP3   OH214018   6.412   0.088   5.568  0.1887  0.0446  0.5801
 4685TIP3    H114019   6.345   0.068   5.633 -0.7331 -0.3806 -0.4715
 4685TIP3    H214020   6.390   0.176   5.536  1.3807  0.7932  1.7089
 4686TIP3   OH214021   1.084   1.741   2.429 -0.0214  0.5174  0.9272
 4686TIP3    H114022   1.167   1.770   2.468 -0.3879  2.7573  0.2013
 4686TIP3    H214023   1.110   1.700   2.347  0.4225  0.6447  0.9997
 4687TIP3   OH214024   6.991   2.367   2.342  0.3858 -0.0097  0.2010
 4687TIP3    H114025   7.026   2.456   2.352 -0.0827  0.2365 -0.2681
 4687TIP3    H214026   6.989   2.354   2.247 -1.6341  0.3307  0.1577
 4688TIP3   OH214027   0.603   2.380   2.157 -0.0894  0.3878  0.1076
 4688TIP3    H114028   0.601   2.332   2.240  1.2663  1.2232  0.6509
 4688TIP3    H214029   0.695   2.404   2.145 -0.5758  2.0236 -0.6324
 4689TIP3   OH214030   3.182   0.409   4.129 -0.0893 -0.5041 -0.1947
 4689TIP3    H114031   3.136   0.326   4.120  0.3072 -0.6944 -0.4740
 4689TIP3    H214032   3.140   0.467   4.066 -0.2247 -0.5565 -0.1526
 4690TIP3   OH214033   0.359   5.736   4.194 -0.0736 -0.0240 -0.2524
 4690TIP3    H114034   0.360   5.719   4.100 -3.8086 -0.4781 -0.3470
 4690TIP3    H214035   0.304   5.813   4.204 -0.8962 -0.7927  1.6244
 4691TIP3   OH214036   2.732   6.189   5.564 -0.3216 -0.3117  0.2848
 4691TIP3    H114037   2.798   6.214   5.500  0.0854  0.1460  0.8674
 4691TIP3    H214038   2.649   6.217   5.525 -0.1948 -1.0287 -0.5186
 4692TIP3   OH214039   6.725   5.792   3.021  0.7195  0.5520 -0.7583
 4692TIP3    H114040   6.763   5.878   3.043  2.6570 -0.2403 -0.7693
 4692TIP3    H214041   6.782   5.730   3.066 -1.8793 -0.7010  0.9733
 4693TIP3   OH214042   0.437   3.577   5.392  0.2581 -0.4786  0.3354
 4693TIP3    H114043   0.394   3.656   5.424  2.0479  0.9855 -0.7075
 4693TIP3    H214044   0.386   3.552   5.315  0.7574  0.8171 -0.4577
 4694TIP3   OH214045   0.802   3.564   1.054  0.0107  0.5119 -0.5077
 4694TIP3    H114046   0.826   3.482   1.099 -0.9486  0.7761  0.5531
 4694TIP3    H214047   0.872   3.625   1.075  1.2878 -0.3193 -2.1995
 4695TIP3   OH214048   7.104   5.149   5.186 -0.4094 -0.0733 -0.0326
 4695TIP3    H114049   7.141   5.233   5.160  0.6717 -0.7184 -0.6543
 4695TIP3    H214050   7.167   5.114   5.249  0.3703 -1.4251 -1.4985
 4696TIP3   OH214051   4.230   1.536   2.726  0.3051 -0.5862  0.0750
 4696TIP3    H114052   4.243   1.602   2.794  1.8790 -1.3733  0.5853
 4696TIP3    H214053   4.135   1.532   2.713  0.1149  0.8653  0.9230
 4697TIP3   OH214054   2.252   2.614   0.045 -0.2175 -0.4590  0.3479
 4697TIP3    H114055   2.205   2.538   0.010  0.4732 -1.0736  0.7273
 4697TIP3    H214056   2.292   2.655  -0.032  0.9054 -1.5346  0.3326
 4698TIP3   OH214057   2.217   3.828   5.441  0.1011  0.1567  0.0402
 4698TIP3    H114058   2.147   3.801   5.501  0.3892 -0.1211  0.2557
 4698TIP3    H214059   2.185   3.803   5.354  0.9150 -2.1332  0.3431
 4699TIP3   OH214060   3.845   5.065   0.183 -0.7037 -0.1633  0.2476
 4699TIP3    H114061   3.774   5.103   0.236 -0.0394  1.2243  0.1739
 4699TIP3    H214062   3.914   5.047   0.246 -0.2478  0.6662 -0.0021
 4700TIP3   OH214063   1.283   1.372   5.841  0.4070 -0.5291  0.2023
 4700TIP3    H114064   1.329   1.352   5.760 -2.1734  1.8634 -2.0667
 4700TIP3    H214065   1.346   1.422   5.893  2.5050 -3.1047  0.3531
 4701TIP3   OH214066   2.817   0.041   3.671 -0.5444 -0.2460  0.0050
 4701TIP3    H114067   2.782   0.119   3.629 -0.2556 -0.5507 -0.8172
 4701TIP3    H214068   2.909   0.060   3.685 -0.2984 -0.7242 -0.9022
 4702TIP3   OH214069   1.956   4.840   5.359  0.4233 -0.1219  0.2022
 4702TIP3    H114070   1.939   4.870   5.449  1.4971 -0.3291  0.4873
 4702TIP3    H214071   2.051   4.835   5.353  0.4818  2.0282 -1.6722
 4703TIP3   OH214072   5.630   6.285   1.007  0.6636  0.5173 -0.2702
 4703TIP3    H114073   5.595   6.373   1.024 -0.0331  0.0485  0.7898
 4703TIP3    H214074   5.632   6.243   1.092  2.0655 -0.1305 -0.5897
 4704TIP3   OH214075   1.230   4.907   4.739 -0.2560 -0.7899 -0.3508
 4704TIP3    H114076   1.229   4.886   4.645 -0.8536 -0.9954 -0.3050
 4704TIP3    H214077   1.316   4.946   4.754 -0.2129 -0.6072 -1.0206
 4705TIP3   OH214078   3.635   6.281   0.877 -0.2547 -0.8542 -0.1492
 4705TIP3    H114079   3.630   6.259   0.784  0.6535  1.1300 -0.7199
 4705TIP3    H214080   3.574   6.353   0.888 -1.7260 -2.2269  1.2387
 4706TIP3   OH214081   3.617   3.766   4.744  0.0247  0.7269  0.7103
 4706TIP3    H114082   3.689   3.803   4.693 -0.4512  1.3865  0.5126
 4706TIP3    H214083   3.655   3.689   4.786  0.8755  1.1219  0.6850
 4707TIP3   OH214084   0.100   3.400   3.617 -0.1122  0.2777 -0.1017
 4707TIP3    H114085   0.187   3.361   3.607 -0.8151 -1.4368  0.1170
 4707TIP3    H214086   0.104   3.482   3.567  1.4107 -0.0845 -0.6280
 4708TIP3   OH214087   0.819   1.412   3.034 -0.1994 -0.0552 -0.1727
 4708TIP3    H114088   0.912   1.402   3.016 -0.0761  0.9486 -0.1731
 4708TIP3    H214089   0.785   1.460   2.958 -1.2404 -2.5949 -1.4265
 4709TIP3   OH214090   1.113   4.187   1.201 -0.0081  0.4658 -0.2891
 4709TIP3    H114091   1.019   4.196   1.213  0.1321  1.1335  0.4004
 4709TIP3    H214092   1.147   4.277   1.202  0.5815  0.2588 -0.9940
 4710TIP3   OH214093   1.682   3.764   2.742  0.2851 -0.2099  0.9683
 4710TIP3    H114094   1.601   3.736   2.701  0.8722 -1.0001  0.3203
 4710TIP3    H214095   1.666   3.854   2.769  0.0644  0.5386 -1.4989
 4711TIP3   OH214096   6.158   1.004   1.065  0.0780 -0.1692  0.0587
 4711TIP3    H114097   6.150   0.914   1.034 -0.1981 -0.5868  1.3042
 4711TIP3    H214098   6.096   1.010   1.138 -0.0403  1.0848 -0.1240
 4712TIP3   OH214099   0.635   0.951   2.225 -0.5309  0.5539 -0.0471
 4712TIP3    H114100   0.663   0.937   2.316  1.9023  2.1110 -0.4708
 4712TIP3    H214101   0.687   1.026   2.195 -0.9046 -0.2063 -2.8812
 4713TIP3   OH214102   2.932   4.875   4.662  0.6463  0.0730 -0.4825
 4713TIP3    H114103   2.986   4.796   4.672 -0.0855 -0.4560 -0.6002
 4713TIP3    H214104   2.994   4.947   4.664  1.1198 -0.2991  2.3060
 4714TIP3   OH214105   1.068   3.277   5.161 -0.0866 -0.1647  0.0259
 4714TIP3    H114106   1.046   3.274   5.254  0.4744 -1.6934  0.1453
 4714TIP3    H214107   1.139   3.340   5.155  0.4676 -0.7049  0.7841
 4715TIP3   OH214108   2.245   5.566   1.551 -0.4089  0.3313 -0.1529
 4715TIP3    H114109   2.218   5.580   1.641 -1.8413 -0.6129 -0.4151
 4715TIP3    H214110   2.170   5.525   1.509  0.8503 -0.8749 -1.3395
 4716TIP3   OH214111   7.054   6.159   2.929 -0.2564  0.3637 -0.0692
 4716TIP3    H114112   7.114   6.198   2.993  0.4882  2.5222 -1.9678
 4716TIP3    H214113   6.978   6.132   2.981  1.8441 -1.5217  2.2584
 4717TIP3   OH214114   5.873   3.507   5.446 -0.6738 -0.2757 -0.3051
 4717TIP3    H114115   5.899   3.594   5.417  0.4438 -0.1368  0.9864
 4717TIP3    H214116   5.782   3.517   5.474 -0.1003  0.9218  1.3254
 4718TIP3   OH214117   5.574   6.473   5.285  0.5788 -0.0362  0.9026
 4718TIP3    H114118   5.514   6.404   5.258  0.5044  0.4757 -0.2776
 4718TIP3    H214119   5.661   6.437   5.267  0.6577 -0.7000  2.4298
 4719TIP3   OH214120   2.227   4.287   0.930 -0.2848 -0.8807 -0.4148
 4719TIP3    H114121   2.299   4.319   0.876 -0.9149  1.0526 -0.1674
 4719TIP3    H214122   2.173   4.235   0.870  0.3162 -0.8105 -1.0301
 4720TIP3   OH214123   4.046   4.493   5.407  0.2333  0.8186 -0.1964
 4720TIP3    H114124   4.054   4.421   5.470  1.3530  0.4591 -0.7203
 4720TIP3    H214125   3.996   4.561   5.454  1.3345  0.7028  1.2198
 4721TIP3   OH214126   5.976   0.398   5.371 -0.2374 -0.9334  0.2821
 4721TIP3    H114127   5.928   0.369   5.449 -1.6390  0.8096  0.1297
 4721TIP3    H214128   5.909   0.411   5.304  0.4136  1.3056 -0.0405
 4722TIP3   OH214129   4.284   4.134   4.066 -0.1087  0.1884 -0.2313
 4722TIP3    H114130   4.362   4.079   4.060  0.0771  0.2001  1.6646
 4722TIP3    H214131   4.259   4.149   3.975  1.1056 -1.2189 -0.8393
 4723TIP3   OH214132   4.717   0.150   0.600 -0.2551  0.1330 -0.7663
 4723TIP3    H114133   4.697   0.223   0.658  0.7091 -0.4411  0.3122
 4723TIP3    H214134   4.804   0.120   0.626 -0.5000 -1.2223 -1.3779
 4724TIP3   OH214135   5.536   2.300   5.330  0.1601 -0.3193 -0.2375
 4724TIP3    H114136   5.465   2.364   5.327 -1.9037 -2.1539  3.0241
 4724TIP3    H214137   5.612   2.349   5.361 -0.7430  0.9784 -0.0070
 4725TIP3   OH214138   2.927   1.411   3.131 -0.4915 -0.0844  0.0165
 4725TIP3    H114139   2.969   1.333   3.167 -0.5926 -0.2424 -0.2043
 4725TIP3    H214140   2.883   1.451   3.206  0.3799  0.3043  0.3261
 4726TIP3   OH214141   0.638   1.952   1.122 -0.0795 -0.4594 -0.0176
 4726TIP3    H114142   0.732   1.949   1.141 -0.2413 -2.2183  0.7127
 4726TIP3    H214143   0.632   1.972   1.029  0.9755  0.7497  0.1536
 4727TIP3   OH214144   4.786   1.941   1.356 -0.3706  0.4984 -0.6266
 4727TIP3    H114145   4.692   1.944   1.374 -0.4126 -0.7779 -0.5487
 4727TIP3    H214146   4.801   2.014   1.296 -1.0963  1.7767  0.6842
 4728TIP3   OH214147   1.700   5.886   3.969  0.3351 -0.1956 -0.3198
 4728TIP3    H114148   1.713   5.971   4.009  1.5676 -0.7594  0.5431
 4728TIP3    H214149   1.781   5.869   3.921  1.0179 -1.7756  1.2714
 4729TIP3   OH214150   1.463   1.607   3.895 -0.1615  0.0598  0.2520
 4729TIP3    H114151   1.524   1.648   3.956  1.7936 -0.1707 -1.4450
 4729TIP3    H214152   1.402   1.559   3.950  1.0209  0.5208  2.0471
 4730TIP3   OH214153   0.183   2.371   2.424 -0.1081 -0.4322  0.1186
 4730TIP3    H114154   0.207   2.449   2.373 -1.6608 -0.2875 -0.4433
 4730TIP3    H214155   0.121   2.403   2.489 -0.8224 -1.2025 -0.1710
 4731TIP3   OH214156   2.751   0.271   3.513  0.2101 -0.5392  0.1480
 4731TIP3    H114157   2.843   0.278   3.539  0.8908 -1.6016 -1.8055
 4731TIP3    H214158   2.728   0.359   3.482  0.9493 -0.5687 -0.4962
 4732TIP3   OH214159   6.011   0.112   1.460  0.0773 -0.3331  0.1095
 4732TIP3    H114160   5.984   0.117   1.551  1.9422  0.6953  0.6504
 4732TIP3    H214161   5.999   0.020   1.436 -0.7677 -0.5403  1.2612
 4733TIP3   OH214162   0.325   2.981   5.053 -0.2541  0.4667 -0.0385
 4733TIP3    H114163   0.385   3.055   5.062 -0.5442  0.6806  0.1432
 4733TIP3    H214164   0.238   3.019   5.056 -0.4043  0.1844 -0.5796
 4734TIP3   OH214165   3.239   1.981   4.057  0.4935 -0.0762  0.0123
 4734TIP3    H114166   3.283   1.897   4.041 -1.5994 -1.2105 -0.1144
 4734TIP3    H214167   3.190   1.967   4.138 -0.5478  0.7317 -0.4692
 4735TIP3   OH214168   1.446   0.472   3.432 -0.0166  0.5658  1.0926
 4735TIP3    H114169   1.407   0.386   3.450  0.5622 -0.1151 -0.6755
 4735TIP3    H214170   1.513   0.482   3.500  0.2512 -0.6254  1.0327
 4736TIP3   OH214171   1.908   5.438   2.711  0.5426 -0.3929  0.5175
 4736TIP3    H114172   1.999   5.422   2.737  1.1927  0.6652 -0.9094
 4736TIP3    H214173   1.874   5.352   2.687  0.7113 -1.0010  2.3312
 4737TIP3   OH214174   0.362   5.786   3.923 -0.0642  0.0169  0.0493
 4737TIP3    H114175   0.277   5.830   3.926 -0.6009 -1.0181  0.7126
 4737TIP3    H214176   0.420   5.849   3.879 -1.2203  0.6478 -0.6389
 4738TIP3   OH214177   0.218   5.080   5.842  0.6157 -0.0263  0.1171
 4738TIP3    H114178   0.218   5.115   5.753  2.0694  0.0296  0.1257
 4738TIP3    H214179   0.285   5.130   5.888  1.3012 -1.3942  0.6884
 4739TIP3   OH214180   5.649   3.105   1.598  0.2529  0.3835  0.2020
 4739TIP3    H114181   5.730   3.147   1.569  1.3627 -0.8708  1.3572
 4739TIP3    H214182   5.593   3.177   1.627  0.1925  1.4329 -2.2906
 4740TIP3   OH214183   4.873   6.731   5.408  0.0388 -0.3308  0.5442
 4740TIP3    H114184   4.864   6.776   5.491 -1.7985  3.7452 -1.5773
 4740TIP3    H214185   4.783   6.714   5.380  0.5658 -0.6786 -1.0398
 4741TIP3   OH214186   0.198   6.828   0.195 -0.2804 -0.2231 -0.1790
 4741TIP3    H114187   0.133   6.775   0.240 -1.1093  2.1650  1.6870
 4741TIP3    H214188   0.282   6.786   0.213 -0.6927  0.0825  2.9317
 4742TIP3   OH214189   6.413   1.948   0.534  0.3512 -0.3574  0.2541
 4742TIP3    H114190   6.342   2.012   0.530 -0.0945 -0.8099  0.8437
 4742TIP3    H214191   6.493   2.001   0.543 -0.0572  0.0911  1.3077
 4743TIP3   OH214192   1.901   3.777   4.830 -1.0337  0.2290 -0.7064
 4743TIP3    H114193   1.876   3.866   4.802 -1.4374  0.2222 -0.3743
 4743TIP3    H214194   1.899   3.781   4.926 -1.3257 -0.2167 -0.6931
 4744TIP3   OH214195   3.798   5.991   1.619 -0.0494 -0.1919  0.2530
 4744TIP3    H114196   3.850   6.066   1.592 -2.1396  1.4091  0.4106
 4744TIP3    H214197   3.828   5.971   1.707  0.5671  0.4049  0.1873
 4745TIP3   OH214198   2.027   5.518   5.162 -0.7589  0.0553  0.1005
 4745TIP3    H114199   2.001   5.430   5.135 -0.1326 -0.8284  2.2203
 4745TIP3    H214200   1.997   5.526   5.253  1.9491  0.8083  1.0364
 4746TIP3   OH214201   6.639   6.794   4.586  0.0422  0.0163 -0.0918
 4746TIP3    H114202   6.671   6.704   4.573 -1.5470 -0.5762 -0.1718
 4746TIP3    H214203   6.637   6.832   4.499 -0.3935 -0.2807 -0.2138
 4747TIP3   OH214204   1.645   2.642   2.645 -0.2510 -0.3054 -0.1725
 4747TIP3    H114205   1.736   2.637   2.614 -0.9309 -0.3555 -2.3574
 4747TIP3    H214206   1.652   2.654   2.739  2.0053 -1.3973 -0.1426
 4748TIP3   OH214207   1.175   4.412   1.564 -0.4839 -0.4226  0.0363
 4748TIP3    H114208   1.231   4.393   1.639 -0.5245 -1.2729 -0.1402
 4748TIP3    H214209   1.213   4.361   1.492  0.7539  1.8722 -1.0689
 4749TIP3   OH214210   5.949   1.231   0.963  0.0483 -0.3793 -0.3779
 4749TIP3    H114211   5.984   1.267   0.881  0.3039  1.5004  0.4993
 4749TIP3    H214212   5.995   1.148   0.975 -1.0244 -1.4314 -2.8326
 4750TIP3   OH214213   1.374   0.460   0.364  0.0844  0.1518  0.6148
 4750TIP3    H114214   1.324   0.542   0.361  0.7811  0.6234  1.2197
 4750TIP3    H214215   1.461   0.485   0.333  0.0318 -0.5912 -0.1605
 4751TIP3   OH214216   5.992   3.640   3.498  0.2462  0.2630  0.4695
 4751TIP3    H114217   6.026   3.584   3.568 -0.6937  0.0674  0.7881
 4751TIP3    H214218   6.064   3.646   3.435  0.4227 -1.1642  0.5040
 4752TIP3   OH214219   1.849   5.068   3.922 -0.1115 -0.1102 -0.1373
 4752TIP3    H114220   1.796   5.138   3.884 -1.2517 -0.8882 -0.0138
 4752TIP3    H214221   1.843   5.083   4.017 -0.1435 -0.2244 -0.1214
 4753TIP3   OH214222   4.290   1.288   4.536 -0.5765 -0.1064  0.4252
 4753TIP3    H114223   4.323   1.376   4.558  0.8750 -0.6238  0.4485
 4753TIP3    H214224   4.286   1.242   4.620 -0.3646 -0.3659  0.2955
 4754TIP3   OH214225   0.683   4.347   4.868 -0.8666  0.5927 -0.5049
 4754TIP3    H114226   0.724   4.427   4.902 -2.8415  1.4706 -0.0452
 4754TIP3    H214227   0.632   4.314   4.942 -0.8042 -0.6009 -0.9806
 4755TIP3   OH214228   5.407   4.353   1.473 -0.1083  0.0243 -0.6116
 4755TIP3    H114229   5.339   4.327   1.410 -0.9926  0.4366  0.1588
 4755TIP3    H214230   5.477   4.289   1.459 -0.6798 -0.4636 -1.3629
 4756TIP3   OH214231   5.544   6.728   0.282 -0.3725 -0.0996  0.0242
 4756TIP3    H114232   5.498   6.666   0.338  0.7587  0.0078  1.1157
 4756TIP3    H214233   5.475   6.775   0.236 -1.3468 -0.2058  1.3217
 4757TIP3   OH214234   6.097   2.460   2.819 -0.6693  0.0176  0.5673
 4757TIP3    H114235   6.022   2.518   2.808 -0.0311  0.7403 -0.0813
 4757TIP3    H214236   6.108   2.419   2.733  0.0387  0.3701  0.4819
 4758TIP3   OH214237   4.077   5.018   0.365  0.2188  0.0042 -0.2892
 4758TIP3    H114238   4.140   5.073   0.412  0.4504  0.1666 -0.7903
 4758TIP3    H214239   4.046   4.956   0.432  0.7351  0.0674  0.0184
 4759TIP3   OH214240   6.195   1.491   4.534  0.4011  0.2931 -0.0588
 4759TIP3    H114241   6.243   1.409   4.543  0.5974  0.3869 -0.2569
 4759TIP3    H214242   6.191   1.506   4.440 -0.5570 -0.0365 -0.0825
 4760TIP3   OH214243   0.275   1.809   2.930  0.1899 -0.0044 -0.0129
 4760TIP3    H114244   0.211   1.757   2.883  0.4423  1.2108 -1.7917
 4760TIP3    H214245   0.354   1.805   2.876  0.3865  1.7124  0.0812
 4761TIP3   OH214246   2.047   2.563   0.960  0.1778  0.0306  0.1929
 4761TIP3    H114247   1.966   2.542   0.913 -0.3129 -0.3078  1.1687
 4761TIP3    H214248   2.084   2.478   0.983  0.7245  0.1883 -0.0857
 4762TIP3   OH214249   4.837   3.328   4.608  0.0657 -0.1275 -0.3547
 4762TIP3    H114250   4.802   3.415   4.591 -2.8619 -0.8017  1.4600
 4762TIP3    H214251   4.911   3.343   4.667 -0.1418  1.1292 -0.3844
 4763TIP3   OH214252   2.705   0.069   2.939 -0.1809 -0.4668 -0.5684
 4763TIP3    H114253   2.798   0.048   2.930  0.0578 -0.1595  0.8350
 4763TIP3    H214254   2.704   0.163   2.957 -0.6660 -0.6515  0.4642
 4764TIP3   OH214255   4.257   1.871   5.740 -0.3592  0.2498 -0.5148
 4764TIP3    H114256   4.258   1.861   5.835 -0.8329 -0.1810 -0.5502
 4764TIP3    H214257   4.214   1.792   5.708 -0.6418  0.6152 -1.0559
 4765TIP3   OH214258   5.147   2.575   3.782 -0.1746 -0.2006 -0.1942
 4765TIP3    H114259   5.174   2.487   3.757 -0.1941  0.0863 -1.2979
 4765TIP3    H214260   5.111   2.613   3.701  1.0806  1.2823 -0.1020
 4766TIP3   OH214261   0.053   3.999   3.193  0.7627 -0.4622  0.3940
 4766TIP3    H114262   0.137   4.042   3.207  0.5613 -0.0903  0.4625
 4766TIP3    H214263   0.075   3.906   3.187  0.9156 -0.6127  2.6832
 4767TIP3   OH214264   4.688   1.598   2.599 -0.2354 -0.1352 -0.1483
 4767TIP3    H114265   4.626   1.527   2.612 -0.3565 -0.0049 -0.0079
 4767TIP3    H214266   4.751   1.588   2.671 -1.7378  1.4741  1.5147
 4768TIP3   OH214267   4.839   5.759   4.499  0.3673  0.1997 -0.6079
 4768TIP3    H114268   4.900   5.699   4.542  0.5017 -0.1660 -1.2976
 4768TIP3    H214269   4.755   5.714   4.502  0.4966 -0.1005 -1.2538
 4769TIP3   OH214270   0.934   5.094   3.752 -0.0176  0.1614 -0.8635
 4769TIP3    H114271   0.906   5.118   3.663 -3.5453 -0.3671 -0.0591
 4769TIP3    H214272   0.855   5.107   3.805  1.3687 -1.6157  1.8086
 4770TIP3   OH214273   1.186   5.773   4.588 -0.9597  0.0425  0.0004
 4770TIP3    H114274   1.221   5.693   4.628 -1.6101 -1.2924 -1.9588
 4770TIP3    H214275   1.142   5.818   4.660  1.7349  0.0815  1.7849
 4771TIP3   OH214276   1.486   5.516   1.179 -0.1261  0.3976 -0.0687
 4771TIP3    H114277   1.406   5.488   1.135  1.0225 -2.6993 -0.3907
 4771TIP3    H214278   1.476   5.484   1.268  0.4733  0.5988  0.0703
 4772TIP3   OH214279   2.737   5.224   1.181  0.0711 -0.1304 -0.2312
 4772TIP3    H114280   2.740   5.271   1.265  0.8352  0.4257 -0.5592
 4772TIP3    H214281   2.669   5.268   1.131  1.0554  0.9309 -0.6904
 4773TIP3   OH214282   3.953   2.743   4.341 -0.4265 -0.2159 -1.2409
 4773TIP3    H114283   3.964   2.687   4.264  0.3961 -0.4105 -0.9881
 4773TIP3    H214284   3.865   2.723   4.372 -0.2478 -1.1776 -1.3148
 4774TIP3   OH214285   5.945   1.019   1.997 -0.3770  0.5023 -0.5252
 4774TIP3    H114286   5.878   1.085   2.013 -0.6663  0.5552 -1.8007
 4774TIP3    H214287   6.028   1.064   2.011 -0.5640  1.2261 -1.6283
 4775TIP3   OH214288   3.328   4.502   2.963 -0.0785  0.2749 -0.1357
 4775TIP3    H114289   3.269   4.539   3.028 -0.1781 -1.1292  0.6110
 4775TIP3    H214290   3.364   4.578   2.917  0.5004  1.3749  1.9917
 4776TIP3   OH214291   3.355   2.441   4.097 -0.1456 -0.0434 -0.0267
 4776TIP3    H114292   3.330   2.496   4.172 -1.6054 -1.3227  0.4696
 4776TIP3    H214293   3.396   2.502   4.036  2.2805  0.8429  2.2999
 4777TIP3   OH214294   2.214   4.345   4.384 -0.3617 -0.3514 -0.0384
 4777TIP3    H114295   2.168   4.286   4.444  1.2083 -0.8431  0.7590
 4777TIP3    H214296   2.216   4.429   4.431 -1.1234 -0.1088 -0.4284
 4778TIP3   OH214297   2.501   3.820   5.386  0.1878 -0.2393  0.1162
 4778TIP3    H114298   2.407   3.836   5.401 -0.1074 -0.3584 -1.4959
 4778TIP3    H214299   2.540   3.908   5.390 -0.3819  0.1277 -1.6828
 4779TIP3   OH214300   2.690   5.340   2.368  0.0483 -0.3473  0.6244
 4779TIP3    H114301   2.678   5.258   2.321  1.8403  0.0944 -0.7480
 4779TIP3    H214302   2.646   5.406   2.314  1.8720  0.1171 -0.4127
 4780TIP3   OH214303   4.836   5.755   5.126 -0.4272 -0.4822 -0.4059
 4780TIP3    H114304   4.842   5.850   5.114 -0.0425 -0.5423 -0.6800
 4780TIP3    H214305   4.800   5.723   5.044  1.3550 -0.7934 -1.1015
 4781TIP3   OH214306   1.097   3.838   4.358 -0.1099 -0.1407  0.2609
 4781TIP3    H114307   1.117   3.770   4.423 -0.0699 -0.3339  0.0457
 4781TIP3    H214308   1.111   3.796   4.274  1.6335  0.6386  0.1155
 4782TIP3   OH214309   4.478   6.469   0.331 -0.0312  0.3804  0.4419
 4782TIP3    H114310   4.566   6.444   0.304 -0.9184 -3.0884  0.2697
 4782TIP3    H214311   4.455   6.543   0.274  2.8690  1.7200  0.8612
 4783TIP3   OH214312   3.615   3.280   5.158  0.3015 -0.3969 -0.1077
 4783TIP3    H114313   3.639   3.277   5.251 -1.6977 -2.0221  0.4153
 4783TIP3    H214314   3.574   3.365   5.146  0.1319 -0.3747  0.6224
 4784TIP3   OH214315   1.655   5.205   5.772  0.2422  0.1242  0.2346
 4784TIP3    H114316   1.663   5.272   5.840  0.4313  0.6598 -0.3110
 4784TIP3    H214317   1.600   5.138   5.812 -1.6814  1.5228  0.0958
 4785TIP3   OH214318   4.376   5.130   5.620 -0.1330  0.4142 -0.3326
 4785TIP3    H114319   4.303   5.072   5.642  1.0498 -1.1068 -0.2534
 4785TIP3    H214320   4.395   5.111   5.528 -0.0795  1.0921 -0.4676
 4786TIP3   OH214321   5.095  -0.003   4.447 -0.3880 -0.2689  0.0344
 4786TIP3    H114322   5.000  -0.006   4.459 -0.2605  1.2242  2.0524
 4786TIP3    H214323   5.117   0.089   4.462  1.4105 -0.6829  0.0543
 4787TIP3   OH214324   4.281   6.396   5.476  0.6854  0.3423  0.7040
 4787TIP3    H114325   4.288   6.305   5.504  1.2910  0.4230  0.8318
 4787TIP3    H214326   4.322   6.446   5.546 -0.9068  0.8451  1.3223
 4788TIP3   OH214327   4.837   3.302   0.771  0.1256  0.5475  0.2276
 4788TIP3    H114328   4.771   3.268   0.831  0.7784  0.9964  1.2305
 4788TIP3    H214329   4.872   3.380   0.816 -0.2871  1.6644 -1.3184
 4789TIP3   OH214330   2.373   0.732   5.278 -0.4832 -0.7843  0.2038
 4789TIP3    H114331   2.337   0.819   5.292 -0.7020 -0.6757 -0.9791
 4789TIP3    H214332   2.331   0.678   5.345  2.3552  0.6473  3.4766
 4790TIP3   OH214333   4.553   3.953   3.057  0.3507 -0.4466  0.8098
 4790TIP3    H114334   4.499   3.905   2.994  3.7861 -1.7610 -1.4313
 4790TIP3    H214335   4.542   4.045   3.033  0.3054 -0.8116 -0.6784
 4791TIP3   OH214336   7.126   1.678   2.394 -0.1129 -0.2920  0.0225
 4791TIP3    H114337   7.166   1.706   2.312  2.4384 -2.4142  0.4236
 4791TIP3    H214338   7.047   1.631   2.367  0.3473 -0.4180 -1.1700
 4792TIP3   OH214339   6.550   4.444   4.431 -0.2113 -0.5237  0.2953
 4792TIP3    H114340   6.626   4.476   4.382 -0.7458  1.2321  0.5593
 4792TIP3    H214341   6.583   4.367   4.478  1.2485 -0.1548 -0.0568
 4793TIP3   OH214342   6.194   4.788   5.661  0.2672 -0.1100 -0.2489
 4793TIP3    H114343   6.281   4.805   5.625 -0.0779 -0.4686 -1.3186
 4793TIP3    H214344   6.208   4.721   5.728  0.9182  0.4828  0.2240
 4794TIP3   OH214345   5.115   2.851   2.184 -0.3109 -0.0898  0.2779
 4794TIP3    H114346   5.081   2.889   2.104 -1.2859  1.9061  1.5714
 4794TIP3    H214347   5.168   2.920   2.224  0.9023 -1.3399  0.9365
 4795TIP3   OH214348   2.658   4.457   2.176 -0.1506  0.2551 -0.1091
 4795TIP3    H114349   2.746   4.481   2.148 -0.2820  0.8133 -0.0649
 4795TIP3    H214350   2.672   4.393   2.246  0.1988 -0.1838 -0.5701
 4796TIP3   OH214351   7.078   3.252   2.035 -0.1695 -0.4639 -0.7591
 4796TIP3    H114352   7.090   3.343   2.007 -0.9226 -0.1909 -0.2100
 4796TIP3    H214353   7.164   3.212   2.023  1.2140  1.2374  2.4274
 4797TIP3   OH214354   3.021   2.429   2.854 -0.2616 -0.3017 -0.3020
 4797TIP3    H114355   3.080   2.468   2.789  3.3428 -1.5169  1.9356
 4797TIP3    H214356   3.006   2.340   2.824  2.6186 -1.3600  1.0067
 4798TIP3   OH214357   1.095   1.543   0.729  0.6645  0.0891 -0.1498
 4798TIP3    H114358   1.168   1.605   0.731  0.1101  0.7472  0.5496
 4798TIP3    H214359   1.136   1.457   0.736  1.4046  0.4181 -0.3202
 4799TIP3   OH214360   5.652   4.067   0.160  0.2067 -0.5091 -0.2177
 4799TIP3    H114361   5.616   4.076   0.072  0.0871  1.0618 -0.0405
 4799TIP3    H214362   5.623   4.146   0.205  2.6937  0.1468  0.3745
 4800TIP3   OH214363   2.944   0.559   3.331 -0.3509  0.4214  0.0594
 4800TIP3    H114364   2.998   0.604   3.396 -0.1338  1.9266 -1.1008
 4800TIP3    H214365   2.862   0.541   3.377 -0.1273  1.2660  0.8322
 4801TIP3   OH214366   5.978   2.095   5.410  0.9407 -0.0675  0.4064
 4801TIP3    H114367   5.928   2.039   5.351  0.9288  1.3976 -1.0169
 4801TIP3    H214368   5.917   2.164   5.436  0.8907 -0.7823  2.3184
 4802TIP3   OH214369   3.019   2.176   4.364 -0.5887  0.2110  0.1893
 4802TIP3    H114370   3.026   2.087   4.331  0.6923  0.7123 -0.9801
 4802TIP3    H214371   3.064   2.230   4.299  0.6930  1.4337  1.9846
 4803TIP3   OH214372   0.443   5.669   3.549  1.1457 -0.3559  0.1948
 4803TIP3    H114373   0.529   5.638   3.520  1.0459  0.4723 -1.0651
 4803TIP3    H214374   0.380   5.620   3.497  0.9506  0.8548 -0.7632
 4804TIP3   OH214375   1.821   2.634   2.168  0.5333  0.2726  0.0585
 4804TIP3    H114376   1.752   2.597   2.224  1.5808 -1.7650  0.0959
 4804TIP3    H214377   1.815   2.584   2.087  0.4208  1.7508 -0.8762
 4805TIP3   OH214378   2.989   1.211   0.404  0.4187 -0.5220  0.1385
 4805TIP3    H114379   2.984   1.144   0.335 -1.4555 -0.0939 -0.2037
 4805TIP3    H214380   3.055   1.178   0.465  1.9648 -1.0457 -1.6907
 4806TIP3   OH214381   2.739   3.044   4.999  0.5302 -0.4814  0.9046
 4806TIP3    H114382   2.675   3.106   5.034 -0.4017 -0.2121 -1.1591
 4806TIP3    H214383   2.744   3.065   4.906 -0.0133 -3.6644  0.0572
 4807TIP3   OH214384   2.798   2.235   3.174 -0.5472 -0.0441 -0.5450
 4807TIP3    H114385   2.891   2.249   3.155 -0.8279  1.0563 -1.2023
 4807TIP3    H214386   2.792   2.244   3.269  0.2495 -1.6757 -0.3024
 4808TIP3   OH214387   5.787   6.046   2.728  0.1483 -0.3216 -0.4854
 4808TIP3    H114388   5.810   5.977   2.791  1.0181  1.6099  1.4113
 4808TIP3    H214389   5.706   6.015   2.689 -0.0383 -1.9668  1.0371
 4809TIP3   OH214390   2.425   5.695   1.821  0.7828  0.4537 -0.2357
 4809TIP3    H114391   2.417   5.736   1.907 -1.1748  1.1308 -0.6988
 4809TIP3    H214392   2.346   5.720   1.774  1.0087 -1.2802 -1.6679
 4810TIP3   OH214393   5.268   2.774   5.136  0.1813  0.1502 -0.1028
 4810TIP3    H114394   5.192   2.736   5.094  0.2747 -1.5428  1.1700
 4810TIP3    H214395   5.232   2.827   5.207  0.1071  1.5964 -1.1750
 4811TIP3   OH214396   4.176   0.155   2.990  0.1287  0.2253  0.1686
 4811TIP3    H114397   4.231   0.126   3.063  0.4832 -2.7990 -1.1620
 4811TIP3    H214398   4.232   0.146   2.913 -1.1551  0.4211 -0.8214
 4812TIP3   OH214399   0.277   3.482   5.188 -0.2305 -0.0883  0.2124
 4812TIP3    H114400   0.312   3.393   5.192  0.0203  0.0626  1.8921
 4812TIP3    H214401   0.237   3.488   5.101 -2.1591 -2.5955  0.8010
 4813TIP3   OH214402   3.580   5.187   4.433  0.0381  0.3715 -0.2445
 4813TIP3    H114403   3.656   5.222   4.479 -1.0902  0.5844  1.6084
 4813TIP3    H214404   3.557   5.255   4.370  0.1720  1.2638  0.6250
 4814TIP3   OH214405   3.016   3.276   1.384 -0.0114  0.0721 -0.5609
 4814TIP3    H114406   2.969   3.245   1.307 -2.8466  0.7356  0.7937
 4814TIP3    H214407   2.964   3.246   1.458  1.8998  0.6059  1.0976
 4815TIP3   OH214408   2.565   1.001   2.141  0.1461  0.4902  0.1457
 4815TIP3    H114409   2.539   0.993   2.233 -1.6662  0.1350 -0.3571
 4815TIP3    H214410   2.659   1.018   2.144 -0.0713  1.5940  2.1021
 4816TIP3   OH214411   5.796   4.727   4.598 -0.3282 -0.2146  0.7027
 4816TIP3    H114412   5.831   4.672   4.529  0.8495 -2.9532  3.2697
 4816TIP3    H214413   5.849   4.807   4.595 -0.8147  0.0866 -1.9161
 4817TIP3   OH214414   3.212   6.059   0.413  0.1531  0.3844 -0.0263
 4817TIP3    H114415   3.151   6.125   0.380  0.7738  1.3965  0.7882
 4817TIP3    H214416   3.180   6.040   0.501  2.0081  2.3291  1.1683
 4818TIP3   OH214417   3.177   6.490   3.283  0.3207 -0.5378 -0.1481
 4818TIP3    H114418   3.250   6.503   3.222  1.2919  0.4785  1.1697
 4818TIP3    H214419   3.188   6.559   3.348 -1.6871 -0.5342  0.2395
 4819TIP3   OH214420   5.206   0.414   1.435 -0.7300 -0.1408 -0.7049
 4819TIP3    H114421   5.285   0.422   1.489 -2.3511 -2.4866  2.3625
 4819TIP3    H214422   5.229   0.349   1.369  0.7715  1.5227 -1.9395
 4820TIP3   OH214423   1.029   2.301   4.007  0.1804 -0.3567  0.8700
 4820TIP3    H114424   1.048   2.238   4.076 -0.2375 -0.4793  0.8789
 4820TIP3    H214425   0.995   2.248   3.935  3.0237 -0.5533 -0.4333
 4821TIP3   OH214426   6.585   3.983   0.099 -0.0914  0.5782  0.8358
 4821TIP3    H114427   6.532   4.054   0.062  0.4063  1.3791  1.6097
 4821TIP3    H214428   6.674   4.001   0.068 -0.1214 -0.2822  0.2262
 4822TIP3   OH214429   0.472   3.312   5.513  0.3180 -0.0054 -0.4752
 4822TIP3    H114430   0.432   3.397   5.493  1.3642  0.6374  0.0795
 4822TIP3    H214431   0.541   3.302   5.448  1.1806  0.2837  0.3716
 4823TIP3   OH214432   7.187   2.830   2.807 -0.5593  0.8995  0.0261
 4823TIP3    H114433   7.187   2.923   2.826 -1.9224  0.7673  0.8468
 4823TIP3    H214434   7.096   2.803   2.820 -0.8994  0.0384 -3.1363
 4824TIP3   OH214435   6.351   0.876   0.873 -0.4520 -0.5376  0.0545
 4824TIP3    H114436   6.267   0.839   0.897 -0.6393 -1.5476 -1.9912
 4824TIP3    H214437   6.413   0.838   0.936 -1.2521 -1.1100  0.5167
 4825TIP3   OH214438   1.568   3.816   3.409 -0.0041 -0.1166  0.3706
 4825TIP3    H114439   1.536   3.733   3.444  1.9947 -1.2580 -0.3105
 4825TIP3    H214440   1.505   3.881   3.439 -2.2578 -2.0020  0.0043
 4826TIP3   OH214441   4.829   0.093   1.145  0.5284  0.3539  0.4173
 4826TIP3    H114442   4.735   0.090   1.127  0.4728 -0.3046  0.7906
 4826TIP3    H214443   4.869   0.044   1.073  0.5862  0.6286  0.2618
 4827TIP3   OH214444   6.855   3.591   2.631  0.0701  0.0157  0.3544
 4827TIP3    H114445   6.853   3.686   2.637  1.5312  0.0682  0.3545
 4827TIP3    H214446   6.929   3.572   2.574 -1.5293 -1.0749 -1.4791
 4828TIP3   OH214447   3.213   5.769   2.712 -0.4308  0.5504  0.0126
 4828TIP3    H114448   3.141   5.738   2.766  0.5260 -0.3830  0.7851
 4828TIP3    H214449   3.174   5.783   2.625 -1.8536  1.4993  0.7662
 4829TIP3   OH214450   4.602   4.275   0.128  0.0466  0.0677 -0.5313
 4829TIP3    H114451   4.633   4.196   0.083  0.7700 -0.8165  1.4147
 4829TIP3    H214452   4.562   4.242   0.208  0.2197  1.6797  0.2412
 4830TIP3   OH214453   1.545   4.407   3.622  0.3141  0.4059  0.1798
 4830TIP3    H114454   1.587   4.457   3.552 -1.5362  0.5309 -0.9264
 4830TIP3    H214455   1.498   4.337   3.577  0.0117 -0.2164  1.4100
 4831TIP3   OH214456   0.307   3.722   3.644 -0.0880  0.4150 -0.6399
 4831TIP3    H114457   0.375   3.657   3.663 -0.2848  0.3493 -0.1353
 4831TIP3    H214458   0.355   3.805   3.635  0.1415  0.2353 -1.0804
 4832TIP3   OH214459   2.910   1.251   0.990 -0.3380  0.7100  0.2884
 4832TIP3    H114460   2.973   1.180   0.977 -0.5751  0.5706 -0.1011
 4832TIP3    H214461   2.919   1.274   1.083  0.0528  0.4724  0.3121
 4833TIP3   OH214462   6.015   4.029   5.641  0.5501  0.6468 -0.1404
 4833TIP3    H114463   6.041   4.060   5.728  1.1147  0.1559 -0.1385
 4833TIP3    H214464   6.032   3.935   5.642  1.4411  0.7842 -1.0998
 4834TIP3   OH214465   6.269   1.655   5.816 -0.4133 -0.4319  0.5795
 4834TIP3    H114466   6.353   1.613   5.835 -0.8835 -1.5172  0.3609
 4834TIP3    H214467   6.239   1.612   5.736 -0.2050  1.4304 -0.5612
 4835TIP3   OH214468   5.884   6.708   0.134 -0.1311  0.1990 -0.5195
 4835TIP3    H114469   5.955   6.709   0.071 -1.7678 -2.0928 -2.6030
 4835TIP3    H214470   5.819   6.768   0.099 -0.4970 -0.0537 -0.2866
 4836TIP3   OH214471   6.844   0.864   3.414  0.7685 -0.2371  0.0756
 4836TIP3    H114472   6.869   0.938   3.359 -0.8601 -0.6736 -1.3493
 4836TIP3    H214473   6.903   0.794   3.387  1.0755  0.0191  0.0772
 4837TIP3   OH214474   2.620   4.622   1.713  0.3877 -0.3837 -0.7098
 4837TIP3    H114475   2.609   4.651   1.804 -2.1946 -0.2286 -0.9933
 4837TIP3    H214476   2.612   4.702   1.661  0.8493 -0.6049 -1.1246
 4838TIP3   OH214477   5.684   4.086   1.692 -0.2712 -0.2213 -0.7870
 4838TIP3    H114478   5.667   4.129   1.776 -1.6848 -0.6043 -0.8575
 4838TIP3    H214479   5.760   4.031   1.709  0.6413  1.1218 -0.2876
 4839TIP3   OH214480   3.733   4.727   4.265  0.1519 -0.1135 -0.2985
 4839TIP3    H114481   3.655   4.783   4.263  0.1341 -0.1412 -0.3997
 4839TIP3    H214482   3.721   4.671   4.342  0.8315  0.9640  0.6174
 4840TIP3   OH214483   6.377   0.104   0.191  0.1507 -0.2518  0.1228
 4840TIP3    H114484   6.361   0.061   0.274 -0.3488  2.2181  1.3853
 4840TIP3    H214485   6.461   0.149   0.203  0.7364 -0.9142 -1.2064
 4841TIP3   OH214486   1.386   4.028   0.485  0.3748 -0.1632  0.6122
 4841TIP3    H114487   1.296   4.005   0.462  0.7553 -0.4179 -0.6792
 4841TIP3    H214488   1.396   3.998   0.576 -1.0312  0.4694  0.9959
 4842TIP3   OH214489   3.339   5.741   5.124 -0.1692  0.1505 -0.4400
 4842TIP3    H114490   3.394   5.794   5.182  1.2421 -0.0001 -1.5738
 4842TIP3    H214491   3.278   5.803   5.085 -1.2170  0.2359  1.2503
 4843TIP3   OH214492   6.548   3.516   3.785  0.2233 -0.3444  0.2158
 4843TIP3    H114493   6.593   3.454   3.727 -1.2052 -0.1542 -1.1586
 4843TIP3    H214494   6.566   3.602   3.747  1.6868  0.1010  1.7671
 4844TIP3   OH214495   6.953   3.501   0.989 -0.0003 -0.0584 -0.4440
 4844TIP3    H114496   6.919   3.516   1.077  1.5207 -0.4374  0.2426
 4844TIP3    H214497   7.028   3.560   0.981  1.8663 -2.2321 -0.2186
 4845TIP3   OH214498   3.676   5.455   2.113 -0.2982 -0.6187 -0.2869
 4845TIP3    H114499   3.634   5.387   2.060  1.6834 -2.2223  0.0847
 4845TIP3    H214500   3.695   5.412   2.197 -1.5253  1.2696  1.0296
 4846TIP3   OH214501   1.087   3.272   2.584  0.1540  0.2428 -0.4862
 4846TIP3    H114502   1.062   3.187   2.622  1.3281  0.2209  0.2977
 4846TIP3    H214503   1.030   3.335   2.628  2.1639  0.3461  2.2208
 4847TIP3   OH214504   0.947   0.258   4.162  0.6160 -0.3530  0.3112
 4847TIP3    H114505   0.863   0.303   4.172  0.0727 -1.2023 -0.3273
 4847TIP3    H214506   1.012   0.327   4.177 -0.1915  0.4507  0.2497
 4848TIP3   OH214507   3.772   2.303   1.842  0.2014  0.0035 -0.1225
 4848TIP3    H114508   3.808   2.353   1.916  0.9219  0.4486 -0.7620
 4848TIP3    H214509   3.793   2.212   1.862 -0.7453 -0.0178  0.8483
 4849TIP3   OH214510   1.063   2.566   1.801 -0.1223 -0.1620 -0.1241
 4849TIP3    H114511   0.972   2.581   1.824 -0.4470 -0.0312 -1.3890
 4849TIP3    H214512   1.060   2.533   1.711  1.1657  1.6988 -0.9342
 4850TIP3   OH214513   2.557   0.474   2.902 -0.3233 -0.1423  0.6150
 4850TIP3    H114514   2.470   0.436   2.905 -0.6626  0.4336 -1.0027
 4850TIP3    H214515   2.571   0.511   2.990 -1.2437 -1.1784  1.2166
 4851TIP3   OH214516   6.243   1.288   0.464  0.5146  0.1523 -0.0807
 4851TIP3    H114517   6.154   1.255   0.473  0.6496 -0.0929  0.3981
 4851TIP3    H214518   6.248   1.323   0.374 -0.1864  0.5563  0.0368
 4852TIP3   OH214519   5.307   6.671   5.563  0.2495 -0.3452 -0.2580
 4852TIP3    H114520   5.310   6.661   5.658  0.6317  0.1640 -0.2128
 4852TIP3    H214521   5.398   6.664   5.535  0.4867  1.9849 -0.3067
 4853TIP3   OH214522   5.288   0.147   2.598  0.5764  0.0908 -0.1478
 4853TIP3    H114523   5.307   0.216   2.661 -0.6158  1.2636 -1.0370
 4853TIP3    H214524   5.375   0.119   2.567  1.0833  1.0796  0.3340
 4854TIP3   OH214525   3.647   2.426   5.147 -0.2869  0.4823  0.2103
 4854TIP3    H114526   3.569   2.371   5.149 -1.0642  1.4899 -0.8934
 4854TIP3    H214527   3.630   2.495   5.211  0.1071  0.2008  0.6256
 4855TIP3   OH214528   5.967   4.385   5.785 -0.1167  0.5737  0.0396
 4855TIP3    H114529   5.903   4.455   5.774  0.5762  1.5911  1.9807
 4855TIP3    H214530   5.918   4.315   5.828 -0.5529  0.2677 -0.9338
 4856TIP3   OH214531   1.526   2.911   2.228 -0.2539  0.4564  0.5231
 4856TIP3    H114532   1.519   2.834   2.170  1.0714  0.2482  0.6014
 4856TIP3    H214533   1.489   2.881   2.311  0.0656 -0.0442  0.4938
 4857TIP3   OH214534   2.267   0.987   3.248  0.1613  0.3035 -0.6538
 4857TIP3    H114535   2.333   1.056   3.252  1.0091 -0.5619  2.5973
 4857TIP3    H214536   2.306   0.919   3.193  1.1691  0.5845 -0.2986
 4858TIP3   OH214537   1.851   6.308   3.655 -0.2449  0.3483 -0.1070
 4858TIP3    H114538   1.893   6.246   3.595 -0.3180  1.0563 -0.9036
 4858TIP3    H214539   1.904   6.303   3.735  1.0699  0.8363 -0.9099
 4859TIP3   OH214540   0.151   1.965   5.015  0.0222  0.9464 -0.3124
 4859TIP3    H114541   0.207   2.043   5.027 -1.8154  2.1757  0.7614
 4859TIP3    H214542   0.172   1.910   5.091 -2.2729  2.8086  1.8582
 4860TIP3   OH214543   5.351   3.302   4.196  0.0571 -0.4039 -0.1726
 4860TIP3    H114544   5.342   3.212   4.162 -0.9818 -0.8253  1.1205
 4860TIP3    H214545   5.424   3.297   4.258  1.6310  0.2549 -1.8714
 4861TIP3   OH214546   4.403   2.913   5.699  0.5758 -0.4186 -0.0501
 4861TIP3    H114547   4.316   2.953   5.710  1.9774  2.7228  0.8534
 4861TIP3    H214548   4.431   2.940   5.612  0.9672 -0.7184 -0.0168
 4862TIP3   OH214549   7.156   5.398   3.802 -0.2766 -0.0617  0.2638
 4862TIP3    H114550   7.120   5.457   3.868 -0.7884 -0.3284  0.2292
 4862TIP3    H214551   7.249   5.393   3.823 -0.2000  0.8495  0.1892
 4863TIP3   OH214552   0.987   1.280   1.189 -0.3284  0.0481  0.5268
 4863TIP3    H114553   1.082   1.294   1.196 -0.3441 -0.0087  0.9220
 4863TIP3    H214554   0.979   1.203   1.133  0.0335 -1.9493  2.9743
 4864TIP3   OH214555   1.206   6.068   2.370  0.1028  0.9061 -0.2774
 4864TIP3    H114556   1.171   6.138   2.315 -1.7038  1.6249  1.6445
 4864TIP3    H214557   1.129   6.031   2.413  1.2169 -1.1158  0.1043
 4865TIP3   OH214558   0.535   5.829   1.011  0.2382  0.7477  0.3413
 4865TIP3    H114559   0.605   5.888   0.984 -0.2122  1.0858 -0.1144
 4865TIP3    H214560   0.578   5.765   1.068  0.6368  1.8651  1.3494
 4866TIP3   OH214561   2.131   2.392   4.355 -0.2694  0.1781  0.5306
 4866TIP3    H114562   2.147   2.353   4.270 -2.2333  0.4333  0.0011
 4866TIP3    H214563   2.185   2.471   4.356  0.2442 -0.1542 -0.2070
 4867TIP3   OH214564   1.125   0.343   2.001 -0.3140  0.5416  0.3142
 4867TIP3    H114565   1.094   0.255   2.022 -0.9156  1.2663  2.8408
 4867TIP3    H214566   1.064   0.374   1.934  0.5596 -1.2688 -1.4487
 4868TIP3   OH214567   1.091   5.219   2.028 -0.3457 -0.8226  0.0092
 4868TIP3    H114568   1.057   5.236   2.116  0.6299 -3.3612  0.9890
 4868TIP3    H214569   1.168   5.164   2.042  0.5840 -0.2840 -2.4153
 4869TIP3   OH214570   3.768   2.914   2.926  0.0770 -0.2737  0.5013
 4869TIP3    H114571   3.817   2.843   2.883  0.3931  0.2788 -0.0757
 4869TIP3    H214572   3.694   2.930   2.868  0.9413  1.0233 -0.3002
 4870TIP3   OH214573   1.541   6.721   3.650  0.0607 -0.4021  0.4221
 4870TIP3    H114574   1.469   6.754   3.702 -0.2795 -0.5724  0.0641
 4870TIP3    H214575   1.540   6.774   3.570  1.3465  0.6990  1.0864
 4871TIP3   OH214576   4.413   5.852   0.659 -0.0097 -0.6809 -0.1968
 4871TIP3    H114577   4.411   5.793   0.584 -1.0676 -1.6521  0.5518
 4871TIP3    H214578   4.477   5.812   0.719  0.0796 -0.4694 -0.1523
 4872TIP3   OH214579   5.505   5.888   1.077 -0.4925  0.0747  0.0185
 4872TIP3    H114580   5.576   5.940   1.040 -0.0149  0.0884  0.9188
 4872TIP3    H214581   5.492   5.817   1.014 -1.2117  1.2905 -1.2705
 4873TIP3   OH214582   5.055   5.427   4.916  0.2337  0.0194  0.2147
 4873TIP3    H114583   5.036   5.395   4.828 -0.1117  0.2221  0.2101
 4873TIP3    H214584   4.969   5.433   4.958  0.1664  1.8725 -0.1118
 4874TIP3   OH214585   4.588   4.987   3.306 -0.7578 -0.2216  0.4094
 4874TIP3    H114586   4.659   4.923   3.300 -0.8208 -0.2540 -0.0533
 4874TIP3    H214587   4.632   5.072   3.312 -0.6789 -0.2447  0.1652
 4875TIP3   OH214588   6.439   0.836   4.765 -0.9929 -0.3875 -0.0391
 4875TIP3    H114589   6.509   0.891   4.728 -1.2678  0.1495  0.2258
 4875TIP3    H214590   6.378   0.822   4.693 -0.4667 -1.1144 -0.3568
 4876TIP3   OH214591   6.690   0.158   4.187  0.8974 -0.1662 -0.0599
 4876TIP3    H114592   6.777   0.123   4.207  0.1229 -1.4829  1.1920
 4876TIP3    H214593   6.675   0.225   4.253  0.9723  0.1267 -0.3325
 4877TIP3   OH214594   4.118   4.100   2.836 -0.2346  0.3791  0.2851
 4877TIP3    H114595   4.185   4.045   2.795  0.9173 -0.0749  2.6154
 4877TIP3    H214596   4.152   4.189   2.827 -1.6827  0.7568 -2.7072
 4878TIP3   OH214597   1.379   4.813   4.089  0.4693  0.0558 -0.3553
 4878TIP3    H114598   1.457   4.807   4.034  0.0240  1.3954 -1.1893
 4878TIP3    H214599   1.351   4.904   4.080 -1.5802 -0.5547 -0.6127
 4879TIP3   OH214600   6.520   1.759   5.443  0.1206 -0.5793  0.0037
 4879TIP3    H114601   6.488   1.760   5.353 -0.0498 -0.8130  0.0599
 4879TIP3    H214602   6.444   1.787   5.496  0.5390  0.6864 -0.0166
 4880TIP3   OH214603   4.904   2.202   4.493 -0.2613  0.5482 -0.0547
 4880TIP3    H114604   4.940   2.113   4.497 -1.5206  0.0385  0.6181
 4880TIP3    H214605   4.910   2.235   4.583 -0.4076  0.8914 -0.1677
 4881TIP3   OH214606   7.044   1.699   3.879 -0.5026  0.5055  0.2295
 4881TIP3    H114607   7.114   1.765   3.873 -0.4436  0.5318  1.0851
 4881TIP3    H214608   6.965   1.750   3.899 -0.8871  0.5301 -1.2100
 4882TIP3   OH214609   0.551   4.911   4.843  0.1251 -0.0567 -0.1119
 4882TIP3    H114610   0.642   4.912   4.871 -0.0540  1.6677  0.5480
 4882TIP3    H214611   0.504   4.958   4.912 -0.8619  1.2649 -1.5961
 4883TIP3   OH214612   6.987   6.048   2.389  0.0886  0.1511 -0.3158
 4883TIP3    H114613   7.010   6.126   2.439  1.8574 -0.6072  0.1161
 4883TIP3    H214614   6.911   6.011   2.436  2.2370 -1.0579  2.5146
 4884TIP3   OH214615   5.262   1.858   4.250  0.3186 -0.4502  0.2726
 4884TIP3    H114616   5.205   1.793   4.291  2.0527 -2.1569  0.1356
 4884TIP3    H214617   5.340   1.809   4.225  1.8488  1.7569  0.4179
 4885TIP3   OH214618   4.194   4.999   0.720 -0.4664  0.2598  0.1982
 4885TIP3    H114619   4.249   4.999   0.641  0.6953  0.4089  0.9710
 4885TIP3    H214620   4.233   4.931   0.775 -1.3859  0.0262  0.5645
 4886TIP3   OH214621   1.783   5.504   1.478 -0.0150  0.4600 -0.1325
 4886TIP3    H114622   1.735   5.584   1.500 -1.3707 -0.1461 -0.7727
 4886TIP3    H214623   1.859   5.506   1.535 -1.3270  0.9469  1.6939
 4887TIP3   OH214624   5.905   0.723   2.484 -0.4527  0.5208 -0.0363
 4887TIP3    H114625   5.906   0.654   2.417 -0.7071 -0.2688  0.7489
 4887TIP3    H214626   5.837   0.784   2.454  1.4963  1.8571 -2.0832
 4888TIP3   OH214627   4.862   6.566   4.157  0.3005  0.3051  0.3084
 4888TIP3    H114628   4.834   6.502   4.222  1.3767  0.5356  1.0242
 4888TIP3    H214629   4.957   6.570   4.166  0.5441  0.0015 -1.5977
 4889TIP3   OH214630   6.465   6.009   0.646 -0.0358 -0.5689 -0.0718
 4889TIP3    H114631   6.530   5.944   0.672 -0.2061 -0.6346  0.1895
 4889TIP3    H214632   6.466   6.074   0.716 -0.7615 -0.9371  0.2905
 4890TIP3   OH214633   5.084   2.740   5.440 -0.5088  1.1197  0.6652
 4890TIP3    H114634   5.016   2.693   5.393  0.0849  0.9371 -0.0333
 4890TIP3    H214635   5.126   2.674   5.495  0.3629  0.8013 -0.3588
 4891TIP3   OH214636   0.563   6.345   3.795  0.1647  0.2054 -0.3916
 4891TIP3    H114637   0.560   6.401   3.717  0.3517  0.1631 -0.4298
 4891TIP3    H214638   0.573   6.256   3.761 -2.2177 -0.1018 -0.4159
 4892TIP3   OH214639   4.257   2.641   3.666  0.0099 -0.1423 -0.2066
 4892TIP3    H114640   4.220   2.639   3.755  1.4540 -0.3580  0.4064
 4892TIP3    H214641   4.180   2.643   3.609 -0.9746 -1.5484  0.9931
 4893TIP3   OH214642   6.995   2.510   0.842 -0.2566  0.4900 -0.1403
 4893TIP3    H114643   6.987   2.582   0.905 -2.2796 -0.7680  1.1478
 4893TIP3    H214644   6.917   2.517   0.788 -0.8600 -1.1201  0.4676
 4894TIP3   OH214645   1.833   1.031   5.607 -0.1970  0.3954 -0.2591
 4894TIP3    H114646   1.764   0.981   5.565  0.2489 -0.8456  0.4248
 4894TIP3    H214647   1.788   1.081   5.676 -0.6026  0.7443 -0.7675
 4895TIP3   OH214648   6.858   5.112   5.472 -0.0071 -0.1831 -0.1463
 4895TIP3    H114649   6.781   5.168   5.463  0.1598  0.1706  0.5211
 4895TIP3    H214650   6.898   5.140   5.555 -0.2865 -1.7467  0.5479
 4896TIP3   OH214651   4.411   4.267   2.228 -0.4722 -0.4063  0.1880
 4896TIP3    H114652   4.419   4.180   2.267  1.8738  0.4324  1.8301
 4896TIP3    H214653   4.415   4.327   2.303  3.6096  1.3004 -1.1344
 4897TIP3   OH214654   1.770   5.058   5.332  0.2265  0.5102  0.1752
 4897TIP3    H114655   1.848   5.019   5.292  0.8545  1.1202  0.7785
 4897TIP3    H214656   1.731   4.987   5.383  1.6187  0.7412  1.6398
 4898TIP3   OH214657   2.023   2.701   4.398  0.3301 -0.0063 -0.2921
 4898TIP3    H114658   2.110   2.700   4.360 -0.0088 -0.9074 -1.0731
 4898TIP3    H214659   1.968   2.657   4.334 -0.4982 -0.3906  0.6521
 4899TIP3   OH214660  -0.033   1.316   3.773  0.0649 -0.3152  0.1700
 4899TIP3    H114661  -0.013   1.408   3.789 -1.2075 -0.0251  0.1966
 4899TIP3    H214662   0.047   1.269   3.796  1.0986  0.8685 -0.8864
 4900TIP3   OH214663   4.368   1.653   1.027 -0.1986 -0.5892 -0.2078
 4900TIP3    H114664   4.342   1.595   0.955  1.2397 -1.3680 -0.1232
 4900TIP3    H214665   4.380   1.595   1.102 -0.7660  0.1022  0.4346
 4901TIP3   OH214666   6.998   0.113   4.173  0.2005 -0.2232  0.2001
 4901TIP3    H114667   7.025   0.200   4.201  0.5285 -0.3126  0.1667
 4901TIP3    H214668   7.047   0.053   4.231 -0.2978 -0.3793  0.4725
 4902TIP3   OH214669   1.855   5.160   2.622  0.5594 -0.1405  0.7340
 4902TIP3    H114670   1.894   5.122   2.544  0.9469  2.2245 -0.3147
 4902TIP3    H214671   1.806   5.088   2.662 -1.0541 -1.0762 -2.5911
 4903TIP3   OH214672   4.393   3.670   4.319 -0.1193 -0.0060 -0.3238
 4903TIP3    H114673   4.303   3.641   4.302 -0.0078 -1.2717  1.0515
 4903TIP3    H214674   4.441   3.644   4.241 -0.7977  0.0171 -0.7621
 4904TIP3   OH214675   6.298   1.823   5.579 -0.0415 -0.3688 -0.5552
 4904TIP3    H114676   6.233   1.753   5.588  0.6276 -0.9533 -0.0921
 4904TIP3    H214677   6.331   1.836   5.668  1.0344 -0.6441 -0.8993
 4905TIP3   OH214678   1.779   1.226   4.249 -0.2767  0.5214  0.7998
 4905TIP3    H114679   1.798   1.140   4.211 -0.5777  0.4616  0.7819
 4905TIP3    H214680   1.800   1.216   4.342 -0.7618  0.2874  0.8844
 4906TIP3   OH214681   0.036   3.980   2.752  0.2652 -0.2530 -0.1130
 4906TIP3    H114682   0.106   3.952   2.812 -0.6478 -1.2263  0.5460
 4906TIP3    H214683   0.000   3.898   2.718  0.9359  0.2866 -2.2352
 4907TIP3   OH214684   0.597   3.103   2.225 -0.2095  0.2065 -0.3788
 4907TIP3    H114685   0.557   3.016   2.217 -0.6989  0.4936 -1.2555
 4907TIP3    H214686   0.691   3.086   2.237 -0.2352 -0.4390 -1.0382
 4908TIP3   OH214687   5.113   0.531   4.667  0.6199 -0.6685 -0.4429
 4908TIP3    H114688   5.057   0.598   4.627  0.7722 -0.5837 -0.5191
 4908TIP3    H214689   5.194   0.578   4.688 -0.4189 -0.0146  2.5390
 4909TIP3   OH214690   2.795   3.810   1.791 -0.3102 -0.1343  0.2549
 4909TIP3    H114691   2.753   3.790   1.875 -1.5717 -2.7150 -0.8771
 4909TIP3    H214692   2.845   3.731   1.769  1.2372  1.0551 -0.7470
 4910TIP3   OH214693   2.244   0.974   0.316 -0.0686 -0.0664  0.2468
 4910TIP3    H114694   2.240   1.057   0.363  0.1564  0.3844 -0.5115
 4910TIP3    H214695   2.338   0.958   0.303 -0.1052 -0.5169  0.5261
 4911TIP3   OH214696   1.925   5.099   2.358  1.0683  0.3817  0.7096
 4911TIP3    H114697   1.885   5.178   2.321  1.1077  0.3113  0.5134
 4911TIP3    H214698   2.018   5.119   2.363  1.1073  0.2681  0.4533
 4912TIP3   OH214699   6.888   4.953   2.498 -0.5174  0.3955 -0.0039
 4912TIP3    H114700   6.969   4.978   2.542  0.8118  0.1900 -2.1694
 4912TIP3    H214701   6.856   4.878   2.549  0.2921  0.8592  1.2486
 4913TIP3   OH214702   2.516   3.212   5.020 -0.6257  0.2178 -0.1663
 4913TIP3    H114703   2.509   3.307   5.022 -0.8922  0.1971 -0.1180
 4913TIP3    H214704   2.426   3.181   5.005 -0.5861 -0.0357  0.1148
 4914TIP3   OH214705   5.794   6.395   1.427  0.4112  0.6247  0.0641
 4914TIP3    H114706   5.808   6.488   1.409 -0.1335  0.4490 -1.3439
 4914TIP3    H214707   5.866   6.371   1.486  0.5489  1.9259  0.4458
 4915TIP3   OH214708   4.467   2.928   1.317 -0.1825  0.0954  0.1393
 4915TIP3    H114709   4.430   2.991   1.255 -0.0659 -0.3635 -0.4062
 4915TIP3    H214710   4.543   2.972   1.354  1.2024 -0.4645 -1.8158
 4916TIP3   OH214711   4.677   4.755   4.133 -0.3021 -0.2816 -0.4165
 4916TIP3    H114712   4.673   4.670   4.178  0.3607 -0.1049 -0.0071
 4916TIP3    H214713   4.622   4.744   4.056 -1.4638 -0.5994  0.4364
 4917TIP3   OH214714   5.024   0.433   1.988 -0.1288 -0.0256 -0.5747
 4917TIP3    H114715   5.115   0.462   1.983  0.0529 -0.5524 -0.4073
 4917TIP3    H214716   4.977   0.509   2.023  0.5597 -0.3662  1.2074
 4918TIP3   OH214717   6.680   1.255   3.338 -0.2405  0.1696  0.2441
 4918TIP3    H114718   6.600   1.302   3.361 -0.6027 -0.7971  1.0324
 4918TIP3    H214719   6.699   1.202   3.415  1.6058  0.9577  0.3746
 4919TIP3   OH214720   2.822   0.230   4.902  0.4284 -0.0422 -0.1884
 4919TIP3    H114721   2.833   0.323   4.885 -3.2906  0.8210  1.3479
 4919TIP3    H214722   2.769   0.198   4.829  0.7702 -0.7573 -0.1366
 4920TIP3   OH214723   4.893   1.555   5.240 -0.4733  0.0297  0.4759
 4920TIP3    H114724   4.841   1.475   5.253  0.8945 -1.2136 -1.1964
 4920TIP3    H214725   4.863   1.590   5.156  2.1887 -1.5196 -1.2848
 4921TIP3   OH214726   2.520   2.439   2.030  0.4843  0.1910 -0.2094
 4921TIP3    H114727   2.518   2.344   2.035  1.5922  0.1118 -1.0000
 4921TIP3    H214728   2.611   2.462   2.052  0.3475  1.0286 -0.4917
 4922TIP3   OH214729   2.713   5.090   1.935 -0.2144  0.1098  0.2894
 4922TIP3    H114730   2.792   5.073   1.884  1.1171 -1.2992  2.6237
 4922TIP3    H214731   2.653   5.019   1.911  0.8211 -1.1961  1.3667
 4923TIP3   OH214732   3.429   3.275   1.627 -0.2822  0.2279  0.2188
 4923TIP3    H114733   3.493   3.259   1.559 -1.4536 -3.5151 -0.2636
 4923TIP3    H214734   3.463   3.229   1.704 -0.2081  2.2145  1.4515
 4924TIP3   OH214735   5.675   2.424   4.427  0.3039 -0.1928  0.0556
 4924TIP3    H114736   5.697   2.470   4.345 -0.3430 -1.2334 -0.7224
 4924TIP3    H214737   5.705   2.334   4.413  0.6742 -0.2670  1.1866
 4925TIP3   OH214738   3.017   1.770   2.148 -0.1884  0.1407 -0.3370
 4925TIP3    H114739   3.050   1.735   2.231  0.2263  0.5931 -0.3014
 4925TIP3    H214740   3.094   1.809   2.107 -0.5675  0.7001 -0.5257
 4926TIP3   OH214741   5.501   5.531   2.632  0.1977  0.4295  0.5798
 4926TIP3    H114742   5.506   5.627   2.639 -0.6201  0.5362 -0.1520
 4926TIP3    H214743   5.409   5.513   2.617  0.1850 -0.5595  1.6676
 4927TIP3   OH214744   3.293   0.179   0.282 -0.0589 -0.2498 -0.1545
 4927TIP3    H114745   3.208   0.134   0.291 -0.5216  0.5481 -0.4536
 4927TIP3    H214746   3.270   0.271   0.270  0.8848  0.0748  0.4694
 4928TIP3   OH214747   5.019   0.317   5.202 -0.2879  0.0673  0.3857
 4928TIP3    H114748   5.012   0.289   5.111  0.5943  2.0546 -0.3657
 4928TIP3    H214749   4.970   0.252   5.251 -0.8920 -1.0017 -1.5207
 4929TIP3   OH214750   4.198   4.137   0.901 -0.5066  0.3147 -0.6058
 4929TIP3    H114751   4.199   4.233   0.899  0.2308  0.3440  0.3218
 4929TIP3    H214752   4.200   4.115   0.994  2.8292 -0.5796 -0.7768
 4930TIP3   OH214753   5.798   1.762   5.327 -0.2398  0.4227  0.5584
 4930TIP3    H114754   5.755   1.677   5.316  1.1287 -0.2011 -0.2827
 4930TIP3    H214755   5.732   1.826   5.298 -0.4025 -0.5401 -1.3963
 4931TIP3   OH214756   4.228   4.188   1.482 -0.1552 -0.1977 -0.3185
 4931TIP3    H114757   4.237   4.108   1.534 -1.1794 -0.6758 -0.8407
 4931TIP3    H214758   4.146   4.176   1.435 -1.3380  2.0250  1.0397
 4932TIP3   OH214759   6.160   2.117   4.286 -0.4748  0.1734  0.3149
 4932TIP3    H114760   6.066   2.109   4.304 -1.0284  2.2990 -1.3024
 4932TIP3    H214761   6.187   2.028   4.261 -2.6118 -0.0182 -1.5891
 4933TIP3   OH214762   1.056   2.360   4.606 -0.3311  0.3733 -0.0643
 4933TIP3    H114763   1.107   2.359   4.525 -1.9189  1.0650 -1.1307
 4933TIP3    H214764   0.971   2.397   4.581 -0.7974  0.8370  1.9804
 4934TIP3   OH214765   5.192   2.876   4.266  0.0353  0.3934 -0.4029
 4934TIP3    H114766   5.270   2.931   4.259  0.9323 -0.8874 -0.8117
 4934TIP3    H214767   5.203   2.829   4.349 -0.1338 -0.0372 -0.6241
 4935TIP3   OH214768   2.143   2.595   2.947 -0.0658 -0.5145 -0.1477
 4935TIP3    H114769   2.066   2.545   2.921 -0.3046 -0.1698 -0.1217
 4935TIP3    H214770   2.138   2.599   3.043  1.3776 -2.6774  0.0859
 4936TIP3   OH214771   6.609   5.993   5.146 -0.3850  0.4294  0.2505
 4936TIP3    H114772   6.649   5.961   5.227 -1.7758 -0.8486  0.4762
 4936TIP3    H214773   6.582   6.082   5.167  0.5511  0.6263  0.7074
 4937TIP3   OH214774   2.537   3.388   3.587  0.0995  0.2487 -0.3314
 4937TIP3    H114775   2.571   3.345   3.665  0.2294 -0.4122 -0.7454
 4937TIP3    H214776   2.517   3.477   3.616  1.8122  0.5533  0.0221
 4938TIP3   OH214777   6.354   4.337   5.256  0.1268 -0.1666  0.6806
 4938TIP3    H114778   6.385   4.371   5.340  0.7619  0.9301  0.0285
 4938TIP3    H214779   6.360   4.242   5.264 -0.2280 -0.0829  2.0182
 4939TIP3   OH214780   3.041   3.190   0.651 -0.1304 -0.5146 -0.3419
 4939TIP3    H114781   3.072   3.276   0.622  0.1349 -0.2181  0.7577
 4939TIP3    H214782   2.946   3.200   0.660 -0.0584 -0.2119  0.1401
 4940TIP3   OH214783   3.994   3.863   3.837 -0.4503 -0.2352 -0.2460
 4940TIP3    H114784   4.087   3.868   3.861 -0.5421 -0.3917  0.1462
 4940TIP3    H214785   3.969   3.953   3.819 -0.3561 -0.1287  0.1548
 4941TIP3   OH214786   0.661   1.927   3.149 -0.6181  0.1051  0.1914
 4941TIP3    H114787   0.734   1.865   3.149  0.6637  1.5318  1.2769
 4941TIP3    H214788   0.583   1.873   3.157  0.2913 -1.4868 -1.0930
 4942TIP3   OH214789   5.987   1.965   5.723  0.2901 -0.1798 -0.2195
 4942TIP3    H114790   6.042   2.043   5.710  0.3526 -0.1719  0.0845
 4942TIP3    H214791   6.006   1.910   5.647  1.1836 -0.4539  0.1891
 4943TIP3   OH214792   5.612   3.078   4.616 -0.1020  0.3300 -0.3902
 4943TIP3    H114793   5.661   3.159   4.634 -0.5059 -0.1956  4.2596
 4943TIP3    H214794   5.679   3.010   4.611  0.0187  0.0466  3.0064
 4944TIP3   OH214795   2.157   4.050   3.404  0.8302  0.8653  0.4759
 4944TIP3    H114796   2.160   3.955   3.392 -0.4337  0.9899 -1.1411
 4944TIP3    H214797   2.179   4.063   3.497 -1.3194 -1.1925  1.3755
 4945TIP3   OH214798   0.805   1.382   4.758  0.3395 -0.2809  0.2469
 4945TIP3    H114799   0.750   1.451   4.719  0.9287  0.5374  0.8273
 4945TIP3    H214800   0.843   1.337   4.683  0.7703  0.7110 -0.1574
 4946TIP3   OH214801   5.313   3.885   0.323  0.3657  0.1183  0.5434
 4946TIP3    H114802   5.384   3.927   0.372  0.4513 -0.6515  1.1007
 4946TIP3    H214803   5.234   3.924   0.358  0.3971 -0.8127  1.7159
 4947TIP3   OH214804   5.529   3.812   5.785  0.0153  0.4529  0.3360
 4947TIP3    H114805   5.602   3.834   5.727  0.2558  0.2174  0.5467
 4947TIP3    H214806   5.570   3.768   5.860 -0.3168  0.5264  0.5656
 4948TIP3   OH214807   7.176   5.337   4.481  0.6897 -0.0444 -0.1595
 4948TIP3    H114808   7.102   5.322   4.540 -1.1516 -0.1831 -2.3657
 4948TIP3    H214809   7.213   5.420   4.510 -1.8334  1.2549 -0.4222
 4949TIP3   OH214810   1.524   2.084   5.818  0.2805 -0.5127 -0.1635
 4949TIP3    H114811   1.478   2.001   5.807 -0.3381 -0.0444 -1.3154
 4949TIP3    H214812   1.617   2.062   5.815  0.1174 -1.1030 -0.9941
 4950TIP3   OH214813   2.396   1.714   2.544 -0.3653  0.7516  0.3762
 4950TIP3    H114814   2.334   1.690   2.614  0.3251 -1.3988  0.3227
 4950TIP3    H214815   2.414   1.631   2.499 -0.1878  1.9497 -1.9021
 4951TIP3   OH214816   3.393   6.635   1.527  0.2869 -0.0411 -1.0807
 4951TIP3    H114817   3.319   6.577   1.510  0.1489  0.0195 -0.6898
 4951TIP3    H214818   3.449   6.627   1.449  1.3419 -2.3193 -0.1731
 4952TIP3   OH214819   2.609   5.417   0.986 -0.1601  0.4324 -0.2216
 4952TIP3    H114820   2.553   5.437   0.911  0.8848  0.0858 -1.1187
 4952TIP3    H214821   2.549   5.386   1.054 -1.1211  0.7675 -0.9092
 4953TIP3   OH214822   3.728   0.228   2.150 -0.2670  0.7100  0.2704
 4953TIP3    H114823   3.753   0.319   2.134 -0.6862  0.8566  0.4339
 4953TIP3    H214824   3.769   0.179   2.078  1.2644  0.8049  1.0262
 4954TIP3   OH214825   4.320   0.421   4.283 -0.3659 -0.1849  0.4463
 4954TIP3    H114826   4.414   0.402   4.291 -0.3884 -0.1833  0.7485
 4954TIP3    H214827   4.280   0.370   4.354 -0.3729  1.4306  1.6529
 4955TIP3   OH214828   5.118   1.012   3.402 -0.2004 -0.1085 -0.0068
 4955TIP3    H114829   5.162   0.996   3.318  1.5466 -1.3179  1.0709
 4955TIP3    H214830   5.118   0.927   3.446 -0.1669  0.7073  1.6439
 4956TIP3   OH214831   2.426   2.897   3.149 -0.0741 -0.6385  0.2464
 4956TIP3    H114832   2.406   2.870   3.059  1.7709 -2.2325  0.2505
 4956TIP3    H214833   2.472   2.980   3.139 -1.6037  0.2217 -0.0918
 4957TIP3   OH214834   5.423   0.382   3.546 -0.5661  0.3081 -0.0509
 4957TIP3    H114835   5.384   0.308   3.500 -0.5919 -0.8473  1.7269
 4957TIP3    H214836   5.419   0.358   3.639  2.1923  1.1579  0.3998
 4958TIP3   OH214837   1.682   5.623   2.723 -0.0813  0.1464 -0.1290
 4958TIP3    H114838   1.682   5.612   2.818 -0.0466  0.7451 -0.0566
 4958TIP3    H214839   1.761   5.577   2.694 -0.0178  0.0791  0.1475
 4959TIP3   OH214840   0.023   2.269   0.409  0.6307  0.2022  0.1655
 4959TIP3    H114841  -0.051   2.316   0.447  2.5168  1.7140  2.1915
 4959TIP3    H214842   0.080   2.337   0.373  1.9655 -0.7527  0.3801
 4960TIP3   OH214843   3.670   4.020   0.334  0.1422 -0.6639  0.2669
 4960TIP3    H114844   3.672   4.111   0.305 -1.9333 -1.1710 -1.7144
 4960TIP3    H214845   3.580   4.005   0.363  0.5294 -2.0085  0.8676
 4961TIP3   OH214846   1.895   2.201   0.049  0.1067  0.5385  0.7289
 4961TIP3    H114847   1.903   2.204   0.144  2.9138  0.5041  0.5756
 4961TIP3    H214848   1.897   2.108   0.028  1.3683  0.5828  0.5708
 4962TIP3   OH214849   1.237   5.222   1.200 -0.2667  0.6270  0.1879
 4962TIP3    H114850   1.212   5.301   1.248  0.7012  1.8145 -1.1646
 4962TIP3    H214851   1.170   5.215   1.131 -1.0921 -0.5088  1.0693
 4963TIP3   OH214852   2.078   6.499   1.662 -0.4921  0.2165  0.3876
 4963TIP3    H114853   2.001   6.553   1.642 -1.1148 -0.8163 -0.0326
 4963TIP3    H214854   2.099   6.522   1.752 -0.7344  1.1783  0.2170
 4964TIP3   OH214855   3.760   5.260   2.739 -0.7807 -0.2638  0.0635
 4964TIP3    H114856   3.688   5.254   2.801 -0.7441  2.0373  0.4017
 4964TIP3    H214857   3.721   5.294   2.659 -0.9612 -3.7926 -1.5708
 4965TIP3   OH214858   3.511   5.400   4.282  0.0069  0.6795 -0.3036
 4965TIP3    H114859   3.539   5.374   4.194 -0.5202 -1.3314  0.0760
 4965TIP3    H214860   3.456   5.477   4.268 -0.7776 -0.1135 -1.8326
 4966TIP3   OH214861   2.598   6.395   1.682 -0.0463  0.5287  0.2448
 4966TIP3    H114862   2.525   6.424   1.736  0.8906  1.2136  1.1838
 4966TIP3    H214863   2.656   6.471   1.677  0.9695 -0.2276  0.1743
 4967TIP3   OH214864   6.637   2.118   4.864 -0.1065 -0.6481 -0.1336
 4967TIP3    H114865   6.625   2.046   4.802 -0.3122 -1.0283  0.3343
 4967TIP3    H214866   6.731   2.120   4.880 -0.2618 -1.9745  1.1743
 4968TIP3   OH214867   4.742   5.094   3.751 -0.1433  0.0575  0.4959
 4968TIP3    H114868   4.800   5.095   3.675  0.7170  1.1492  1.1280
 4968TIP3    H214869   4.796   5.130   3.822 -1.0692 -0.5120  1.5063
 4969TIP3   OH214870   5.807   5.109   3.382  0.3354 -0.2570  0.1322
 4969TIP3    H114871   5.760   5.121   3.465 -1.9806  0.4015 -1.1857
 4969TIP3    H214872   5.745   5.064   3.326  1.0632  1.1129 -1.8861
 4970TIP3   OH214873   5.539   3.176   4.948 -0.1497  0.3742  0.2033
 4970TIP3    H114874   5.517   3.087   4.920 -1.1455  1.1603 -1.6156
 4970TIP3    H214875   5.634   3.180   4.940 -0.2182 -0.1012 -1.0457
 4971TIP3   OH214876   3.200   2.880   4.264  0.0655  0.3511 -0.2597
 4971TIP3    H114877   3.111   2.856   4.241  0.2593  0.0702 -0.7364
 4971TIP3    H214878   3.191   2.957   4.320 -0.5098 -0.1222  0.3187
 4972TIP3   OH214879   5.063   4.700   3.441  0.1857 -0.4640  0.1408
 4972TIP3    H114880   5.054   4.641   3.515  0.2461 -0.6685 -0.0149
 4972TIP3    H214881   5.086   4.644   3.367  2.6742 -0.0052  0.4856
 4973TIP3   OH214882   4.538   5.209   0.721 -0.4889 -0.2266 -0.0222
 4973TIP3    H114883   4.484   5.240   0.794 -0.4590 -2.0658  0.8422
 4973TIP3    H214884   4.541   5.283   0.660 -2.4707  0.5595  0.7387
 4974TIP3   OH214885   0.047   3.226   5.863 -0.1297  0.4726 -0.5240
 4974TIP3    H114886   0.076   3.290   5.799 -0.4036  2.4423  1.2093
 4974TIP3    H214887  -0.035   3.192   5.828  1.2737 -0.9138 -2.6925
 4975TIP3   OH214888   6.365   4.633   4.931  0.5272  0.6397  0.3621
 4975TIP3    H114889   6.291   4.688   4.960  1.1493  1.0993  1.1211
 4975TIP3    H214890   6.387   4.668   4.844 -2.0756 -1.4767 -1.3011
 4976TIP3   OH214891   1.747   6.576   3.831 -0.2661  0.7934  0.2153
 4976TIP3    H114892   1.704   6.660   3.813 -0.6510  0.5981  0.2109
 4976TIP3    H214893   1.708   6.516   3.767 -2.1221 -0.0704  2.0469
 4977TIP3   OH214894   3.274   5.493   3.340  0.3495  0.1474 -0.0764
 4977TIP3    H114895   3.336   5.495   3.267  0.1598  1.7164 -0.2126
 4977TIP3    H214896   3.294   5.411   3.386  1.3201 -0.2356 -1.1414
 4978TIP3   OH214897   4.892   4.493   5.556  0.5583  0.9114 -0.2184
 4978TIP3    H114898   4.948   4.425   5.517  0.7524  1.2725 -0.5712
 4978TIP3    H214899   4.857   4.452   5.635  1.2775  0.6605 -0.0244
 4979TIP3   OH214900   4.988   1.596   1.228  0.2848  0.3631  0.1944
 4979TIP3    H114901   4.944   1.669   1.270  0.1439 -0.1564  0.9706
 4979TIP3    H214902   4.925   1.563   1.165  0.6169  1.3471 -0.6829
 4980TIP3   OH214903   7.094   4.458   2.857  0.3643 -0.3239  0.1865
 4980TIP3    H114904   7.112   4.395   2.927 -0.8666 -1.4588 -0.4872
 4980TIP3    H214905   7.018   4.508   2.888  1.6906  1.3227  0.9893
 4981TIP3   OH214906   3.681   2.134   2.256  0.0587 -0.0159 -0.2092
 4981TIP3    H114907   3.623   2.159   2.184  0.1447 -1.1799 -0.7101
 4981TIP3    H214908   3.708   2.217   2.295 -0.4548  0.6142 -1.1467
 4982TIP3   OH214909   1.981   1.511   1.810 -0.1443 -0.2762 -0.1541
 4982TIP3    H114910   1.887   1.496   1.802  0.1846 -1.4335 -2.6338
 4982TIP3    H214911   2.009   1.535   1.722  1.5356  2.5291  1.0249
 4983TIP3   OH214912   1.511   4.791   4.969 -0.0281  0.1094 -0.2745
 4983TIP3    H114913   1.564   4.727   5.015 -1.0455 -1.7438 -1.5117
 4983TIP3    H214914   1.452   4.827   5.035 -0.0280 -0.9095  0.2883
 4984TIP3   OH214915   5.300   4.084   0.096  0.0368  0.0207 -0.2742
 4984TIP3    H114916   5.392   4.104   0.076  0.2807 -1.0775 -0.3074
 4984TIP3    H214917   5.305   4.010   0.157 -0.8092  0.5603  0.4613
 4985TIP3   OH214918   5.447   4.973   3.375 -0.2170 -0.4403  0.0742
 4985TIP3    H114919   5.441   4.887   3.334 -1.2846  0.1886 -1.1681
 4985TIP3    H214920   5.375   4.974   3.438 -0.7131 -0.1873 -0.4835
 4986TIP3   OH214921   2.391   0.294   5.356 -0.3716  0.0693 -0.4817
 4986TIP3    H114922   2.297   0.282   5.342 -0.1148 -0.7090 -1.7011
 4986TIP3    H214923   2.431   0.262   5.276  0.9023  1.2287 -0.3494
 4987TIP3   OH214924   2.387   3.897   0.800 -0.3111 -0.2744  0.2581
 4987TIP3    H114925   2.344   3.912   0.884 -0.3917  0.9433  0.0212
 4987TIP3    H214926   2.326   3.843   0.750 -1.6806  1.5426 -0.1340
 4988TIP3   OH214927   4.833   1.911   5.675  0.3954  0.1574 -0.4804
 4988TIP3    H114928   4.746   1.935   5.706  0.4972  0.0286 -0.0790
 4988TIP3    H214929   4.856   1.978   5.611  1.2243  1.9525  1.5652
 4989TIP3   OH214930   3.617   5.164   5.246 -0.4179  0.0586 -0.5721
 4989TIP3    H114931   3.592   5.230   5.311  1.4904 -0.3974  0.7445
 4989TIP3    H214932   3.631   5.084   5.298  0.8851 -0.3932 -1.5585
 4990TIP3   OH214933   4.275   0.669   2.767  0.1650 -0.5014 -0.1269
 4990TIP3    H114934   4.351   0.722   2.743  0.0360  0.0238  0.5740
 4990TIP3    H214935   4.312   0.586   2.799  0.5112  0.0692  1.0238
 4991TIP3   OH214936   3.225   4.397   3.443 -0.1577 -0.0065 -0.0966
 4991TIP3    H114937   3.189   4.353   3.519 -2.1195 -0.9612 -1.4945
 4991TIP3    H214938   3.165   4.470   3.427  1.3104  1.3534  0.3551
 4992TIP3   OH214939   3.866   1.004   0.835 -0.0507  0.4160 -0.0392
 4992TIP3    H114940   3.954   0.972   0.856 -0.3225 -0.5571 -0.3671
 4992TIP3    H214941   3.847   0.966   0.749 -1.3560 -0.5450  0.6545
 4993TIP3   OH214942   2.210   0.455   2.729  0.6630  0.8410  0.0054
 4993TIP3    H114943   2.179   0.365   2.716  2.1817  0.1450  0.8943
 4993TIP3    H214944   2.240   0.483   2.643 -0.5656  0.8144 -0.4479
 4994TIP3   OH214945   2.561   5.064   0.576  0.0018 -0.0888  0.3712
 4994TIP3    H114946   2.623   5.033   0.642 -0.2592 -0.4472  0.4577
 4994TIP3    H214947   2.545   4.987   0.521  0.9172  0.4478 -0.6750
 4995TIP3   OH214948   0.821   6.599   0.241  0.1372  0.4211  0.1599
 4995TIP3    H114949   0.739   6.554   0.262 -0.0712  0.8613  0.3143
 4995TIP3    H214950   0.882   6.570   0.308  0.2778 -0.3555 -0.2922
 4996TIP3   OH214951   6.770   4.521   1.762 -0.2474 -0.2664  0.0204
 4996TIP3    H114952   6.694   4.490   1.811  0.6883  0.9686  2.4738
 4996TIP3    H214953   6.840   4.459   1.786 -0.0858 -0.4777 -0.9490
 4997TIP3   OH214954   4.702   1.365   5.188 -0.2414  0.0702 -0.1237
 4997TIP3    H114955   4.660   1.370   5.102 -1.9274  1.9153  0.7428
 4997TIP3    H214956   4.657   1.293   5.232  2.2288 -2.5260 -1.4777
 4998TIP3   OH214957   1.457   2.669   0.662 -0.1901 -0.2798  0.0847
 4998TIP3    H114958   1.456   2.582   0.701 -0.5825 -0.1991  0.2631
 4998TIP3    H214959   1.411   2.658   0.579  0.8756 -0.5075 -0.4913
 4999TIP3   OH214960   4.544   3.782   1.267 -0.1629  0.1572 -0.2025
 4999TIP3    H114961   4.622   3.812   1.314  0.1040  0.4427 -0.8195
 4999TIP3    H214962   4.495   3.862   1.247  0.1420  0.1251 -1.1278
 5000TIP3   OH214963   4.865   6.769   0.270 -0.3030 -0.6195 -0.6530
 5000TIP3    H114964   4.858   6.674   0.272 -1.6853 -0.5623 -1.8597
 5000TIP3    H214965   4.956   6.786   0.245 -0.4117 -1.6448 -1.8201
 5001TIP3   OH214966   0.437   4.738   5.304  0.2570  0.1528  0.4198
 5001TIP3    H114967   0.490   4.693   5.238 -0.2734 -1.0147  0.7649
 5001TIP3    H214968   0.349   4.700   5.294 -0.6775  2.3737 -0.4523
 5002TIP3   OH214969   0.208   2.612   4.693 -0.0059  0.2777 -0.0847
 5002TIP3    H114970   0.149   2.633   4.765  0.0752 -0.6620  0.2640
 5002TIP3    H214971   0.185   2.675   4.624  0.9539  2.2128  1.2863
 5003TIP3   OH214972   0.894   2.100   2.785 -0.2259  0.3302  0.2298
 5003TIP3    H114973   0.966   2.083   2.724  0.7833 -1.8060  1.8712
 5003TIP3    H214974   0.889   2.021   2.839 -4.6697 -0.1816 -0.5460
 5004TIP3   OH214975   1.346   5.893   2.079 -0.3320 -0.0383 -0.9326
 5004TIP3    H114976   1.331   5.845   2.160  0.7779 -1.4501 -1.5225
 5004TIP3    H214977   1.260   5.929   2.056 -1.3264 -2.1387 -0.7035
 5005TIP3   OH214978   2.671   3.154   0.234  0.2357  0.2451 -0.0966
 5005TIP3    H114979   2.619   3.233   0.243 -2.3501 -1.1819 -1.3695
 5005TIP3    H214980   2.700   3.153   0.143  0.2166 -0.2924 -0.1024
 5006TIP3   OH214981   3.183   4.394   0.183 -0.0170  0.1243  0.2331
 5006TIP3    H114982   3.272   4.426   0.168 -0.4252  2.2592  1.9124
 5006TIP3    H214983   3.193   4.300   0.194  1.6241 -0.1021 -2.3531
 5007TIP3   OH214984   6.677   2.497   5.569  0.3417 -0.2505 -0.5506
 5007TIP3    H114985   6.748   2.442   5.536 -1.1136 -1.5488 -1.6648
 5007TIP3    H214986   6.715   2.584   5.576  1.6667 -0.6164 -2.4676
 5008TIP3   OH214987   1.683   4.490   3.217 -0.0431 -0.0138 -0.6607
 5008TIP3    H114988   1.651   4.405   3.248 -0.5398 -0.5426 -2.4889
 5008TIP3    H214989   1.774   4.473   3.192  0.4774  0.5053  0.7594
 5009TIP3   OH214990   4.430   2.576   5.225 -0.1115 -0.4707 -0.1226
 5009TIP3    H114991   4.382   2.653   5.193 -0.7777 -1.3431 -1.3182
 5009TIP3    H214992   4.369   2.503   5.212  1.1328 -1.4536 -0.6344
 5010TIP3   OH214993   6.797   6.168   1.406  0.3129  0.0139  0.2419
 5010TIP3    H114994   6.797   6.234   1.337  0.4384 -0.0709  0.1603
 5010TIP3    H214995   6.763   6.089   1.365  0.5490 -0.0842  0.2286
 5011TIP3   OH214996   4.780   1.894   3.140 -0.3193 -0.6895  0.6070
 5011TIP3    H114997   4.821   1.823   3.090  1.2287  0.6691 -0.1655
 5011TIP3    H214998   4.743   1.851   3.217  1.5020 -2.2138  0.6989
 5012TIP3   OH214999   4.941   0.575   1.080  0.5449  0.1903 -0.4717
 5012TIP3    H115000   4.970   0.484   1.078 -0.7980 -0.2546 -0.8996
 5012TIP3    H215001   4.940   0.598   1.173 -0.2094 -0.6213 -0.2636
 5013TIP3   OH215002   5.714   3.925   4.470  0.0054 -0.2545  0.4724
 5013TIP3    H115003   5.714   3.909   4.564  0.0231 -0.2375  0.4757
 5013TIP3    H215004   5.800   3.895   4.440 -0.0157 -0.2967  0.4550
 5014TIP3   OH215005   5.732   2.517   3.040  0.2824 -0.0411  0.1450
 5014TIP3    H115006   5.792   2.587   3.069 -0.4096  0.7477 -0.2806
 5014TIP3    H215007   5.649   2.562   3.026 -0.6649 -1.2613  1.5508
 5015TIP3   OH215008   7.090   5.777   0.636  0.1729 -0.3775  0.4356
 5015TIP3    H115009   7.070   5.732   0.718  0.1519 -0.3938  0.4214
 5015TIP3    H215010   7.142   5.714   0.586 -0.2372 -0.5534  0.2292
 5016TIP3   OH215011   5.244   0.243   5.481  0.6008 -0.7911  0.0137
 5016TIP3    H115012   5.235   0.207   5.569  0.8462 -1.6590 -0.3089
 5016TIP3    H215013   5.173   0.204   5.431  0.8718 -0.8334 -0.3446
 5017TIP3   OH215014   6.292   4.434   3.656 -0.1300  0.3038 -0.4623
 5017TIP3    H115015   6.213   4.424   3.604  0.3740 -1.2168 -0.9692
 5017TIP3    H215016   6.340   4.352   3.644  1.0830  0.8251  0.5773
 5018TIP3   OH215017   6.424   1.603   2.636  0.3755 -0.3631  0.0346
 5018TIP3    H115018   6.376   1.589   2.555  0.6133  1.6189 -0.4986
 5018TIP3    H215019   6.515   1.584   2.613  0.6947  1.7604 -0.6812
 5019TIP3   OH215020   5.994   6.459   2.530 -0.2607  0.3026 -0.0221
 5019TIP3    H115021   6.005   6.394   2.600 -2.8693  0.2330  0.4376
 5019TIP3    H215022   6.030   6.417   2.452 -1.8695 -1.7774  0.2523
 5020TIP3   OH215023   1.807   0.267   2.624 -0.1571 -0.2099  0.3423
 5020TIP3    H115024   1.777   0.307   2.706 -1.2981  0.9218 -0.6035
 5020TIP3    H215025   1.739   0.286   2.561  2.3995  2.4390 -1.9250
 5021TIP3   OH215026   4.489   2.965   2.206  0.1695  0.1228 -0.0781
 5021TIP3    H115027   4.469   2.872   2.208 -1.6489  0.4869  1.1085
 5021TIP3    H215028   4.525   2.980   2.118 -1.6785 -1.2764 -1.1462
 5022TIP3   OH215029   6.265   6.119   2.744 -0.6596  0.0960  0.1890
 5022TIP3    H115030   6.323   6.051   2.711 -0.6228  0.4513 -0.4868
 5022TIP3    H215031   6.290   6.198   2.696 -0.4984  0.6649  1.1690
 5023TIP3   OH215032   3.278   3.087   5.511 -0.1023  0.2693  0.5246
 5023TIP3    H115033   3.263   3.154   5.578  0.8297 -0.0976  1.1134
 5023TIP3    H215034   3.303   3.136   5.433 -0.8124  0.6793  0.5443
 5024TIP3   OH215035   0.115   0.117   2.397 -0.2830 -0.5040 -0.2992
 5024TIP3    H115036   0.128   0.077   2.311  1.1285 -1.8905  0.5176
 5024TIP3    H215037   0.166   0.198   2.393 -1.1915  0.0653 -1.1268
 5025TIP3   OH215038   0.034   5.363   4.894  0.1070  0.7839  0.2811
 5025TIP3    H115039   0.086   5.284   4.875  1.0300  1.3000  0.6036
 5025TIP3    H215040  -0.053   5.342   4.860  0.5942  0.0185 -0.5742
 5026TIP3   OH215041   7.080   5.703   5.829  0.2058 -1.0594  0.2553
 5026TIP3    H115042   7.006   5.765   5.833  1.6997  0.9130 -0.8547
 5026TIP3    H215043   7.039   5.617   5.836 -2.0219 -0.0037  1.6139
 5027TIP3   OH215044   6.343   1.160   3.205 -0.2518  0.1567  0.2971
 5027TIP3    H115045   6.303   1.085   3.160 -1.7605  0.7979  0.5029
 5027TIP3    H215046   6.368   1.126   3.291  0.5632 -0.5086 -0.1936
 5028TIP3   OH215047   1.817   1.665   2.842  0.1622  0.4358  0.0063
 5028TIP3    H115048   1.793   1.580   2.804 -1.2827  1.3895 -1.3348
 5028TIP3    H215049   1.799   1.654   2.936 -1.9949 -0.1445 -0.4173
 5029TIP3   OH215050   5.043   5.228   4.209  0.2938  0.3019 -0.0321
 5029TIP3    H115051   5.036   5.150   4.264 -1.3301  1.9623  2.3359
 5029TIP3    H215052   5.003   5.297   4.261  0.3627  2.4435 -2.6199
 5030TIP3   OH215053   1.914   5.643   0.036  0.4464 -0.3759 -0.2320
 5030TIP3    H115054   1.820   5.654   0.055  0.7243 -0.2890  1.2219
 5030TIP3    H215055   1.958   5.697   0.102  1.5749 -1.8789  0.2841
 5031TIP3   OH215056   6.929   1.386   1.902  0.8452  0.0179  0.2986
 5031TIP3    H115057   6.855   1.367   1.844  0.6215  1.1105  0.2074
 5031TIP3    H215058   7.004   1.345   1.858  0.5863  0.3697 -0.4938
 5032TIP3   OH215059   0.998   6.647   2.523 -0.7242  0.0166 -0.0239
 5032TIP3    H115060   0.984   6.684   2.436  0.2584  0.0015 -0.1926
 5032TIP3    H215061   0.959   6.711   2.583  0.6515  1.1890 -0.3314
 5033TIP3   OH215062   3.288   5.792   1.966  0.0897 -0.1695  0.5738
 5033TIP3    H115063   3.346   5.771   2.040 -0.2176  3.3250  1.9766
 5033TIP3    H215064   3.336   5.857   1.915 -2.0544  2.0859  1.2192
 5034TIP3   OH215065   2.710   1.338   2.484 -0.7771 -0.3102  0.2831
 5034TIP3    H115066   2.798   1.304   2.502  0.2687  1.2299 -1.5600
 5034TIP3    H215067   2.702   1.414   2.542  0.7956  1.9429 -2.2284
 5035TIP3   OH215068   5.184   1.432   0.657  0.0583 -0.0493 -0.3920
 5035TIP3    H115069   5.111   1.412   0.598 -0.9966 -0.7164  1.0458
 5035TIP3    H215070   5.211   1.346   0.690  1.2992  0.2282 -0.6628
 5036TIP3   OH215071   2.217   0.087   3.866 -0.6776 -0.2512 -0.1219
 5036TIP3    H115072   2.194   0.177   3.843  0.2591  0.3617  1.1713
 5036TIP3    H215073   2.310   0.078   3.842 -0.3038 -0.3066  1.2423
 5037TIP3   OH215074   6.490   3.022   4.852 -0.5381  0.2597 -0.4663
 5037TIP3    H115075   6.401   3.000   4.878 -0.7577  0.0526 -1.3644
 5037TIP3    H215076   6.482   3.105   4.805 -0.2066  0.4058 -0.2733
 5038TIP3   OH215077   7.026   2.599   5.883  0.0482 -0.2028 -0.1419
 5038TIP3    H115078   7.086   2.539   5.838 -0.2956 -0.3233 -0.4447
 5038TIP3    H215079   7.083   2.666   5.920  0.5260 -1.1740  0.9346
 5039TIP3   OH215080   3.384   0.663   2.285  0.1624 -0.5271 -0.3211
 5039TIP3    H115081   3.340   0.727   2.340 -1.7581 -1.4307 -0.7440
 5039TIP3    H215082   3.379   0.699   2.196 -1.8873 -1.7096 -0.7238
 5040TIP3   OH215083   4.908   0.138   4.097 -0.8535 -0.1222 -0.5628
 5040TIP3    H115084   4.846   0.208   4.114 -0.2164  0.0669  1.2271
 5040TIP3    H215085   4.994   0.180   4.103 -0.4690 -0.9958  0.3557
 5041TIP3   OH215086   1.788   1.313   5.380 -0.6108  0.3526  0.3140
 5041TIP3    H115087   1.884   1.319   5.377 -0.3295 -2.5713  0.2980
 5041TIP3    H215088   1.766   1.330   5.472  0.1737 -0.8658  0.7616
 5042TIP3   OH215089   0.199   4.827   4.476 -0.2379 -0.1573 -0.1414
 5042TIP3    H115090   0.270   4.782   4.522  0.1645 -1.1135 -1.6095
 5042TIP3    H215091   0.119   4.782   4.505 -0.0374 -0.4287 -0.0104
 5043TIP3   OH215092   3.763   4.749   3.750 -0.6359  0.5654 -0.1528
 5043TIP3    H115093   3.797   4.812   3.813 -0.6982  0.0613  0.3940
 5043TIP3    H215094   3.753   4.799   3.669  0.3734  0.9868 -0.0381
 5044TIP3   OH215095   0.859   6.666   3.746  0.4191  0.0398  1.1664
 5044TIP3    H115096   0.881   6.581   3.782  0.4607 -0.0351  0.9615
 5044TIP3    H215097   0.842   6.650   3.653  0.7017  0.3022  1.0685
 5045TIP3   OH215098   5.962   6.021   3.877 -0.1529  0.8948  0.3509
 5045TIP3    H115099   5.964   5.995   3.969 -0.5131 -0.9571 -0.1278
 5045TIP3    H215100   5.985   6.114   3.878  0.0742  0.8569  2.2804
 5046TIP3   OH215101   3.905   2.977   5.079 -0.1972  0.4082 -0.0737
 5046TIP3    H115102   3.989   2.958   5.037 -0.1890  1.3922 -0.5371
 5046TIP3    H215103   3.861   2.892   5.085  0.0997  0.1281 -1.4566
 5047TIP3   OH215104   6.636   1.688   4.102 -0.1841  0.8892 -0.6040
 5047TIP3    H115105   6.690   1.749   4.050  2.0853 -1.4421 -1.2053
 5047TIP3    H215106   6.700   1.631   4.145 -2.1468  0.4642  1.9348
 5048TIP3   OH215107   0.694   6.473   0.631 -0.1626  0.3691 -0.1535
 5048TIP3    H115108   0.749   6.400   0.604  0.4371  1.5514 -2.4969
 5048TIP3    H215109   0.751   6.528   0.685  0.9908  1.3722 -2.2199
 5049TIP3   OH215110   7.182   6.647   3.238  0.0059 -0.4700 -0.0542
 5049TIP3    H115111   7.120   6.621   3.306 -0.6180  0.6576 -0.1656
 5049TIP3    H215112   7.137   6.715   3.189  1.0063 -0.2403 -0.6899
 5050TIP3   OH215113   4.139   2.058   3.474  0.5923  0.4304  0.1780
 5050TIP3    H115114   4.088   2.066   3.393  1.7662 -0.6916 -0.7165
 5050TIP3    H215115   4.108   2.130   3.529  0.1612  1.5765 -1.4821
 5051TIP3   OH215116   5.825   2.644   4.788  0.0394  0.6394 -0.9585
 5051TIP3    H115117   5.876   2.613   4.714 -1.6313 -2.3574 -0.9871
 5051TIP3    H215118   5.864   2.600   4.864 -0.4389  0.9604 -0.5211
 5052TIP3   OH215119   6.594   3.991   3.556 -0.4306 -0.3178  0.0132
 5052TIP3    H115120   6.511   4.006   3.602  0.0523 -0.7875  1.0849
 5052TIP3    H215121   6.596   4.058   3.488 -0.5379  1.3315  1.5463
 5053TIP3   OH215122   6.986   6.185   3.644 -0.3529 -0.4883 -0.1158
 5053TIP3    H115123   6.978   6.269   3.689  0.7385 -0.5144  0.1586
 5053TIP3    H215124   6.924   6.191   3.571  0.0487  0.7501 -0.3801
 5054TIP3   OH215125   0.484   5.633   3.030  0.1446  0.3780  0.0804
 5054TIP3    H115126   0.565   5.591   2.999  0.7736  1.0858  0.7187
 5054TIP3    H215127   0.510   5.723   3.049 -0.9247  0.7549 -0.1943
 5055TIP3   OH215128   5.180   4.892   3.163  0.2698 -0.1424 -0.1684
 5055TIP3    H115129   5.226   4.974   3.147 -0.6098  0.2677 -0.6786
 5055TIP3    H215130   5.199   4.871   3.255  0.5836  0.5775 -0.0638
 5056TIP3   OH215131   0.293   4.272   0.090 -0.4590  0.1043  0.1911
 5056TIP3    H115132   0.239   4.193   0.101 -1.2725  0.8978  2.1952
 5056TIP3    H215133   0.326   4.265   0.000 -3.6621 -0.5690 -1.0739
 5057TIP3   OH215134   6.035   6.782   0.850  0.3376  0.3738  0.3321
 5057TIP3    H115135   6.076   6.740   0.774 -2.0397 -0.4220 -0.6269
 5057TIP3    H215136   5.967   6.721   0.877 -2.2268  2.7895 -0.1069
 5058TIP3   OH215137   1.745   0.369   2.887  0.2812 -0.4444 -0.0289
 5058TIP3    H115138   1.765   0.454   2.925  1.5690  0.1549 -1.9072
 5058TIP3    H215139   1.650   0.369   2.876  0.1652  0.3362  0.8431
 5059TIP3   OH215140   6.831   4.066   2.708  0.6108 -0.0221  0.6781
 5059TIP3    H115141   6.919   4.047   2.740  0.5368 -2.2233 -0.2032
 5059TIP3    H215142   6.777   4.069   2.787  1.3832  0.7854  1.1841
 5060TIP3   OH215143   5.092   3.675   4.017 -0.3926  0.0614  0.4077
 5060TIP3    H115144   5.094   3.636   3.930 -1.2151  2.5441 -0.7934
 5060TIP3    H215145   5.088   3.600   4.076  0.9791 -1.7212 -1.6089
 5061TIP3   OH215146   7.113   5.586   2.085  0.4558 -0.2079  0.1818
 5061TIP3    H115147   7.025   5.603   2.050  0.1481  0.6017  1.2768
 5061TIP3    H215148   7.121   5.647   2.159  1.8428 -0.4538  0.2595
 5062TIP3   OH215149   3.255   5.340   4.994 -0.1263 -0.8328  1.0082
 5062TIP3    H115150   3.257   5.385   4.910  3.6413  0.7976  1.7395
 5062TIP3    H215151   3.171   5.363   5.033  0.1262  2.6421 -0.2369
 5063TIP3   OH215152   7.110   4.447   5.577  0.4715 -0.0667 -0.2210
 5063TIP3    H115153   7.083   4.385   5.646 -0.7433  0.7101  0.0317
 5063TIP3    H215154   7.193   4.483   5.608  0.8819 -1.1105 -0.0762
 5064TIP3   OH215155   4.000   3.533   0.280  0.1112 -0.3741  0.6615
 5064TIP3    H115156   3.910   3.558   0.300  0.2306  0.4061  0.2706
 5064TIP3    H215157   3.992   3.454   0.227 -0.3267 -0.4638  0.8550
 5065TIP3   OH215158   4.570   2.297   1.668  0.4234  0.4087 -0.0087
 5065TIP3    H115159   4.567   2.332   1.579  0.5595  0.8494  0.1581
 5065TIP3    H215160   4.596   2.206   1.657 -3.6494 -0.8791 -0.7854
 5066TIP3   OH215161   2.394   0.781   3.108  0.1092 -1.4936  0.0415
 5066TIP3    H115162   2.323   0.718   3.100  0.7444 -2.1950 -0.2454
 5066TIP3    H215163   2.469   0.728   3.138  0.6262 -0.8562 -0.1145
 5067TIP3   OH215164   1.987   3.699   2.906  0.0450  0.0485 -0.1011
 5067TIP3    H115165   1.951   3.723   2.821 -0.5358  0.6024  0.2851
 5067TIP3    H215166   2.081   3.691   2.892  0.0622  1.0284 -0.6011
 5068TIP3   OH215167   0.310   4.953   3.488  0.5202 -0.0967  0.1019
 5068TIP3    H115168   0.279   5.004   3.413  0.4556 -1.6904 -1.0057
 5068TIP3    H215169   0.386   4.906   3.455  0.1724 -1.2382  0.8585
 5069TIP3   OH215170   6.637   0.749   3.570 -0.0226 -0.1469  0.3043
 5069TIP3    H115171   6.687   0.707   3.640 -0.2988 -1.9948 -0.5463
 5069TIP3    H215172   6.702   0.796   3.519  0.6595 -1.3643  0.0237
 5070TIP3   OH215173   6.014   2.022   2.791 -0.1361 -0.1565  0.4211
 5070TIP3    H115174   6.011   1.940   2.741 -1.9292  0.4954 -0.6566
 5070TIP3    H215175   6.099   2.060   2.769 -0.0697 -0.8431 -0.5881
 5071TIP3   OH215176   5.528   1.758   3.893  0.6174 -0.1741 -0.4359
 5071TIP3    H115177   5.460   1.802   3.842 -0.0462 -1.0742 -0.3598
 5071TIP3    H215178   5.543   1.676   3.846  0.6376 -0.6131  0.3220
 5072TIP3   OH215179   3.885   1.016   3.913 -0.0543  0.5037 -0.4224
 5072TIP3    H115180   3.847   1.019   4.001 -0.3879  0.2253 -0.5558
 5072TIP3    H215181   3.944   0.941   3.915  0.4247  0.8720 -0.2485
 5073TIP3   OH215182   1.358   3.582   2.293  0.1424  0.4003  0.2455
 5073TIP3    H115183   1.434   3.530   2.268  0.0065  0.7528 -0.9859
 5073TIP3    H215184   1.313   3.529   2.359  1.1392 -0.0649  0.5739
 5074TIP3   OH215185   0.553   5.877   1.974  0.4160  0.0922 -0.9005
 5074TIP3    H115186   0.493   5.938   1.932 -0.5766 -0.9240 -1.0357
 5074TIP3    H215187   0.539   5.794   1.927 -0.2595 -0.9191  0.9784
 5075TIP3   OH215188   3.044   2.206   0.958 -0.0200  0.3367  0.0526
 5075TIP3    H115189   3.136   2.187   0.974 -0.0277  1.1896  1.2249
 5075TIP3    H215190   3.012   2.242   1.041 -1.3540  0.2407 -0.4003
 5076TIP3   OH215191   1.727   6.728   1.265  0.3061 -0.2584 -0.5504
 5076TIP3    H115192   1.689   6.814   1.246 -1.3937 -0.6092  1.0478
 5076TIP3    H215193   1.804   6.723   1.208  0.5724  2.3984 -0.5283
 5077TIP3   OH215194   5.034   4.191   4.175 -0.0304 -0.1080 -0.2725
 5077TIP3    H115195   4.962   4.131   4.161  0.2031 -0.3614 -0.3987
 5077TIP3    H215196   5.002   4.252   4.242 -0.0597 -0.7290  0.2921
 5078TIP3   OH215197   3.978   0.402   3.152 -0.1765  0.1185  0.3493
 5078TIP3    H115198   3.943   0.472   3.097  1.1581 -0.0417 -0.7686
 5078TIP3    H215199   3.924   0.403   3.230 -0.5027  2.0613  0.1395
 5079TIP3   OH215200   0.801   0.638   3.829 -0.2369 -0.7467 -0.9067
 5079TIP3    H115201   0.846   0.699   3.888 -1.3224 -0.1353 -0.6827
 5079TIP3    H215202   0.721   0.684   3.804  0.3010 -0.9162 -3.0632
 5080TIP3   OH215203   6.705   5.672   3.683 -0.1313  0.3442  0.0625
 5080TIP3    H115204   6.769   5.735   3.647 -0.0424  1.3295  1.8279
 5080TIP3    H215205   6.697   5.697   3.775  0.6038 -2.8437  1.0873
 5081TIP3   OH215206   1.797   4.683   2.599 -0.1476  0.1082 -0.0520
 5081TIP3    H115207   1.883   4.705   2.564  0.0611 -0.2624  0.2126
 5081TIP3    H215208   1.796   4.721   2.687  0.3049 -1.0959  0.4946
 5082TIP3   OH215209   4.245   2.856   4.016 -0.0461 -0.3047  0.0956
 5082TIP3    H115210   4.158   2.818   4.015  0.3363 -1.3371  1.9824
 5082TIP3    H215211   4.286   2.823   3.936 -1.9060  1.6758 -1.8106
 5083TIP3   OH215212   4.947   6.700   1.054  0.3481 -0.2709  0.4019
 5083TIP3    H115213   4.959   6.780   1.106  0.3576 -1.1581  1.7966
 5083TIP3    H215214   4.890   6.728   0.982 -0.8647  0.7007  1.6632
 5084TIP3   OH215215   1.643   6.710   0.260  0.2484  0.6157 -0.5844
 5084TIP3    H115216   1.734   6.686   0.240  0.9925  2.8040 -0.1626
 5084TIP3    H215217   1.616   6.649   0.328  1.2970 -0.2833 -0.9537
 5085TIP3   OH215218   2.747   4.092   3.732 -0.6911 -0.1963 -0.5868
 5085TIP3    H115219   2.789   4.179   3.736 -1.0170 -0.0143 -1.0940
 5085TIP3    H215220   2.806   4.035   3.782  0.0911  0.0930 -1.1518
 5086TIP3   OH215221   5.290   0.552   2.026 -0.2107  0.1397  1.1857
 5086TIP3    H115222   5.352   0.619   2.056  0.5318  0.0647 -0.0756
 5086TIP3    H215223   5.306   0.477   2.083  1.3145 -0.0803  0.5433
 5087TIP3   OH215224   6.864   4.302   3.372 -0.1231 -0.4133  0.6697
 5087TIP3    H115225   6.947   4.336   3.403  0.1285  0.6004 -0.9901
 5087TIP3    H215226   6.887   4.222   3.325 -0.4103 -1.4955  2.2825
 5088TIP3   OH215227   2.442   6.549   3.809 -0.0966  0.5386  0.3535
 5088TIP3    H115228   2.501   6.482   3.843 -1.4754 -0.3688  1.0351
 5088TIP3    H215229   2.432   6.611   3.881  0.2346  0.8251  0.1500
 5089TIP3   OH215230   1.542   6.091   0.236 -0.2584 -0.2085  0.1939
 5089TIP3    H115231   1.601   6.065   0.307  0.3509 -1.0681 -0.5902
 5089TIP3    H215232   1.593   6.076   0.157 -1.1168  0.2149 -0.4521
 5090TIP3   OH215233   1.952   5.117   5.131 -0.0335 -0.0902  0.0676
 5090TIP3    H115234   1.890   5.184   5.156  0.4910 -0.3576  2.3204
 5090TIP3    H215235   1.937   5.103   5.037 -0.9124  2.3168 -0.1981
 5091TIP3   OH215236   5.680   3.117   5.566 -0.1164 -0.0949 -0.1992
 5091TIP3    H115237   5.734   3.180   5.613 -0.3448  0.2150 -0.3525
 5091TIP3    H215238   5.742   3.062   5.519  0.0208  1.2634 -1.6684
 5092TIP3   OH215239   1.537   2.213   3.326  0.1299 -0.5294  0.1414
 5092TIP3    H115240   1.445   2.189   3.316  0.3842 -0.9955 -1.4241
 5092TIP3    H215241   1.536   2.308   3.341 -0.6420 -0.7172  1.4163
 5093TIP3   OH215242   6.984   1.759   3.539 -0.3314 -0.4756  0.1418
 5093TIP3    H115243   6.895   1.789   3.520  0.3404 -0.4143 -3.8423
 5093TIP3    H215244   6.974   1.667   3.561 -1.5087  0.0874  2.1945
 5094TIP3   OH215245   4.084   1.564   4.250  0.7293 -0.9487  0.3083
 5094TIP3    H115246   4.091   1.471   4.229 -0.3938 -0.7789 -0.9484
 5094TIP3    H215247   4.139   1.608   4.186  0.7967 -0.7154  0.5264
 5095TIP3   OH215248   0.596   0.829   0.472 -0.0403 -0.2116  0.1420
 5095TIP3    H115249   0.670   0.878   0.436  0.7489 -0.2506  1.6869
 5095TIP3    H215250   0.533   0.897   0.497 -0.0895 -0.1312 -0.1893
 5096TIP3   OH215251   7.122   2.202   5.645  0.2891  0.4288  0.6633
 5096TIP3    H115252   7.028   2.181   5.648  0.6829 -1.5516  0.3482
 5096TIP3    H215253   7.166   2.118   5.656  2.0426  1.2016 -0.1066
 5097TIP3   OH215254   5.988   2.025   3.516 -0.3420 -0.2671  0.1643
 5097TIP3    H115255   6.048   2.020   3.590 -0.2040  2.6537  0.3858
 5097TIP3    H215256   6.034   1.982   3.444  1.9787  1.5694  0.4151
 5098TIP3   OH215257   7.205   4.216   5.399 -0.0696 -0.7334 -0.3776
 5098TIP3    H115258   7.206   4.282   5.468  1.0209  0.0922 -1.1489
 5098TIP3    H215259   7.118   4.175   5.406 -1.3003  1.6679 -0.6861
 5099TIP3   OH215260   2.876   1.641   2.737 -0.5990  0.0808  0.0116
 5099TIP3    H115261   2.909   1.695   2.809  1.1547 -0.2851 -0.4518
 5099TIP3    H215262   2.853   1.558   2.778 -0.7627  0.2796  0.3273
 5100TIP3   OH215263   6.668   3.357   0.957  0.3601  0.2402  0.3830
 5100TIP3    H115264   6.683   3.289   1.023 -0.1540  0.7003  0.9921
 5100TIP3    H215265   6.755   3.392   0.939  0.6809 -0.8585 -0.2518
 5101TIP3   OH215266   6.114   3.548   4.469  0.3984  0.2436 -0.3155
 5101TIP3    H115267   6.181   3.549   4.401 -0.4263 -2.7036 -1.3253
 5101TIP3    H215268   6.127   3.465   4.516 -1.2643  0.5420  0.7861
 5102TIP3   OH215269   1.465   3.452   4.205  0.0343  0.5164  0.0614
 5102TIP3    H115270   1.550   3.489   4.181  1.2296 -2.6128 -0.9397
 5102TIP3    H215271   1.470   3.438   4.299  0.5188  0.5664  0.0450
 5103TIP3   OH215272   3.644   6.633   5.185 -0.3273  0.6037  0.0759
 5103TIP3    H115273   3.654   6.722   5.218 -1.5715  0.6982  0.2248
 5103TIP3    H215274   3.557   6.605   5.214  0.7395 -1.3653  1.6782
 5104TIP3   OH215275   0.904   0.166   2.344  0.3184 -0.2648 -0.0339
 5104TIP3    H115276   0.984   0.147   2.296  0.7001  2.8504 -0.8016
 5104TIP3    H215277   0.933   0.218   2.419 -0.7748 -1.2175  1.0949
 5105TIP3   OH215278   3.958   5.299   5.448 -0.0876 -0.2515 -0.6026
 5105TIP3    H115279   3.977   5.318   5.356 -1.9195  0.2684 -0.9081
 5105TIP3    H215280   3.978   5.381   5.494 -0.4739 -0.0623 -0.7610
 5106TIP3   OH215281   4.136   4.495   4.601  0.1172 -0.0680 -0.6656
 5106TIP3    H115282   4.125   4.525   4.692 -1.2945  3.3763 -1.8222
 5106TIP3    H215283   4.048   4.474   4.572  0.5744 -1.2342 -1.2810
 5107TIP3   OH215284   1.651   0.567   4.677  0.4006 -0.1027 -0.5924
 5107TIP3    H115285   1.669   0.478   4.648  0.2613  0.0519 -1.1824
 5107TIP3    H215286   1.672   0.568   4.770 -1.1407 -1.1880 -0.1935
 5108TIP3   OH215287   2.830   0.655   3.735 -0.3446  0.5997  0.3775
 5108TIP3    H115288   2.769   0.662   3.661 -2.0667  0.7643  1.7291
 5108TIP3    H215289   2.818   0.565   3.767 -1.2344  1.1504  1.7051
 5109TIP3   OH215290   2.155   2.282   2.130 -0.2127 -0.1835  0.0478
 5109TIP3    H115291   2.098   2.287   2.053 -0.7602  0.2761  0.4682
 5109TIP3    H215292   2.242   2.264   2.095 -0.6057 -0.8837 -0.6161
 5110TIP3   OH215293   3.358   1.717   3.086  0.2482  0.0288  0.5486
 5110TIP3    H115294   3.415   1.640   3.083 -0.8057 -0.8568  1.9092
 5110TIP3    H215295   3.411   1.785   3.128  1.0088 -0.1027 -0.1772
 5111TIP3   OH215296   5.811   2.278   1.869 -0.5990  0.1365 -0.0783
 5111TIP3    H115297   5.798   2.353   1.926  0.6217 -0.1524  0.5999
 5111TIP3    H215298   5.732   2.225   1.881 -1.0379  0.8366  0.1514
 5112TIP3   OH215299   1.073   5.538   3.111 -0.2163  0.2314  0.2366
 5112TIP3    H115300   1.124   5.484   3.051 -0.6530  0.9677 -0.8391
 5112TIP3    H215301   1.002   5.481   3.141 -0.6896  0.1805 -0.9117
 5113TIP3   OH215302   6.614   4.222   3.430  0.2222  0.0718  0.7869
 5113TIP3    H115303   6.525   4.259   3.427 -0.6626 -1.9238 -2.0428
 5113TIP3    H215304   6.669   4.291   3.394 -0.6065  0.4320  0.1670
 5114TIP3   OH215305   3.342   5.888   2.905 -0.0808 -0.2207 -0.0985
 5114TIP3    H115306   3.271   5.854   2.850  0.0772  0.3646 -0.6669
 5114TIP3    H215307   3.358   5.818   2.969 -0.4429 -0.7958 -0.6286
 5115TIP3   OH215308   5.785   0.198   3.498 -0.5537  0.7188 -0.3149
 5115TIP3    H115309   5.842   0.271   3.517  0.1562  0.4767 -1.3975
 5115TIP3    H215310   5.743   0.177   3.581  1.5624  0.3671  0.7247
 5116TIP3   OH215311   6.613   5.807   0.989 -0.2897  0.2669  0.9189
 5116TIP3    H115312   6.656   5.748   0.927 -1.2523  0.2401  0.2580
 5116TIP3    H215313   6.607   5.757   1.071  0.4742  0.0972  0.8780
 5117TIP3   OH215314   2.940   3.866   3.769 -0.4553  0.2479 -0.2497
 5117TIP3    H115315   2.912   3.812   3.842 -1.2267  1.6310  0.5292
 5117TIP3    H215316   2.902   3.826   3.692 -1.0055 -0.3077  0.3079
 5118TIP3   OH215317   1.293   0.556   3.971  0.0656 -0.0425  0.3350
 5118TIP3    H115318   1.204   0.550   4.007  0.5339  2.4429  2.1700
 5118TIP3    H215319   1.279   0.567   3.877 -1.8042  2.6063  0.7936
 5119TIP3   OH215320   4.197   0.410   4.016  0.4957 -0.0836 -0.0787
 5119TIP3    H115321   4.269   0.444   3.963 -0.9977  0.6241 -1.7683
 5119TIP3    H215322   4.222   0.428   4.106  1.1513  2.7844 -0.7496
 5120TIP3   OH215323   0.100   6.657   3.996 -0.1025  0.5035  0.3014
 5120TIP3    H115324   0.172   6.632   3.938  0.4419 -0.2795  1.2634
 5120TIP3    H215325   0.059   6.574   4.020 -1.1020  0.9164  0.0632
 5121TIP3   OH215326   2.334   1.255   3.007 -0.6038  0.2628 -0.1607
 5121TIP3    H115327   2.350   1.236   3.100 -3.0414  0.2690  0.3260
 5121TIP3    H215328   2.277   1.332   3.009  0.6657  1.3109 -1.7695
 5122TIP3   OH215329   1.079   1.353   2.977 -0.0665 -0.2506 -0.0491
 5122TIP3    H115330   1.150   1.395   2.929  0.9798 -0.6949  1.0633
 5122TIP3    H215331   1.069   1.268   2.936  0.8056 -0.6191  0.4931
 5123TIP3   OH215332   2.920   6.422   2.922 -0.1319  0.3165  0.4379
 5123TIP3    H115333   2.928   6.478   2.999  0.7562  2.0493 -0.8245
 5123TIP3    H215334   2.939   6.481   2.848 -0.9764 -1.2569 -1.1055
 5124TIP3   OH215335   2.397   0.599   1.211  0.0684  0.1978  0.2390
 5124TIP3    H115336   2.393   0.645   1.295  0.1865 -1.2250  1.0501
 5124TIP3    H215337   2.343   0.652   1.153 -2.2273 -0.1759  1.9058
 5125TIP3   OH215338   3.969   3.936   4.911  0.1443  0.0700 -0.0896
 5125TIP3    H115339   3.959   4.028   4.936 -0.7379 -0.0320 -0.0395
 5125TIP3    H215340   4.060   3.928   4.884  0.9833  0.3744  2.3801
 5126TIP3   OH215341   2.303   0.563   0.409 -0.0667 -0.2636  0.3656
 5126TIP3    H115342   2.328   0.595   0.323 -1.6031 -1.0627 -0.4073
 5126TIP3    H215343   2.379   0.512   0.439  0.3062 -0.3514 -0.7032
 5127TIP3   OH215344   5.156   5.573   5.104 -0.3814 -0.4518  0.2178
 5127TIP3    H115345   5.071   5.599   5.140 -0.5059 -1.1128  0.4178
 5127TIP3    H215346   5.135   5.516   5.031 -0.1127  0.1610 -0.3528
 5128TIP3   OH215347   4.061   4.082   4.392  0.1317  0.5959 -0.1269
 5128TIP3    H115348   4.004   4.019   4.349  1.4657 -0.8584  0.1143
 5128TIP3    H215349   4.125   4.028   4.439  3.6042  1.9439 -2.7915
 5129TIP3   OH215350   0.505   6.431   4.739 -0.0084  0.3331  0.3945
 5129TIP3    H115351   0.574   6.496   4.723  0.4643 -0.3025 -0.2232
 5129TIP3    H215352   0.519   6.364   4.671 -0.6250 -0.2979  0.8753
 5130TIP3   OH215353   3.654   0.817   5.371  0.0996 -0.5656 -0.0238
 5130TIP3    H115354   3.619   0.732   5.398  1.8214 -1.0806  0.7322
 5130TIP3    H215355   3.637   0.821   5.277 -1.7434 -0.8495  0.2465
 5131TIP3   OH215356   3.098   2.793   3.043 -0.0032  0.0294  0.4205
 5131TIP3    H115357   3.149   2.866   3.007 -0.8296 -0.6738 -2.4965
 5131TIP3    H215358   3.163   2.735   3.082  1.0239  0.8216 -0.0555
 5132TIP3   OH215359   5.755   6.632   2.309  0.0231 -0.5011 -0.0814
 5132TIP3    H115360   5.846   6.602   2.312  0.4738  0.8302  0.2132
 5132TIP3    H215361   5.753   6.697   2.240 -0.2102  0.9819  1.2671
 5133TIP3   OH215362   7.211   3.315   2.590  0.3373 -0.1633  0.0711
 5133TIP3    H115363   7.252   3.352   2.669  1.7213 -2.2568  0.4292
 5133TIP3    H215364   7.149   3.250   2.623  0.7057 -0.8409 -0.5402
 5134TIP3   OH215365   7.167   1.787   4.994  0.4983  0.0342  0.0914
 5134TIP3    H115366   7.252   1.827   4.975 -0.5002  0.9078 -3.2387
 5134TIP3    H215367   7.119   1.855   5.041  0.5267  0.8677 -1.0460
 5135TIP3   OH215368   6.452   2.828   2.274 -0.1990 -0.5416  0.4534
 5135TIP3    H115369   6.469   2.899   2.212  1.4971 -0.4775  0.9347
 5135TIP3    H215370   6.474   2.865   2.359 -0.3388 -1.3210  0.8388
 5136TIP3   OH215371   1.728   3.930   0.714  0.1969  0.3688  0.6521
 5136TIP3    H115372   1.705   3.948   0.805 -1.5505 -0.2395  0.3748
 5136TIP3    H215373   1.652   3.882   0.679  0.8659  0.5060 -1.0944
 5137TIP3   OH215374   2.793   1.142   1.409 -0.7881 -0.0721 -0.2966
 5137TIP3    H115375   2.735   1.114   1.480 -0.6405  0.2640 -0.0358
 5137TIP3    H215376   2.819   1.061   1.365 -0.4017 -0.3489  0.4179
 5138TIP3   OH215377   1.741   0.455   4.909 -1.1138  0.3838  0.0284
 5138TIP3    H115378   1.675   0.386   4.899 -0.5279 -0.2328  0.3298
 5138TIP3    H215379   1.762   0.455   5.002  0.2001 -0.2822 -0.2398
 5139TIP3   OH215380   0.034   4.684   1.145  0.1260 -0.0912  0.8616
 5139TIP3    H115381   0.105   4.628   1.112  0.3621  1.1761 -0.9538
 5139TIP3    H215382  -0.041   4.663   1.090  0.2255  1.3384  0.1418
 5140TIP3   OH215383   0.263   2.960   0.450  0.2814  0.4419 -0.0384
 5140TIP3    H115384   0.198   3.010   0.499  0.2655 -0.9018  1.4009
 5140TIP3    H215385   0.305   3.024   0.393 -2.0567  1.4045 -0.7962
 5141TIP3   OH215386   3.937   2.972   4.617  0.4531  0.1151 -0.1628
 5141TIP3    H115387   3.884   2.947   4.541  2.2064 -0.7284 -1.1601
 5141TIP3    H215388   4.027   2.975   4.584  1.1761  0.4730  1.7165
 5142TIP3   OH215389   3.714   6.696   3.499 -0.1040  1.1294 -0.8264
 5142TIP3    H115390   3.797   6.650   3.514 -1.6803 -1.5890  0.5034
 5142TIP3    H215391   3.668   6.640   3.437 -2.2784  0.5623  1.1534
 5143TIP3   OH215392   0.710   4.099   2.315 -0.2195 -0.3460  0.8496
 5143TIP3    H115393   0.640   4.114   2.251 -1.3697 -0.4893  2.0200
 5143TIP3    H215394   0.714   4.003   2.323  1.3597 -0.4395 -0.4900
 5144TIP3   OH215395   4.452   4.743   2.200 -0.0761 -0.2387  0.8383
 5144TIP3    H115396   4.372   4.691   2.209 -0.2296  0.1228  1.5847
 5144TIP3    H215397   4.424   4.833   2.216  0.2391  0.0528 -0.1773
 5145TIP3   OH215398   4.840   3.055   3.454  0.2456 -0.0637  0.0069
 5145TIP3    H115399   4.868   3.011   3.374 -0.0118 -0.6148  0.2180
 5145TIP3    H215400   4.841   2.987   3.521  0.1277  0.3174  0.4011
 5146TIP3   OH215401   2.921   3.631   4.122 -0.3608 -0.3472  0.3590
 5146TIP3    H115402   2.950   3.542   4.102 -0.3439 -0.3175  0.2547
 5146TIP3    H215403   2.871   3.622   4.204 -0.3277 -0.4465  0.3679
 5147TIP3   OH215404   3.782   3.707   3.804 -0.4738  0.3810 -0.3332
 5147TIP3    H115405   3.864   3.749   3.831 -0.0969  0.4488 -1.5127
 5147TIP3    H215406   3.792   3.616   3.829 -0.9718  0.7896  1.5333
 5148TIP3   OH215407   5.297   3.914   1.402 -0.1149  0.5089  0.4303
 5148TIP3    H115408   5.353   3.946   1.473  1.6068 -0.7843 -0.2633
 5148TIP3    H215409   5.354   3.914   1.325 -0.5233 -2.4080  0.0180
 5149TIP3   OH215410   5.693   1.794   4.389  0.6832 -0.0526  0.0077
 5149TIP3    H115411   5.696   1.707   4.427  0.0485  0.0928  0.4031
 5149TIP3    H215412   5.669   1.852   4.461  0.4432  0.3613 -0.3901
 5150TIP3   OH215413   0.195   3.596   4.656  0.2307 -0.5507 -0.0402
 5150TIP3    H115414   0.254   3.566   4.586 -1.6884  1.3037 -2.6467
 5150TIP3    H215415   0.127   3.530   4.659  0.5433 -0.8542  0.3994
 5151TIP3   OH215416   0.146   2.514   0.358 -0.3932  0.1843  0.5622
 5151TIP3    H115417   0.104   2.576   0.418 -1.5858 -0.0312 -0.0177
 5151TIP3    H215418   0.217   2.564   0.317  0.1888  0.4467  1.8338
 5152TIP3   OH215419   1.863   4.970   3.310 -0.4242  0.3183  0.5974
 5152TIP3    H115420   1.954   4.993   3.291 -1.1178 -0.0168 -4.7022
 5152TIP3    H215421   1.847   4.892   3.257 -3.6573 -0.0492  1.9091
 5153TIP3   OH215422   0.445   2.427   4.208  0.1057  0.1465  0.0668
 5153TIP3    H115423   0.397   2.470   4.137  0.4244  2.3611  1.1024
 5153TIP3    H215424   0.397   2.452   4.287  1.0361 -0.3918  0.8131
 5154TIP3   OH215425   2.222   2.533   5.362 -0.4232  0.1774 -0.5765
 5154TIP3    H115426   2.180   2.588   5.296 -1.0198 -0.7594 -1.0070
 5154TIP3    H215427   2.261   2.594   5.424 -0.1750  1.0767 -1.5952
 5155TIP3   OH215428   4.978   2.537   1.284  0.0917  0.0422 -0.8443
 5155TIP3    H115429   5.062   2.549   1.330  0.3881  0.4264 -1.4792
 5155TIP3    H215430   5.003   2.518   1.194 -0.5178  1.1486 -1.2611
 5156TIP3   OH215431   4.887   0.862   2.678  0.0850  0.4379  0.1450
 5156TIP3    H115432   4.880   0.894   2.588  1.0179  2.8541  0.8645
 5156TIP3    H215433   4.960   0.910   2.715 -0.2121 -0.5876  2.1918
 5157TIP3   OH215434   3.091   1.566   2.929  0.0523 -0.1821  0.3283
 5157TIP3    H115435   3.135   1.487   2.896 -1.4879 -0.4063 -1.3167
 5157TIP3    H215436   3.063   1.542   3.018  3.2103  0.0088  1.5180
 5158TIP3   OH215437   2.318   4.376   2.280 -0.2331 -0.3824 -0.0612
 5158TIP3    H115438   2.305   4.391   2.186 -0.4117  0.8988  0.1616
 5158TIP3    H215439   2.395   4.428   2.302 -0.8814  0.2548  0.7366
 5159TIP3   OH215440   6.459   0.325   1.191  0.7806  0.3258  0.0972
 5159TIP3    H115441   6.516   0.261   1.149  0.1657  0.4161 -0.9288
 5159TIP3    H215442   6.394   0.273   1.237  0.6539  0.2135 -0.2079
 5160TIP3   OH215443   4.949   3.033   2.916 -0.3394 -0.2136  0.4174
 5160TIP3    H115444   4.993   3.111   2.949  1.6673 -0.2410 -1.8927
 5160TIP3    H215445   4.943   3.047   2.822 -0.3932 -2.6028  0.0117
 5161TIP3   OH215446   0.996   4.442   3.127 -0.4120 -0.1074  0.0971
 5161TIP3    H115447   1.030   4.427   3.215  2.1862  1.1134 -0.5884
 5161TIP3    H215448   1.026   4.367   3.076 -0.4004  0.0348 -0.1082
 5162TIP3   OH215449   6.125   6.250   4.421  0.2864 -0.0600  0.4496
 5162TIP3    H115450   6.156   6.341   4.413 -0.1800 -0.0710 -2.8398
 5162TIP3    H215451   6.060   6.241   4.352  2.0133 -3.5575 -0.9388
 5163TIP3   OH215452   3.141   0.483   4.398 -0.6544 -0.0211  0.0341
 5163TIP3    H115453   3.148   0.460   4.306 -0.8842  0.3172 -0.0689
 5163TIP3    H215454   3.119   0.402   4.442 -1.1804 -0.0558 -0.2883
 5164TIP3   OH215455   4.494   0.929   2.817 -0.3856  0.6303  0.3868
 5164TIP3    H115456   4.509   0.892   2.730 -2.9952 -1.6590  0.7573
 5164TIP3    H215457   4.481   1.022   2.802  0.5734  0.5165 -1.4486
 5165TIP3   OH215458   0.166   6.139   2.113 -0.4522  0.0040  0.2208
 5165TIP3    H115459   0.187   6.211   2.172  0.6620  3.1454 -3.5600
 5165TIP3    H215460   0.072   6.146   2.099 -0.1798  1.6692 -1.0635
 5166TIP3   OH215461   2.493   5.422   1.848 -0.3215  0.5949  0.0505
 5166TIP3    H115462   2.431   5.493   1.836 -0.2955  1.1978  2.7325
 5166TIP3    H215463   2.579   5.463   1.837 -0.2769  1.2645  2.3235
 5167TIP3   OH215464   1.465   3.181   3.003  0.0230  0.0538 -0.0749
 5167TIP3    H115465   1.372   3.205   3.009 -0.5616 -1.2219 -2.5035
 5167TIP3    H215466   1.467   3.089   3.029  1.1783  0.8010  2.8700
 5168TIP3   OH215467   6.693   0.984   0.462  0.3024  0.2512 -0.0471
 5168TIP3    H115468   6.743   1.004   0.541  0.4877  2.2275 -0.6138
 5168TIP3    H215469   6.687   0.888   0.461  1.4151  0.1212  1.6517
 5169TIP3   OH215470   7.098   1.037   3.037  0.0322 -0.5080  0.2429
 5169TIP3    H115471   7.138   1.122   3.019 -0.9934  0.2099  1.1827
 5169TIP3    H215472   7.044   1.019   2.960  1.1861 -0.9109 -0.4949
 5170TIP3   OH215473   4.919   1.044   4.446  0.3078 -0.2816 -0.0117
 5170TIP3    H115474   4.828   1.021   4.465  0.4457 -0.0341  1.0100
 5170TIP3    H215475   4.946   1.098   4.520  0.5071  1.8300 -1.5094
 5171TIP3   OH215476   3.893   2.399   0.275 -0.1538  0.2986 -0.0220
 5171TIP3    H115477   3.811   2.392   0.227 -1.0391 -0.8322  1.5410
 5171TIP3    H215478   3.879   2.348   0.355  2.4451 -0.8612 -0.1749
 5172TIP3   OH215479   3.652   3.282   1.467 -0.2160  0.1320  0.6403
 5172TIP3    H115480   3.714   3.351   1.441  1.5294 -1.5442  0.1346
 5172TIP3    H215481   3.708   3.209   1.493 -2.0091 -0.7527  2.2032
 5173TIP3   OH215482   7.007   0.577   4.511  0.1366 -0.9716 -0.0263
 5173TIP3    H115483   6.912   0.579   4.513  0.0310 -0.2707 -2.4885
 5173TIP3    H215484   7.030   0.486   4.533 -0.8393 -0.4639  3.7820
 5174TIP3   OH215485   5.634   1.041   0.686 -0.4739  0.0451 -0.6908
 5174TIP3    H115486   5.715   1.051   0.636  0.3361  0.8559  0.6879
 5174TIP3    H215487   5.566   1.027   0.621  0.5817  0.6969 -1.9732
 5175TIP3   OH215488   5.867   3.864   3.652 -0.1653  1.1658  0.0320
 5175TIP3    H115489   5.822   3.831   3.730  1.3303  1.1684  0.9351
 5175TIP3    H215490   5.870   3.789   3.592 -1.0704  1.0822  0.0753
 5176TIP3   OH215491   4.243   6.038   4.375 -0.2798  0.7600  0.1996
 5176TIP3    H115492   4.311   6.099   4.346  0.1538  0.6448  0.9204
 5176TIP3    H215493   4.279   5.952   4.356  0.3365  0.6496  1.6456
 5177TIP3   OH215494   5.606   6.667   3.761 -0.0748  0.1561 -0.3085
 5177TIP3    H115495   5.680   6.688   3.818 -0.1741 -0.5149  0.0886
 5177TIP3    H215496   5.539   6.731   3.785 -0.0984 -0.0892  0.3132
 5178TIP3   OH215497   4.673   4.908   5.444  0.3014 -0.4342  0.2839
 5178TIP3    H115498   4.747   4.848   5.440  1.4395  0.9772 -2.1448
 5178TIP3    H215499   4.596   4.852   5.447  1.2974 -2.0705 -2.0704
 5179TIP3   OH215500   1.225   3.842   1.180 -0.2777 -0.3837 -0.0408
 5179TIP3    H115501   1.172   3.874   1.107 -0.9601 -1.5435 -0.0691
 5179TIP3    H215502   1.305   3.808   1.139  0.4530  1.1985 -0.0131
 5180TIP3   OH215503   1.316   2.201   3.876 -0.4070  0.4186 -0.3722
 5180TIP3    H115504   1.368   2.122   3.892  0.5426  1.0854 -0.0681
 5180TIP3    H215505   1.227   2.169   3.862  0.0182 -0.7222 -0.5347
 5181TIP3   OH215506   6.637   2.647   2.182  0.1625  0.0933 -0.0900
 5181TIP3    H115507   6.571   2.711   2.207  0.1504  0.3352 -0.7247
 5181TIP3    H215508   6.673   2.616   2.265  1.3436  2.1403  0.2142
 5182TIP3   OH215509   4.595   6.720   0.555 -0.6090 -0.6409 -0.7057
 5182TIP3    H115510   4.648   6.655   0.508  0.7197 -0.2129  0.1415
 5182TIP3    H215511   4.626   6.805   0.523 -0.7240 -0.3779 -0.1460
 5183TIP3   OH215512   4.812   4.741   1.097  0.1287 -0.4377  0.0289
 5183TIP3    H115513   4.908   4.740   1.091  0.1186 -1.2584 -0.0358
 5183TIP3    H215514   4.795   4.765   1.189  0.4286 -1.8670  0.4869
 5184TIP3   OH215515   4.929   4.746   5.427  0.3731 -0.1580  0.5305
 5184TIP3    H115516   4.910   4.659   5.463  1.2861 -0.8507 -0.5826
 5184TIP3    H215517   5.019   4.764   5.455 -0.0588  0.7801  1.3789
 5185TIP3   OH215518   7.167   0.667   5.068  0.7860  0.2277  0.1052
 5185TIP3    H115519   7.104   0.660   5.141  0.1667  0.8201 -0.3595
 5185TIP3    H215520   7.154   0.587   5.018  0.1451  0.4935 -0.1741
 5186TIP3   OH215521   2.897   2.453   4.601 -0.4771  0.0821 -0.0446
 5186TIP3    H115522   2.937   2.534   4.570  1.4487 -0.8898 -0.2584
 5186TIP3    H215523   2.971   2.397   4.625 -1.7699 -1.2371  1.1155
 5187TIP3   OH215524   3.220   6.044   0.894  0.1063 -0.3412  0.2914
 5187TIP3    H115525   3.222   6.073   0.803 -1.3991 -1.0847 -0.0193
 5187TIP3    H215526   3.174   6.114   0.941 -0.9114 -0.8439  0.0813
 5188TIP3   OH215527   7.016   5.589   0.168  0.3493 -0.5926 -0.8927
 5188TIP3    H115528   7.093   5.633   0.204  0.0554 -0.3139 -0.6032
 5188TIP3    H215529   6.961   5.571   0.244  0.1690 -0.8733 -1.0897
 5189TIP3   OH215530   3.452   1.751   5.152 -0.0692 -0.1970  0.0077
 5189TIP3    H115531   3.487   1.681   5.207  0.7141  0.8805  0.9079
 5189TIP3    H215532   3.362   1.763   5.183  0.5680  0.8431  1.5246
 5190TIP3   OH215533   3.173   5.951   1.628  0.0679 -0.7680  0.0644
 5190TIP3    H115534   3.194   6.011   1.700  1.8408 -0.1748 -0.8840
 5190TIP3    H215535   3.231   5.876   1.641  1.1347 -0.2232 -1.2308
 5191TIP3   OH215536   3.452   3.474   2.457 -0.4589 -0.1003 -0.3859
 5191TIP3    H115537   3.485   3.546   2.403  1.6248 -0.6479  0.0692
 5191TIP3    H215538   3.463   3.505   2.547 -0.4131 -0.6068 -0.2132
 5192TIP3   OH215539   2.372   5.684   3.057  0.2764 -0.2807  0.2195
 5192TIP3    H115540   2.426   5.731   3.121 -0.1323 -0.2388  0.5428
 5192TIP3    H215541   2.412   5.704   2.972  1.5171 -1.2506  0.5366
 5193TIP3   OH215542   6.324   0.647   4.449 -0.8352 -0.6141  0.0111
 5193TIP3    H115543   6.402   0.701   4.438 -1.1686 -0.4333 -1.7416
 5193TIP3    H215544   6.265   0.700   4.503 -0.3862 -0.0626 -0.0363
 5194TIP3   OH215545   0.709   2.756   1.401  0.3601  0.3529 -0.1483
 5194TIP3    H115546   0.673   2.764   1.489  0.6790  0.1138  0.0103
 5194TIP3    H215547   0.668   2.826   1.351  1.5135  1.6601  0.6409
 5195TIP3   OH215548   1.432   3.075   2.549 -0.0310 -0.0635 -0.1833
 5195TIP3    H115549   1.384   3.147   2.591 -0.4661  0.2965 -1.2705
 5195TIP3    H215550   1.515   3.115   2.523  0.0579 -0.1734 -0.0697
 5196TIP3   OH215551   0.030   2.710   3.361 -0.4569 -0.5569 -0.9473
 5196TIP3    H115552  -0.041   2.759   3.402  0.7098  0.6700 -0.3480
 5196TIP3    H215553   0.102   2.772   3.355  1.2987 -2.3543  0.4311
 5197TIP3   OH215554   4.773   4.144   1.258 -0.0535  0.1198  0.2217
 5197TIP3    H115555   4.754   4.117   1.168 -0.2117 -0.1070  0.3220
 5197TIP3    H215556   4.689   4.176   1.292 -0.1232 -0.3204  0.4696
 5198TIP3   OH215557   6.311   5.734   3.816  0.4072 -0.3775 -0.6063
 5198TIP3    H115558   6.348   5.779   3.739  0.6657 -1.1029 -0.9179
 5198TIP3    H215559   6.332   5.642   3.802 -1.5103 -0.8298 -0.7790
 5199TIP3   OH215560   0.753   5.693   3.520  0.4502  0.4244  0.3082
 5199TIP3    H115561   0.811   5.679   3.445 -0.2469  1.9155 -0.5518
 5199TIP3    H215562   0.692   5.761   3.491  0.5858  1.5483  2.4616
 5200TIP3   OH215563   2.434   2.563   2.977 -0.3902  0.2358 -0.1770
 5200TIP3    H115564   2.489   2.592   2.904  1.2714  2.5075  1.8146
 5200TIP3    H215565   2.358   2.622   2.974  0.1845  1.0348  0.4828
 5201TIP3   OH215566   4.639   6.098   0.649  0.0791 -0.2159  0.3370
 5201TIP3    H115567   4.593   6.014   0.642  1.4894 -1.0940  0.8496
 5201TIP3    H215568   4.622   6.127   0.739  0.8057 -0.7547  0.6686
 5202TIP3   OH215569   0.954   5.555   1.196 -0.0896 -0.0219  0.5672
 5202TIP3    H115570   1.035   5.551   1.247 -0.3937  0.4302  1.0967
 5202TIP3    H215571   0.983   5.575   1.107  0.5725 -2.2553  0.2173
 5203TIP3   OH215572   2.688   1.565   3.847 -0.4528  0.2960 -0.0038
 5203TIP3    H115573   2.769   1.617   3.848 -0.4840  0.3464 -0.1041
 5203TIP3    H215574   2.618   1.630   3.841 -0.5020  0.2538  0.1233
 5204TIP3   OH215575   6.087   5.012   0.222 -0.3951  0.6483  0.2240
 5204TIP3    H115576   6.087   5.074   0.295 -1.9300  0.3053  0.5506
 5204TIP3    H215577   6.171   4.967   0.228 -0.6869  0.2994  2.0576
 5205TIP3   OH215578   3.671   2.385   4.866 -0.0413 -0.0626  0.4126
 5205TIP3    H115579   3.669   2.417   4.956  0.1377  0.2939  0.2966
 5205TIP3    H215580   3.579   2.369   4.844 -0.1331  0.3038  0.5056
 5206TIP3   OH215581   5.417   6.546   2.930  0.6818  0.4200 -0.1157
 5206TIP3    H115582   5.376   6.552   3.017  2.3352  0.6625  0.6890
 5206TIP3    H215583   5.349   6.510   2.874 -0.6931  1.0016  1.1040
 5207TIP3   OH215584   6.659   6.502   5.424 -0.1491 -0.0798  0.3502
 5207TIP3    H115585   6.607   6.579   5.446  1.1399  0.5588  1.3323
 5207TIP3    H215586   6.750   6.532   5.428  0.3412 -1.0949 -1.5200
 5208TIP3   OH215587   6.574   6.319   0.789  0.7122 -0.3347  0.3494
 5208TIP3    H115588   6.566   6.254   0.859 -1.8727  0.5827  1.0065
 5208TIP3    H215589   6.587   6.402   0.834 -0.3824  0.1812 -0.2282
 5209TIP3   OH215590   2.074   4.766   0.187 -0.1209 -0.7901 -0.0262
 5209TIP3    H115591   2.129   4.721   0.251 -0.8352  0.6405  1.6746
 5209TIP3    H215592   2.136   4.813   0.131  0.4844 -1.6085 -0.0692
 5210TIP3   OH215593   6.559   4.471   1.203  0.2188  0.0820  0.2855
 5210TIP3    H115594   6.563   4.405   1.134 -0.5437  1.5188 -1.2237
 5210TIP3    H215595   6.526   4.424   1.279  0.1954 -1.3757 -0.5799
 5211TIP3   OH215596   1.636   6.484   1.858 -0.4259  0.4496  0.0916
 5211TIP3    H115597   1.725   6.511   1.879 -0.3611  1.6055 -1.4554
 5211TIP3    H215598   1.640   6.457   1.766 -1.2872 -1.4344  0.5547
 5212TIP3   OH215599   3.919   4.413   1.167  0.0155 -0.2984 -0.0576
 5212TIP3    H115600   3.845   4.357   1.189  0.3938 -0.0444  2.1469
 5212TIP3    H215601   3.945   4.452   1.251 -0.7559  3.8721 -1.4960
 5213TIP3   OH215602   5.362   6.329   1.700  0.5255  0.5095  0.3055
 5213TIP3    H115603   5.268   6.322   1.684  0.4814  1.0979  0.2833
 5213TIP3    H215604   5.401   6.255   1.653  0.0036 -0.1909  0.9487
 5214TIP3   OH215605   5.220   5.362   2.025  0.7582  0.1351 -0.3725
 5214TIP3    H115606   5.204   5.431   1.961  0.3204  0.2148 -0.1803
 5214TIP3    H215607   5.185   5.283   1.984 -1.7117  0.5673  0.6858
 5215TIP3   OH215608   3.882   0.462   0.415  0.4391 -0.2782  0.3321
 5215TIP3    H115609   3.825   0.387   0.400  0.6297 -0.4905  0.6777
 5215TIP3    H215610   3.965   0.425   0.444  0.1249  0.1226  1.7889
 5216TIP3   OH215611   1.298   5.306   4.906  0.2111  0.2570 -0.2610
 5216TIP3    H115612   1.213   5.333   4.942  0.7457  0.5683  0.8233
 5216TIP3    H215613   1.282   5.220   4.869  0.0726 -1.1603  2.7625
 5217TIP3   OH215614   2.403   1.376   1.853  0.2039 -0.1420 -0.8383
 5217TIP3    H115615   2.356   1.452   1.819 -2.0582 -1.1026 -0.0143
 5217TIP3    H215616   2.422   1.323   1.775 -1.9708 -0.7077 -1.0584
 5218TIP3   OH215617   3.527   6.079   1.381  0.1739 -0.4249  0.2327
 5218TIP3    H115618   3.472   6.142   1.428  2.0011  0.6193  1.0974
 5218TIP3    H215619   3.567   6.130   1.310  0.4821 -1.0019 -0.0153
 5219TIP3   OH215620   0.262   5.110   5.237  0.2982  0.0875 -0.1051
 5219TIP3    H115621   0.179   5.083   5.275  1.2119 -1.2927  0.9937
 5219TIP3    H215622   0.260   5.075   5.148 -0.8380  1.2422 -0.5617
 5220TIP3   OH215623   6.372   3.661   2.220 -0.3252 -0.1268 -0.2271
 5220TIP3    H115624   6.363   3.703   2.305 -1.1473  1.4235 -1.0213
 5220TIP3    H215625   6.449   3.704   2.181  0.8376 -1.7476  0.2115
 5221TIP3   OH215626   2.954   6.504   3.618 -0.2287 -0.0994  0.6042
 5221TIP3    H115627   2.934   6.478   3.528 -0.0398  1.4650  0.0857
 5221TIP3    H215628   3.015   6.437   3.649  1.6464  0.6216 -1.2884
 5222TIP3   OH215629   1.669   0.644   2.934 -0.6298 -0.2478  0.9002
 5222TIP3    H115630   1.582   0.614   2.962 -0.8708 -0.2593  0.1679
 5222TIP3    H215631   1.714   0.665   3.015 -1.2364 -0.4738  1.3058
 5223TIP3   OH215632   6.949   2.752   0.972 -0.2979 -0.1761  0.0203
 5223TIP3    H115633   6.881   2.723   0.911 -0.3810 -1.0885  0.5394
 5223TIP3    H215634   6.952   2.847   0.960 -1.3652 -0.1724 -0.3252
 5224TIP3   OH215635   6.161   6.782   4.503 -0.4261 -0.4483 -0.4222
 5224TIP3    H115636   6.243   6.750   4.540 -0.4514  0.4095  0.4198
 5224TIP3    H215637   6.114   6.819   4.577 -1.4018 -0.5632 -0.9724
 5225TIP3   OH215638   6.637   0.132   2.085  0.0693  0.1659  0.2421
 5225TIP3    H115639   6.554   0.126   2.038 -0.2128  1.2515  0.5720
 5225TIP3    H215640   6.678   0.047   2.072 -0.2021  0.2761 -1.5759
 5226TIP3   OH215641   2.980   1.594   5.813 -0.2639 -0.6052  0.0564
 5226TIP3    H115642   2.946   1.640   5.736  0.6051 -1.5208 -0.9142
 5226TIP3    H215643   2.981   1.660   5.882  0.7743  0.8128 -1.2231
 5227TIP3   OH215644   3.284   3.572   1.523 -0.1930  0.1072 -0.5224
 5227TIP3    H115645   3.373   3.582   1.554  0.2727 -2.2385 -0.8664
 5227TIP3    H215646   3.230   3.620   1.586  1.0469 -1.1682  1.6399
 5228TIP3   OH215647   0.387   3.677   1.086  0.0278 -0.5837 -0.6687
 5228TIP3    H115648   0.401   3.617   1.012  2.5117 -0.3201 -0.5130
 5228TIP3    H215649   0.389   3.764   1.047 -1.6198 -0.5193 -0.6426
 5229TIP3   OH215650   1.220   0.430   1.394  0.6180 -0.3118 -0.1433
 5229TIP3    H115651   1.301   0.472   1.422 -0.3701  0.4640  1.7031
 5229TIP3    H215652   1.248   0.361   1.334  2.7858 -0.9864  1.5119
 5230TIP3   OH215653   5.556   3.489   2.884  0.2307  0.3758 -0.5166
 5230TIP3    H115654   5.595   3.410   2.846 -2.2890 -1.5701  0.6208
 5230TIP3    H215655   5.519   3.536   2.810  1.1636  0.1646 -1.1363
 5231TIP3   OH215656   1.567   1.141   5.359  0.1716 -0.7736 -0.3573
 5231TIP3    H115657   1.652   1.172   5.330 -0.0218 -1.1387 -1.3431
 5231TIP3    H215658   1.514   1.137   5.280 -0.3321 -1.9301  0.0179
 5232TIP3   OH215659   3.890   3.113   3.541  0.0173 -0.2303 -0.2087
 5232TIP3    H115660   3.957   3.055   3.578 -1.7690 -3.8245 -2.0305
 5232TIP3    H215661   3.919   3.130   3.452  0.1333  1.0821  0.0695
 5233TIP3   OH215662   2.926   3.173   2.913  0.2748  0.0946 -0.0664
 5233TIP3    H115663   2.923   3.079   2.930  0.7794  0.3561  1.7093
 5233TIP3    H215664   2.844   3.192   2.866  0.4529 -1.2984 -1.0002
 5234TIP3   OH215665   4.766   6.740   4.358  0.5036  0.4204  0.5028
 5234TIP3    H115666   4.814   6.815   4.392 -0.0780  0.6901  0.7467
 5234TIP3    H215667   4.823   6.704   4.289  2.3351 -0.9428  2.5905
 5235TIP3   OH215668   2.227   1.043   4.918 -0.6748 -0.6650 -0.3782
 5235TIP3    H115669   2.208   1.101   4.844 -0.2837 -1.0820 -0.8124
 5235TIP3    H215670   2.323   1.046   4.925 -0.6810 -0.9968 -0.1879
 5236TIP3   OH215671   0.042   3.102   2.820  0.2230  0.6768  0.1556
 5236TIP3    H115672   0.112   3.070   2.762  1.2749  0.4046  1.5387
 5236TIP3    H215673   0.087   3.156   2.884 -0.7226 -0.0924  1.5125
 5237TIP3   OH215674   1.730   0.222   5.580  0.2761 -0.5200 -0.1515
 5237TIP3    H115675   1.722   0.202   5.487 -1.1033  0.1538 -0.1994
 5237TIP3    H215676   1.647   0.194   5.618  0.7807 -0.6789  0.8646
 5238TIP3   OH215677   2.841   4.414   2.602  0.3248  0.0824  0.4982
 5238TIP3    H115678   2.871   4.367   2.524  0.8931 -0.4556  1.0344
 5238TIP3    H215679   2.770   4.359   2.636 -1.1220  1.1912 -0.5919
 5239TIP3   OH215680   2.199   5.166   4.049 -0.4709  0.2234 -0.0584
 5239TIP3    H115681   2.173   5.217   4.125  1.7056 -1.9263  2.3098
 5239TIP3    H215682   2.127   5.104   4.036 -1.4364  1.4300 -0.6305
 5240TIP3   OH215683   5.961   3.279   3.566  0.2425 -0.2483  0.2917
 5240TIP3    H115684   5.983   3.314   3.480  1.4736 -1.9688 -0.1512
 5240TIP3    H215685   5.931   3.190   3.548  2.2237 -1.2844  1.7376
 5241TIP3   OH215686   5.786   0.940   0.898 -0.1364 -0.5858 -0.5137
 5241TIP3    H115687   5.868   0.921   0.852  1.3371  0.8825  1.3654
 5241TIP3    H215688   5.732   0.985   0.832  2.2171  2.2018 -0.7192
 5242TIP3   OH215689   0.721   0.862   4.521 -0.0889  0.7296 -0.2177
 5242TIP3    H115690   0.680   0.942   4.488 -0.2073  0.7031 -0.1378
 5242TIP3    H215691   0.681   0.792   4.470  1.6726  0.8785 -1.9081
 5243TIP3   OH215692   4.377   3.788   2.852 -0.4507  0.4780  0.0179
 5243TIP3    H115693   4.385   3.778   2.758  0.4764  1.7166 -0.0602
 5243TIP3    H215694   4.355   3.701   2.884 -0.2750 -0.0591 -1.2860
 5244TIP3   OH215695   5.096   1.549   2.440 -0.1643  0.4071 -0.2547
 5244TIP3    H115696   5.119   1.505   2.358  0.4628  0.4006 -0.0772
 5244TIP3    H215697   5.175   1.596   2.465 -0.4815  0.7326  0.1429
 5245TIP3   OH215698   4.339   3.388   0.932  0.2297 -0.0506  0.3045
 5245TIP3    H115699   4.329   3.484   0.931 -1.0959 -0.1602  0.8815
 5245TIP3    H215700   4.254   3.356   0.961  0.8521 -1.3941  0.6915
 5246TIP3   OH215701   6.821   1.206   2.574  0.3755 -0.3201  0.0336
 5246TIP3    H115702   6.842   1.113   2.567  1.6140  0.0331 -1.7900
 5246TIP3    H215703   6.814   1.222   2.668 -0.6461 -2.3847  0.3815
 5247TIP3   OH215704   1.760   3.326   3.982  0.1499  0.0989  0.5786
 5247TIP3    H115705   1.711   3.244   3.997 -0.1467  0.1890  0.1119
 5247TIP3    H215706   1.717   3.389   4.040 -1.8782  0.7900 -1.5169
 5248TIP3   OH215707   5.873   4.600   0.988  0.7454 -0.1551  0.4287
 5248TIP3    H115708   5.968   4.610   0.979  1.0360 -1.5208  1.6337
 5248TIP3    H215709   5.857   4.606   1.082  0.1604 -3.4955  0.6744
 5249TIP3   OH215710   4.305   5.173   0.892 -0.0376  0.2925  0.3965
 5249TIP3    H115711   4.340   5.124   0.966 -1.2554 -0.1047  0.7382
 5249TIP3    H215712   4.266   5.106   0.836 -1.2911  0.7961  0.6327
 5250TIP3   OH215713   5.134   3.952   2.956 -0.0380  0.0820  0.6025
 5250TIP3    H115714   5.165   3.935   2.868  1.0465  0.0004  0.9932
 5250TIP3    H215715   5.078   3.876   2.977 -1.2216  0.6372 -0.4076
 5251TIP3   OH215716   1.201   0.236   2.470  0.5085  0.3668  0.3608
 5251TIP3    H115717   1.265   0.229   2.541  1.5236 -1.3359 -0.6782
 5251TIP3    H215718   1.231   0.174   2.404 -1.5107  0.4772 -0.7275
 5252TIP3   OH215719   7.056   5.958   4.532  0.0531  0.8139  0.4626
 5252TIP3    H115720   7.129   5.977   4.591  1.2161  0.8959 -0.9463
 5252TIP3    H215721   6.978   5.965   4.587  1.1582 -0.6774  2.3646
 5253TIP3   OH215722   6.588   1.534   2.958  0.3032 -0.3322  0.0713
 5253TIP3    H115723   6.501   1.493   2.948 -0.1422  0.4963  0.4542
 5253TIP3    H215724   6.645   1.461   2.983 -0.4624 -0.7476  0.6730
 5254TIP3   OH215725   5.181   5.915   0.880 -0.3958  0.2341  0.0109
 5254TIP3    H115726   5.249   5.884   0.820 -0.8215  0.1156 -0.4214
 5254TIP3    H215727   5.172   6.008   0.860 -0.5281  0.1977 -0.1000
 5255TIP3   OH215728   1.802   1.883   2.016 -0.7690 -0.5782 -0.4005
 5255TIP3    H115729   1.896   1.871   2.002 -0.3563 -0.0897  1.6295
 5255TIP3    H215730   1.781   1.965   1.973 -0.2940 -0.7202 -0.9193
 5256TIP3   OH215731   1.548   6.439   4.174  0.2609  0.0664  0.0705
 5256TIP3    H115732   1.496   6.489   4.111 -0.9966  0.1058  1.1009
 5256TIP3    H215733   1.513   6.350   4.168 -0.3880  0.2255  1.2243
 5257TIP3   OH215734   4.224   3.946   2.652  0.0827  0.2448 -0.8702
 5257TIP3    H115735   4.274   3.865   2.655 -0.1483  0.1063 -0.7170
 5257TIP3    H215736   4.169   3.938   2.573 -1.0883 -0.4417 -0.0281
 5258TIP3   OH215737   2.693   0.901   3.373 -0.2438  0.3979 -0.1352
 5258TIP3    H115738   2.754   0.861   3.311  1.7981  0.2810  1.7931
 5258TIP3    H215739   2.663   0.828   3.427 -0.8818  0.6955 -0.0753
 5259TIP3   OH215740   4.714   3.490   2.366 -0.3937 -0.1419  0.0442
 5259TIP3    H115741   4.672   3.550   2.305  0.3267 -0.1863 -0.5156
 5259TIP3    H215742   4.670   3.505   2.450 -2.1178 -0.8069 -0.6978
 5260TIP3   OH215743   5.346   5.589   0.700 -0.0899 -0.6017  0.3758
 5260TIP3    H115744   5.340   5.592   0.796 -2.8377 -2.4773  0.3611
 5260TIP3    H215745   5.365   5.497   0.680 -1.5241 -0.6633 -0.8891
 5261TIP3   OH215746   5.736   2.635   0.136  0.3099  0.3833 -0.0695
 5261TIP3    H115747   5.642   2.657   0.136 -0.0324 -0.6851 -2.6682
 5261TIP3    H215748   5.775   2.699   0.077  0.9910  0.0378  0.0004
 5262TIP3   OH215749   5.516   1.619   3.492  0.0793  0.6139 -0.3845
 5262TIP3    H115750   5.483   1.706   3.515 -1.9075 -0.3362  0.6126
 5262TIP3    H215751   5.536   1.577   3.576 -0.1658 -0.3067 -0.7663
 5263TIP3   OH215752   2.937   5.773   5.190  0.4082  0.0501 -0.1591
 5263TIP3    H115753   2.925   5.759   5.284 -0.1246 -0.1761 -0.2520
 5263TIP3    H215754   2.885   5.703   5.150 -0.1320  0.7129 -0.6250
 5264TIP3   OH215755   6.449   0.567   1.344  0.2294 -0.1847 -0.3592
 5264TIP3    H115756   6.369   0.560   1.396  0.5032  0.4584  0.1794
 5264TIP3    H215757   6.447   0.493   1.285  0.9904 -2.2983  2.0809
 5265TIP3   OH215758   2.281   0.051   1.359 -0.0009 -0.0380  0.0129
 5265TIP3    H115759   2.244   0.003   1.433  0.9019 -0.0913  0.4508
 5265TIP3    H215760   2.215   0.046   1.290  0.2024 -2.2103 -0.0775
 5266TIP3   OH215761   5.639   0.451   0.237 -0.4618 -0.3737 -0.3864
 5266TIP3    H115762   5.610   0.525   0.289 -2.3403 -0.3804 -1.3478
 5266TIP3    H215763   5.637   0.482   0.147 -0.4160 -1.3339 -0.7316
 5267TIP3   OH215764   1.984   1.034   3.198  0.2730  0.2023 -1.3695
 5267TIP3    H115765   2.072   1.003   3.219 -1.0764 -2.4162  1.2560
 5267TIP3    H215766   1.972   1.112   3.252  1.1988  1.1083 -2.4114
 5268TIP3   OH215767   0.784   4.347   2.376  0.2817 -0.1453 -0.1240
 5268TIP3    H115768   0.835   4.363   2.455  1.1248  0.7154 -0.8153
 5268TIP3    H215769   0.785   4.251   2.367 -1.1383 -0.3727  1.7086
 5269TIP3   OH215770   3.607   2.412   1.652  0.1737  0.1760  0.3020
 5269TIP3    H115771   3.665   2.384   1.723  1.8260 -1.7225 -1.6507
 5269TIP3    H215772   3.546   2.339   1.641 -0.7128  0.8898  0.4073
 5270TIP3   OH215773   1.218   2.220   3.308  0.0429 -0.1918 -0.4275
 5270TIP3    H115774   1.165   2.257   3.379  1.8492 -1.1121  1.5352
 5270TIP3    H215775   1.172   2.139   3.285 -0.8766  0.4022 -0.7539
 5271TIP3   OH215776   5.301   2.397   2.751  0.0575 -0.2334  0.1556
 5271TIP3    H115777   5.281   2.344   2.828  0.3096 -1.0961 -0.3603
 5271TIP3    H215778   5.215   2.422   2.716 -0.0714 -0.6609  0.1633
 5272TIP3   OH215779   0.355   1.163   1.384 -0.0621 -0.3786  0.2393
 5272TIP3    H115780   0.436   1.204   1.412 -0.2546  0.0644  0.1504
 5272TIP3    H215781   0.340   1.093   1.448  0.3188 -0.3773  0.3294
 5273TIP3   OH215782   1.361   1.488   2.056  0.5412  0.0200  0.6488
 5273TIP3    H115783   1.270   1.512   2.072  0.3375 -0.1409 -0.1866
 5273TIP3    H215784   1.397   1.561   2.006  0.7961 -0.0266  0.7637
 5274TIP3   OH215785   3.560   4.192   2.351  0.4560 -0.1404  1.0521
 5274TIP3    H115786   3.575   4.229   2.438 -2.7643 -0.6497  1.9641
 5274TIP3    H215787   3.555   4.268   2.293  1.2208  0.3071  1.5619
 5275TIP3   OH215788   1.596   1.271   1.092 -0.0751  0.8561  0.2203
 5275TIP3    H115789   1.539   1.333   1.137 -0.2268  1.9269 -1.3477
 5275TIP3    H215790   1.674   1.266   1.146 -1.5566 -0.5745  2.3781
 5276TIP3   OH215791   6.894   4.860   0.797 -0.0233  0.2878  0.1521
 5276TIP3    H115792   6.804   4.830   0.785  0.2434 -0.1697 -0.7735
 5276TIP3    H215793   6.942   4.824   0.722  0.9734  0.3536  0.7342
 5277TIP3   OH215794   5.495   2.953   4.408  0.1302 -0.5140 -0.2566
 5277TIP3    H115795   5.542   2.874   4.434  0.2149 -0.3753  0.0182
 5277TIP3    H215796   5.508   3.013   4.481  0.9277  0.1230 -0.9069
 5278TIP3   OH215797   5.956   1.776   4.885 -0.3529 -0.5129  0.0095
 5278TIP3    H115798   5.967   1.734   4.971 -0.8367  1.0915  0.9096
 5278TIP3    H215799   6.031   1.836   4.879 -1.0455  0.3497 -0.0786
 5279TIP3   OH215800   6.560   3.864   0.349 -0.2465 -0.2761 -0.5982
 5279TIP3    H115801   6.565   3.919   0.271  1.1142  0.2041 -0.1929
 5279TIP3    H215802   6.530   3.922   0.419  1.0374 -0.0532 -0.2059
 5280TIP3   OH215803   1.730   5.329   1.290 -0.1759  0.1444 -0.0088
 5280TIP3    H115804   1.811   5.279   1.276  0.9502  1.8458  0.1366
 5280TIP3    H215805   1.748   5.384   1.367 -1.5644  0.3884  0.1744
 5281TIP3   OH215806   6.265   2.562   2.574 -0.4257 -0.1001  0.1161
 5281TIP3    H115807   6.264   2.586   2.481 -2.7279 -0.5338 -0.0180
 5281TIP3    H215808   6.246   2.468   2.574  1.1278 -0.4395  0.9842
 5282TIP3   OH215809   4.313   6.532   4.873  0.2382 -0.2622  0.2811
 5282TIP3    H115810   4.296   6.569   4.787 -1.0905  3.2123  1.8452
 5282TIP3    H215811   4.237   6.478   4.892 -1.7241  2.4766  0.8601
 5283TIP3   OH215812   2.457   2.508   4.571 -0.1807  0.1920  0.0365
 5283TIP3    H115813   2.520   2.533   4.639  1.5776  0.6608 -1.6990
 5283TIP3    H215814   2.417   2.590   4.544  0.0977  0.1785 -0.4191
 5284TIP3   OH215815   5.117   5.666   1.124  0.1364 -0.3091  0.0699
 5284TIP3    H115816   5.134   5.756   1.155 -0.3637 -0.3925  0.6141
 5284TIP3    H215817   5.200   5.637   1.089  0.7391 -0.1832  1.3287
 5285TIP3   OH215818   2.070   2.799   4.656  0.0124 -0.6640  0.3906
 5285TIP3    H115819   2.071   2.894   4.638 -1.8307 -0.3761  1.5145
 5285TIP3    H215820   2.064   2.759   4.569  0.4778  0.2621 -0.0892
 5286TIP3   OH215821   7.131   4.775   4.332  0.4510 -0.0599 -0.0793
 5286TIP3    H115822   7.087   4.767   4.247  3.1720  0.5971 -1.6943
 5286TIP3    H215823   7.128   4.869   4.351  0.8117 -0.0616 -0.0170
 5287TIP3   OH215824   1.967   3.276   1.036 -0.2140  0.6086 -0.5712
 5287TIP3    H115825   1.989   3.183   1.025 -0.3661  0.5978 -0.8048
 5287TIP3    H215826   1.965   3.289   1.131 -1.6799  0.0023 -0.4914
 5288TIP3   OH215827   6.280   2.963   4.451 -0.3159  0.0048 -0.4243
 5288TIP3    H115828   6.279   2.881   4.402 -0.5534 -1.1057  1.3697
 5288TIP3    H215829   6.357   3.009   4.418  1.1594 -1.9484  0.1049
 5289TIP3   OH215830   4.274   5.163   1.292 -0.2120  0.1209  0.0439
 5289TIP3    H115831   4.286   5.257   1.278  1.3031  0.4238  2.8334
 5289TIP3    H215832   4.201   5.140   1.233 -0.1022  2.8272 -1.3279
 5290TIP3   OH215833   0.849   3.666   2.662  0.8426 -0.4067  0.3089
 5290TIP3    H115834   0.908   3.719   2.609  0.7959  1.0815  1.6772
 5290TIP3    H215835   0.788   3.627   2.599  2.0923 -0.4223 -0.9221
 5291TIP3   OH215836   6.166   4.149   5.879  0.2004 -0.4401 -0.6692
 5291TIP3    H115837   6.139   4.227   5.830 -2.4448 -1.3854 -0.8831
 5291TIP3    H215838   6.195   4.182   5.964 -0.6419  0.8099 -0.8449
 5292TIP3   OH215839   4.936   6.689   2.190  0.2792 -0.5519  0.1055
 5292TIP3    H115840   4.844   6.713   2.177  0.3848  0.3087  0.8701
 5292TIP3    H215841   4.943   6.670   2.283  0.7281 -1.3114 -0.0762
 5293TIP3   OH215842   3.750   2.708   5.743 -0.1708 -0.0279 -0.1398
 5293TIP3    H115843   3.735   2.696   5.650 -1.3026 -3.8628  0.3753
 5293TIP3    H215844   3.838   2.674   5.758  0.0716  0.7218  0.1759
 5294TIP3   OH215845   0.699   5.325   4.860 -0.0059  0.1202 -0.0686
 5294TIP3    H115846   0.630   5.382   4.893  0.5262  1.1735 -0.7257
 5294TIP3    H215847   0.755   5.382   4.809  0.7152 -0.9461 -0.5092
 5295TIP3   OH215848   4.926   3.858   5.572  0.1494 -0.2177  0.1447
 5295TIP3    H115849   4.922   3.900   5.658  0.6470  0.5546 -0.2067
 5295TIP3    H215850   4.998   3.795   5.580  0.1345 -0.2139  0.3169
 5296TIP3   OH215851   4.103   3.268   2.338 -0.1522 -0.3801 -0.1512
 5296TIP3    H115852   4.038   3.306   2.396 -0.0449  0.1250 -0.3597
 5296TIP3    H215853   4.056   3.253   2.255 -0.2931 -1.0544  0.0476
 5297TIP3   OH215854   5.681   5.813   5.180  0.1068  0.4114  0.3499
 5297TIP3    H115855   5.677   5.840   5.271  0.1730  0.8768  0.2211
 5297TIP3    H215856   5.771   5.782   5.167 -0.3947 -1.3398  0.8918
 5298TIP3   OH215857   6.512   3.399   3.305  0.0162 -0.2963  0.2944
 5298TIP3    H115858   6.424   3.364   3.314  0.0693 -0.7589 -0.8708
 5298TIP3    H215859   6.570   3.325   3.325  0.1252 -0.5368 -0.8422
 5299TIP3   OH215860   6.957   6.511   2.816 -0.5597  0.3092 -0.4520
 5299TIP3    H115861   7.044   6.472   2.813 -1.3265 -1.4868 -0.8223
 5299TIP3    H215862   6.908   6.456   2.878 -1.9847  0.0135 -1.7715
 5300TIP3   OH215863   7.003   3.020   4.410 -0.5821  0.1145  0.1530
 5300TIP3    H115864   6.993   3.089   4.344 -1.3490 -2.1692 -2.2841
 5300TIP3    H215865   6.934   2.957   4.389 -0.2346 -1.1777  2.5960
 5301TIP3   OH215866   3.925   6.239   4.153  0.1788 -0.2828  0.3449
 5301TIP3    H115867   3.993   6.281   4.100 -0.4269 -1.0231 -1.0739
 5301TIP3    H215868   3.849   6.297   4.145 -0.1848 -0.8308 -0.3646
 5302TIP3   OH215869   5.631   1.921   3.489 -0.1347  0.2059 -0.4262
 5302TIP3    H115870   5.653   1.961   3.573 -2.4062  0.4894  0.0751
 5302TIP3    H215871   5.593   1.992   3.437 -0.9727 -0.5041 -0.8040
 5303TIP3   OH215872   0.560   2.231   2.393 -0.2277 -0.4943 -0.2489
 5303TIP3    H115873   0.485   2.171   2.395  0.6825 -1.7507  3.0243
 5303TIP3    H215874   0.636   2.173   2.396  0.9478  0.7831 -2.6053
 5304TIP3   OH215875   2.701   2.040   5.362 -0.0281 -0.3039  0.8152
 5304TIP3    H115876   2.644   1.966   5.383  0.9609 -1.3490 -0.0400
 5304TIP3    H215877   2.698   2.047   5.267  0.3704  0.3579  0.8455
 5305TIP3   OH215878   6.977   3.692   3.539  0.5090 -0.3185  0.2901
 5305TIP3    H115879   6.987   3.618   3.598  1.8697 -1.3236 -1.1450
 5305TIP3    H215880   6.998   3.769   3.593  0.5419 -1.0888  1.3984
 5306TIP3   OH215881   6.170   3.391   0.967  0.3956 -0.2774  0.3596
 5306TIP3    H115882   6.207   3.322   0.913  0.4055 -0.6063  0.7810
 5306TIP3    H215883   6.160   3.351   1.054  1.7466  0.6630  0.9933
 5307TIP3   OH215884   0.800   2.537   1.846  0.1539  0.3945  1.0268
 5307TIP3    H115885   0.747   2.466   1.809 -0.3847  0.4076  1.7457
 5307TIP3    H215886   0.736   2.602   1.875  0.5307  0.2709  2.1869
 5308TIP3   OH215887   3.150   5.850   4.001  0.4108  0.2970 -0.8779
 5308TIP3    H115888   3.100   5.815   4.075  0.2605  1.5815 -0.3439
 5308TIP3    H215889   3.186   5.773   3.958  1.3443 -0.4731  1.1265
 5309TIP3   OH215890   1.103   0.662   2.964 -0.1099  0.1003 -0.1369
 5309TIP3    H115891   1.084   0.574   2.995  1.0100 -0.5405 -1.1901
 5309TIP3    H215892   1.074   0.663   2.873  2.1328 -0.0423 -0.9322
 5310TIP3   OH215893   4.200   3.671   5.527  0.3517  0.2802 -0.0495
 5310TIP3    H115894   4.267   3.712   5.472  1.1420 -0.9076 -0.0211
 5310TIP3    H215895   4.159   3.607   5.470  1.3168 -1.1143  0.7449
 5311TIP3   OH215896   5.405   3.191   3.468  0.1806  0.3702 -0.2152
 5311TIP3    H115897   5.345   3.221   3.537 -0.0218 -0.6353  0.0639
 5311TIP3    H215898   5.394   3.255   3.397  0.3782  1.4157  0.6643
 5312TIP3   OH215899   4.512   0.447   2.797 -0.6231 -0.0665  0.2735
 5312TIP3    H115900   4.447   0.425   2.730  1.0422  0.2395 -1.5531
 5312TIP3    H215901   4.499   0.382   2.865 -1.6360 -1.1583 -0.9071
 5313TIP3   OH215902   6.307   0.475   0.952 -0.4405  0.1737  0.2641
 5313TIP3    H115903   6.386   0.529   0.958  0.1557 -0.7288  0.8652
 5313TIP3    H215904   6.235   0.537   0.949  0.3544  1.0626 -1.8187
 5314TIP3   OH215905   5.050   3.540   3.785 -0.4298  0.0755 -0.4590
 5314TIP3    H115906   4.992   3.583   3.722  1.3602  2.5194 -0.5905
 5314TIP3    H215907   5.132   3.528   3.737  0.1098 -0.5515  0.5999
 5315TIP3   OH215908   2.766   1.678   1.654 -0.3155  0.1868  0.4387
 5315TIP3    H115909   2.797   1.656   1.567 -3.3984  0.3840 -0.8531
 5315TIP3    H215910   2.729   1.596   1.688  1.6644 -0.1335  2.0481
 5316TIP3   OH215911   1.905   3.552   4.574  0.4298  0.4829  0.0873
 5316TIP3    H115912   1.975   3.522   4.631 -1.7759 -3.0003  1.2931
 5316TIP3    H215913   1.856   3.472   4.553 -3.2172  2.6874 -0.5685
 5317TIP3   OH215914   6.750   1.875   2.612 -0.4889  0.0103 -0.0486
 5317TIP3    H115915   6.761   1.780   2.620  1.4444  0.2934  1.5028
 5317TIP3    H215916   6.775   1.894   2.522 -2.2684 -1.0586 -0.8283
 5318TIP3   OH215917   1.214   0.231   5.647  0.4078  0.2668 -0.1042
 5318TIP3    H115918   1.179   0.151   5.610  2.5059 -1.5178  1.4796
 5318TIP3    H215919   1.237   0.208   5.737  0.0764  2.9804  0.7642
 5319TIP3   OH215920   1.559   2.341   3.960 -0.4313 -0.0968  0.2680
 5319TIP3    H115921   1.585   2.272   4.021 -0.9118  0.3618  1.0187
 5319TIP3    H215922   1.467   2.359   3.982 -0.2639  0.9047  0.2332
 5320TIP3   OH215923   5.441   5.854   0.812 -0.3320  0.7807 -0.1155
 5320TIP3    H115924   5.475   5.944   0.814  0.9061  0.3169  0.4169
 5320TIP3    H215925   5.483   5.814   0.736  0.2296  0.2363  0.4738
 5321TIP3   OH215926   1.429   0.410   4.135 -0.2655  0.2359  0.1297
 5321TIP3    H115927   1.385   0.447   4.058 -0.6713  0.0177  0.2551
 5321TIP3    H215928   1.412   0.316   4.129  2.1052 -0.1987 -1.0718
 5322TIP3   OH215929   6.445   6.167   3.681  0.3277  0.2403 -0.4401
 5322TIP3    H115930   6.451   6.234   3.749 -0.8099 -1.3651  1.3275
 5322TIP3    H215931   6.422   6.216   3.602 -0.9911  1.9267  0.9083
 5323TIP3   OH215932   3.519   4.947   5.840  0.0746  0.6082 -0.1063
 5323TIP3    H115933   3.468   4.921   5.917 -0.2445 -0.9158 -0.7875
 5323TIP3    H215934   3.609   4.921   5.860 -0.0064  0.2224 -0.2467
 5324TIP3   OH215935   6.965   5.418   2.637  0.1583 -0.4354 -0.3171
 5324TIP3    H115936   6.913   5.477   2.582  0.2878 -0.7163 -0.7470
 5324TIP3    H215937   7.055   5.444   2.621  0.2933 -1.4118 -1.3207
 5325TIP3   OH215938   4.147   0.905   5.573  0.0337 -0.6460  0.5323
 5325TIP3    H115939   4.077   0.965   5.596 -1.9990 -2.1398 -1.3172
 5325TIP3    H215940   4.103   0.829   5.535  2.6473 -1.5216 -1.0750
 5326TIP3   OH215941   1.865   3.717   1.689  0.1560  0.2725  0.1992
 5326TIP3    H115942   1.808   3.783   1.651 -1.0363 -0.2770  0.9651
 5326TIP3    H215943   1.873   3.743   1.781 -0.9705 -1.0340  0.7013
 5327TIP3   OH215944   5.755   6.621   4.447 -0.6395 -0.4365 -0.0092
 5327TIP3    H115945   5.779   6.703   4.403 -0.2267  0.8338  2.4454
 5327TIP3    H215946   5.659   6.619   4.442 -0.7116  0.6426  0.6097
 5328TIP3   OH215947   2.708   2.864   0.030 -0.7812 -0.5915 -0.7291
 5328TIP3    H115948   2.752   2.873   0.115  0.3778 -0.9012 -1.2737
 5328TIP3    H215949   2.774   2.890  -0.034 -1.7842  0.0429 -1.5202
 5329TIP3   OH215950   2.355   0.214   2.935 -0.0110  0.0746  0.4336
 5329TIP3    H115951   2.399   0.240   3.015 -0.5878  0.4585  0.6372
 5329TIP3    H215952   2.276   0.269   2.932  1.8968  3.0314 -2.3965
 5330TIP3   OH215953   6.117   2.371   3.815 -0.0781  0.2044 -0.4279
 5330TIP3    H115954   6.161   2.318   3.881  0.0351  1.4442  0.5402
 5330TIP3    H215955   6.188   2.411   3.765 -0.1591 -0.2373 -0.9096
 5331TIP3   OH215956   6.766   5.623   0.831 -0.1775 -0.1629 -0.2459
 5331TIP3    H115957   6.855   5.657   0.815 -0.4440  0.5243 -0.3082
 5331TIP3    H215958   6.779   5.546   0.886  0.5546 -0.8220 -1.2822
 5332TIP3   OH215959   2.985   0.704   4.482 -0.2340 -0.3792 -0.3866
 5332TIP3    H115960   2.899   0.670   4.459  0.1605 -1.3140 -0.5128
 5332TIP3    H215961   3.046   0.634   4.459  0.5339  0.1520 -0.0193
 5333TIP3   OH215962   5.981   3.972   4.733  0.0788 -0.0487  0.2471
 5333TIP3    H115963   5.972   3.877   4.728 -2.1344  0.1299  0.1845
 5333TIP3    H215964   6.048   3.992   4.668 -0.2852 -1.4468 -0.6049
 5334TIP3   OH215965   6.034   1.607   2.326 -0.3471  0.6517 -0.6860
 5334TIP3    H115966   6.034   1.642   2.237  0.0813  1.0459 -0.5364
 5334TIP3    H215967   5.943   1.609   2.353 -0.4692  0.6036 -1.0859
 5335TIP3   OH215968   2.296   4.749   1.736  0.3109  0.3320 -0.1028
 5335TIP3    H115969   2.304   4.660   1.701  0.6399 -0.2702  1.4157
 5335TIP3    H215970   2.243   4.795   1.671  1.6946 -0.4327 -1.8430
 5336TIP3   OH215971   7.012   0.675   3.315  0.0681 -0.3009 -0.6023
 5336TIP3    H115972   6.968   0.648   3.234  1.3588 -0.9009 -1.1310
 5336TIP3    H215973   7.095   0.714   3.285  0.8799 -1.1580  0.4510
 5337TIP3   OH215974   1.479   2.779   2.477 -0.2395 -0.0145  0.2049
 5337TIP3    H115975   1.406   2.838   2.498 -0.0370  0.6804 -0.9730
 5337TIP3    H215976   1.518   2.759   2.562 -1.6109 -0.1643  0.8300
 5338TIP3   OH215977   2.907   1.257   3.834  0.0688 -0.3260  0.0709
 5338TIP3    H115978   2.928   1.173   3.875  0.6354 -0.1556  0.1290
 5338TIP3    H215979   2.943   1.251   3.745 -0.2175 -0.2849 -0.0504
 5339TIP3   OH215980   6.693   6.737   0.799 -0.1042  0.2886  0.1960
 5339TIP3    H115981   6.622   6.731   0.735  0.8398  0.2776 -0.9067
 5339TIP3    H215982   6.721   6.828   0.794 -1.2703  0.8032  2.0572
 5340TIP3   OH215983   6.766   4.110   3.710  0.4885  0.9645 -0.0113
 5340TIP3    H115984   6.721   4.156   3.780  1.8260  2.2707  0.0274
 5340TIP3    H215985   6.696   4.081   3.652 -0.6020  0.3467  1.5418
 5341TIP3   OH215986   6.412   1.674   0.454  0.0509 -0.0359  0.2258
 5341TIP3    H115987   6.410   1.764   0.486 -0.9427  0.1308 -0.2595
 5341TIP3    H215988   6.419   1.620   0.532  0.6653  0.4537  0.5212
 5342TIP3   OH215989   4.975   2.656   1.714 -0.2505 -0.0098 -0.0670
 5342TIP3    H115990   4.904   2.649   1.779 -0.1077  1.7051  0.3128
 5342TIP3    H215991   5.049   2.612   1.756 -0.4037  0.3224  0.5640
 5343TIP3   OH215992   3.149   4.269   3.203 -0.0398  0.8379 -0.5169
 5343TIP3    H115993   3.180   4.314   3.281 -0.8654  2.0815 -0.8789
 5343TIP3    H215994   3.185   4.181   3.210 -0.0184  0.9607  1.2024
 5344TIP3   OH215995   6.777   1.127   0.688 -0.1329 -0.1864 -0.6735
 5344TIP3    H115996   6.784   1.204   0.631  0.4963 -0.2570 -0.7009
 5344TIP3    H215997   6.698   1.142   0.740  0.5339  0.9660  0.0395
 5345TIP3   OH215998   3.420   1.244   3.250  0.7582 -0.0172 -0.0074
 5345TIP3    H115999   3.401   1.152   3.272  2.3527 -0.1625  0.8818
 5345TIP3    H216000   3.348   1.270   3.193 -0.6492 -1.3059  1.0975
 5346TIP3   OH216001   6.427   5.301   0.268  0.4890 -0.7916  0.5831
 5346TIP3    H116002   6.404   5.248   0.192  1.7287 -1.4276  0.6301
 5346TIP3    H216003   6.497   5.253   0.312  1.1539  0.5197  1.0334
 5347TIP3   OH216004   2.021   6.631   3.898  0.1416  0.6280  0.9761
 5347TIP3    H116005   1.930   6.607   3.877  0.2126  1.2181 -0.0295
 5347TIP3    H216006   2.074   6.577   3.840  0.4371  0.4204  1.4347
 5348TIP3   OH216007   0.872   2.260   1.387 -0.5343 -0.4718 -0.1698
 5348TIP3    H116008   0.878   2.353   1.363  1.7421 -0.6985 -0.7880
 5348TIP3    H216009   0.945   2.219   1.340 -1.4753 -2.5797  0.1137
 5349TIP3   OH216010   5.990   5.062   2.217 -1.2906  0.4237 -0.5717
 5349TIP3    H116011   5.944   5.143   2.199  0.0370  0.9561 -1.7604
 5349TIP3    H216012   6.082   5.087   2.225 -0.9526 -0.8481 -0.1140
 5350TIP3   OH216013   5.878   6.467   2.934  0.0670 -0.2732 -0.2717
 5350TIP3    H116014   5.828   6.424   2.864  0.9757 -0.9029 -0.5563
 5350TIP3    H216015   5.812   6.516   2.984 -0.7158 -0.4665 -1.0801
 5351TIP3   OH216016   4.376   6.709   0.917 -0.1320  0.0208  0.5550
 5351TIP3    H116017   4.407   6.783   0.865  0.5723 -1.6849 -1.6255
 5351TIP3    H216018   4.452   6.682   0.969  0.9513 -1.5890 -1.6965
 5352TIP3   OH216019   6.756   3.188   0.317 -0.2087  0.5561 -0.0545
 5352TIP3    H116020   6.708   3.202   0.236  0.2511  0.3359 -0.3693
 5352TIP3    H216021   6.691   3.154   0.378 -0.3391 -0.2576 -0.6388
 5353TIP3   OH216022   3.236   1.165   4.390 -0.0361  0.1613 -0.2750
 5353TIP3    H116023   3.194   1.214   4.319  0.5332  0.7925 -0.1861
 5353TIP3    H216024   3.330   1.180   4.377  0.2592 -2.0610 -1.0821
 5354TIP3   OH216025   7.169   4.582   3.123  0.4380  0.0994  0.5031
 5354TIP3    H116026   7.232   4.654   3.129  0.3082  0.1412  1.4055
 5354TIP3    H216027   7.164   4.563   3.029  2.4740 -0.5015  0.4468
 5355TIP3   OH216028   5.128   5.110   0.396  0.6460 -0.2364 -0.1307
 5355TIP3    H116029   5.189   5.095   0.469 -0.6371 -0.2458  0.9775
 5355TIP3    H216030   5.105   5.202   0.402  0.4627 -0.2560 -0.4755
 5356TIP3   OH216031   6.144   4.259   2.930 -0.5068 -0.3233 -0.1419
 5356TIP3    H116032   6.207   4.248   2.858 -0.6086 -2.5817  0.0559
 5356TIP3    H216033   6.198   4.262   3.009 -0.4935  0.7432 -0.1711
 5357TIP3   OH216034   3.393   2.942   1.353  0.0912 -0.1247  0.1637
 5357TIP3    H116035   3.463   2.898   1.304 -0.2484 -0.2661 -0.1996
 5357TIP3    H216036   3.401   3.034   1.328  1.4391  0.2212  1.6856
 5358TIP3   OH216037   5.763   0.468   4.328  0.2620  0.2865 -0.3534
 5358TIP3    H116038   5.759   0.398   4.263 -0.9472  0.3403 -0.3575
 5358TIP3    H216039   5.820   0.433   4.397 -1.1548 -1.1633  0.1529
 5359TIP3   OH216040   3.451   1.152   1.590  0.1931  0.8828 -0.2812
 5359TIP3    H116041   3.499   1.166   1.508  0.1231 -0.6960 -0.6235
 5359TIP3    H216042   3.444   1.057   1.597  2.0447  0.8345  2.6464
 5360TIP3   OH216043   2.817   6.325   2.541 -0.5710 -0.1903 -0.1924
 5360TIP3    H116044   2.769   6.350   2.462 -1.0953  1.1689  0.5375
 5360TIP3    H216045   2.755   6.339   2.612  0.8971  1.7316  0.8007
 5361TIP3   OH216046   4.766   2.812   0.148 -0.1435 -0.4042 -0.2629
 5361TIP3    H116047   4.780   2.886   0.207 -0.0403 -0.3797 -0.3190
 5361TIP3    H216048   4.814   2.835   0.069 -2.8419  1.0803 -1.6294
 5362TIP3   OH216049   6.972   1.997   0.284 -0.5065  0.1921 -0.0585
 5362TIP3    H116050   6.911   1.930   0.253 -1.4156  0.6491  0.6602
 5362TIP3    H216051   6.922   2.079   0.280 -0.0236  0.5455  0.7374
 5363TIP3   OH216052   6.594   6.281   1.953  0.3087  0.1433 -0.5685
 5363TIP3    H116053   6.608   6.372   1.979  2.1781 -0.7429  1.8985
 5363TIP3    H216054   6.668   6.260   1.896  0.3330 -0.0547 -0.4665
 5364TIP3   OH216055   0.728   6.370   5.812  0.3454  0.5112  0.0707
 5364TIP3    H116056   0.768   6.290   5.846  0.6683  0.8755  0.5582
 5364TIP3    H216057   0.636   6.347   5.800  0.2629  0.3118  1.0080
 5365TIP3   OH216058   3.515   2.238   4.178  0.4472  0.1197 -0.4960
 5365TIP3    H116059   3.547   2.205   4.094 -1.7827  1.2658 -1.9026
 5365TIP3    H216060   3.452   2.306   4.154  0.2709  0.9895  2.1509
 5366TIP3   OH216061   3.289   1.711   4.452 -0.7943  0.5628  0.0433
 5366TIP3    H116062   3.375   1.742   4.480 -1.4162  0.6595  2.0583
 5366TIP3    H216063   3.306   1.655   4.377  1.1521 -0.2078  0.9875
 5367TIP3   OH216064   0.347   3.402   3.175  0.2184  0.0309  0.0571
 5367TIP3    H116065   0.435   3.381   3.206 -0.5137  0.0862  2.4415
 5367TIP3    H216066   0.331   3.491   3.208 -0.9671 -0.2576  0.3161
 5368TIP3   OH216067   2.067   1.101   0.060 -0.0909  0.0587 -0.3192
 5368TIP3    H116068   2.032   1.115   0.148  0.3770  0.8883 -0.2649
 5368TIP3    H216069   1.989   1.086   0.006 -0.3169 -1.7502  0.4477
 5369TIP3   OH216070   1.163   1.930   1.108 -0.5542 -0.1970  0.1921
 5369TIP3    H116071   1.179   1.980   1.028 -1.2556  0.8914  0.7056
 5369TIP3    H216072   1.163   1.839   1.080 -0.9569  0.1747 -1.0772
 5370TIP3   OH216073   1.430   0.427   5.607 -0.2256 -0.0909 -0.8739
 5370TIP3    H116074   1.359   0.371   5.639 -0.0884  0.2005 -0.0409
 5370TIP3    H216075   1.395   0.468   5.528  0.5939 -3.4651 -3.2500
 5371TIP3   OH216076   2.607   6.695   0.197 -0.5582  0.4030 -0.1250
 5371TIP3    H116077   2.555   6.680   0.119 -0.5035  1.1408 -0.3112
 5371TIP3    H216078   2.545   6.686   0.270 -0.8240  0.6926 -0.3135
 5372TIP3   OH216079   2.296   3.103   5.414  0.0341 -0.4543  0.1729
 5372TIP3    H116080   2.267   3.183   5.459  0.2800 -0.5115  0.4325
 5372TIP3    H216081   2.229   3.038   5.436 -0.9850  0.0571 -1.2522
 5373TIP3   OH216082   0.055   4.985   1.132 -0.1922  0.5539 -0.0089
 5373TIP3    H116083   0.004   4.993   1.051 -1.2863  1.4795  0.7286
 5373TIP3    H216084   0.091   4.897   1.129 -0.0324  0.6310 -1.5953
 5374TIP3   OH216085   0.901   1.761   1.414  0.1886 -0.1799 -1.0388
 5374TIP3    H116086   0.917   1.669   1.436 -0.3493  0.0026  0.2123
 5374TIP3    H216087   0.809   1.775   1.434  0.8618  1.2971  1.4176
 5375TIP3   OH216088   2.717   2.447   2.359 -0.0909 -0.1495  0.1217
 5375TIP3    H116089   2.791   2.458   2.300 -0.2971  0.6698 -0.0000
 5375TIP3    H216090   2.697   2.354   2.356  0.5392 -0.2751 -0.3237
 5376TIP3   OH216091   1.503   6.487   3.523 -1.0472 -0.3281  0.0299
 5376TIP3    H116092   1.516   6.564   3.577 -0.0936  0.6734 -1.5714
 5376TIP3    H216093   1.500   6.414   3.586 -2.0360  0.9719  1.5715
 5377TIP3   OH216094   3.960   3.140   2.713 -0.0189 -0.2923  0.6403
 5377TIP3    H116095   4.020   3.212   2.696 -0.8388  0.3880  0.5303
 5377TIP3    H216096   3.876   3.183   2.731 -0.7274 -1.2417 -0.2745
 5378TIP3   OH216097   3.945   6.630   4.118 -0.0586  0.2106  0.2409
 5378TIP3    H116098   4.011   6.605   4.183 -1.1261 -0.0708  1.2492
 5378TIP3    H216099   3.885   6.556   4.115  0.6775 -0.3555 -2.0901
 5379TIP3   OH216100   1.169   1.317   4.638 -0.6901 -0.5718 -0.0264
 5379TIP3    H116101   1.136   1.304   4.727 -0.0063 -1.3487  0.1278
 5379TIP3    H216102   1.264   1.324   4.649 -0.5386 -1.3500 -0.7611
 5380TIP3   OH216103   6.544   6.752   2.260  0.7532  0.5451 -0.1831
 5380TIP3    H116104   6.614   6.785   2.204  0.2035  1.1307 -0.5489
 5380TIP3    H216105   6.588   6.722   2.339  1.5522 -0.4178 -0.9709
 5381TIP3   OH216106   1.414   2.271   3.614 -0.0823 -0.3331  0.6693
 5381TIP3    H116107   1.394   2.362   3.593  2.1787  0.2861  0.9233
 5381TIP3    H216108   1.390   2.262   3.706  0.3014  0.2235  0.8319
 5382TIP3   OH216109   3.562   4.054   3.601 -0.6312 -0.1689 -0.0313
 5382TIP3    H116110   3.561   4.112   3.525  1.7641 -1.0482 -0.8345
 5382TIP3    H216111   3.583   3.968   3.566 -0.1505 -0.7288  1.5306
 5383TIP3   OH216112   3.814   4.758   3.207  0.0940 -0.2367  0.4527
 5383TIP3    H116113   3.869   4.767   3.285  0.6345  0.5230 -0.0005
 5383TIP3    H216114   3.773   4.844   3.197  0.9234  0.0443 -0.7410
 5384TIP3   OH216115   3.780   4.500   4.129 -0.3753 -0.2457  0.3942
 5384TIP3    H116116   3.709   4.501   4.065  0.1846  1.3063 -0.2655
 5384TIP3    H216117   3.774   4.585   4.172  1.1281 -0.0341  0.2477
 5385TIP3   OH216118   0.195   0.220   2.917  0.1634 -0.0297  0.6820
 5385TIP3    H116119   0.144   0.300   2.901  1.1173  0.2500 -1.3040
 5385TIP3    H216120   0.142   0.170   2.979 -2.4045  0.3556 -1.0334
 5386TIP3   OH216121   1.808   1.720   0.507  0.3863  0.1176  0.1026
 5386TIP3    H116122   1.871   1.714   0.435  0.1207  0.3095 -0.1462
 5386TIP3    H216123   1.814   1.810   0.538  0.3416  0.0952  0.1782
 5387TIP3   OH216124   1.813   4.561   0.992 -0.4469 -0.3738  0.1270
 5387TIP3    H116125   1.797   4.627   1.060  0.9536  2.0870 -1.7774
 5387TIP3    H216126   1.904   4.534   1.008 -0.1060  0.2325 -0.7416
 5388TIP3   OH216127   2.371   1.611   5.326 -0.1583 -0.2482  0.6613
 5388TIP3    H116128   2.431   1.600   5.253 -3.0368 -1.7662 -1.6874
 5388TIP3    H216129   2.407   1.554   5.395  1.5977 -0.2905 -0.2342
 5389TIP3   OH216130   3.352   4.280   1.131  0.8086  0.1102  0.5854
 5389TIP3    H116131   3.330   4.212   1.196 -0.4267 -0.5089 -0.4374
 5389TIP3    H216132   3.413   4.237   1.072  0.1277 -0.0990  0.0136
 5390TIP3   OH216133   4.531   4.361   2.013 -0.2876  0.4575 -0.1063
 5390TIP3    H116134   4.511   4.323   2.098  1.8007  2.9997  1.6875
 5390TIP3    H216135   4.447   4.389   1.979 -1.0269  0.8769  1.9370
 5391TIP3   OH216136   6.497   4.600   5.536 -0.0454 -0.0986  0.2590
 5391TIP3    H116137   6.510   4.577   5.444  1.5265  0.8038  0.2254
 5391TIP3    H216138   6.496   4.696   5.537  1.3011 -0.0661  1.3116
 5392TIP3   OH216139   6.589   6.730   0.315  0.0651 -0.5211  0.0659
 5392TIP3    H116140   6.499   6.729   0.349  0.3214  0.8032  0.8597
 5392TIP3    H216141   6.624   6.645   0.338 -0.8166 -0.8537  0.2271
 5393TIP3   OH216142   5.811   0.913   4.429 -0.4464 -0.0397 -0.6491
 5393TIP3    H116143   5.770   0.922   4.515  0.7705 -0.8730  0.0506
 5393TIP3    H216144   5.738   0.906   4.367 -1.3330  0.3232  0.3397
 5394TIP3   OH216145   6.240   3.959   1.996  0.0913 -0.0213  0.2413
 5394TIP3    H116146   6.197   3.974   1.912  0.4428 -2.9355 -0.5617
 5394TIP3    H216147   6.333   3.957   1.976  0.4675  2.3603  1.3270
 5395TIP3   OH216148   4.970   3.205   4.386 -0.2531 -0.4252  0.8081
 5395TIP3    H116149   5.059   3.238   4.402  0.4089  0.1459 -3.0413
 5395TIP3    H216150   4.918   3.240   4.458  2.3699  0.3603  2.4623
 5396TIP3   OH216151   0.994   6.634   1.296 -0.0623  0.0226  0.1190
 5396TIP3    H116152   1.039   6.618   1.214  1.9185  0.2563  1.0975
 5396TIP3    H216153   0.918   6.575   1.294  0.9763 -1.3436 -1.0583
 5397TIP3   OH216154   2.445   3.699   3.360  0.3100 -0.2492  0.1389
 5397TIP3    H116155   2.528   3.718   3.404  0.2837 -0.8984  0.4780
 5397TIP3    H216156   2.464   3.622   3.306 -0.7430 -2.1112  2.2787
 5398TIP3   OH216157   6.996   4.614   5.233  0.0568 -0.1609 -0.7007
 5398TIP3    H116158   6.986   4.693   5.286 -1.2051  1.0346 -2.6000
 5398TIP3    H216159   6.983   4.541   5.294  1.0504  1.0652  1.0519
 5399TIP3   OH216160   0.735   6.624   4.437  0.3128  0.0793 -0.1952
 5399TIP3    H116161   0.830   6.630   4.426  0.1750  1.6951 -0.7488
 5399TIP3    H216162   0.699   6.669   4.361 -0.8774  0.7554  0.7375
 5400TIP3   OH216163   5.085   0.016   3.116 -0.5955 -0.2162 -0.2736
 5400TIP3    H116164   5.092   0.092   3.059 -3.2465  0.6295  0.3949
 5400TIP3    H216165   5.116   0.046   3.201 -1.4068  0.0832 -0.0718
 5401TIP3   OH216166   2.375   3.262   4.690  0.1059  0.0013 -0.3769
 5401TIP3    H116167   2.447   3.209   4.655 -0.0819 -0.1953 -0.4647
 5401TIP3    H216168   2.409   3.297   4.773  0.5056  0.3607 -0.6844
 5402TIP3   OH216169   5.405   6.306   2.471  0.4040 -0.0905  0.2420
 5402TIP3    H116170   5.455   6.326   2.392 -0.6321 -1.0212 -0.6840
 5402TIP3    H216171   5.439   6.366   2.537  0.4070  1.6368 -1.2554
 5403TIP3   OH216172   5.340   6.614   1.637 -0.5129  0.0708  0.0509
 5403TIP3    H116173   5.404   6.576   1.697  1.1226 -1.7569 -2.5863
 5403TIP3    H216174   5.262   6.559   1.647 -0.7623  0.6318  1.3855
 5404TIP3   OH216175   3.379   4.309   1.739 -0.8494  0.2974  0.3593
 5404TIP3    H116176   3.326   4.377   1.697 -0.5365  0.2122 -0.1881
 5404TIP3    H216177   3.359   4.230   1.689 -0.9928  0.0464  0.8132
 5405TIP3   OH216178   3.319   5.074   4.948 -0.3237 -0.1567  0.2250
 5405TIP3    H116179   3.314   5.169   4.945  2.8165  0.1659  1.1696
 5405TIP3    H216180   3.271   5.050   5.027  0.3344  0.8299  0.9477
 5406TIP3   OH216181   5.655   0.706   1.004  1.2538  0.3566  0.4140
 5406TIP3    H116182   5.702   0.643   0.949 -0.2896  2.1313 -3.2685
 5406TIP3    H216183   5.690   0.791   0.979 -0.8957  1.4018  0.6810
 5407TIP3   OH216184   3.008   5.107   2.167 -0.2273 -0.1332 -0.0984
 5407TIP3    H116185   2.936   5.105   2.229 -0.1871 -1.4283 -0.0697
 5407TIP3    H216186   3.047   5.194   2.178 -2.0380  0.7764 -0.4479
 5408TIP3   OH216187   0.742   2.506   5.041 -0.1944  0.8851  0.6850
 5408TIP3    H116188   0.812   2.444   5.064 -0.3265  0.6487  0.4526
 5408TIP3    H216189   0.663   2.453   5.039 -0.4519  1.2286  1.3515
 5409TIP3   OH216190   2.961   5.607   0.484  0.1834  0.0290  0.2390
 5409TIP3    H116191   2.984   5.537   0.545  2.5722  0.9125  0.4892
 5409TIP3    H216192   3.006   5.684   0.519 -0.9159  1.2812 -0.9828
 5410TIP3   OH216193   2.098   2.064   5.138 -0.3608 -0.0583  0.7642
 5410TIP3    H116194   2.148   2.081   5.058  0.1897  0.0607  1.1304
 5410TIP3    H216195   2.148   2.108   5.207 -0.7519 -0.2935  1.1998
 5411TIP3   OH216196   6.381   3.843  -0.001 -0.2564  0.8436  0.0987
 5411TIP3    H116197   6.393   3.890   0.081  0.7804  0.7275  0.0239
 5411TIP3    H216198   6.457   3.786  -0.008  1.5351  3.2805 -2.5444
 5412TIP3   OH216199   5.970   0.518   2.883 -0.4205 -0.0928  0.1355
 5412TIP3    H116200   6.047   0.575   2.879  0.1600 -0.7933  1.0530
 5412TIP3    H216201   6.005   0.429   2.881 -1.3236 -0.4493 -1.3809
 5413TIP3   OH216202   3.223   1.230   5.627 -0.4726  0.3284  0.5493
 5413TIP3    H116203   3.226   1.308   5.573  1.5951 -0.2556 -0.2527
 5413TIP3    H216204   3.276   1.250   5.703  0.8620 -0.5682 -0.1050
 5414TIP3   OH216205   4.140   0.695   1.801 -0.1690 -0.8348  0.7440
 5414TIP3    H116206   4.183   0.697   1.887  1.3506  1.0274  0.0033
 5414TIP3    H216207   4.200   0.644   1.746  1.6690  2.3692 -0.4826
 5415TIP3   OH216208   5.628   2.679   1.514 -0.2951 -0.1207 -0.5784
 5415TIP3    H116209   5.653   2.597   1.557  0.9696  0.5797  0.0555
 5415TIP3    H216210   5.547   2.705   1.558 -1.5544 -1.7419 -1.7772
 5416TIP3   OH216211   3.026   4.037   5.857  0.4812 -0.1219 -0.0677
 5416TIP3    H116212   3.086   4.102   5.821  0.6977 -0.4388 -0.2952
 5416TIP3    H216213   2.959   4.087   5.903 -0.2809  0.3553 -1.6271
 5417TIP3   OH216214   2.192   6.271   1.606  0.8358 -0.4869  0.0285
 5417TIP3    H116215   2.280   6.276   1.644  0.6259  0.6936  0.3982
 5417TIP3    H216216   2.158   6.360   1.614  0.3017 -0.4998 -1.7873
 5418TIP3   OH216217   3.815   3.228   4.757  0.3445  0.8874 -0.0634
 5418TIP3    H116218   3.857   3.145   4.735 -1.2230 -0.6271  2.1600
 5418TIP3    H216219   3.776   3.258   4.675  1.3548 -0.3039 -1.0171
 5419TIP3   OH216220   6.679   4.654   2.290 -0.1623 -0.1265 -0.3374
 5419TIP3    H116221   6.720   4.703   2.219  1.7680 -0.0964  0.7304
 5419TIP3    H216222   6.716   4.565   2.283  0.0353 -0.1342  0.5785
 5420TIP3   OH216223   4.014   2.511   3.856  0.3047  0.0836  0.4499
 5420TIP3    H116224   3.930   2.481   3.890  1.7682 -3.2218  1.5876
 5420TIP3    H216225   4.067   2.431   3.850  3.8162  2.1743  1.1142
 5421TIP3   OH216226   3.198   2.709   1.231  0.2839  0.2146  0.1530
 5421TIP3    H116227   3.107   2.687   1.250  0.6905 -0.6835  1.2433
 5421TIP3    H216228   3.196   2.748   1.144 -1.0402 -0.5107 -0.1756
 5422TIP3   OH216229   2.288   6.558   2.636 -0.0556 -0.1624  0.3102
 5422TIP3    H116230   2.343   6.592   2.565 -0.3543 -0.3893 -0.0360
 5422TIP3    H216231   2.214   6.517   2.591 -1.9875  2.5372  0.8019
 5423TIP3   OH216232   1.848   3.400   5.299 -0.0186 -0.1309 -0.2278
 5423TIP3    H116233   1.835   3.390   5.204  1.2860 -0.3556 -0.4063
 5423TIP3    H216234   1.792   3.474   5.323 -0.1581  0.1051 -1.2341
 5424TIP3   OH216235   6.493   2.368   2.402 -0.2740  0.2057 -0.8513
 5424TIP3    H116236   6.434   2.438   2.373 -1.2121 -0.1785  0.1060
 5424TIP3    H216237   6.487   2.369   2.497  0.8904 -0.1783 -0.7626
 5425TIP3   OH216238   3.075   5.955   2.183 -0.4432 -0.2214 -0.1807
 5425TIP3    H116239   3.136   5.917   2.119 -1.9705 -0.2233 -1.7143
 5425TIP3    H216240   3.064   6.046   2.154  0.4800  0.4331  1.3940
 5426TIP3   OH216241   4.973   6.774   1.663  0.1681  0.4834  0.0656
 5426TIP3    H116242   4.959   6.713   1.590 -0.4106  0.4615  0.1841
 5426TIP3    H216243   5.054   6.820   1.642 -1.0496  1.9987 -1.6824
 5427TIP3   OH216244   0.819   5.420   5.652  0.8609 -0.6620 -0.3060
 5427TIP3    H116245   0.768   5.401   5.731 -0.0521 -0.4691 -0.8362
 5427TIP3    H216246   0.754   5.431   5.583  1.6174 -0.2331 -0.9736
 5428TIP3   OH216247   3.137   2.776   0.981 -0.2779 -0.2616  0.0505
 5428TIP3    H116248   3.170   2.709   0.920  1.1701  0.1004  0.3963
 5428TIP3    H216249   3.146   2.858   0.933  0.4382 -0.0302  0.5606
 5429TIP3   OH216250   3.732   6.300   3.139  0.3741 -0.1433  0.3006
 5429TIP3    H116251   3.801   6.311   3.074  0.0382 -1.6503 -0.3507
 5429TIP3    H216252   3.701   6.211   3.126 -0.9074  0.1166  1.3672
 5430TIP3   OH216253   6.792   2.594   3.067  0.3695 -0.0707 -0.0760
 5430TIP3    H116254   6.792   2.507   3.027  0.7757 -1.0564  1.9234
 5430TIP3    H216255   6.882   2.607   3.097  0.5188  1.4335 -1.0552
 5431TIP3   OH216256   5.577   5.051   4.751  0.3702  0.0335  0.5838
 5431TIP3    H116257   5.535   5.115   4.809  0.1122  0.1589  0.2688
 5431TIP3    H216258   5.511   4.982   4.740  0.5087 -0.1064  0.6341
 5432TIP3   OH216259   1.128   6.360   4.192 -0.1313 -0.1818  0.7595
 5432TIP3    H116260   1.070   6.371   4.268  1.0151  0.8773  1.5217
 5432TIP3    H216261   1.077   6.393   4.118 -0.8488 -0.1374  1.2591
 5433TIP3   OH216262   0.269   5.428   4.097 -0.2141 -0.1873 -0.2094
 5433TIP3    H116263   0.224   5.375   4.163 -0.6491  0.1574 -0.2292
 5433TIP3    H216264   0.244   5.389   4.014 -0.9412  0.3430 -0.2542
 5434TIP3   OH216265   3.656   1.956   1.461  0.1031 -0.0976  0.4888
 5434TIP3    H116266   3.657   2.037   1.511  1.2804  0.6997 -0.7544
 5434TIP3    H216267   3.706   1.894   1.515  0.3151  0.3841  0.8578
 5435TIP3   OH216268   1.198   4.017   4.817  0.1816  0.0962  0.2004
 5435TIP3    H116269   1.271   4.077   4.808 -0.2127  0.3091 -2.1882
 5435TIP3    H216270   1.122   4.073   4.835  0.0786  0.1990 -0.5154
 5436TIP3   OH216271   6.340   5.738   5.118  0.9679  0.5058 -0.0023
 5436TIP3    H116272   6.308   5.793   5.046  1.0960 -0.2823 -0.6774
 5436TIP3    H216273   6.433   5.725   5.098  0.7721 -0.5779 -0.2794
 5437TIP3   OH216274   1.860   3.168   1.979 -0.2055  0.4569  0.4776
 5437TIP3    H116275   1.918   3.202   2.047  1.3757  0.3283 -0.7551
 5437TIP3    H216276   1.847   3.076   2.003 -0.7633  0.7418  1.3164
 5438TIP3   OH216277   1.498   5.100   3.449  0.5364  0.3867 -0.5678
 5438TIP3    H116278   1.468   5.191   3.448  0.4643  0.3732 -0.0608
 5438TIP3    H216279   1.508   5.080   3.542  0.6927 -0.0780 -0.6854
 5439TIP3   OH216280   3.023   2.332   0.723  0.6405  0.0498 -0.3143
 5439TIP3    H116281   3.032   2.274   0.799 -0.0041 -1.5839 -1.4112
 5439TIP3    H216282   3.085   2.403   0.739  0.2635 -0.0359  1.8874
 5440TIP3   OH216283   4.046   3.705   2.309 -0.5620  0.0392  0.0459
 5440TIP3    H116284   4.032   3.662   2.225  1.3527  1.7197 -1.2171
 5440TIP3    H216285   4.130   3.671   2.340 -0.3626  0.7989  0.3682
 5441TIP3   OH216286   1.179   2.846   1.900 -0.1506 -0.3250  0.1728
 5441TIP3    H116287   1.185   2.819   1.992  1.6734  2.0992  0.8903
 5441TIP3    H216288   1.187   2.765   1.850  1.7672 -1.4639  2.1569
 5442TIP3   OH216289   7.039   0.405   0.397  0.0800 -0.0672 -0.0835
 5442TIP3    H116290   7.033   0.494   0.362  0.1124  0.2369  0.6519
 5442TIP3    H216291   6.965   0.397   0.457 -0.8662 -1.1131 -1.3587
 5443TIP3   OH216292   1.675   2.930   2.938  0.2401 -0.3069 -0.4015
 5443TIP3    H116293   1.580   2.925   2.929  0.3995 -0.2173 -2.6543
 5443TIP3    H216294   1.704   2.839   2.938  0.0670 -0.4668  2.6133
 5444TIP3   OH216295   2.783   0.906   0.233  0.0472 -0.0482 -0.0478
 5444TIP3    H116296   2.709   0.850   0.256 -0.2413  0.4326  0.2021
 5444TIP3    H216297   2.843   0.899   0.307  0.1718 -0.2905 -0.1684
 5445TIP3   OH216298   2.458   2.826   5.369 -0.3413  0.1960 -0.5674
 5445TIP3    H116299   2.374   2.818   5.413 -0.9840 -2.4042 -2.0554
 5445TIP3    H216300   2.486   2.736   5.352  1.7805  1.0054 -1.8899
 5446TIP3   OH216301   0.326   3.441   2.110  0.4012  0.0816 -0.1878
 5446TIP3    H116302   0.253   3.485   2.155 -0.2397 -1.5063  0.4243
 5446TIP3    H216303   0.313   3.463   2.018  0.8153  2.1102  0.1837
 5447TIP3   OH216304   2.010   1.556   4.677 -0.0375  0.5274  0.1111
 5447TIP3    H116305   2.069   1.549   4.753  1.0661 -1.4662 -0.8393
 5447TIP3    H216306   2.048   1.497   4.612 -3.3016 -1.2070 -0.4261
 5448TIP3   OH216307   4.780   0.003   4.921 -0.5164 -0.8614  0.5833
 5448TIP3    H116308   4.827   0.053   4.854 -1.0877 -0.1168  0.7272
 5448TIP3    H216309   4.703   0.057   4.941 -0.7446 -1.4441  1.2875
 5449TIP3   OH216310   3.799   3.997   2.263 -0.2322 -0.3013 -0.0719
 5449TIP3    H116311   3.872   3.999   2.202 -0.0070  1.2256  0.2029
 5449TIP3    H216312   3.729   4.045   2.219 -0.9157 -1.3236 -0.1288
 5450TIP3   OH216313   1.477   5.091   4.388  0.2352 -0.1292  0.2932
 5450TIP3    H116314   1.492   5.128   4.301  2.1352  1.0423  1.0511
 5450TIP3    H216315   1.389   5.120   4.412  0.2406  0.7269 -0.6743
 5451TIP3   OH216316   0.658   5.160   5.474 -0.3524  0.0768 -0.3149
 5451TIP3    H116317   0.745   5.162   5.433 -0.7943 -2.4723 -1.6409
 5451TIP3    H216318   0.599   5.196   5.408 -0.3351  1.9230  0.6329
 5452TIP3   OH216319   4.520   0.369   4.583 -0.2418 -0.0337 -0.1245
 5452TIP3    H116320   4.483   0.457   4.591  0.7257  0.3845 -0.1153
 5452TIP3    H216321   4.464   0.314   4.637 -0.2876  0.7528  0.6423
 5453TIP3   OH216322   5.728   1.885   5.767  0.2892 -0.9135  0.5541
 5453TIP3    H116323   5.733   1.792   5.743 -2.2798 -0.8851 -0.4642
 5453TIP3    H216324   5.819   1.911   5.781  1.1765 -3.3195 -0.1475
 5454TIP3   OH216325   1.880   4.976   0.146 -0.3398 -0.4813  0.1990
 5454TIP3    H116326   1.941   4.913   0.185  0.2264  2.4679  4.9978
 5454TIP3    H216327   1.936   5.047   0.114 -1.0935 -0.5892 -1.4570
 5455TIP3   OH216328   0.301   5.823   2.167 -0.5966  0.8478 -0.3060
 5455TIP3    H116329   0.330   5.752   2.110 -3.1100  0.3589 -1.0791
 5455TIP3    H216330   0.364   5.894   2.149  0.8448 -0.5067 -0.9156
 5456TIP3   OH216331   3.660   3.534   4.331 -0.1714  0.0147  0.1945
 5456TIP3    H116332   3.596   3.465   4.313  1.7884 -1.6322 -0.7900
 5456TIP3    H216333   3.610   3.615   4.321 -1.9691 -1.1708 -1.1615
 5457TIP3   OH216334   5.588   3.061   0.227  0.4542 -0.0929  0.4496
 5457TIP3    H116335   5.674   3.023   0.243  0.4906 -0.4656 -0.5451
 5457TIP3    H216336   5.597   3.105   0.142 -0.1248  0.5164  0.6970
 5458TIP3   OH216337   4.168   0.443   0.641 -0.3065 -0.3282  0.8346
 5458TIP3    H116338   4.192   0.534   0.625  1.8651 -0.9963 -0.1364
 5458TIP3    H216339   4.201   0.424   0.728 -1.6907  0.0705  1.4671
 5459TIP3   OH216340   2.849   6.729   2.425  0.4120  0.2660 -0.2155
 5459TIP3    H116341   2.797   6.753   2.348  2.7991  1.4280 -1.5856
 5459TIP3    H216342   2.876   6.813   2.463 -0.0779 -0.2942  1.4808
 5460TIP3   OH216343   1.500   3.430   4.484 -0.6593  0.0155 -0.2859
 5460TIP3    H116344   1.557   3.487   4.536  1.6600 -1.9428 -0.4986
 5460TIP3    H216345   1.479   3.357   4.542  0.8015 -1.4878 -1.5371
 5461TIP3   OH216346   0.443   1.533   2.146 -0.1037  0.0771  0.3124
 5461TIP3    H116347   0.394   1.458   2.179 -0.2602 -0.0832 -0.2887
 5461TIP3    H216348   0.379   1.583   2.096  0.8005 -1.2720 -2.3793
 5462TIP3   OH216349   5.328   5.927   5.725  0.4480 -0.3869  1.1085
 5462TIP3    H116350   5.263   5.871   5.767  0.0855 -0.5851  0.3063
 5462TIP3    H216351   5.404   5.923   5.783 -0.0975 -0.4916  1.8363
 5463TIP3   OH216352   1.195   2.785   4.935 -0.3680  0.3647  0.1970
 5463TIP3    H116353   1.185   2.702   4.888 -3.2715  1.0039 -0.5403
 5463TIP3    H216354   1.197   2.760   5.028 -1.4251 -0.5310 -0.0028
 5464TIP3   OH216355   5.032   4.099   3.411 -0.1146 -0.3582  0.2368
 5464TIP3    H116356   5.074   4.041   3.348  0.5222  0.3912 -0.0443
 5464TIP3    H216357   5.099   4.112   3.479 -0.2101  0.1247  0.2399
 5465TIP3   OH216358   2.741   1.428   1.740 -0.5466 -0.0536 -0.3440
 5465TIP3    H116359   2.801   1.356   1.719 -0.5872 -0.0071 -0.6272
 5465TIP3    H216360   2.655   1.387   1.746 -0.2867 -0.4166  1.7290
 5466TIP3   OH216361   2.456   2.586   3.923 -0.1692 -0.3847 -0.1509
 5466TIP3    H116362   2.418   2.665   3.961  0.3537  0.1327 -0.6851
 5466TIP3    H216363   2.550   2.600   3.926 -0.0171 -1.4968  0.8182
 5467TIP3   OH216364   4.344   1.582   5.445 -0.0142  0.2045  0.1497
 5467TIP3    H116365   4.345   1.514   5.378 -0.6739  0.7855 -0.4599
 5467TIP3    H216366   4.434   1.617   5.444  0.2145 -0.3680  0.1814
 5468TIP3   OH216367   3.961   0.686   5.599 -0.2357 -0.0861  0.8436
 5468TIP3    H116368   4.000   0.673   5.685 -1.6445  1.0034  1.7060
 5468TIP3    H216369   3.897   0.615   5.591  0.5139 -0.7208  0.2740
 5469TIP3   OH216370   3.109   6.339   1.027  0.3433 -0.1464  0.0920
 5469TIP3    H116371   3.200   6.322   1.051  0.1040 -0.1196  1.0904
 5469TIP3    H216372   3.112   6.421   0.977  0.7997  0.2277  0.7092
 5470TIP3   OH216373   0.502   2.619   1.772 -0.0039 -0.5159 -0.5952
 5470TIP3    H116374   0.470   2.707   1.789 -1.1176 -0.8801 -0.7306
 5470TIP3    H216375   0.462   2.565   1.840 -0.1170 -1.0772 -1.0980
 5471TIP3   OH216376   2.734   5.305   5.175 -0.3938  0.4003  0.0482
 5471TIP3    H116377   2.673   5.287   5.246  0.1834  0.1842  0.4912
 5471TIP3    H216378   2.692   5.266   5.098 -0.7880  0.2065  0.3565
 5472TIP3   OH216379   6.472   5.381   1.534 -0.3810  0.7108  0.1239
 5472TIP3    H116380   6.538   5.369   1.602 -0.6466  0.4390  0.3365
 5472TIP3    H216381   6.456   5.476   1.534 -0.5111  0.6905  0.5661
 5473TIP3   OH216382   0.359   5.851   2.811  0.0904  0.0066 -0.7182
 5473TIP3    H116383   0.315   5.887   2.734  1.6151 -2.1963 -2.7200
 5473TIP3    H216384   0.338   5.758   2.810  1.2885 -0.3218  0.7436
 5474TIP3   OH216385   2.948   2.276   5.193  0.4988  0.3531 -0.1549
 5474TIP3    H116386   2.994   2.357   5.214  0.8128  0.3599 -0.8775
 5474TIP3    H216387   3.004   2.207   5.228 -0.0336  0.4528  0.9596
 5475TIP3   OH216388   1.891   3.864   4.042  0.0770  0.3395  0.2281
 5475TIP3    H116389   1.933   3.794   3.993  2.7238  1.0565  1.2932
 5475TIP3    H216390   1.891   3.939   3.981  0.5705  0.4014  0.3034
 5476TIP3   OH216391   4.982   5.072   4.719  0.1354 -0.1083  0.2414
 5476TIP3    H116392   4.915   5.035   4.776 -0.6607 -0.9847 -1.2114
 5476TIP3    H216393   5.065   5.040   4.755 -0.3681 -0.7851  0.8149
 5477TIP3   OH216394   6.435   4.406   2.406  0.7559 -0.1214  0.5234
 5477TIP3    H116395   6.452   4.312   2.413 -1.4430 -0.6098  0.2892
 5477TIP3    H216396   6.449   4.440   2.494  0.0617 -0.9816  0.9816
 5478TIP3   OH216397   3.472   5.942   4.884 -0.2630 -0.7505  0.2271
 5478TIP3    H116398   3.463   5.873   4.819 -0.2813 -0.8221  0.3055
 5478TIP3    H216399   3.436   5.904   4.964 -0.5586 -0.5439  0.1967
 5479TIP3   OH216400   7.174   4.685   2.087  0.2032  0.5978  0.4380
 5479TIP3    H116401   7.096   4.637   2.114  0.1627  0.5869  0.3042
 5479TIP3    H216402   7.156   4.776   2.111 -0.7019  0.9445 -1.3936
 5480TIP3   OH216403   0.447   5.338   3.648 -0.0886 -0.4553 -0.3420
 5480TIP3    H116404   0.448   5.245   3.671 -2.7014 -0.5651 -0.3004
 5480TIP3    H216405   0.458   5.339   3.552  0.8785 -0.7079 -0.2456
 5481TIP3   OH216406   1.842   0.791   4.722  0.3240 -0.2564 -0.2396
 5481TIP3    H116407   1.828   0.697   4.711 -0.2351 -0.3496  1.1142
 5481TIP3    H216408   1.924   0.797   4.772  0.3671 -0.0131 -0.3370
 5482TIP3   OH216409   0.422   3.626   4.453  0.6071 -0.0536  0.1921
 5482TIP3    H116410   0.496   3.578   4.416 -0.4395  0.8201 -3.4478
 5482TIP3    H216411   0.440   3.717   4.433 -0.4868  0.3898  1.1360
 5483TIP3   OH216412   5.849   4.531   0.238  0.2792 -0.1448 -0.2264
 5483TIP3    H116413   5.841   4.592   0.312 -0.9883  1.0593 -1.3003
 5483TIP3    H216414   5.933   4.554   0.197 -0.6105  1.6317 -1.1887
 5484TIP3   OH216415   5.065   2.726   3.567  0.5805  0.1301 -0.1939
 5484TIP3    H116416   5.118   2.802   3.591  2.8376 -0.8098 -1.7787
 5484TIP3    H216417   5.072   2.721   3.472 -0.1143 -1.6441 -0.1916
 5485TIP3   OH216418   6.111   3.282   4.314 -0.1609  0.0967  0.3735
 5485TIP3    H116419   6.112   3.225   4.237 -0.3813  0.3290  0.1978
 5485TIP3    H216420   6.050   3.352   4.291 -0.1304  0.2342  0.7115
 5486TIP3   OH216421   1.218   5.635   3.357  0.8276 -0.2092  0.6636
 5486TIP3    H116422   1.164   5.606   3.283  0.3078 -1.9268  1.6534
 5486TIP3    H216423   1.308   5.619   3.328  0.6459 -0.4838  0.2388
 5487TIP3   OH216424   2.019   5.208   4.649  0.2794 -0.2866  0.2482
 5487TIP3    H116425   2.012   5.256   4.732  1.4546 -0.7374  0.6378
 5487TIP3    H216426   1.968   5.128   4.664 -2.1667  1.0229 -0.6044
 5488TIP3   OH216427   6.148   4.618   0.691 -0.6624  0.3082  0.0229
 5488TIP3    H116428   6.151   4.672   0.770  0.1829  0.9618 -0.4366
 5488TIP3    H216429   6.213   4.657   0.633  0.6459 -1.7337 -0.0016
 5489TIP3   OH216430   0.876   5.695   3.898  0.3768 -0.7663 -0.7241
 5489TIP3    H116431   0.911   5.607   3.908 -0.1643 -0.9382 -0.3270
 5489TIP3    H216432   0.811   5.688   3.828  0.2750 -0.6975 -0.6367
 5490TIP3   OH216433   2.509   6.421   0.760  0.0281 -0.0540  0.1325
 5490TIP3    H116434   2.589   6.473   0.768  0.0191  0.0460 -0.3640
 5490TIP3    H216435   2.453   6.452   0.830 -0.1089  0.8486 -0.3588
 5491TIP3   OH216436   6.381   0.977   1.352 -0.8924 -0.3069  0.1214
 5491TIP3    H116437   6.345   0.914   1.416 -3.0892 -0.0101 -0.7184
 5491TIP3    H216438   6.321   0.971   1.278  0.5234  0.7410 -1.1376
 5492TIP3   OH216439   1.334   5.907   2.756  0.0336  0.8103  0.4691
 5492TIP3    H116440   1.354   5.985   2.808  0.0051  1.0649  0.1029
 5492TIP3    H216441   1.321   5.837   2.821 -0.2509  1.1789  0.8147
 5493TIP3   OH216442   3.341   3.759   5.625  0.1027  0.0610  0.0637
 5493TIP3    H116443   3.379   3.846   5.637  1.0362 -0.5208  1.7553
 5493TIP3    H216444   3.289   3.745   5.704  2.4023 -2.0427  1.3333
 5494TIP3   OH216445  -0.008   0.116   4.953 -0.2809 -0.0353  0.0881
 5494TIP3    H116446   0.018   0.162   5.032 -1.9524  0.7059  0.2503
 5494TIP3    H216447   0.010   0.177   4.882 -3.1031  1.2981  0.3548
 5495TIP3   OH216448   2.053   2.998   5.099  0.0994 -0.5342 -0.2738
 5495TIP3    H116449   1.992   3.006   5.173  1.5754 -0.0051  0.9564
 5495TIP3    H216450   1.998   2.977   5.024 -1.8369  1.7880  0.3702
 5496TIP3   OH216451   1.037   0.516   3.326  0.0008  0.3130  0.5401
 5496TIP3    H116452   1.025   0.603   3.287 -1.0999 -0.2714 -0.4746
 5496TIP3    H216453   0.976   0.513   3.399  1.9226  1.3337  2.3003
 5497TIP3   OH216454   5.511   5.133   1.986  0.1564  0.3856  0.3641
 5497TIP3    H116455   5.505   5.058   2.044  2.1709 -0.8718 -0.9339
 5497TIP3    H216456   5.603   5.136   1.959 -0.7728  0.3738 -3.3734
 5498TIP3   OH216457   4.324   0.685   2.446 -0.1901 -0.3005  0.0862
 5498TIP3    H116458   4.260   0.704   2.377  0.1235 -1.9758 -0.7224
 5498TIP3    H216459   4.332   0.589   2.445  1.6413 -0.1908  0.7887
 5499TIP3   OH216460   3.107   2.832   3.361  0.2892  0.0098 -0.1951
 5499TIP3    H116461   3.103   2.780   3.441  1.7545  0.6032  0.2999
 5499TIP3    H216462   3.117   2.768   3.291  0.5606 -0.4423  0.2522
 5500TIP3   OH216463   5.726   4.565   5.733  0.2437 -0.0099  0.0793
 5500TIP3    H116464   5.725   4.647   5.783 -0.6086  0.6698 -1.0199
 5500TIP3    H216465   5.709   4.592   5.643  0.0605 -1.3966 -0.3143
 5501TIP3   OH216466   2.256   3.765   1.942  0.2022  0.2777 -0.2899
 5501TIP3    H116467   2.279   3.673   1.926 -0.8409  0.0926 -0.7953
 5501TIP3    H216468   2.260   3.774   2.037  1.0063 -0.0990 -0.2820
 5502TIP3   OH216469   4.723   6.364   5.395  0.2664 -0.0497  0.4342
 5502TIP3    H116470   4.758   6.358   5.306 -1.0152 -1.3455 -0.0105
 5502TIP3    H216471   4.758   6.287   5.439 -0.6568 -0.4509  0.4767
 5503TIP3   OH216472   4.018   4.748   0.537  0.0023  0.1383  0.2954
 5503TIP3    H116473   4.111   4.731   0.554 -0.0696  0.5249  1.1487
 5503TIP3    H216474   3.977   4.746   0.623 -0.5107  1.5668  0.1160
 5504TIP3   OH216475   4.670   0.362   3.696  0.0858  0.4195  0.2867
 5504TIP3    H116476   4.585   0.370   3.652 -0.6222  1.1823  1.7027
 5504TIP3    H216477   4.717   0.442   3.672 -0.0142  0.4912  0.3269
 5505TIP3   OH216478   2.175   0.826   1.168 -0.6304  0.3425 -0.3105
 5505TIP3    H116479   2.264   0.839   1.133  0.0029 -0.2875  0.9878
 5505TIP3    H216480   2.170   0.887   1.242 -0.3812 -1.2949  1.1170
 5506TIP3   OH216481   5.772   4.435   2.541 -0.4305 -0.6555 -0.2598
 5506TIP3    H116482   5.682   4.433   2.574 -0.0449 -1.9673  0.7847
 5506TIP3    H216483   5.793   4.528   2.535 -1.6682 -0.3456  0.0174
 5507TIP3   OH216484   7.085   2.180   3.340 -0.2564  0.4702 -0.2341
 5507TIP3    H116485   7.139   2.258   3.351  0.8035 -0.1215 -1.1551
 5507TIP3    H216486   7.096   2.131   3.422  0.6224  0.3448 -0.4229
 5508TIP3   OH216487   0.459   2.129   0.078  0.4417  0.0897  0.2723
 5508TIP3    H116488   0.404   2.193   0.123  1.2776  1.1752 -0.2090
 5508TIP3    H216489   0.439   2.140  -0.015  0.0120 -0.9182  0.2301
 5509TIP3   OH216490   5.520   2.605   2.016  0.2558 -0.1866  0.1043
 5509TIP3    H116491   5.607   2.565   2.022 -0.3768 -1.5516  0.4887
 5509TIP3    H216492   5.472   2.547   1.957 -0.2000  0.9400 -0.6581
 5510TIP3   OH216493   3.921   4.645   2.343  0.2508 -0.0480 -0.0282
 5510TIP3    H116494   3.910   4.550   2.350  1.5940 -0.2461 -0.3160
 5510TIP3    H216495   3.949   4.659   2.252 -0.3856  0.6731 -0.1195
 5511TIP3   OH216496   4.335   0.378   2.436 -0.3156 -0.5402 -0.0368
 5511TIP3    H116497   4.312   0.357   2.526  0.2483  0.1174  0.2698
 5511TIP3    H216498   4.280   0.320   2.383 -1.1371 -0.4534  0.7053
 5512TIP3   OH216499   5.235   4.268   0.908  0.1627 -0.5505 -0.5452
 5512TIP3    H116500   5.209   4.217   0.832 -0.8944  1.6846 -1.7813
 5512TIP3    H216501   5.152   4.297   0.947  0.7164 -0.3080  0.4773
 5513TIP3   OH216502   2.363   2.949   0.735  0.0471 -0.0721  0.0265
 5513TIP3    H116503   2.348   2.997   0.654  0.4961  1.3379  0.7536
 5513TIP3    H216504   2.276   2.914   0.758 -0.7643  2.0504  0.4788
 5514TIP3   OH216505   2.987   3.334   4.156 -0.1033  0.1908  0.2466
 5514TIP3    H116506   3.019   3.261   4.103  2.9110  1.4925  0.1150
 5514TIP3    H216507   2.930   3.292   4.221  0.3949 -2.0928 -0.6669
 5515TIP3   OH216508   2.078   1.401   3.885 -0.4254  0.4297  0.0871
 5515TIP3    H116509   2.056   1.492   3.864  1.1273  1.2872  1.8848
 5515TIP3    H216510   2.163   1.387   3.843 -0.4935 -0.0655  0.1102
 5516TIP3   OH216511   3.871   1.575   4.474 -0.7100  0.0131  0.2190
 5516TIP3    H116512   3.911   1.524   4.544 -0.9754  0.4992  0.7462
 5516TIP3    H216513   3.891   1.666   4.498  1.9259  0.1379 -2.0173
 5517TIP3   OH216514   0.572   4.939   0.757 -0.9021 -0.8156 -0.4974
 5517TIP3    H116515   0.661   4.926   0.723 -0.2420  2.7853 -0.5441
 5517TIP3    H216516   0.520   4.958   0.679 -0.9408  0.3484 -0.2093
 5518TIP3   OH216517   1.680   1.385   0.781  0.4002  0.4036  0.1625
 5518TIP3    H116518   1.749   1.382   0.847  1.0204  2.4769 -0.3131
 5518TIP3    H216519   1.687   1.302   0.734  3.1783  0.8955 -0.4389
 5519TIP3   OH216520   1.549   5.047   1.974  0.1732  0.0280 -0.2904
 5519TIP3    H116521   1.505   4.962   1.980 -0.8039  0.5363 -0.1127
 5519TIP3    H216522   1.602   5.052   2.054 -0.2029 -0.1758 -0.0254
 5520TIP3   OH216523   4.671   0.383   0.732  0.1995  0.2404  0.2059
 5520TIP3    H116524   4.714   0.406   0.815 -0.2242  2.1011 -0.0650
 5520TIP3    H216525   4.659   0.466   0.687 -1.1360 -0.5566 -0.9825
 5521TIP3   OH216526   3.969   0.409   0.135 -0.5075 -0.2989  0.0062
 5521TIP3    H116527   4.033   0.396   0.205  0.1295 -0.2451 -0.5484
 5521TIP3    H216528   3.886   0.423   0.180  0.1200  1.1045  0.8004
 5522TIP3   OH216529   0.283   3.113   0.768 -0.4106  0.5472 -0.8172
 5522TIP3    H116530   0.298   3.191   0.714 -1.5398  1.9665  0.8209
 5522TIP3    H216531   0.242   3.147   0.848  1.3485 -1.4211  1.0596
 5523TIP3   OH216532   1.712   3.787   5.518  0.2637  0.1824 -0.3868
 5523TIP3    H116533   1.649   3.716   5.518  1.0405 -0.6170  2.2654
 5523TIP3    H216534   1.688   3.841   5.443 -2.9055 -0.6154 -0.0554
 5524TIP3   OH216535   6.787   2.229   0.203 -0.5430  0.3583 -0.0485
 5524TIP3    H116536   6.841   2.293   0.249 -0.1013  0.8260 -1.1834
 5524TIP3    H216537   6.816   2.233   0.112 -1.5467 -0.3756 -0.4290
 5525TIP3   OH216538   6.858   0.363   0.930 -0.7692 -0.4273  0.1902
 5525TIP3    H116539   6.812   0.409   0.859 -2.8012  2.0894  2.9124
 5525TIP3    H216540   6.907   0.432   0.975  0.5849 -1.9815  1.1668
 5526TIP3   OH216541   6.449   5.657   1.530  0.1413 -0.0719  0.3066
 5526TIP3    H116542   6.526   5.647   1.587 -0.4286  0.2681  1.1654
 5526TIP3    H216543   6.384   5.701   1.586 -0.8581 -0.8218 -0.2382
 5527TIP3   OH216544   4.229   2.660   2.015 -0.1810 -0.2379 -0.6209
 5527TIP3    H116545   4.173   2.584   2.000 -1.3712  0.7314 -1.1928
 5527TIP3    H216546   4.275   2.673   1.932  0.9925 -1.0620 -0.1395
 5528TIP3   OH216547   5.179   4.761   1.521  0.4897  0.0379 -0.0943
 5528TIP3    H116548   5.180   4.708   1.601 -0.6655  0.1620  0.0240
 5528TIP3    H216549   5.166   4.851   1.551 -0.6984  0.0011 -0.4302
 5529TIP3   OH216550   5.360   4.694   5.248 -0.0009 -0.1304 -0.1808
 5529TIP3    H116551   5.276   4.739   5.236  0.0089 -0.1234 -0.2257
 5529TIP3    H216552   5.411   4.718   5.171  0.1867  0.1862  0.0365
 5530TIP3   OH216553   1.365   5.238   3.133 -0.0401 -0.1871 -0.1439
 5530TIP3    H116554   1.418   5.180   3.187 -0.2416  0.3968  0.7041
 5530TIP3    H216555   1.278   5.236   3.175 -0.3518 -0.1687 -0.7826
 5531TIP3   OH216556   2.689   2.152   2.668  0.2291 -0.1097 -0.1799
 5531TIP3    H116557   2.731   2.080   2.622 -0.9364 -0.5203 -0.6589
 5531TIP3    H216558   2.716   2.142   2.759 -1.9405 -2.8108  0.3028
 5532TIP3   OH216559   5.013   1.519   4.622 -0.0662  0.3434  0.1076
 5532TIP3    H116560   5.012   1.474   4.707 -3.0473  1.7737  0.9593
 5532TIP3    H216561   5.102   1.552   4.613  0.6161 -0.7596  2.1571
 5533TIP3   OH216562   4.715   1.447   3.449 -0.1226 -0.4895  0.0322
 5533TIP3    H116563   4.671   1.362   3.445  0.4465 -0.8678  1.5139
 5533TIP3    H216564   4.705   1.483   3.360 -2.3719 -1.0745 -0.0100
 5534TIP3   OH216565   5.641   4.617   4.249 -0.1622 -0.0072  0.6536
 5534TIP3    H116566   5.645   4.713   4.243  0.2836 -0.0987 -1.3560
 5534TIP3    H216567   5.693   4.587   4.174 -0.0807 -1.8310  1.4088
 5535TIP3   OH216568   6.268   0.196   1.334 -0.2432 -0.4334  0.2177
 5535TIP3    H116569   6.261   0.138   1.259  0.1015 -0.3249  0.1001
 5535TIP3    H216570   6.180   0.199   1.371 -0.1724 -1.4139  0.5107
 5536TIP3   OH216571   0.191   3.207   0.999  0.1919 -0.1253 -0.7155
 5536TIP3    H116572   0.129   3.280   1.006  0.7477  0.6873 -3.2885
 5536TIP3    H216573   0.262   3.229   1.058 -0.6935  0.2897  0.2122
 5537TIP3   OH216574   2.441   0.425   0.171  0.1349  0.2119  0.0502
 5537TIP3    H116575   2.353   0.393   0.153  0.2911 -0.1581 -0.0667
 5537TIP3    H216576   2.462   0.390   0.258 -0.6370  2.0341  1.0061
 5538TIP3   OH216577   2.845   5.657   3.206 -0.0630  0.2585  0.0502
 5538TIP3    H116578   2.774   5.718   3.185  0.0286 -0.2811 -2.0782
 5538TIP3    H216579   2.819   5.618   3.290 -1.0559  1.8121  0.5118
 5539TIP3   OH216580   1.630   0.503   1.275  0.1587 -0.4250  0.8194
 5539TIP3    H116581   1.606   0.442   1.205 -0.6239 -1.1749  1.7291
 5539TIP3    H216582   1.657   0.447   1.347  5.0867  0.2426 -0.1186
 5540TIP3   OH216583   5.328   3.766   1.939  0.1288 -0.1322 -0.1261
 5540TIP3    H116584   5.268   3.794   1.870  0.1458  0.7220  0.1996
 5540TIP3    H216585   5.380   3.697   1.898 -1.9843 -1.9177  0.0049
 5541TIP3   OH216586   7.097   3.937   1.195  0.5001  0.2680  0.0375
 5541TIP3    H116587   7.090   4.002   1.125 -1.7591 -0.5140 -0.5518
 5541TIP3    H216588   7.143   3.863   1.155 -0.6667 -0.1217 -0.6367
 5542TIP3   OH216589   2.109   2.027   4.845 -0.2224  0.1514  0.1607
 5542TIP3    H116590   2.070   1.961   4.903  1.2790  0.8059  2.0387
 5542TIP3    H216591   2.034   2.074   4.809 -1.2377 -0.6653  1.1162
 5543TIP3   OH216592   3.450   5.668   1.175  0.4236 -0.3305  0.3369
 5543TIP3    H116593   3.424   5.707   1.259 -1.6140  1.1555 -0.8954
 5543TIP3    H216594   3.387   5.598   1.161  1.1315 -0.9735  0.2882
 5544TIP3   OH216595   2.854   5.998   0.116  0.0864  0.4886 -0.5686
 5544TIP3    H116596   2.905   6.057   0.060 -0.8727  1.2035 -0.7208
 5544TIP3    H216597   2.804   5.944   0.054 -1.9608  2.1456 -0.4775
 5545TIP3   OH216598   0.877   2.025   4.459 -0.3084 -0.0097 -0.2894
 5545TIP3    H116599   0.956   1.982   4.492 -0.7625 -1.2043 -0.6929
 5545TIP3    H216600   0.820   2.031   4.535 -0.0479  0.3534 -0.1186
 5546TIP3   OH216601   0.987   3.815   3.111 -0.0564  0.2162 -0.5142
 5546TIP3    H116602   0.944   3.738   3.149  0.4824 -0.3460 -1.0185
 5546TIP3    H216603   0.960   3.887   3.167  0.3777 -0.5297  0.6990
 5547TIP3   OH216604   0.232   0.090   0.074  0.1666  0.8144  0.6185
 5547TIP3    H116605   0.267   0.155   0.013 -1.6031 -0.1971 -1.6448
 5547TIP3    H216606   0.205   0.017   0.018 -1.2735 -0.3310  2.6694
 5548TIP3   OH216607   0.512   4.987   2.450 -0.3313  0.0616 -0.3971
 5548TIP3    H116608   0.570   5.027   2.515  0.3530 -0.2472 -0.8113
 5548TIP3    H216609   0.430   4.973   2.498 -0.4458  1.5030 -0.1039
 5549TIP3   OH216610   0.282   2.129   1.478 -0.0216 -0.1905  0.3464
 5549TIP3    H116611   0.235   2.079   1.544  0.5010 -3.8891 -1.8248
 5549TIP3    H216612   0.355   2.170   1.525  0.4816 -2.8519  2.0827
 5550TIP3   OH216613   5.590   3.471   0.697 -0.8210 -0.2216  0.3836
 5550TIP3    H116614   5.516   3.453   0.755  0.1015 -1.1115  1.3296
 5550TIP3    H216615   5.550   3.492   0.612 -2.1342 -1.3034  0.7063
 5551TIP3   OH216616   2.911   0.532   0.482 -0.3357 -0.1315  0.4365
 5551TIP3    H116617   2.862   0.612   0.500  0.5745  1.3484 -2.7909
 5551TIP3    H216618   2.883   0.506   0.394  1.7786 -1.4333  0.0690
 5552TIP3   OH216619   6.764   4.527   4.258  0.0280 -0.2249  0.2932
 5552TIP3    H116620   6.840   4.514   4.201 -0.2549 -1.2643  0.1304
 5552TIP3    H216621   6.796   4.584   4.328  0.7420 -0.0210 -0.1911
 5553TIP3   OH216622   0.232   0.445   0.370 -0.3762 -0.4067  0.4385
 5553TIP3    H116623   0.309   0.404   0.410  0.1961  0.1265 -0.1050
 5553TIP3    H216624   0.266   0.522   0.324 -0.5666 -2.2428 -3.1727
 5554TIP3   OH216625   1.995   3.788   5.593  0.7018  0.3462 -0.1398
 5554TIP3    H116626   1.910   3.775   5.550  1.2791 -1.1763 -0.8957
 5554TIP3    H216627   1.991   3.732   5.670 -0.1156  2.6447  1.6029
 5555TIP3   OH216628   4.695   1.052   5.464  0.0749 -0.2690 -0.5293
 5555TIP3    H116629   4.761   1.078   5.527  0.1815  2.0117 -1.4628
 5555TIP3    H216630   4.741   0.994   5.403  0.0845 -2.0933  1.1345
 5556TIP3   OH216631   1.882   0.779   0.648 -0.0181 -0.2131 -0.0121
 5556TIP3    H116632   1.953   0.740   0.698  0.3801  0.2988 -0.1681
 5556TIP3    H216633   1.913   0.867   0.626 -1.2432  0.5316  1.0696
 5557TIP3   OH216634   4.126   2.717   3.014  0.9679 -0.6479  0.0742
 5557TIP3    H116635   4.219   2.701   2.996  0.6594 -0.8318 -1.5120
 5557TIP3    H216636   4.115   2.812   3.000  0.6085 -0.8819 -1.4479
 5558TIP3   OH216637   6.897   2.640   4.055  0.5177  0.3418  0.2827
 5558TIP3    H116638   6.900   2.545   4.065  1.2003  0.4035  0.7715
 5558TIP3    H216639   6.853   2.655   3.972  1.9134 -0.4447 -0.6349
 5559TIP3   OH216640   0.210   4.231   3.655 -0.0864  0.4933 -0.4527
 5559TIP3    H116641   0.189   4.160   3.715 -2.2455  1.0817 -0.4209
 5559TIP3    H216642   0.263   4.291   3.706 -2.1092  1.1309  1.0606
 5560TIP3   OH216643   5.721   0.694   0.026 -0.1615  0.2286 -0.9090
 5560TIP3    H116644   5.736   0.623  -0.036 -0.0972  0.0150 -0.6522
 5560TIP3    H216645   5.627   0.691   0.044  0.1109 -0.9612  0.4792
 5561TIP3   OH216646   3.040   5.388   2.190 -0.5947  0.2889 -0.8935
 5561TIP3    H116647   3.099   5.441   2.244  0.1400  0.5167 -1.8980
 5561TIP3    H216648   2.961   5.441   2.182 -0.6072  0.3713 -0.2787
 5562TIP3   OH216649   5.897   1.865   1.564 -0.1726 -0.1850  0.5450
 5562TIP3    H116650   5.921   1.789   1.511  0.0869 -0.9454  1.7231
 5562TIP3    H216651   5.872   1.932   1.500  1.3574 -0.6413 -0.5776
 5563TIP3   OH216652   7.191   0.377   4.319 -0.3060  0.0791  0.4425
 5563TIP3    H116653   7.164   0.456   4.272 -0.7804  0.3382  1.1489
 5563TIP3    H216654   7.286   0.384   4.324 -0.3271  0.5013  0.3275
 5564TIP3   OH216655   5.173   4.285   0.512 -0.2123  0.5503  0.2977
 5564TIP3    H116656   5.082   4.273   0.484 -0.3868  0.2644  0.9832
 5564TIP3    H216657   5.189   4.214   0.574 -0.4397  2.3001  2.4570
 5565TIP3   OH216658   4.613   6.645   1.046 -0.2578 -0.1785 -0.6009
 5565TIP3    H116659   4.624   6.550   1.042 -0.0726 -0.1998  0.2692
 5565TIP3    H216660   4.702   6.680   1.050 -0.3265  0.0277 -0.8424
 5566TIP3   OH216661   4.104   0.983   0.539 -0.1073  0.6283  0.2509
 5566TIP3    H116662   4.085   1.076   0.530 -1.3703  0.1938 -2.5803
 5566TIP3    H216663   4.019   0.940   0.528  0.9140 -0.9496 -2.7147
 5567TIP3   OH216664   4.440   1.610   1.607 -0.1212  0.0426 -0.2050
 5567TIP3    H116665   4.531   1.639   1.603 -0.1030 -0.0843 -0.8874
 5567TIP3    H216666   4.445   1.523   1.648  0.2736 -0.7099 -1.7528
 5568TIP3   OH216667   6.155   1.965   4.875  0.1353 -0.0482  0.1700
 5568TIP3    H116668   6.234   1.934   4.829  1.0085  0.6416  1.1537
 5568TIP3    H216669   6.184   1.976   4.965 -1.1357  0.1358  0.5631
 5569TIP3   OH216670   4.424   3.765   2.327  0.6453  0.3290 -0.0250
 5569TIP3    H116671   4.518   3.748   2.327  0.5578 -0.6677 -2.6893
 5569TIP3    H216672   4.385   3.682   2.300 -1.2140  0.2114  2.5964
 5570TIP3   OH216673   5.645   3.347   1.335  0.2491  0.6127 -0.2935
 5570TIP3    H116674   5.708   3.410   1.302  0.3700  0.7080  0.1226
 5570TIP3    H216675   5.670   3.264   1.294  2.3460  0.0307  1.9299
 5571TIP3   OH216676   0.778   4.603   4.937 -0.1747  1.0752  0.1234
 5571TIP3    H116677   0.861   4.646   4.956 -0.3993  1.3462  0.5082
 5571TIP3    H216678   0.750   4.641   4.854  0.1658  0.8602 -0.0924
 5572TIP3   OH216679   1.168   6.779   4.546 -0.0699  0.1233  0.3417
 5572TIP3    H116680   1.211   6.702   4.507 -0.2799  0.6392 -0.9488
 5572TIP3    H216681   1.215   6.793   4.628 -0.0566 -1.4086  0.6282
 5573TIP3   OH216682   6.756   2.564   2.439 -0.0589  0.0903  0.0162
 5573TIP3    H116683   6.850   2.565   2.458 -0.2920 -0.7130  1.3051
 5573TIP3    H216684   6.731   2.472   2.442 -0.6758  0.1781 -1.5316
 5574TIP3   OH216685   6.742   6.064   4.143  0.3599 -0.0371 -0.4781
 5574TIP3    H116686   6.729   5.973   4.168  0.5482  0.2512  0.7670
 5574TIP3    H216687   6.655   6.096   4.119  0.3837 -0.6831 -1.4509
 5575TIP3   OH216688   4.992   4.410   4.331  0.1007  0.1129 -0.4408
 5575TIP3    H116689   4.958   4.499   4.331  0.1400  0.1453  1.0050
 5575TIP3    H216690   5.068   4.413   4.388  0.1082 -0.8494 -0.3796
 5576TIP3   OH216691   7.111   1.007   4.835  0.0253 -0.3650  0.8979
 5576TIP3    H116692   7.126   1.078   4.773 -2.0261  0.1884  0.9622
 5576TIP3    H216693   7.124   0.927   4.783 -1.6382  0.0881 -0.2883
 5577TIP3   OH216694   6.715   6.388   5.171  0.0336  0.0850 -0.7760
 5577TIP3    H116695   6.653   6.325   5.135 -0.6594  0.4735 -0.2779
 5577TIP3    H216696   6.682   6.407   5.259  1.9354 -1.1932  0.2905
 5578TIP3   OH216697   1.040   2.276   3.504 -0.2743 -0.3195 -0.4151
 5578TIP3    H116698   1.018   2.335   3.575 -1.4316 -0.7010 -0.4428
 5578TIP3    H216699   0.974   2.207   3.508 -0.5733 -0.1743 -2.0524
 5579TIP3   OH216700   0.069   3.061   1.393 -0.2498  0.4201  0.6257
 5579TIP3    H116701   0.045   3.050   1.301  0.2692 -1.2074  0.6643
 5579TIP3    H216702   0.094   3.153   1.400  1.1527  0.2292 -1.2305
 5580TIP3   OH216703   3.376   0.251   3.465 -0.2457 -0.3959  0.0885
 5580TIP3    H116704   3.361   0.342   3.438 -1.1613  0.0777  2.0186
 5580TIP3    H216705   3.447   0.257   3.529  2.0042 -1.5070 -2.1398
 5581TIP3   OH216706   6.830   3.954   5.177 -0.2284  0.3536 -0.3941
 5581TIP3    H116707   6.875   4.029   5.216 -1.3985  0.3407  1.0717
 5581TIP3    H216708   6.746   3.988   5.147 -1.9833 -0.7641  2.7700
 5582TIP3   OH216709   7.066   4.398   0.770  0.0839 -0.9892  0.0505
 5582TIP3    H116710   7.052   4.475   0.825  2.1133 -1.7932  1.8263
 5582TIP3    H216711   7.088   4.434   0.684 -1.1601  0.3491  0.2527
 5583TIP3   OH216712   4.699   1.186   2.114  0.1761  0.1052  0.4876
 5583TIP3    H116713   4.644   1.228   2.180  2.7391 -0.6216  3.3396
 5583TIP3    H216714   4.667   1.095   2.111 -0.8333  0.4628 -0.4056
 5584TIP3   OH216715   6.492   3.007   1.532  0.0014  0.2043  0.2353
 5584TIP3    H116716   6.465   3.074   1.595  0.6965 -0.9648  1.8335
 5584TIP3    H216717   6.460   3.039   1.448 -2.2699  1.0969  1.3732
 5585TIP3   OH216718   5.203   1.276   3.485  0.3907  0.0787  0.1476
 5585TIP3    H116719   5.282   1.274   3.539  1.4687 -0.0607 -1.3555
 5585TIP3    H216720   5.198   1.188   3.447 -1.1416 -0.2655  1.0690
 5586TIP3   OH216721   1.622   2.694   1.671 -0.6674 -0.2438 -0.2959
 5586TIP3    H116722   1.553   2.649   1.621 -1.1520 -0.1220  0.2489
 5586TIP3    H216723   1.580   2.774   1.702  0.1634  0.5668 -1.1912
 5587TIP3   OH216724   0.769   6.502   2.551 -0.1070 -0.1693  0.4137
 5587TIP3    H116725   0.744   6.490   2.459  1.7138 -3.9851  0.2158
 5587TIP3    H216726   0.849   6.554   2.547 -0.4949  0.3981 -0.0821
 5588TIP3   OH216727   4.959   0.681   2.140  0.6312  0.0090 -0.2988
 5588TIP3    H116728   4.971   0.685   2.235  0.1297 -0.3306 -0.2165
 5588TIP3    H216729   4.874   0.722   2.125  1.9311  2.7100 -0.9123
 5589TIP3   OH216730   3.078   1.916   3.150 -0.1098 -0.7298 -0.1894
 5589TIP3    H116731   3.138   1.900   3.077  2.7985  0.3003  1.7970
 5589TIP3    H216732   3.048   2.006   3.137 -0.7093 -1.0040 -0.7944
 5590TIP3   OH216733   4.566   5.410   2.578 -0.5822 -0.1188  0.0431
 5590TIP3    H116734   4.659   5.387   2.582 -0.6781 -1.2043 -2.2425
 5590TIP3    H216735   4.563   5.493   2.531 -0.7950 -0.5359 -0.6990
 5591TIP3   OH216736   2.830   6.763   3.429 -0.6845  0.5804 -0.3144
 5591TIP3    H116737   2.836   6.782   3.523 -1.1168  1.2478 -0.4120
 5591TIP3    H216738   2.743   6.723   3.419  0.0013 -1.0064 -0.1966
 5592TIP3   OH216739   0.358   1.328   3.992 -0.0833 -0.3177 -0.0557
 5592TIP3    H116740   0.319   1.401   4.041  0.2164 -0.4934  0.4477
 5592TIP3    H216741   0.404   1.370   3.919  2.2271  0.2374  1.6128
 5593TIP3   OH216742   2.146   6.547   5.634 -0.3215  0.5683  0.1445
 5593TIP3    H116743   2.120   6.459   5.607 -0.7520  0.7448 -0.0195
 5593TIP3    H216744   2.191   6.584   5.557 -0.7923  0.7584 -0.0433
 5594TIP3   OH216745   3.399   3.181   2.052 -0.3026 -0.3026  0.1981
 5594TIP3    H116746   3.316   3.194   2.005 -0.4424  0.0127  0.5296
 5594TIP3    H216747   3.383   3.217   2.139 -0.5852 -2.3392  1.0503
 5595TIP3   OH216748   6.065   6.254   2.316  0.2816  0.1546  0.0470
 5595TIP3    H116749   6.057   6.180   2.377  1.7451 -0.2709 -0.2538
 5595TIP3    H216750   6.152   6.245   2.279 -1.0633 -0.4932 -3.3036
 5596TIP3   OH216751   4.962   3.537   1.825 -0.3509  0.2576 -0.2604
 5596TIP3    H116752   4.997   3.587   1.899  0.6875 -1.5975  0.5730
 5596TIP3    H216753   5.000   3.450   1.835  1.3712  0.4077 -4.0846
 5597TIP3   OH216754   0.584   4.583   0.191 -0.2103 -0.0955 -0.3485
 5597TIP3    H116755   0.613   4.597   0.101  2.9112 -0.5060  0.4620
 5597TIP3    H216756   0.612   4.661   0.238 -4.5037  1.5572 -0.1203
 5598TIP3   OH216757   4.890   3.135   2.315  0.3461 -0.0342  0.1382
 5598TIP3    H116758   4.889   3.090   2.231  0.0131 -2.3402  1.3193
 5598TIP3    H216759   4.979   3.122   2.349 -0.3020 -1.5939  1.3609
 5599TIP3   OH216760   4.945   4.146   1.882  0.5145 -0.0437  0.4871
 5599TIP3    H116761   4.885   4.216   1.907  1.2247  0.8108 -0.1181
 5599TIP3    H216762   4.991   4.180   1.806  1.3043 -0.9373  0.5443
 5600TIP3   OH216763   1.678   1.761   4.120  0.7356  0.4172 -0.2395
 5600TIP3    H116764   1.607   1.792   4.176  0.7469 -0.3106  0.2008
 5600TIP3    H216765   1.733   1.708   4.178  1.5532  0.8370 -0.6110
 5601TIP3   OH216766   0.961   2.127   1.623 -0.7278  0.3654 -0.0704
 5601TIP3    H116767   0.998   2.058   1.569 -0.0642  1.0678 -0.5209
 5601TIP3    H216768   0.886   2.160   1.573 -0.5216  0.5607 -0.2474
 5602TIP3   OH216769   0.501   2.010   5.480  0.1069 -0.0655  0.1739
 5602TIP3    H116770   0.548   2.083   5.439  0.3627  0.2424  1.0063
 5602TIP3    H216771   0.570   1.956   5.518 -0.1472 -0.2179  0.4201
 5603TIP3   OH216772   2.999   3.532   5.643  0.0700 -0.5849 -0.6390
 5603TIP3    H116773   3.028   3.595   5.577  2.4412 -0.8022  0.1188
 5603TIP3    H216774   2.955   3.464   5.593 -1.7295  1.1269 -1.5662
 5604TIP3   OH216775   5.395   5.358   3.091  0.1546  0.3625 -0.0829
 5604TIP3    H116776   5.488   5.349   3.070  0.0600 -1.0526 -0.0094
 5604TIP3    H216777   5.369   5.441   3.051  1.5113  0.9116  0.1510
 5605TIP3   OH216778   6.092   1.270   0.734  0.7391 -0.3682 -0.4823
 5605TIP3    H116779   6.048   1.287   0.651  0.4595 -0.5986 -0.3833
 5605TIP3    H216780   6.176   1.232   0.708  2.3590  3.0935 -0.7941
 5606TIP3   OH216781   5.885   1.677   1.387  0.5895  0.0344 -0.3287
 5606TIP3    H116782   5.935   1.657   1.308 -0.1006  0.0013 -0.7685
 5606TIP3    H216783   5.801   1.633   1.374 -0.5018  2.1145 -0.7723
 5607TIP3   OH216784   5.030   6.573   5.850  0.5664  0.1392 -0.0742
 5607TIP3    H116785   5.003   6.555   5.760  0.8422 -2.8713  0.3304
 5607TIP3    H216786   5.123   6.592   5.844  1.4098 -3.3244 -0.2691
 5608TIP3   OH216787   3.098   6.246   4.239 -0.5913 -0.0600 -0.3969
 5608TIP3    H116788   3.035   6.217   4.305  0.7918  0.6739  1.3213
 5608TIP3    H216789   3.046   6.257   4.160 -1.8581 -3.4794 -0.1879
 5609TIP3   OH216790   1.783   2.896   0.731 -0.5172  0.4242 -0.3208
 5609TIP3    H116791   1.848   2.914   0.663  0.3631 -0.0739  0.3694
 5609TIP3    H216792   1.777   2.801   0.734 -1.0440  0.4586 -0.1454
 5610TIP3   OH216793   2.099   2.569   2.383 -0.2602  0.1418  0.1921
 5610TIP3    H116794   2.170   2.505   2.378 -0.3372  0.0859 -0.3054
 5610TIP3    H216795   2.077   2.586   2.291 -0.1234  1.0122  0.3199
 5611TIP3   OH216796   4.240   0.716   1.038  0.2669 -0.5383 -0.5972
 5611TIP3    H116797   4.293   0.644   1.072 -0.2381  0.4327  2.5819
 5611TIP3    H216798   4.163   0.674   1.001  0.8363 -1.7156 -0.4932
 5612TIP3   OH216799   1.560   0.068   0.205  0.4040 -0.3167  0.2079
 5612TIP3    H116800   1.535  -0.024   0.198 -0.7658 -0.0289  0.2406
 5612TIP3    H216801   1.476   0.114   0.217  0.9836  0.7293  0.3554
 5613TIP3   OH216802   0.832   3.872   4.316  0.2308 -0.2028 -0.1854
 5613TIP3    H116803   0.767   3.871   4.386 -0.9544  2.0573 -1.1529
 5613TIP3    H216804   0.904   3.818   4.350 -0.8589 -0.3112  2.1755
 5614TIP3   OH216805   6.037   0.266   3.875 -0.2061 -0.5419 -0.4340
 5614TIP3    H116806   6.086   0.342   3.905 -0.7624  0.2092 -1.4030
 5614TIP3    H216807   6.039   0.206   3.950 -0.4438  0.7476  0.6434
 5615TIP3   OH216808   6.366   6.491   1.279 -0.3139 -0.5213 -0.7956
 5615TIP3    H116809   6.323   6.407   1.299 -0.6250 -0.3412 -0.6914
 5615TIP3    H216810   6.388   6.528   1.364 -0.0131 -0.5785 -0.8467
 5616TIP3   OH216811   5.676   5.988   4.378 -0.0722 -0.5086  0.3921
 5616TIP3    H116812   5.641   6.076   4.366  2.5001  0.4782 -0.7393
 5616TIP3    H216813   5.716   5.966   4.293  0.5245 -2.1952  1.0531
 5617TIP3   OH216814   3.620   2.685   0.968 -0.3471  0.3849 -0.3619
 5617TIP3    H116815   3.683   2.643   0.909  0.3101  1.7542 -0.6748
 5617TIP3    H216816   3.586   2.614   1.021 -0.4807 -0.7976 -1.9630
 5618TIP3   OH216817   0.411   6.153   0.670 -0.8248  0.0329  0.0954
 5618TIP3    H116818   0.478   6.108   0.619 -1.4819 -1.0611  0.1557
 5618TIP3    H216819   0.443   6.243   0.678  1.1751 -0.7159  1.1180
 5619TIP3   OH216820   2.183   3.636   1.196 -0.0219 -0.3223  0.3674
 5619TIP3    H116821   2.264   3.600   1.231 -0.4738 -1.2512  0.4957
 5619TIP3    H216822   2.176   3.723   1.235 -0.2668 -1.1295  2.2355
 5620TIP3   OH216823   0.911   1.054   2.373  0.0241  0.0411  0.5002
 5620TIP3    H116824   0.911   1.048   2.469 -0.2866  0.0195  0.5002
 5620TIP3    H216825   0.987   1.002   2.346  1.0249  1.3079  0.8032
 5621TIP3   OH216826   4.569   3.557   3.231  0.0309 -0.6974 -0.4547
 5621TIP3    H116827   4.490   3.517   3.265  0.1752 -0.1481  0.5556
 5621TIP3    H216828   4.590   3.627   3.293 -0.2441  0.9978 -2.1620
 5622TIP3   OH216829   4.094   3.466   4.870  0.3536 -0.3907  0.2226
 5622TIP3    H116830   4.048   3.395   4.915  1.4855 -1.2623  0.0421
 5622TIP3    H216831   4.079   3.542   4.926  1.3748 -1.3577  1.9280
 5623TIP3   OH216832   0.023   1.168   3.543  0.5162 -0.4366  0.1187
 5623TIP3    H116833   0.116   1.160   3.563  0.7145  0.8559 -0.2492
 5623TIP3    H216834  -0.010   1.232   3.606 -0.5671 -2.2849  1.5351
 5624TIP3   OH216835   0.345   0.150   1.402  0.7805 -0.2661  0.1957
 5624TIP3    H116836   0.422   0.185   1.358  0.3392  1.7428  0.9020
 5624TIP3    H216837   0.274   0.162   1.339  0.5601  0.4810  0.5797
 5625TIP3   OH216838   0.093   5.817   3.660 -0.5018  0.1426 -0.3098
 5625TIP3    H116839   0.017   5.788   3.710  0.3875 -0.1560  0.9091
 5625TIP3    H216840   0.146   5.738   3.648  0.1809  0.5587 -0.1306
 5626TIP3   OH216841   5.800   2.231   1.604 -0.1071  0.0117  0.3278
 5626TIP3    H116842   5.758   2.147   1.583 -1.5514  1.0396 -1.1516
 5626TIP3    H216843   5.813   2.228   1.699  1.6036 -2.6054  0.1258
 5627TIP3   OH216844   6.827   5.938   2.054 -0.2369 -0.2199 -0.7455
 5627TIP3    H116845   6.828   6.005   2.123 -2.4806  0.4721 -1.3004
 5627TIP3    H216846   6.874   5.978   1.981  2.4156 -1.0647  0.3523
 5628TIP3   OH216847  -0.006   2.498   4.393  0.1605  0.3228  0.0975
 5628TIP3    H116848   0.013   2.452   4.311 -1.2347 -0.9943  0.4510
 5628TIP3    H216849   0.060   2.567   4.398  0.9288 -0.2248 -1.6057
 5629TIP3   OH216850   4.355   3.232   3.368  0.0931 -0.3106 -0.1957
 5629TIP3    H116851   4.373   3.288   3.444 -0.7550  1.4870 -1.2851
 5629TIP3    H216852   4.409   3.154   3.384  0.9935  0.6046  1.5644
 5630TIP3   OH216853   2.296   4.808   1.410 -0.1680  0.4350  0.6428
 5630TIP3    H116854   2.256   4.733   1.368 -0.8915  0.3722  1.4246
 5630TIP3    H216855   2.294   4.877   1.344 -0.3165  0.0328  0.2273
 5631TIP3   OH216856   4.292   1.605   0.338  0.2910 -0.7708  0.1176
 5631TIP3    H116857   4.263   1.543   0.405  0.3094 -0.8423  0.0601
 5631TIP3    H216858   4.340   1.672   0.387 -0.9609 -0.0235  0.3520
 5632TIP3   OH216859   7.234   1.512   5.198 -0.1460  0.4759  0.2115
 5632TIP3    H116860   7.153   1.553   5.228 -0.6987 -0.2013 -0.3095
 5632TIP3    H216861   7.255   1.558   5.116  0.6870  1.4913  0.9815
 5633TIP3   OH216862   5.944   3.704   4.683 -0.2336 -0.0535 -0.1677
 5633TIP3    H116863   5.881   3.641   4.719 -2.1831  1.3688 -0.8874
 5633TIP3    H216864   6.030   3.671   4.711 -1.3686 -1.0114  2.6055
 5634TIP3   OH216865   6.496   0.847   4.406 -0.4818  0.2079  0.1514
 5634TIP3    H116866   6.475   0.939   4.420 -0.0908  0.4070 -0.5182
 5634TIP3    H216867   6.490   0.836   4.311 -2.3527 -0.9011  0.3394
 5635TIP3   OH216868   1.442   4.277   0.018 -0.1655  0.0735  0.0326
 5635TIP3    H116869   1.441   4.373   0.015 -1.1700  0.0679 -1.9737
 5635TIP3    H216870   1.374   4.253   0.080  0.7148  0.6311  1.2509
 5636TIP3   OH216871   2.616   1.603   5.145 -0.0136 -0.0234  0.1677
 5636TIP3    H116872   2.639   1.513   5.168  3.1780  0.4325 -0.6788
 5636TIP3    H216873   2.663   1.657   5.209 -2.1964  1.1001  0.9117
 5637TIP3   OH216874   3.868   3.691   1.583  0.6485  0.1075  0.0315
 5637TIP3    H116875   3.961   3.686   1.560  0.0437 -2.6658 -2.4563
 5637TIP3    H216876   3.823   3.692   1.499 -1.6279  0.0244  1.1708
 5638TIP3   OH216877   1.413   4.858   2.675  0.5431  0.2618  0.5620
 5638TIP3    H116878   1.440   4.827   2.761  0.9802 -0.6620  0.1068
 5638TIP3    H216879   1.383   4.779   2.629  1.2874  0.5636 -0.4864
 5639TIP3   OH216880   3.824   3.449   1.335 -0.4804  0.0320  0.2267
 5639TIP3    H116881   3.919   3.446   1.340 -0.3358 -1.1256 -2.1068
 5639TIP3    H216882   3.804   3.527   1.284 -0.6556 -0.6505 -0.7836
 5640TIP3   OH216883   0.403   6.610   3.178 -0.5211  0.2162 -0.5933
 5640TIP3    H116884   0.495   6.585   3.185 -0.9079 -1.1165 -0.0380
 5640TIP3    H216885   0.399   6.697   3.218  0.2033 -0.4038  0.8820
 5641TIP3   OH216886   1.754   0.388   0.567  0.2059  0.0494 -0.2428
 5641TIP3    H116887   1.670   0.423   0.597  0.5899  1.2669 -0.5266
 5641TIP3    H216888   1.770   0.313   0.623 -0.8258  0.1189  0.1672
 5642TIP3   OH216889   5.269   1.679   1.891  0.1749 -0.0899 -0.2249
 5642TIP3    H116890   5.303   1.626   1.963  1.4341  2.0068  0.8362
 5642TIP3    H216891   5.338   1.677   1.825 -0.3612 -0.8242 -0.7866
 5643TIP3   OH216892   5.085   2.351   5.710 -0.2447  0.4265  0.7461
 5643TIP3    H116893   5.046   2.363   5.623 -1.1601 -0.0150  1.0867
 5643TIP3    H216894   5.149   2.280   5.698 -0.8339 -0.0825  0.5714
 5644TIP3   OH216895   2.592   1.265   4.799 -0.2287  0.2535 -0.1296
 5644TIP3    H116896   2.560   1.183   4.836  0.9761  0.8118  2.3219
 5644TIP3    H216897   2.662   1.238   4.740  0.5110 -0.5041  1.0443
 5645TIP3   OH216898   0.312   5.137   2.689  0.3770 -0.7312  0.5656
 5645TIP3    H116899   0.232   5.190   2.686  0.0434 -1.2697 -0.6440
 5645TIP3    H216900   0.370   5.178   2.625  0.3408 -1.4641  0.0546
 5646TIP3   OH216901   0.114   5.935   2.334  0.4206 -0.0963  0.0316
 5646TIP3    H116902   0.111   6.023   2.297 -0.6469  0.1656  0.6991
 5646TIP3    H216903   0.169   5.885   2.273 -1.4602  0.2497 -2.0641
 5647TIP3   OH216904   0.368   1.111   4.523 -0.5357  0.2883 -0.1302
 5647TIP3    H116905   0.398   1.128   4.613 -0.3119  0.7386 -0.2849
 5647TIP3    H216906   0.448   1.110   4.471 -0.7974  2.5810 -0.7161
 5648TIP3   OH216907   6.729   5.453   4.744  0.3043  0.0625 -0.3376
 5648TIP3    H116908   6.748   5.366   4.708 -1.4110 -0.5749  0.1944
 5648TIP3    H216909   6.782   5.458   4.823  1.9833  0.3610 -1.4320
 5649TIP3   OH216910   2.552   0.754   4.433  0.5449 -0.0771  0.1838
 5649TIP3    H116911   2.483   0.727   4.494  0.7029  1.6439  1.1846
 5649TIP3    H216912   2.504   0.791   4.358  0.1726  3.7748  2.0624
 5650TIP3   OH216913   4.263   0.728   5.066 -0.0297  0.3262  0.2053
 5650TIP3    H116914   4.199   0.722   4.995 -0.4040 -0.1640  0.5762
 5650TIP3    H216915   4.235   0.802   5.119 -0.8035 -0.4052  0.8522
 5651TIP3   OH216916   5.544   5.241   0.040  0.0487 -0.3148  0.3189
 5651TIP3    H116917   5.619   5.184   0.054 -1.8220 -2.8207  0.7135
 5651TIP3    H216918   5.539   5.252  -0.055  2.0378  1.6135  0.3548
 5652TIP3   OH216919   0.833   3.291   4.731 -0.0045  1.0580 -0.2811
 5652TIP3    H116920   0.792   3.312   4.815 -0.5983 -0.7966 -0.0681
 5652TIP3    H216921   0.882   3.370   4.708  0.2268  1.5789  1.8282
 5653TIP3   OH216922   6.039   6.753   2.617 -0.0024  0.0954  0.2214
 5653TIP3    H116923   6.013   6.666   2.586  0.0437  1.1351 -3.1049
 5653TIP3    H216924   6.027   6.749   2.712 -3.8828 -2.2608 -0.1549
 5654TIP3   OH216925   1.342   3.736   1.598 -0.8540  0.5122 -0.6536
 5654TIP3    H116926   1.307   3.703   1.680  1.0334 -0.7166 -0.2889
 5654TIP3    H216927   1.322   3.669   1.534 -0.4560  0.4681 -0.7375
 5655TIP3   OH216928   4.245   5.401   0.732 -0.0697 -1.0041 -0.0096
 5655TIP3    H116929   4.155   5.402   0.764  0.2756  1.0489  1.0775
 5655TIP3    H216930   4.283   5.321   0.768 -0.4731 -0.1101  2.5444
 5656TIP3   OH216931   2.423   6.686   4.058 -0.0953  0.3750  0.2775
 5656TIP3    H116932   2.457   6.775   4.065 -0.8179  0.5764  1.3726
 5656TIP3    H216933   2.437   6.648   4.144  0.1983 -0.5843 -0.1740
 5657TIP3   OH216934   0.203   0.894   0.169  0.0798  0.1343  0.1915
 5657TIP3    H116935   0.150   0.917   0.245 -1.3638 -0.8299 -0.4791
 5657TIP3    H216936   0.165   0.945   0.097  0.8959  0.3985 -0.0654
 5658TIP3   OH216937   0.708   6.369   5.221 -0.0615  0.0292 -0.0934
 5658TIP3    H116938   0.716   6.364   5.126  0.1358 -1.5015 -0.0327
 5658TIP3    H216939   0.798   6.376   5.252 -0.1237  0.4958 -0.0173
 5659TIP3   OH216940   3.085   2.272   3.098 -0.5037 -0.1116 -0.1537
 5659TIP3    H116941   3.133   2.194   3.074 -1.3517 -0.7688  0.2358
 5659TIP3    H216942   3.079   2.323   3.017 -1.5206 -1.3019 -0.8516
 5660TIP3   OH216943   3.637   1.088   4.457 -0.4353  0.5554 -0.1015
 5660TIP3    H116944   3.595   1.002   4.447  1.2947 -0.2325 -0.9854
 5660TIP3    H216945   3.590   1.129   4.530 -1.0643 -1.3058  0.6056
 5661TIP3   OH216946   0.866   1.371   1.855  0.1317 -0.2319  0.4601
 5661TIP3    H116947   0.948   1.355   1.809  0.7696 -1.6828  1.9892
 5661TIP3    H216948   0.872   1.463   1.883  1.2093 -0.2919  0.4724
 5662TIP3   OH216949   6.721   5.808   4.252  0.3220  0.9178 -0.1570
 5662TIP3    H116950   6.629   5.813   4.279 -0.0117  1.8047 -1.3697
 5662TIP3    H216951   6.766   5.768   4.326 -1.0649  0.3515  0.4054
 5663TIP3   OH216952   1.131   1.121   0.329  0.1211 -0.7411  1.5204
 5663TIP3    H116953   1.041   1.109   0.359 -0.8544  1.4084 -0.2054
 5663TIP3    H216954   1.135   1.213   0.300  2.6360 -0.9948  0.7680
 5664TIP3   OH216955   2.593   3.184   3.266  0.1164 -0.3228  0.1384
 5664TIP3    H116956   2.606   3.140   3.182  1.2937 -0.3545  0.3200
 5664TIP3    H216957   2.578   3.276   3.244  1.9805 -0.0232 -0.0790
 5665TIP3   OH216958   0.672   1.145   1.897  0.1487  0.0508  0.1148
 5665TIP3    H116959   0.712   1.156   1.983 -1.2528 -0.2639  0.8393
 5665TIP3    H216960   0.687   1.228   1.852 -1.3937  1.2574  1.6813
 5666TIP3   OH216961   4.791   6.129   4.680 -0.3598  0.4389 -0.2315
 5666TIP3    H116962   4.858   6.071   4.641 -1.1445 -1.2378  0.8035
 5666TIP3    H216963   4.837   6.176   4.749  0.6168  2.1410 -1.9314
 5667TIP3   OH216964   1.693   0.312   4.577  0.4540 -0.2314 -0.0414
 5667TIP3    H116965   1.646   0.259   4.641  2.5440 -0.8674  1.0372
 5667TIP3    H216966   1.712   0.251   4.505  0.2507 -0.1536 -0.1622
 5668TIP3   OH216967   0.611   2.608   4.821  0.0624 -0.3940 -0.8524
 5668TIP3    H116968   0.541   2.543   4.824  2.5847 -3.2926  1.0057
 5668TIP3    H216969   0.669   2.577   4.751  0.4626  0.8577 -1.0977
 5669TIP3   OH216970   1.640   3.985   2.893  0.0259  0.1314  0.3654
 5669TIP3    H116971   1.586   3.970   2.971 -2.4292  0.9213 -1.0699
 5669TIP3    H216972   1.615   4.072   2.863  0.8952 -0.1564 -1.3002
 5670TIP3   OH216973   3.334  -0.015   2.306  0.1744 -0.0450 -0.2374
 5670TIP3    H116974   3.396   0.022   2.243 -3.0383  1.4583 -2.8201
 5670TIP3    H216975   3.291   0.061   2.345 -2.4863 -0.9451 -1.2213
 5671TIP3   OH216976   2.874   0.673   0.065 -0.1434 -0.0608  0.2247
 5671TIP3    H116977   2.787   0.707   0.043 -0.1971 -0.7050 -0.6172
 5671TIP3    H216978   2.857   0.587   0.102  0.1528 -0.3031 -0.2030
 5672TIP3   OH216979   1.594   0.320   2.448 -0.4216 -0.0982 -0.1164
 5672TIP3    H116980   1.608   0.398   2.393 -2.2673  1.0715  0.9761
 5672TIP3    H216981   1.552   0.257   2.390 -0.2373  0.2453 -0.6382
 5673TIP3   OH216982   4.933   1.932   4.582 -0.3335  0.2615 -0.0863
 5673TIP3    H116983   4.922   1.863   4.516 -0.2282  0.9599 -0.8539
 5673TIP3    H216984   4.844   1.955   4.608 -0.4286  0.6954 -0.7581
 5674TIP3   OH216985   4.548   4.038   0.618 -0.8835  0.1443  0.1754
 5674TIP3    H116986   4.453   4.039   0.627 -0.6997 -0.7464  4.8768
 5674TIP3    H216987   4.581   4.030   0.708  3.6934  0.8775 -1.1511
 5675TIP3   OH216988   3.200   1.816   2.887 -0.6801 -0.0482  0.4433
 5675TIP3    H116989   3.169   1.727   2.904 -0.8041 -0.1362 -0.2247
 5675TIP3    H216990   3.286   1.820   2.931 -0.5580 -0.5813  0.2613
 5676TIP3   OH216991   2.127   5.017   4.403  1.1388  0.6931 -0.3833
 5676TIP3    H116992   2.060   4.993   4.467  1.0058 -1.3511 -1.2047
 5676TIP3    H216993   2.077   5.043   4.326  1.2879  0.7937 -0.4449
 5677TIP3   OH216994   1.331   6.689   5.538 -0.5154 -0.3364 -0.3613
 5677TIP3    H116995   1.324   6.684   5.634  1.8055  2.3724  0.0579
 5677TIP3    H216996   1.410   6.639   5.517 -0.4985 -0.1430 -0.7670
 5678TIP3   OH216997   5.701   1.424   2.400 -0.7935 -0.3363  0.2571
 5678TIP3    H116998   5.610   1.403   2.422 -0.2882 -1.9231  0.9768
 5678TIP3    H216999   5.742   1.339   2.384 -0.0537  0.4556 -2.7760
 5679TIP3   OH217000   6.753   5.827   1.722 -0.1622  0.1759 -0.2537
 5679TIP3    H117001   6.698   5.854   1.649 -0.4127 -0.1728 -0.1943
 5679TIP3    H217002   6.772   5.735   1.705  0.4614  0.3083 -0.3120
 5680TIP3   OH217003   7.083   4.852   0.282  0.9650  0.5073 -0.4185
 5680TIP3    H117004   7.136   4.917   0.237 -1.4712  2.5994 -0.4786
 5680TIP3    H217005   7.032   4.810   0.212  0.3623  0.6739 -0.0906
 5681TIP3   OH217006   2.106   5.622   2.428  0.0686  0.1310  0.3528
 5681TIP3    H117007   2.117   5.647   2.336  1.5061 -0.4479  0.3424
 5681TIP3    H217008   2.036   5.678   2.460  0.5638  1.3876 -0.7032
 5682TIP3   OH217009   2.347   5.099   2.109  0.2565 -0.0981  0.5872
 5682TIP3    H117010   2.431   5.143   2.115 -0.2945  1.1831 -0.4711
 5682TIP3    H217011   2.290   5.146   2.170 -0.1732  0.2884 -0.0912
 5683TIP3   OH217012   3.632   3.016   4.993 -0.8375  0.0948 -0.1373
 5683TIP3    H117013   3.644   3.078   5.065  0.7475  0.9599 -1.1031
 5683TIP3    H217014   3.696   2.948   5.008  0.0530  0.6862 -1.1204
 5684TIP3   OH217015   1.260   4.578   1.877 -0.2268 -0.0698 -0.2607
 5684TIP3    H117016   1.305   4.493   1.877  0.4799  0.1805  3.0951
 5684TIP3    H217017   1.219   4.583   1.963 -0.7791  2.7590 -0.6096
 5685TIP3   OH217018   2.645   1.301   0.886  0.0347 -0.0325  0.0672
 5685TIP3    H117019   2.731   1.278   0.921 -0.5341 -1.0542  0.8562
 5685TIP3    H217020   2.658   1.307   0.791  1.0592  0.2249  0.2207
 5686TIP3   OH217021   1.925   4.416   1.648  0.8444  0.7403  0.4369
 5686TIP3    H117022   1.889   4.499   1.679  2.0932  1.2275  0.6325
 5686TIP3    H217023   1.959   4.373   1.726 -1.2016 -0.7287  0.6010
 5687TIP3   OH217024   6.038   6.624   5.752 -0.2860  0.6481 -0.0271
 5687TIP3    H117025   6.011   6.534   5.771  1.7699 -0.1198 -0.4894
 5687TIP3    H217026   6.066   6.659   5.837 -1.5818  1.0513  0.2465
 5688TIP3   OH217027   0.839   4.760   2.221  0.3403  0.6226 -0.0928
 5688TIP3    H117028   0.798   4.791   2.140 -1.2549 -0.2860  0.3218
 5688TIP3    H217029   0.795   4.678   2.240  1.7189  0.0816  0.9362
 5689TIP3   OH217030   5.314   1.233   5.569  0.1475 -0.1736  0.4769
 5689TIP3    H117031   5.291   1.318   5.531 -0.3422 -0.8037 -0.7141
 5689TIP3    H217032   5.359   1.187   5.498  1.2119 -0.5805  1.3957
 5690TIP3   OH217033   1.295   2.614   1.285 -0.3874  0.1783  0.0088
 5690TIP3    H117034   1.217   2.663   1.308  0.0517  0.7489  0.3029
 5690TIP3    H217035   1.309   2.554   1.358 -1.2496 -0.8145 -0.6085
 5691TIP3   OH217036   4.761   3.902   1.394 -0.1256 -0.3351 -0.1824
 5691TIP3    H117037   4.851   3.875   1.376 -0.5199 -1.4689 -0.5030
 5691TIP3    H217038   4.763   3.998   1.383  1.0141 -0.3515 -0.2655
 5692TIP3   OH217039   3.437   6.390   5.473  0.4265 -0.0902 -0.1624
 5692TIP3    H117040   3.503   6.455   5.499  0.6258 -0.5800  0.5953
 5692TIP3    H217041   3.355   6.426   5.506  0.6436 -0.5770  0.9540
 5693TIP3   OH217042   4.053   0.028   5.186 -0.3636 -0.1708  0.2984
 5693TIP3    H117043   4.016   0.065   5.106 -0.4342  1.3918  1.0227
 5693TIP3    H217044   4.041   0.097   5.252 -0.0188 -1.3038  1.5765
 5694TIP3   OH217045   6.616   0.864   3.159  0.2752  0.3996 -0.1798
 5694TIP3    H117046   6.578   0.904   3.237 -0.8035 -0.4851 -0.2357
 5694TIP3    H217047   6.703   0.903   3.153 -0.3129  1.8976  0.3962
 5695TIP3   OH217048   6.525   0.719   0.655  0.2435 -0.1642 -0.3701
 5695TIP3    H117049   6.518   0.623   0.653  1.1572 -0.2391 -0.4261
 5695TIP3    H217050   6.487   0.743   0.740  0.7327 -0.6521 -0.0007
 5696TIP3   OH217051   0.833   2.417   0.398  0.2712  0.4004 -0.0580
 5696TIP3    H117052   0.825   2.352   0.329 -0.2570  0.9089 -0.4859
 5696TIP3    H217053   0.747   2.416   0.441  0.7087 -0.1779  0.8428
 5697TIP3   OH217054   3.487   5.282   2.040  0.5530 -0.9438 -0.0956
 5697TIP3    H117055   3.408   5.335   2.052  0.8711 -0.3925 -0.3951
 5697TIP3    H217056   3.462   5.195   2.070  0.1478 -0.5272  0.8033
 5698TIP3   OH217057   4.408   2.555   2.958  0.0933 -0.3050  0.5150
 5698TIP3    H117058   4.404   2.470   2.915 -0.3915 -0.6684  1.2365
 5698TIP3    H217059   4.438   2.615   2.891 -0.1133 -0.9456 -0.1670
 5699TIP3   OH217060   1.981   0.904   1.982 -0.1455  0.0853  0.8750
 5699TIP3    H117061   1.910   0.904   2.046  0.0341 -0.2930  1.0773
 5699TIP3    H217062   2.056   0.868   2.029 -0.2942 -1.2495  0.1563
 5700TIP3   OH217063   2.202   1.953   3.355 -0.1163  0.1123  0.3556
 5700TIP3    H117064   2.232   2.001   3.278  2.1367 -0.2614  0.9288
 5700TIP3    H217065   2.209   2.016   3.427 -1.4363  0.2140  0.4336
 5701TIP3   OH217066   5.965   5.964   5.694  0.2291  0.5934  0.3509
 5701TIP3    H117067   6.051   5.926   5.678 -0.8022 -1.0464 -1.9646
 5701TIP3    H217068   5.970   6.052   5.657  1.2474  0.9594  1.3336
 5702TIP3   OH217069   6.721   6.187   2.209 -0.0633  0.5370 -0.0111
 5702TIP3    H117070   6.761   6.269   2.237  0.3757 -0.1202  1.3462
 5702TIP3    H217071   6.663   6.213   2.137  0.0174  2.0376  0.4180
 5703TIP3   OH217072   6.263   2.324   4.699 -0.4105 -0.2085  0.0450
 5703TIP3    H117073   6.318   2.277   4.637 -1.5615 -0.9549 -0.4463
 5703TIP3    H217074   6.312   2.323   4.781  0.6464 -0.1591 -0.5757
 5704TIP3   OH217075   5.671   0.963   4.182 -0.4338  0.6571 -0.1351
 5704TIP3    H117076   5.661   0.877   4.141 -1.4519  0.5011  0.3874
 5704TIP3    H217077   5.765   0.978   4.184  0.4006 -2.7450  4.2267
 5705TIP3   OH217078   2.596   1.323   5.203 -0.6530  0.1989  0.8627
 5705TIP3    H117079   2.601   1.231   5.179 -0.3993  0.7647 -1.5036
 5705TIP3    H217080   2.562   1.323   5.292 -0.8785 -2.1595  0.8362
 5706TIP3   OH217081   2.644   3.743   2.011 -0.3373  0.3362 -0.2160
 5706TIP3    H117082   2.560   3.705   2.038  0.3546 -0.5062  0.8075
 5706TIP3    H217083   2.710   3.690   2.055  0.7101  1.9082  0.1979
 5707TIP3   OH217084   2.341   3.863   2.211 -0.2165 -1.0747 -0.3861
 5707TIP3    H117085   2.282   3.811   2.266  0.3875 -0.5213  0.8086
 5707TIP3    H217086   2.348   3.947   2.255  2.0783 -1.3764 -0.0637
 5708TIP3   OH217087   3.631   1.859   0.550 -0.0768 -0.1734  0.1198
 5708TIP3    H117088   3.673   1.861   0.636 -0.4178 -0.0985  0.2857
 5708TIP3    H217089   3.632   1.950   0.521 -1.1867  0.0286  0.6485
 5709TIP3   OH217090   4.791   0.143   5.196  0.2127  0.0110 -0.2033
 5709TIP3    H117091   4.718   0.182   5.244  1.6183  2.1804  0.3460
 5709TIP3    H217092   4.752   0.111   5.114 -1.4601  0.4260  0.3971
 5710TIP3   OH217093   1.636   3.707   3.675  0.4702  0.4218 -0.5040
 5710TIP3    H117094   1.564   3.658   3.636  0.8087 -0.5749  0.0806
 5710TIP3    H217095   1.695   3.640   3.709  0.4699  1.2260  1.2129
 5711TIP3   OH217096   1.357   6.085   1.267 -0.1038 -0.3230 -0.3471
 5711TIP3    H117097   1.353   5.991   1.286 -0.1346 -0.0326  1.2661
 5711TIP3    H217098   1.447   6.110   1.290 -0.4015  0.2291  0.2440
 5712TIP3   OH217099   7.078   6.000   5.700  0.3915 -0.6131 -0.8578
 5712TIP3    H117100   7.013   5.968   5.762  0.3465  0.9598 -0.0553
 5712TIP3    H217101   7.150   5.936   5.706 -0.8241 -2.0796 -1.3823
 5713TIP3   OH217102   2.026   3.371   4.941 -0.3360 -0.2466  0.4635
 5713TIP3    H117103   1.948   3.375   4.997 -0.6286  2.6855  0.0055
 5713TIP3    H217104   2.054   3.462   4.933  1.9073 -1.0061 -1.1233
 5714TIP3   OH217105   5.907   3.232   2.670  0.5821  0.3689 -0.0175
 5714TIP3    H117106   5.967   3.307   2.676  0.2400  0.5686  1.0256
 5714TIP3    H217107   5.904   3.196   2.759  0.9341 -1.0481 -0.5478
 5715TIP3   OH217108   5.502   3.479   4.647 -0.0035  0.2688 -0.3584
 5715TIP3    H117109   5.479   3.572   4.638 -1.0874  0.2145  1.3843
 5715TIP3    H217110   5.475   3.456   4.736 -0.0319 -1.8045 -0.8496
 5716TIP3   OH217111   4.734   5.230   3.275 -0.1762  0.2550 -0.3986
 5716TIP3    H117112   4.739   5.269   3.187  1.1385  0.1233 -0.4069
 5716TIP3    H217113   4.695   5.298   3.329 -1.3187  0.2138 -1.1437
 5717TIP3   OH217114   4.490   5.140   1.576  0.4300 -0.0588  0.3656
 5717TIP3    H117115   4.455   5.212   1.629  2.5712  2.0584 -0.9155
 5717TIP3    H217116   4.525   5.079   1.641 -1.8788 -0.2849  1.5038
 5718TIP3   OH217117   5.254   6.545   3.153  0.2680 -0.2005  0.1742
 5718TIP3    H117118   5.162   6.558   3.129 -0.0201 -0.7620  0.9158
 5718TIP3    H217119   5.252   6.535   3.248  1.3482  1.8740  0.4624
 5719TIP3   OH217120   2.753   2.468   0.692 -0.0619  0.8458  0.0326
 5719TIP3    H117121   2.756   2.560   0.719  0.7924  0.3666  1.7555
 5719TIP3    H217122   2.805   2.423   0.758 -1.2651 -1.0107 -0.2117
 5720TIP3   OH217123   2.286   2.294   2.650 -0.1394  0.0984 -0.5520
 5720TIP3    H117124   2.319   2.265   2.565  0.6518 -0.1707 -0.1628
 5720TIP3    H217125   2.191   2.294   2.640 -0.1727 -2.3001 -0.6720
 5721TIP3   OH217126   6.490   4.498   3.306 -0.3222 -0.0559  0.0085
 5721TIP3    H117127   6.412   4.547   3.333 -0.3798  0.2354 -0.6635
 5721TIP3    H217128   6.552   4.565   3.280  0.0447 -0.3028  0.2374
 5722TIP3   OH217129   5.784   2.407   3.960  0.2127 -0.3482 -0.1581
 5722TIP3    H117130   5.797   2.378   3.870 -0.1270 -2.7924  0.5178
 5722TIP3    H217131   5.810   2.332   4.013 -0.4459  0.7274  1.7587
 5723TIP3   OH217132   2.229   1.023   2.896 -0.0981  0.0535  0.5217
 5723TIP3    H117133   2.232   1.099   2.954 -0.0767 -1.4807  2.6607
 5723TIP3    H217134   2.151   0.975   2.925  0.7518 -1.5094  0.3007
 5724TIP3   OH217135   5.041   5.167   3.753 -0.2608 -0.4940  0.3931
 5724TIP3    H117136   5.120   5.178   3.701 -1.4468  0.9473 -1.2567
 5724TIP3    H217137   5.037   5.074   3.773  0.3346 -1.1269 -2.0825
 5725TIP3   OH217138   3.398   3.115   4.413  0.0775  0.1156 -0.0760
 5725TIP3    H117139   3.491   3.123   4.432 -0.3647  0.9952  2.0860
 5725TIP3    H217140   3.363   3.063   4.485 -1.2967  0.9161 -0.1230
 5726TIP3   OH217141   0.951   6.729   3.012  0.3635 -0.3695  0.0420
 5726TIP3    H117142   1.040   6.694   3.022 -0.4673 -2.1155  2.2089
 5726TIP3    H217143   0.944   6.795   3.081 -0.5668 -1.5760  1.1488
 5727TIP3   OH217144   2.987   4.353   2.016  0.5796 -0.5286  0.3069
 5727TIP3    H117145   3.048   4.312   1.954  1.7478  0.1979  0.9477
 5727TIP3    H217146   2.964   4.437   1.975  0.8393 -0.3377  0.5509
 5728TIP3   OH217147   0.263   5.362   2.294 -0.4837  0.0756  0.2826
 5728TIP3    H117148   0.200   5.431   2.316  0.4815  1.5747 -1.4090
 5728TIP3    H217149   0.309   5.395   2.217 -0.9950 -3.1039 -1.5691
 5729TIP3   OH217150   4.303   1.359   4.823  0.5840 -0.1512 -0.2098
 5729TIP3    H117151   4.393   1.380   4.848 -0.1218  1.5478  1.1739
 5729TIP3    H217152   4.269   1.310   4.898  0.2196 -0.3942 -0.5333
 5730TIP3   OH217153   2.440   2.372   1.303 -0.4770 -0.4427  0.2593
 5730TIP3    H117154   2.385   2.432   1.352 -0.3221  0.4309 -0.6037
 5730TIP3    H217155   2.471   2.423   1.228 -2.1056 -2.1886 -1.7460
 5731TIP3   OH217156   1.577   0.506   3.665  0.0115 -0.5735 -0.1412
 5731TIP3    H117157   1.622   0.477   3.745 -1.5051 -1.4628  0.4419
 5731TIP3    H217158   1.612   0.593   3.648 -0.6604  0.2587  2.3458
 5732TIP3   OH217159   2.261   1.204   4.030 -0.0987 -0.2062 -0.0507
 5732TIP3    H117160   2.167   1.205   4.013 -0.6411  0.9833  2.5107
 5732TIP3    H217161   2.301   1.207   3.943 -2.4336  1.1989 -1.1770
 5733TIP3   OH217162   1.883   5.252   1.649  0.2861  0.0318 -0.4008
 5733TIP3    H117163   1.792   5.235   1.672  0.6408 -2.1961 -0.3510
 5733TIP3    H217164   1.928   5.169   1.668  2.0093  0.5366 -1.9521
 5734TIP3   OH217165   1.264   3.957   2.891 -0.0099 -0.3742  0.4297
 5734TIP3    H117166   1.288   3.961   2.983  0.2558  0.5004  0.3353
 5734TIP3    H217167   1.244   3.865   2.875 -1.3746 -0.3467  1.6931
 5735TIP3   OH217168   5.221   5.159   0.924 -0.3536  0.2436 -0.0582
 5735TIP3    H117169   5.294   5.194   0.976 -0.4817 -0.5399  0.6707
 5735TIP3    H217170   5.246   5.068   0.905 -0.0584  0.6656 -1.8572
 5736TIP3   OH217171   2.814   0.392   1.103 -0.5381 -0.5476  0.4175
 5736TIP3    H117172   2.891   0.431   1.144 -1.5144  0.2352  1.6095
 5736TIP3    H217173   2.841   0.372   1.014  0.8630  0.2376  0.6366
 5737TIP3   OH217174   5.478  -0.007   3.230  0.2492 -0.0208  0.2012
 5737TIP3    H117175   5.519  -0.042   3.309  0.4417  0.7513  0.4445
 5737TIP3    H217176   5.437   0.075   3.257 -1.7669 -0.9116  0.0481
 5738TIP3   OH217177   1.384   6.663   5.099  0.6163  0.3771  0.1249
 5738TIP3    H117178   1.313   6.638   5.159 -0.7534 -0.4493 -1.7267
 5738TIP3    H217179   1.451   6.597   5.113 -1.8430 -3.1188 -2.7737
 5739TIP3   OH217180   0.069   2.789   3.732 -0.4994  0.4268  0.0915
 5739TIP3    H117181   0.145   2.820   3.781 -0.0694 -1.4304  0.6813
 5739TIP3    H217182   0.018   2.868   3.714  0.1038  1.3720  2.1964
 5740TIP3   OH217183   0.105   4.361   4.587  0.0722 -0.0609  0.0161
 5740TIP3    H117184   0.021   4.325   4.614  0.2029 -1.0709 -0.8522
 5740TIP3    H217185   0.088   4.454   4.575 -1.0947 -0.3552 -0.7614
 5741TIP3   OH217186   6.560   0.227   2.340  0.3271 -0.3269  0.3802
 5741TIP3    H117187   6.481   0.278   2.320 -0.5643 -1.3372  1.2060
 5741TIP3    H217188   6.589   0.194   2.254 -2.2393 -2.8779  0.3284
 5742TIP3   OH217189   6.765   3.336   5.177 -0.4835  0.6263  0.4465
 5742TIP3    H117190   6.842   3.312   5.124 -0.5687 -0.0489  0.6145
 5742TIP3    H217191   6.690   3.307   5.125 -0.5807  0.3041  0.7574
 5743TIP3   OH217192   1.843   1.891   0.728  0.2167 -0.2430  0.1289
 5743TIP3    H117193   1.921   1.837   0.735  0.8365  0.6690  0.3490
 5743TIP3    H217194   1.771   1.833   0.755  1.0345 -0.5728  1.7101
 5744TIP3   OH217195   2.395   4.956   2.685 -0.2007 -0.7383  0.0764
 5744TIP3    H117196   2.465   4.899   2.716  1.3289  0.4388 -1.0388
 5744TIP3    H217197   2.422   5.044   2.713 -1.2812 -0.2701 -0.3026
 5745TIP3   OH217198   7.030   3.608   0.206 -0.6677 -0.4251 -0.1651
 5745TIP3    H117199   6.958   3.573   0.154 -0.4066 -0.3108 -0.6079
 5745TIP3    H217200   7.101   3.621   0.144 -0.1949 -0.7223  0.3007
 5746TIP3   OH217201   3.154   0.369   3.248  0.1754 -0.2638 -0.0997
 5746TIP3    H117202   3.207   0.419   3.186  1.5340  0.9919  1.9615
 5746TIP3    H217203   3.087   0.431   3.278 -0.4256 -0.8308 -0.2457
 5747TIP3   OH217204   1.234   5.558   4.220  0.5500 -0.1004 -0.7846
 5747TIP3    H117205   1.329   5.551   4.232  0.3460  0.9414  2.4184
 5747TIP3    H217206   1.212   5.645   4.254 -1.7038 -0.8752 -0.0542
 5748TIP3   OH217207   5.005   1.929   2.810 -0.1171 -0.5077  0.6699
 5748TIP3    H117208   5.035   1.962   2.725 -2.5193  1.5227  0.5131
 5748TIP3    H217209   4.951   1.853   2.788 -0.0234 -0.5175  0.4675
 5749TIP3   OH217210   3.429   1.296   1.993 -0.4974 -0.0751 -0.1132
 5749TIP3    H117211   3.336   1.295   1.972 -0.2011 -1.0541 -1.4730
 5749TIP3    H217212   3.439   1.370   2.054 -2.1530  0.0055  0.1075
 5750TIP3   OH217213   4.171   1.780   0.148 -0.5153 -0.0880  0.4492
 5750TIP3    H117214   4.213   1.739   0.223  0.6933  2.4228  1.2611
 5750TIP3    H217215   4.238   1.836   0.109 -1.6722  0.1698 -1.3317
 5751TIP3   OH217216   1.927   3.681   2.609  0.2171  0.1357 -0.1945
 5751TIP3    H117217   1.990   3.751   2.590  0.1941  0.9529  2.3214
 5751TIP3    H217218   1.843   3.727   2.616 -0.1387 -0.4722 -0.4349
 5752TIP3   OH217219   1.730   0.296   0.062 -0.1757  0.3549  0.1693
 5752TIP3    H117220   1.658   0.280   0.001 -0.8934 -0.8419  1.2695
 5752TIP3    H217221   1.723   0.389   0.084 -1.1490  0.3395 -0.0345
 5753TIP3   OH217222   1.084   4.338   2.312 -0.7922 -0.0344 -0.7200
 5753TIP3    H117223   1.113   4.302   2.395  0.3522  0.5173 -0.8687
 5753TIP3    H217224   0.999   4.378   2.331 -0.4038  0.3478  0.2541
 5754TIP3   OH217225   4.299   4.693   3.752 -0.1787  0.2248  0.1683
 5754TIP3    H117226   4.226   4.725   3.700 -0.0924 -0.4117 -0.3723
 5754TIP3    H217227   4.260   4.661   3.833 -0.3043  1.3279  0.5586
 5755TIP3   OH217228   6.703   4.768   1.320  0.4224  0.0657  0.1787
 5755TIP3    H117229   6.749   4.836   1.369  2.6118 -1.2582  0.0786
 5755TIP3    H217230   6.718   4.688   1.370  1.1958 -0.9996 -1.6687
 5756TIP3   OH217231   6.592   0.904   1.606 -0.0850 -0.3621  0.5890
 5756TIP3    H117232   6.512   0.863   1.639 -0.5117  0.2061  0.2929
 5756TIP3    H217233   6.661   0.874   1.665 -0.3761 -1.5156  0.3542
 5757TIP3   OH217234   0.603   4.511   2.188 -0.0776 -0.1403 -0.0950
 5757TIP3    H117235   0.578   4.595   2.226 -0.1705 -0.1428 -0.1500
 5757TIP3    H217236   0.644   4.463   2.260 -1.5214 -0.6968  0.3826
 5758TIP3   OH217237   6.073   5.015   5.020 -0.3692 -0.4497 -0.3799
 5758TIP3    H117238   6.015   5.018   5.096  0.9248 -0.5601  0.6646
 5758TIP3    H217239   6.057   5.096   4.973  0.4587  0.7505  1.3198
 5759TIP3   OH217240   7.037   5.267   4.748  0.0809  0.2905  0.0806
 5759TIP3    H117241   7.052   5.174   4.729  1.2546 -0.1600  2.6584
 5759TIP3    H217242   6.946   5.272   4.778 -0.9999  0.6049 -2.9705
 5760TIP3   OH217243   0.795   0.993   5.041  0.3722 -0.1557 -0.0131
 5760TIP3    H117244   0.782   1.088   5.031 -0.6977 -0.3789 -0.8628
 5760TIP3    H217245   0.869   0.973   4.985  0.7189  0.2001  0.3084
 5761TIP3   OH217246   6.176   1.895   1.336 -0.1094 -0.1046 -0.4289
 5761TIP3    H117247   6.098   1.911   1.390 -0.3873 -0.3412 -0.7599
 5761TIP3    H217248   6.225   1.828   1.384  0.4971  0.8910  0.3901
 5762TIP3   OH217249   1.471   5.983   2.415  0.1995  0.0800 -0.2174
 5762TIP3    H117250   1.378   5.996   2.397  0.1488  2.6070  1.3069
 5762TIP3    H217251   1.477   5.893   2.447 -1.7661 -0.0517 -0.1021
 5763TIP3   OH217252   6.665   5.073   1.421  0.4443 -0.1813  0.2026
 5763TIP3    H117253   6.623   5.141   1.475  1.4726 -0.2545  1.1281
 5763TIP3    H217254   6.698   5.120   1.345 -0.9794 -0.0679 -0.3932
 5764TIP3   OH217255   2.463   5.715   0.731 -0.2045 -0.1104  0.3963
 5764TIP3    H117256   2.395   5.781   0.714 -0.8628 -0.6652  0.8592
 5764TIP3    H217257   2.415   5.638   0.762  0.6607 -0.3922  1.0733
 5765TIP3   OH217258   4.704   4.533   0.280 -0.0998 -0.5864  0.2796
 5765TIP3    H117259   4.671   4.614   0.320  0.9995  0.6315 -1.1596
 5765TIP3    H217260   4.635   4.505   0.221 -0.3558 -0.5399  0.5519
 5766TIP3   OH217261   2.767   0.829   2.956 -0.3348  0.2145 -0.1010
 5766TIP3    H117262   2.811   0.854   3.037 -1.8862  0.8951  0.5794
 5766TIP3    H217263   2.806   0.745   2.932  1.4201  0.8639  0.3467
 5767TIP3   OH217264   3.558   3.104   4.100  0.1905  0.4410  0.0793
 5767TIP3    H117265   3.502   3.171   4.140  1.5524  0.4297  2.1590
 5767TIP3    H217266   3.644   3.145   4.094  0.4511 -0.2353 -1.1621
 5768TIP3   OH217267   6.064   4.299   4.008 -0.1630  0.0833  0.3317
 5768TIP3    H117268   6.111   4.257   3.935  2.6501 -2.1148  3.1080
 5768TIP3    H217269   5.974   4.271   3.998  0.4139 -1.3175 -1.5047
 5769TIP3   OH217270   4.319   6.123   0.615  0.2246 -0.0038 -0.1656
 5769TIP3    H117271   4.393   6.118   0.674  1.9353 -0.0569 -2.1924
 5769TIP3    H217272   4.298   6.032   0.594  0.4492  0.0347 -0.5768
 5770TIP3   OH217273   0.952   6.058   2.513  0.0793 -0.1649 -0.6831
 5770TIP3    H117274   0.915   6.010   2.587  0.0639  0.7150 -0.1088
 5770TIP3    H217275   0.957   6.148   2.543  1.6663 -0.0653 -1.1535
 5771TIP3   OH217276   5.398   2.932   0.939  0.0243 -0.0338  0.1299
 5771TIP3    H117277   5.360   2.847   0.918 -2.2495  0.7597  0.7118
 5771TIP3    H217278   5.406   2.932   1.034 -2.0083  1.1137  0.3586
 5772TIP3   OH217279   7.082   4.078   2.452  0.2073 -0.4658 -0.5443
 5772TIP3    H117280   7.022   4.151   2.466 -0.3188 -0.9343 -0.2671
 5772TIP3    H217281   7.071   4.056   2.359  0.3961 -0.1674 -0.6368
 5773TIP3   OH217282   6.985   0.319   4.679  0.2554  0.6048 -0.1350
 5773TIP3    H117283   6.944   0.282   4.601  1.2291  0.9738 -0.8449
 5773TIP3    H217284   6.917   0.315   4.746 -0.0610 -1.3558 -0.5001
 5774TIP3   OH217285   3.218   4.085   3.456 -0.3855  0.0325 -0.6747
 5774TIP3    H117286   3.209   3.990   3.466  1.3106 -0.2483 -1.4962
 5774TIP3    H217287   3.148   4.122   3.512  0.5424 -1.6452  1.7634
 5775TIP3   OH217288   4.930   6.160   0.679 -0.0704  0.1543 -0.1097
 5775TIP3    H117289   4.930   6.066   0.695  1.6635  0.0656 -0.4255
 5775TIP3    H217290   4.843   6.179   0.645 -1.3941 -0.8553  2.4512
 5776TIP3   OH217291   7.061   4.771   4.787  0.3873 -0.1387 -0.3637
 5776TIP3    H117292   6.989   4.754   4.728  1.5172 -0.4934 -1.6952
 5776TIP3    H217293   7.022   4.819   4.861 -1.1039  0.0389 -1.2449
 5777TIP3   OH217294   1.419   5.644   3.990 -0.4848  0.1222  0.1484
 5777TIP3    H117295   1.363   5.567   3.982 -0.4759  0.2484 -1.8919
 5777TIP3    H217296   1.357   5.718   3.989 -0.3841  0.2604 -2.0881
 5778TIP3   OH217297   6.713   1.607   3.336  0.7368 -0.0296  0.8292
 5778TIP3    H117298   6.705   1.656   3.418  0.3708  2.0503 -0.3694
 5778TIP3    H217299   6.631   1.624   3.290  0.1542 -2.6393  0.7229
 5779TIP3   OH217300   1.016   3.715   0.422 -0.2562 -0.4099 -0.1989
 5779TIP3    H117301   1.027   3.647   0.489  0.0021 -0.8659 -0.6922
 5779TIP3    H217302   0.923   3.739   0.426  0.0014  0.4513  1.1506
 5780TIP3   OH217303   3.014   1.594   5.116 -0.4064  0.4733 -0.2381
 5780TIP3    H117304   2.971   1.524   5.164 -2.0145  1.6578  0.1405
 5780TIP3    H217305   3.049   1.551   5.038  1.2653 -1.2693  1.3591
 5781TIP3   OH217306   1.431   5.466   4.708 -0.0656 -0.9228  0.5838
 5781TIP3    H117307   1.375   5.456   4.631  0.6383 -0.3523 -0.0203
 5781TIP3    H217308   1.375   5.442   4.782 -1.5716  1.0861  0.1637
 5782TIP3   OH217309   1.350   5.221   1.776  0.1088 -0.6910 -0.0884
 5782TIP3    H117310   1.350   5.151   1.841  1.6725  1.6736  2.7298
 5782TIP3    H217311   1.308   5.295   1.821 -0.3763  0.5601 -2.4628
 5783TIP3   OH217312   3.912   2.719   2.782 -0.0394 -0.2899 -0.0409
 5783TIP3    H117313   3.879   2.642   2.736 -0.5574 -1.2071  1.7951
 5783TIP3    H217314   3.971   2.684   2.848  2.1629  1.1207 -1.1374
 5784TIP3   OH217315   0.341   0.655   0.614  0.1047 -0.0882 -0.2889
 5784TIP3    H117316   0.431   0.652   0.646 -0.0561 -1.6247  0.0588
 5784TIP3    H217317   0.349   0.655   0.519  0.4743  0.1214 -0.2587
 5785TIP3   OH217318   2.214   5.182   1.458 -0.1221  0.7378  0.2293
 5785TIP3    H117319   2.300   5.202   1.494  0.8089 -1.0467 -0.9026
 5785TIP3    H217320   2.172   5.267   1.449  0.9719  1.5407  2.0707
 5786TIP3   OH217321   2.129   0.310   1.948 -0.7398 -0.4919 -0.3417
 5786TIP3    H117322   2.054   0.364   1.972 -0.3244  0.0369 -0.2215
 5786TIP3    H217323   2.152   0.263   2.028  0.2908  0.8424  0.1605
 5787TIP3   OH217324   1.793   6.767   0.719 -0.4547  0.5154  0.1736
 5787TIP3    H117325   1.762   6.814   0.797 -0.0316  1.5103 -0.2383
 5787TIP3    H217326   1.731   6.695   0.709  0.3243 -0.5492  2.2937
 5788TIP3   OH217327   2.071   3.024   1.019 -0.2398  0.4860 -0.1702
 5788TIP3    H117328   2.115   2.987   1.095  0.1453 -0.6582 -0.9253
 5788TIP3    H217329   2.087   2.961   0.949  0.4744  2.1044 -1.5394
 5789TIP3   OH217330   1.629   4.662   5.177  0.0835 -0.1407 -0.1510
 5789TIP3    H117331   1.602   4.713   5.253  1.8830  0.3791  0.1891
 5789TIP3    H217332   1.704   4.611   5.207 -0.6776 -1.7878 -0.9345
 5790TIP3   OH217333   2.537   5.413   5.374  0.8264  0.4273  0.3265
 5790TIP3    H117334   2.568   5.423   5.465 -1.9252  2.0454  1.2172
 5790TIP3    H217335   2.549   5.500   5.336 -0.9309  0.6521  0.2079
 5791TIP3   OH217336   3.541   5.522   0.953 -0.0295 -0.1163 -0.3793
 5791TIP3    H117337   3.604   5.461   0.991 -1.7913 -1.5568  0.3753
 5791TIP3    H217338   3.519   5.582   1.024 -1.2356 -1.1042  0.1411
 5792TIP3   OH217339   1.744   2.113   1.886  0.2749  0.6299 -0.0374
 5792TIP3    H117340   1.670   2.076   1.837  1.2283 -1.5061  0.0712
 5792TIP3    H217341   1.821   2.093   1.833  1.3991 -2.1393  2.4045
 5793TIP3   OH217342   3.362   4.363   4.695  0.1354 -0.2527  0.1676
 5793TIP3    H117343   3.311   4.288   4.724 -2.1495  0.7517 -1.0050
 5793TIP3    H217344   3.299   4.420   4.652  2.2862  1.0023 -1.5561
 5794TIP3   OH217345   6.331   4.280   0.922 -0.1696 -0.2393 -0.7907
 5794TIP3    H117346   6.386   4.326   0.859 -0.3923  0.2089 -0.6595
 5794TIP3    H217347   6.273   4.347   0.957 -0.9607 -0.7455 -1.0964
 5795TIP3   OH217348   2.547   1.236   2.811  0.3926  0.2372 -0.1801
 5795TIP3    H117349   2.476   1.244   2.875  0.6698 -1.0000  0.3093
 5795TIP3    H217350   2.547   1.320   2.764 -0.7865  0.5972  0.4301
 5796TIP3   OH217351   2.909   4.767   1.081  0.3523 -0.3339  0.1193
 5796TIP3    H117352   2.951   4.692   1.123 -1.8013 -1.6396  0.0883
 5796TIP3    H217353   2.849   4.728   1.018 -1.4057  1.3869  0.6457
 5797TIP3   OH217354   0.493   5.246   1.838  0.4072 -0.2889 -0.4205
 5797TIP3    H117355   0.529   5.177   1.781 -0.8221 -0.3947 -1.0944
 5797TIP3    H217356   0.399   5.240   1.826  0.2594  1.3504 -0.3003
 5798TIP3   OH217357   0.971   4.557   0.282  0.2267 -0.9188 -0.4986
 5798TIP3    H117358   1.054   4.602   0.295 -0.5716  0.4398  0.0866
 5798TIP3    H217359   0.927   4.605   0.213  0.4646 -2.4583 -1.7813
 5799TIP3   OH217360   5.220   6.669   1.360  1.0452 -0.1421 -0.4958
 5799TIP3    H117361   5.147   6.719   1.395  1.8334  1.9205 -1.6170
 5799TIP3    H217362   5.266   6.636   1.438  0.6318  1.1014  0.3053
 5800TIP3   OH217363   2.455   3.401   4.370 -0.0144  0.2987  0.3405
 5800TIP3    H117364   2.374   3.425   4.415 -1.3744 -0.5023 -1.5351
 5800TIP3    H217365   2.445   3.437   4.282  0.4140 -2.1018 -0.7828
 5801TIP3   OH217366   6.374   1.683   4.169  0.4944 -0.2444  0.2507
 5801TIP3    H117367   6.358   1.590   4.187 -0.6705 -0.0744  0.1627
 5801TIP3    H217368   6.457   1.684   4.122 -0.4427 -1.4774 -1.6086
 5802TIP3   OH217369   7.072   0.958   0.327  0.4741  0.0809  0.3506
 5802TIP3    H117370   7.063   0.863   0.317  1.7761  0.0852 -1.3665
 5802TIP3    H217371   7.076   0.972   0.422 -0.2179 -1.5046  0.6494
 5803TIP3   OH217372   2.644   6.574   2.897 -0.4740 -0.5264 -0.2724
 5803TIP3    H117373   2.576   6.639   2.914 -1.3627 -1.4229 -0.3178
 5803TIP3    H217374   2.726   6.623   2.902 -1.1455  0.6750 -0.7198
 5804TIP3   OH217375   5.114   3.005   4.704 -0.4567 -0.7105  0.0490
 5804TIP3    H117376   5.055   3.016   4.778 -2.1009  0.8158 -1.3840
 5804TIP3    H217377   5.196   3.048   4.731 -0.4502 -1.6042  1.5425
 5805TIP3   OH217378   1.706   4.116   3.570 -0.1649  0.3288  0.2794
 5805TIP3    H117379   1.747   4.033   3.595 -0.3302 -0.6870 -2.5272
 5805TIP3    H217380   1.618   4.092   3.541 -0.2872  1.5131 -0.3917
 5806TIP3   OH217381   1.868   2.238   0.431  0.4296 -0.6126  0.4705
 5806TIP3    H117382   1.799   2.290   0.473  0.2748 -1.0028  0.7032
 5806TIP3    H217383   1.950   2.272   0.468  0.4188  0.3204 -0.3170
 5807TIP3   OH217384   3.134   2.107   4.949  0.1575  0.8268 -0.1454
 5807TIP3    H117385   3.101   2.194   4.929  1.1330  2.5817  4.4395
 5807TIP3    H217386   3.098   2.087   5.035  2.4887 -1.8640  0.3740
 5808TIP3   OH217387   0.609   6.389   4.474  0.1561 -0.7271 -0.2120
 5808TIP3    H117388   0.637   6.337   4.399  0.4357  2.2715 -2.3379
 5808TIP3    H217389   0.666   6.466   4.474 -0.7756  0.0815  2.2263
 5809TIP3   OH217390   5.222   4.974   3.500 -0.4937 -0.2459 -0.3203
 5809TIP3    H117391   5.194   4.914   3.568  0.4281 -1.2722 -0.8138
 5809TIP3    H217392   5.141   5.012   3.467 -1.2499 -2.2794 -0.9601
 5810TIP3   OH217393   0.419   3.740   1.763 -0.3849  0.0510  0.4766
 5810TIP3    H117394   0.398   3.811   1.823 -0.4492  2.1383 -1.8475
 5810TIP3    H217395   0.513   3.726   1.775  0.0605  1.9493 -0.3630
 5811TIP3   OH217396   2.997   3.931   2.397  0.0589 -0.0113  0.1947
 5811TIP3    H117397   2.960   4.019   2.396  1.6167  0.6642 -0.6662
 5811TIP3    H217398   2.977   3.898   2.485 -0.9299  1.0177  0.3800
 5812TIP3   OH217399   4.280   2.910   4.888 -0.1653 -0.1646  0.0494
 5812TIP3    H117400   4.258   3.003   4.890 -0.1597 -0.1317 -0.9454
 5812TIP3    H217401   4.197   2.865   4.899 -0.1193 -0.0554  0.9398
 5813TIP3   OH217402   5.688   6.437   1.914  0.2205 -0.0935  0.5028
 5813TIP3    H117403   5.670   6.350   1.949  1.4607  0.0030  1.4752
 5813TIP3    H217404   5.643   6.439   1.830 -0.4915 -1.3802  0.8277
 5814TIP3   OH217405   3.067   0.114   2.077  0.5217 -0.3345  0.8661
 5814TIP3    H117406   3.029   0.077   2.156 -0.4223 -0.5055  0.3491
 5814TIP3    H217407   3.114   0.192   2.107  1.3586 -1.1564  1.7658
 5815TIP3   OH217408   3.981   0.635   0.931 -0.0102  0.6575 -0.1247
 5815TIP3    H117409   3.900   0.649   0.980 -0.3013  0.3285 -0.5119
 5815TIP3    H217410   3.953   0.610   0.843  0.5108  1.1772 -0.4505
 5816TIP3   OH217411   1.998   4.775   5.044 -0.0894 -0.2178  0.2480
 5816TIP3    H117412   1.937   4.773   4.970 -0.1219  0.8436  0.2227
 5816TIP3    H217413   1.945   4.748   5.120 -0.1495 -0.9468 -0.0510
 5817TIP3   OH217414   5.713   6.554   3.530 -0.3204  0.0241  0.8367
 5817TIP3    H117415   5.664   6.577   3.609 -1.5864 -1.4670  0.5383
 5817TIP3    H217416   5.678   6.612   3.462 -1.8837 -1.1503  0.5823
 5818TIP3   OH217417   6.712   1.161   4.896  0.2353 -0.6434 -0.0618
 5818TIP3    H117418   6.680   1.128   4.980  1.1882 -1.8965 -0.1519
 5818TIP3    H217419   6.640   1.147   4.835 -0.1260 -0.5941  0.3505
 5819TIP3   OH217420   6.573   1.199   1.463  0.4647  0.2089 -0.0081
 5819TIP3    H117421   6.511   1.269   1.481  0.4594  0.4992 -1.0788
 5819TIP3    H217422   6.532   1.120   1.497  0.3406  0.6651  0.9451
 5820TIP3   OH217423   7.104   2.308   4.659 -0.1099  0.2470  0.2827
 5820TIP3    H117424   7.140   2.275   4.742  1.5880  0.0093 -0.4998
 5820TIP3    H217425   7.149   2.391   4.645 -1.1905  0.8151  0.1134
 5821TIP3   OH217426   1.195   1.859   0.163  0.3999 -0.1554 -0.0989
 5821TIP3    H117427   1.270   1.812   0.126  0.7485 -1.8313  2.4869
 5821TIP3    H217428   1.234   1.923   0.223 -0.1766 -1.1131  1.3465
 5822TIP3   OH217429   4.608   0.760   4.338  0.3605 -0.0785  0.2475
 5822TIP3    H117430   4.614   0.835   4.397  0.6525 -0.9462  1.3350
 5822TIP3    H217431   4.577   0.688   4.393  0.0695 -0.7665 -0.7843
 5823TIP3   OH217432   0.768   4.254   3.782 -0.6178 -0.3165  0.6067
 5823TIP3    H117433   0.743   4.332   3.732 -0.0550 -0.3730  0.2353
 5823TIP3    H217434   0.691   4.235   3.836 -0.0594  1.7327  2.2724
 5824TIP3   OH217435   6.250   2.308   0.107  0.6582  0.1633 -0.0773
 5824TIP3    H117436   6.280   2.399   0.114 -1.8657  0.9658  1.6781
 5824TIP3    H217437   6.171   2.312   0.053  0.2278 -0.9144  0.4389
 5825TIP3   OH217438   3.453   0.422   2.014  0.2322  0.2029 -0.8795
 5825TIP3    H117439   3.400   0.469   1.950  0.0803  1.2045 -0.0332
 5825TIP3    H217440   3.464   0.335   1.976 -1.7010  0.0793 -1.2493
 5826TIP3   OH217441   1.829   1.660   4.302  0.2763 -0.4076  0.6696
 5826TIP3    H117442   1.782   1.602   4.362 -1.0751  3.1704  3.3608
 5826TIP3    H217443   1.894   1.704   4.357  0.5612  1.3998 -1.0111
 5827TIP3   OH217444   4.200   5.804   5.447  0.0244  0.1891  0.1468
 5827TIP3    H117445   4.191   5.792   5.541 -0.3662 -0.2091  0.0673
 5827TIP3    H217446   4.209   5.715   5.413  1.9474  0.4246 -0.0343
 5828TIP3   OH217447   1.207   6.564   5.301 -0.3429  0.0209 -0.0346
 5828TIP3    H117448   1.227   6.617   5.378 -1.6873  0.1789  0.2278
 5828TIP3    H217449   1.249   6.480   5.318 -1.0931 -0.1344  1.1504
 5829TIP3   OH217450   5.768   5.327   0.793 -0.2959  0.0278 -0.6917
 5829TIP3    H117451   5.802   5.367   0.873 -0.6607  0.1883 -0.6134
 5829TIP3    H217452   5.777   5.395   0.726 -0.9172  0.2441 -0.5583
 5830TIP3   OH217453   2.264   0.593   5.908  0.1033  0.6131 -0.8144
 5830TIP3    H117454   2.172   0.570   5.909 -0.6349  3.2285  0.0718
 5830TIP3    H217455   2.300   0.548   5.832 -0.9174 -3.6414  0.9215
 5831TIP3   OH217456   1.233   3.218   1.955  0.2954  0.1300  0.5433
 5831TIP3    H117457   1.316   3.225   1.908  0.1413  2.0720  0.4567
 5831TIP3    H217458   1.257   3.195   2.045  0.9706  0.9138  0.5733
 5832TIP3   OH217459   0.942   6.131   5.201  0.0606  0.0508 -0.6194
 5832TIP3    H117460   0.912   6.168   5.118 -0.3659  1.1945  0.0211
 5832TIP3    H217461   0.867   6.079   5.232 -0.5933  1.3628  0.0639
 5833TIP3   OH217462   2.942   2.803   4.243  0.2873 -0.3202 -0.2264
 5833TIP3    H117463   2.864   2.812   4.188 -0.7502 -2.0804  0.8606
 5833TIP3    H217464   2.913   2.834   4.329  1.3234  0.6302 -0.2064
 5834TIP3   OH217465   3.458   3.581   0.641 -0.6272 -0.3815 -0.0359
 5834TIP3    H117466   3.375   3.616   0.673  0.5125  1.0916  1.5475
 5834TIP3    H217467   3.443   3.488   0.630 -2.3562 -0.2211  0.6436
 5835TIP3   OH217468   4.895   2.909   3.221  0.1073  0.0807  0.2255
 5835TIP3    H117469   4.971   2.853   3.242  1.0018  1.4095  0.6597
 5835TIP3    H217470   4.909   2.934   3.130 -2.0737 -3.0383 -1.1658
 5836TIP3   OH217471   5.045   1.125   5.261 -0.5542 -0.2712  0.1938
 5836TIP3    H117472   5.114   1.150   5.200 -2.2221  0.9034 -1.2999
 5836TIP3    H217473   5.092   1.087   5.336  2.0315  3.9243  0.9971
 5837TIP3   OH217474   6.701   2.564   3.521 -0.2396  0.5179  0.8094
 5837TIP3    H117475   6.763   2.530   3.456  0.5416 -1.3020  2.3902
 5837TIP3    H217476   6.621   2.581   3.472  0.8379  0.8130 -0.9063
 5838TIP3   OH217477   5.825   0.732   1.273  0.2985  0.3965 -0.1082
 5838TIP3    H117478   5.740   0.702   1.240 -0.1053  0.7004  0.6308
 5838TIP3    H217479   5.889   0.684   1.221 -0.3242 -1.7030  0.9217
 5839TIP3   OH217480   6.107   3.899   2.773 -0.2485  0.3755  0.0827
 5839TIP3    H117481   6.053   3.835   2.818  0.0517  0.0826  0.0292
 5839TIP3    H217482   6.091   3.884   2.680  0.1236  0.1129  0.0601
 5840TIP3   OH217483   5.387   4.687   3.512 -0.3063 -0.3414 -0.0476
 5840TIP3    H117484   5.367   4.603   3.553 -0.5519 -0.1199  0.2971
 5840TIP3    H217485   5.305   4.737   3.517 -0.4472 -0.4374 -1.1455
 5841TIP3   OH217486   3.893   5.884   3.286 -0.7117 -0.6820  0.1215
 5841TIP3    H117487   3.914   5.812   3.346 -0.1838 -0.0896  0.6502
 5841TIP3    H217488   3.802   5.867   3.259 -0.6896 -1.3821  0.4642
 5842TIP3   OH217489   4.423   3.931   0.942  0.0067 -0.3973  0.0140
 5842TIP3    H117490   4.420   4.007   0.883 -1.5765  0.2073  0.8094
 5842TIP3    H217491   4.401   3.966   1.028  1.8854 -1.3345  0.9429
 5843TIP3   OH217492   3.311   2.057   2.467 -1.0762  0.2314  0.4401
 5843TIP3    H117493   3.221   2.069   2.437 -0.1846  1.9544 -1.7741
 5843TIP3    H217494   3.358   2.132   2.433  1.2800 -0.7293  1.3811
 5844TIP3   OH217495   3.863   2.040   3.639 -0.1995 -0.1865 -0.1217
 5844TIP3    H117496   3.795   2.004   3.583 -0.7281 -0.2948  0.5648
 5844TIP3    H217497   3.819   2.112   3.686 -0.1180 -0.8578  1.0171
 5845TIP3   OH217498   1.616   4.826   3.930 -0.8299 -0.5304 -0.3341
 5845TIP3    H117499   1.705   4.796   3.909 -1.0593 -0.9140 -0.7500
 5845TIP3    H217500   1.558   4.770   3.880 -1.2947  0.1315 -0.5605
 5846TIP3   OH217501   3.564   1.250   1.378  0.6813  0.1471 -0.1022
 5846TIP3    H117502   3.507   1.312   1.333  0.4490 -0.8378 -1.2013
 5846TIP3    H217503   3.554   1.168   1.329  0.7035 -0.8733  1.5223
 5847TIP3   OH217504   0.980   2.167   0.166 -0.0342 -0.0968 -0.2179
 5847TIP3    H117505   0.995   2.082   0.208  1.7087  0.4056  0.2506
 5847TIP3    H217506   0.887   2.183   0.178 -0.2480 -1.5848  0.3674
 5848TIP3   OH217507   1.955  -0.000   3.762 -0.4307  0.8087  0.5624
 5848TIP3    H117508   1.959  -0.055   3.683  1.0097 -0.4155  1.4288
 5848TIP3    H217509   2.021   0.067   3.749 -0.0442  0.4798  0.8003
 5849TIP3   OH217510   3.884   3.883   1.354 -0.0612  0.1012  0.1909
 5849TIP3    H117511   3.797   3.844   1.355  0.5567 -1.5019 -1.9481
 5849TIP3    H217512   3.916   3.868   1.265  1.7790  2.0984  0.4419
 5850TIP3   OH217513   7.130   6.132   3.240 -0.3598  0.3640  0.1370
 5850TIP3    H117514   7.103   6.056   3.188  3.4364  0.4983 -2.4014
 5850TIP3    H217515   7.187   6.094   3.308 -1.4344  0.6519  1.2205
 5851TIP3   OH217516   4.792   6.333   4.303  0.2142 -0.7625 -0.2455
 5851TIP3    H117517   4.825   6.288   4.381  1.3306 -0.4789 -0.5370
 5851TIP3    H217518   4.704   6.364   4.328  0.9472  0.2068  1.2557
 5852TIP3   OH217519   3.954   0.404   2.025 -0.4231  0.2258 -0.4046
 5852TIP3    H117520   3.966   0.420   2.119  0.3125 -2.1100 -0.0396
 5852TIP3    H217521   4.042   0.388   1.992 -0.7234  0.6104 -1.4230
 5853TIP3   OH217522   0.543   0.125   4.595  0.1937  0.1347  0.1086
 5853TIP3    H117523   0.605   0.124   4.522  1.6420 -1.0199  1.2719
 5853TIP3    H217524   0.593   0.088   4.669 -1.5690  0.1595  1.3729
 5854TIP3   OH217525   6.707   2.716   1.168 -0.1634 -0.0869  0.1214
 5854TIP3    H117526   6.677   2.740   1.255  0.3668  1.2558 -0.0374
 5854TIP3    H217527   6.803   2.715   1.175 -0.0103  1.9621 -0.8709
 5855TIP3   OH217528   5.585   5.274   2.337  0.3349  0.9001  0.2703
 5855TIP3    H117529   5.504   5.312   2.303  0.0180  1.4507  1.5668
 5855TIP3    H217530   5.555   5.207   2.398  0.8829  0.1717 -0.2448
 5856TIP3   OH217531   0.497   5.056   1.617  0.6723  0.6426  0.8106
 5856TIP3    H117532   0.462   4.976   1.658 -0.4670  0.3555 -0.6347
 5856TIP3    H217533   0.468   5.051   1.526  1.7340  2.0640  0.3554
 5857TIP3   OH217534   6.074   5.819   1.565 -0.3435  0.5328  0.0988
 5857TIP3    H117535   6.104   5.900   1.525  2.4240 -1.1660 -1.6397
 5857TIP3    H217536   6.047   5.764   1.492 -1.9069 -0.2626  1.2164
 5858TIP3   OH217537   3.576   2.764   3.094 -0.3257  0.1995  0.0681
 5858TIP3    H117538   3.621   2.818   3.029 -1.8132  0.4291 -0.8317
 5858TIP3    H217539   3.577   2.676   3.056 -1.3054  0.3574 -0.3565
 5859TIP3   OH217540   5.864   4.085   4.961  0.3148 -0.4396  0.4876
 5859TIP3    H117541   5.911   4.067   4.880  0.5141  0.0630  0.4872
 5859TIP3    H217542   5.853   4.180   4.962 -1.0229 -0.5777  0.3097
 5860TIP3   OH217543   4.182   2.494   4.948  0.3006  0.2012  0.2416
 5860TIP3    H117544   4.258   2.437   4.944 -0.0411 -0.4228  1.9538
 5860TIP3    H217545   4.200   2.562   4.882  2.6225  0.4510  1.0413
 5861TIP3   OH217546   6.978   4.353   5.029  0.4728  0.2543 -0.4573
 5861TIP3    H117547   7.055   4.404   5.003 -0.1419  1.5081  0.0936
 5861TIP3    H217548   6.910   4.418   5.045 -0.2130 -0.7046  0.7501
 5862TIP3   OH217549   2.002   2.131   3.699  0.1113 -0.2098 -0.0116
 5862TIP3    H117550   1.987   2.224   3.683 -0.2194 -0.1868  0.3920
 5862TIP3    H217551   1.916   2.090   3.686  0.7388 -0.8628 -2.7619
 5863TIP3   OH217552   5.809   5.487   0.569  0.2904 -0.3630 -0.3450
 5863TIP3    H117553   5.880   5.551   0.560 -0.8407  1.0446  0.2986
 5863TIP3    H217554   5.788   5.462   0.479  0.4764  0.5147 -0.6435
 5864TIP3   OH217555   4.923   2.684   4.541 -0.7628  0.3424  0.8152
 5864TIP3    H117556   4.888   2.757   4.489 -0.8797  1.3113  2.2017
 5864TIP3    H217557   4.913   2.607   4.484 -1.1260  1.3089 -0.4815
 5865TIP3   OH217558   7.195   6.652   5.697  0.2063 -0.2083  0.2311
 5865TIP3    H117559   7.174   6.738   5.660 -0.5026  0.0440  1.1579
 5865TIP3    H217560   7.111   6.606   5.701  0.0270  0.1748  2.4414
 5866TIP3   OH217561   4.666   3.928   0.392 -0.1090 -0.3091  0.3004
 5866TIP3    H117562   4.590   3.874   0.369 -0.5430  0.4118  0.0081
 5866TIP3    H217563   4.642   3.968   0.475 -0.2689  0.3258 -0.0483
 5867TIP3   OH217564   7.009   2.110   0.807 -0.2355  0.2611  0.3914
 5867TIP3    H117565   7.029   2.170   0.736  0.1297  0.5792  0.7563
 5867TIP3    H217566   6.986   2.027   0.764 -0.1454  0.4877 -0.0932
 5868TIP3   OH217567   1.666   5.099   0.298 -0.2490 -0.0660  0.6522
 5868TIP3    H117568   1.607   5.152   0.243 -1.8137 -1.9651  0.3793
 5868TIP3    H217569   1.745   5.089   0.245  0.3210  2.3797  0.9399
 5869TIP3   OH217570   3.049   1.434   4.652  0.4345 -0.0403  0.1304
 5869TIP3    H117571   3.060   1.524   4.620 -0.5071 -0.4254 -1.4054
 5869TIP3    H217572   2.961   1.410   4.624  0.1499 -0.9899  1.7343
 5870TIP3   OH217573   0.626   0.023   1.270 -0.1912  0.2072 -0.5972
 5870TIP3    H117574   0.543  -0.017   1.296  0.3409 -0.7835 -0.3608
 5870TIP3    H217575   0.628   0.106   1.316 -0.4877 -0.3280  0.4123
 5871TIP3   OH217576   2.559   4.017   1.134 -0.7750  0.5924 -0.1987
 5871TIP3    H117577   2.587   4.050   1.048 -1.1833 -0.9344 -0.9403
 5871TIP3    H217578   2.504   3.942   1.114  1.0193 -1.2619  1.4361
 5872TIP3   OH217579   4.800   1.357   3.158 -0.2027  0.2289 -0.4510
 5872TIP3    H117580   4.866   1.381   3.223 -1.7601  2.9805  0.2666
 5872TIP3    H217581   4.786   1.263   3.172  0.7334  0.3922  2.0690
 5873TIP3   OH217582   1.195   3.883   4.073  0.1177  0.2150  0.8406
 5873TIP3    H117583   1.162   3.902   3.986 -0.7793  0.5915  1.2555
 5873TIP3    H217584   1.178   3.789   4.086  0.4668  0.1068  0.5247
 5874TIP3   OH217585   4.809   5.856   3.695 -0.5541  0.0923  0.1904
 5874TIP3    H117586   4.765   5.827   3.775 -2.5656 -1.1939 -1.2748
 5874TIP3    H217587   4.814   5.951   3.703 -3.0311  0.2411  0.8117
 5875TIP3   OH217588   5.595   1.682   1.444 -0.1649  0.0463  0.4181
 5875TIP3    H117589   5.602   1.755   1.383 -1.4041 -0.2448 -0.1183
 5875TIP3    H217590   5.538   1.619   1.399 -0.6877 -0.3999  1.6596
 5876TIP3   OH217591   2.791   2.710   2.010  0.0773 -0.3943 -0.2657
 5876TIP3    H117592   2.820   2.619   2.007 -2.1804 -1.1511 -1.5137
 5876TIP3    H217593   2.713   2.713   1.954 -1.0721  1.8848  1.2846
 5877TIP3   OH217594   5.524   1.122   4.005 -0.2236 -0.2133  0.1488
 5877TIP3    H117595   5.540   1.056   3.937  0.8375 -0.8831  1.0014
 5877TIP3    H217596   5.570   1.088   4.082  1.5299  2.1368  0.2748
 5878TIP3   OH217597   0.152   2.210   4.397 -0.3507 -0.1451  0.1418
 5878TIP3    H117598   0.240   2.176   4.381  0.1711 -0.2657  2.7593
 5878TIP3    H217599   0.106   2.138   4.440 -0.5876  0.9875  1.8921
 5879TIP3   OH217600   2.387   2.804   4.853 -0.0741 -0.1711  0.0498
 5879TIP3    H117601   2.383   2.835   4.943 -0.5163  0.7403 -0.2620
 5879TIP3    H217602   2.296   2.783   4.831 -0.4198  2.0526 -0.9620
 5880TIP3   OH217603   5.884   5.018   2.650 -0.8132  0.8160  0.2437
 5880TIP3    H117604   5.971   5.058   2.642  0.1955 -1.4612 -0.8751
 5880TIP3    H217605   5.867   4.980   2.565 -2.7064  0.7389  0.6189
 5881TIP3   OH217606   4.255   6.013   3.917 -0.2872  0.2945  0.9721
 5881TIP3    H117607   4.273   6.033   3.825 -0.4809  1.7483  1.2253
 5881TIP3    H217608   4.339   6.025   3.961 -0.5483  1.2898  1.2322
 5882TIP3   OH217609   1.098   6.264   0.720 -0.3074  0.5175 -0.6922
 5882TIP3    H117610   1.046   6.323   0.773  0.8870 -0.2893  1.5286
 5882TIP3    H217611   1.081   6.177   0.756  2.1984  0.1790 -0.0871
 5883TIP3   OH217612   5.604   3.025   1.990  0.2698 -0.3905 -0.0104
 5883TIP3    H117613   5.687   3.059   2.025 -0.5795  1.1438  0.5772
 5883TIP3    H217614   5.561   2.986   2.066  0.2448 -0.7917 -0.2278
 5884TIP3   OH217615   4.682   1.585   5.828  0.8828  0.3701  0.2244
 5884TIP3    H117616   4.765   1.547   5.858  0.2550  0.1538  1.7589
 5884TIP3    H217617   4.672   1.665   5.880 -0.8796 -0.6950  1.6364
 5885TIP3   OH217618   3.801   3.081   1.591  0.2812  0.1810  0.0653
 5885TIP3    H117619   3.767   2.998   1.626  1.2037  0.0548  0.7055
 5885TIP3    H217620   3.893   3.083   1.619  0.3761  1.2454 -0.2761
 5886TIP3   OH217621   3.129   2.853   2.695  0.0948  0.2860 -0.4687
 5886TIP3    H117622   3.046   2.891   2.667  0.8500  0.7951 -2.1767
 5886TIP3    H217623   3.135   2.872   2.788 -3.0347 -2.3138  0.4511
 5887TIP3   OH217624   0.264   0.722   2.033  0.3074  0.5622  0.2012
 5887TIP3    H117625   0.291   0.801   1.985  1.0408 -0.0882 -0.4822
 5887TIP3    H217626   0.291   0.649   1.976 -1.3423 -0.1660  0.3029
 5888TIP3   OH217627   0.053   2.002   0.316 -0.0819 -0.0996 -0.1564
 5888TIP3    H117628  -0.038   1.972   0.320 -0.0462 -0.0999  1.6268
 5888TIP3    H217629   0.049   2.094   0.341  0.3037  0.2001 -1.1664
 5889TIP3   OH217630   1.482   4.482   4.783  0.2097  0.3520 -0.1859
 5889TIP3    H117631   1.457   4.572   4.761  0.4760  0.7558  1.0803
 5889TIP3    H217632   1.541   4.456   4.713 -1.1022  0.5811 -1.4248
 5890TIP3   OH217633   4.259   3.240   0.517  0.1831  0.0603  0.2089
 5890TIP3    H117634   4.175   3.217   0.476 -0.5760  0.6536  1.3564
 5890TIP3    H217635   4.279   3.165   0.574  0.0749  0.2217  0.4596
 5891TIP3   OH217636   5.824   1.759   3.373 -0.0136  0.2063 -0.6258
 5891TIP3    H117637   5.754   1.806   3.417  1.6493  2.6007 -0.3359
 5891TIP3    H217638   5.840   1.683   3.428 -2.6756 -0.7348 -1.0075
 5892TIP3   OH217639   3.584   6.665   1.321 -0.0269  0.1561  0.2643
 5892TIP3    H117640   3.667   6.630   1.354 -0.8503 -2.6324 -0.3379
 5892TIP3    H217641   3.592   6.657   1.225 -1.5631 -1.8294  0.2399
 5893TIP3   OH217642   0.273   5.686   5.459 -0.2071  0.1243  0.2404
 5893TIP3    H117643   0.326   5.730   5.525  0.7188  0.2002 -0.5341
 5893TIP3    H217644   0.184   5.720   5.473 -0.1815 -0.4150  1.9027
 5894TIP3   OH217645   6.023   1.691   5.155  0.2763  0.4289 -0.1386
 5894TIP3    H117646   5.946   1.702   5.211  0.5936  1.2195  0.1503
 5894TIP3    H217647   6.078   1.629   5.203  0.4147  0.8771  0.2843
 5895TIP3   OH217648   2.573   4.915   4.277  0.3841 -0.1779 -0.4864
 5895TIP3    H117649   2.502   4.854   4.296  0.9392 -1.0498 -1.1118
 5895TIP3    H217650   2.533   4.985   4.225 -0.1777 -0.2135 -0.1037
 5896TIP3   OH217651   1.198   4.960   2.856 -0.7309  0.0937  0.7242
 5896TIP3    H117652   1.201   4.948   2.951 -2.6115  0.1249  0.8222
 5896TIP3    H217653   1.282   4.928   2.825 -0.2395 -0.2855  2.3651
 5897TIP3   OH217654   4.266   4.289   0.591 -0.0022 -0.1210  0.0960
 5897TIP3    H117655   4.351   4.311   0.553  0.7123 -1.9941  0.5022
 5897TIP3    H217656   4.205   4.291   0.518  0.6866 -0.2457 -0.4859
 5898TIP3   OH217657   0.479   0.142   3.409  0.2053 -0.4734 -0.4329
 5898TIP3    H117658   0.500   0.079   3.340 -0.0596  0.3423 -1.2830
 5898TIP3    H217659   0.553   0.202   3.410 -0.5202  0.4637 -1.1433
 5899TIP3   OH217660   1.914   6.040   1.644  0.0336 -0.2524 -0.0829
 5899TIP3    H117661   1.925   6.074   1.733 -1.4474 -1.2627  0.5435
 5899TIP3    H217662   1.883   6.115   1.593 -0.7113 -0.0274  0.6645
 5900TIP3   OH217663   4.946   5.073   5.081  0.3157  0.3002 -0.1924
 5900TIP3    H117664   5.037   5.090   5.059 -0.3632  1.2503 -2.7228
 5900TIP3    H217665   4.921   4.999   5.025 -0.8097  1.0123 -0.6879
 5901TIP3   OH217666   2.141   5.857   3.684 -0.8083 -0.3087  0.2543
 5901TIP3    H117667   2.213   5.828   3.740 -1.2916 -1.3330  0.3544
 5901TIP3    H217668   2.185   5.895   3.608 -0.1562  0.6086  1.0631
 5902TIP3   OH217669   0.766   1.936   5.759  0.2775  0.0633  0.3971
 5902TIP3    H117670   0.826   1.911   5.689 -0.4843 -1.7297  0.3276
 5902TIP3    H217671   0.822   1.946   5.837  1.0717  1.6637 -0.3450
 5903TIP3   OH217672   3.784   1.038   5.120 -0.3735  0.1453 -0.1855
 5903TIP3    H117673   3.816   1.122   5.151 -1.1227  0.3785 -0.0094
 5903TIP3    H217674   3.704   1.059   5.070 -1.0192 -0.5204  0.5296
 5904TIP3   OH217675   3.771   5.171   1.887 -0.2675  0.2262 -0.3133
 5904TIP3    H117676   3.761   5.155   1.981 -0.4992  0.7339 -0.2488
 5904TIP3    H217677   3.865   5.185   1.875  0.1345 -2.1605 -0.5377
 5905TIP3   OH217678   4.234   3.030   1.914 -0.4500 -0.1938  0.3336
 5905TIP3    H117679   4.250   3.050   2.006  0.5361 -0.8528  0.3171
 5905TIP3    H217680   4.181   2.950   1.915 -2.0313  0.8092  0.3423
 5906TIP3   OH217681   1.769   2.626   0.724  0.9051 -0.2967 -0.0352
 5906TIP3    H117682   1.689   2.610   0.674  1.6455  0.4486 -1.5439
 5906TIP3    H217683   1.786   2.543   0.769 -0.4762 -0.5898 -0.0090
 5907TIP3   OH217684   5.731   3.673   2.606  0.3597  0.1454  0.5120
 5907TIP3    H117685   5.642   3.638   2.608 -0.0323  1.1396  1.4748
 5907TIP3    H217686   5.751   3.681   2.513 -1.0030  0.9332  0.2436
 5908TIP3   OH217687   6.649   5.292   1.772 -0.4503 -1.1024  0.1396
 5908TIP3    H117688   6.671   5.331   1.857 -0.8037 -0.1881 -0.1741
 5908TIP3    H217689   6.634   5.200   1.791 -1.6487 -0.7024  1.2823
 5909TIP3   OH217690   0.278   6.462   4.579  0.0380  0.1014  0.2699
 5909TIP3    H117691   0.340   6.461   4.651 -0.2933 -0.1523  0.5541
 5909TIP3    H217692   0.193   6.479   4.620 -0.5555 -2.4506  0.2640
 5910TIP3   OH217693   4.492   4.652   1.000  0.0733  0.1095  0.0747
 5910TIP3    H117694   4.510   4.687   1.088  0.9698 -0.3162  0.0786
 5910TIP3    H217695   4.444   4.722   0.955 -1.0725  0.0461  1.1385
 5911TIP3   OH217696   5.088   5.647   4.097  0.4304 -0.1060 -0.2406
 5911TIP3    H117697   5.131   5.659   4.012 -0.5449  0.3877 -0.6705
 5911TIP3    H217698   5.047   5.731   4.116 -2.7327 -1.2790 -1.1998
 5912TIP3   OH217699   3.150   6.164   0.659  0.2965 -0.1200  0.4077
 5912TIP3    H117700   3.188   6.200   0.579  1.9895 -0.6078  0.9669
 5912TIP3    H217701   3.057   6.189   0.654  1.1630  3.6316  0.3920
 5913TIP3   OH217702   2.048   6.272   3.042 -0.1576 -0.2026 -0.1141
 5913TIP3    H117703   2.002   6.356   3.047  1.4791  0.8173 -1.2467
 5913TIP3    H217704   2.102   6.270   3.121 -1.2592 -0.8791  0.6414
 5914TIP3   OH217705   3.237   0.614   3.108  0.6758 -0.8512 -0.6322
 5914TIP3    H117706   3.277   0.680   3.050 -1.3728  1.0156 -0.0484
 5914TIP3    H217707   3.280   0.628   3.192  0.9680 -0.9650 -0.7609
 5915TIP3   OH217708   5.574   4.167   1.440 -0.2738 -0.2596 -0.5810
 5915TIP3    H117709   5.590   4.074   1.426 -0.2493 -0.2104 -0.8773
 5915TIP3    H217710   5.635   4.192   1.509 -0.7774 -0.6278  0.0179
 5916TIP3   OH217711   4.006   1.989   2.939  0.1117  0.0597 -0.4203
 5916TIP3    H117712   4.065   1.989   2.864 -0.6330  1.7042 -1.0402
 5916TIP3    H217713   4.027   1.908   2.986  2.0655  0.0556 -1.2206
 5917TIP3   OH217714   5.251   2.175   5.578  0.2115 -0.6998 -0.2316
 5917TIP3    H117715   5.341   2.162   5.548 -0.0748 -3.3553 -0.1928
 5917TIP3    H217716   5.197   2.136   5.509 -0.7755 -0.9467  0.6487
 5918TIP3   OH217717   0.271   1.387   2.618 -0.1770 -0.1459 -0.1178
 5918TIP3    H117718   0.355   1.405   2.575 -0.3882  0.8536 -0.1469
 5918TIP3    H217719   0.237   1.310   2.572  1.4905 -1.6576  1.0437
 5919TIP3   OH217720   5.194   2.764   0.385 -0.0033 -0.6229  0.3674
 5919TIP3    H117721   5.173   2.817   0.462 -1.2035 -1.0729  0.3652
 5919TIP3    H217722   5.140   2.801   0.315 -0.1722 -1.2714  0.1506
 5920TIP3   OH217723   1.337   6.468   3.098 -0.2549  0.2427 -0.1562
 5920TIP3    H117724   1.295   6.521   3.031 -1.2010  0.7086  0.7823
 5920TIP3    H217725   1.331   6.520   3.178  0.8128 -0.3213  0.3188
 5921TIP3   OH217726   0.051   0.391   3.212 -0.5855 -0.2851  0.8542
 5921TIP3    H117727   0.110   0.320   3.238 -0.0187 -0.5094 -0.9419
 5921TIP3    H217728   0.039   0.442   3.292  0.9236 -1.0187  1.5905
 5922TIP3   OH217729   0.794   5.901   2.341  0.3477  0.2078  0.3470
 5922TIP3    H117730   0.802   5.957   2.264  0.5813 -0.0970  0.1483
 5922TIP3    H217731   0.839   5.950   2.410 -2.7130  2.0783  1.2050
 5923TIP3   OH217732   6.521   0.429   3.065  0.5130 -0.5283  0.1997
 5923TIP3    H117733   6.458   0.359   3.080  0.0378  0.0911  1.1712
 5923TIP3    H217734   6.507   0.491   3.137  1.3841  0.2348 -0.2564
 5924TIP3   OH217735   1.312   0.620   4.368  0.1952  0.6645 -0.3137
 5924TIP3    H117736   1.404   0.603   4.350  0.4447  2.5385 -0.9784
 5924TIP3    H217737   1.300   0.713   4.349 -1.6290  0.6723  0.6347
 5925TIP3   OH217738   5.974   4.209   1.763 -0.4595  0.6706 -0.3501
 5925TIP3    H117739   5.886   4.214   1.800  0.0588  1.9321  0.8173
 5925TIP3    H217740   6.022   4.280   1.806  1.1156  0.0453 -0.9926
 5926TIP3   OH217741   2.247   3.026   0.477 -0.3355 -0.1930 -0.0936
 5926TIP3    H117742   2.304   3.081   0.424 -0.4691  1.4463  1.3735
 5926TIP3    H217743   2.277   2.937   0.460  1.1588  0.4565 -1.0840
 5927TIP3   OH217744   7.079   5.855   2.622 -0.8868  0.0818 -0.1185
 5927TIP3    H117745   7.087   5.950   2.612  0.7582 -0.2081 -2.5911
 5927TIP3    H217746   7.005   5.832   2.566 -0.1079 -0.2479 -1.0356
 5928TIP3   OH217747   4.657   1.713   3.808 -0.2852 -0.3185 -0.6006
 5928TIP3    H117748   4.705   1.635   3.783  0.2334  0.1548 -1.1009
 5928TIP3    H217749   4.670   1.720   3.903 -0.7295 -1.0890 -0.4694
 5929TIP3   OH217750   1.455   4.053   3.516  0.1132  0.2707  0.5118
 5929TIP3    H117751   1.411   4.135   3.497  2.7946  1.9728  1.1520
 5929TIP3    H217752   1.425   4.029   3.604  1.0447  1.8539  1.3016
 5930TIP3   OH217753   6.911   6.090   0.049  0.4187  0.0827  0.1636
 5930TIP3    H117754   6.882   6.097   0.140 -0.2225  0.6131 -0.0752
 5930TIP3    H217755   6.976   6.019   0.050  1.3875  0.9420  1.2648
 5931TIP3   OH217756   3.645   6.148   4.827 -0.4695 -0.1332  0.6382
 5931TIP3    H117757   3.591   6.070   4.815 -0.8121  0.2514 -0.5563
 5931TIP3    H217758   3.732   6.122   4.798 -0.8140  0.1791 -0.7990
 5932TIP3   OH217759   0.483   6.786   5.269 -0.7357  0.2668  0.0228
 5932TIP3    H117760   0.441   6.731   5.203 -1.7696  1.0608 -0.0108
 5932TIP3    H217761   0.413   6.842   5.302  0.5205  2.6255 -1.0389
 5933TIP3   OH217762   5.397   5.656   5.443 -0.1586 -0.8049 -0.2113
 5933TIP3    H117763   5.376   5.579   5.496  1.2239 -0.4804  0.8609
 5933TIP3    H217764   5.483   5.684   5.474 -0.0619  0.4147 -1.4795
 5934TIP3   OH217765   4.892   1.079   1.555 -0.6629  0.2575  0.1856
 5934TIP3    H117766   4.902   1.127   1.473  0.8320 -0.8358 -0.3022
 5934TIP3    H217767   4.927   0.992   1.537 -0.3962 -0.0351  1.9614
 5935TIP3   OH217768   3.992   3.339   0.049 -0.4248 -0.0824 -0.3124
 5935TIP3    H117769   4.069   3.286   0.067  0.0335  0.7541  0.2844
 5935TIP3    H217770   4.016   3.392  -0.027 -0.1558  0.6227  0.2439
 5936TIP3   OH217771   4.056   3.242   2.073  0.3968  0.2755 -0.3307
 5936TIP3    H117772   4.150   3.236   2.057  0.1453  1.0136 -2.4576
 5936TIP3    H217773   4.017   3.181   2.011 -0.5801  0.9646 -0.4198
 5937TIP3   OH217774   1.874   4.583   5.285  0.0462 -0.5837 -0.1962
 5937TIP3    H117775   1.897   4.670   5.318  1.8412 -1.3923  0.7879
 5937TIP3    H217776   1.896   4.523   5.356 -0.5382 -1.9366 -1.1010
 5938TIP3   OH217777   5.412   5.778   0.168  0.6859 -0.2913  0.3259
 5938TIP3    H117778   5.425   5.820   0.083  1.5203 -2.1387 -0.5196
 5938TIP3    H217779   5.365   5.843   0.220 -0.6090  0.5807 -1.8070
 5939TIP3   OH217780   6.315   5.463   5.636 -0.0505 -0.1369  0.5628
 5939TIP3    H117781   6.363   5.453   5.554 -1.1909 -0.6914 -0.0645
 5939TIP3    H217782   6.364   5.530   5.685 -0.9275  2.3424 -1.7380
 5940TIP3   OH217783   0.756   0.140   5.411 -0.0012 -0.2128  0.0775
 5940TIP3    H117784   0.677   0.158   5.360  0.5426  1.3113 -0.2916
 5940TIP3    H217785   0.760   0.045   5.417 -1.3943 -0.3368 -0.6460
 5941TIP3   OH217786   6.782   0.307   3.260  0.7907 -0.9264  0.3411
 5941TIP3    H117787   6.819   0.390   3.230  2.0628 -2.1798 -1.7957
 5941TIP3    H217788   6.694   0.330   3.289  1.5901  1.3841  1.2175
 5942TIP3   OH217789   1.861   5.343   2.223  0.5160 -0.4698  0.7004
 5942TIP3    H117790   1.910   5.426   2.227  0.3510 -0.3343  0.1099
 5942TIP3    H217791   1.818   5.345   2.137  1.3559 -1.6337  0.2205
 5943TIP3   OH217792   5.738   1.932   2.087  0.1016 -0.4828 -0.0162
 5943TIP3    H117793   5.684   2.011   2.082  0.0856 -0.5600 -3.2059
 5943TIP3    H217794   5.828   1.965   2.090  0.0414 -0.3756  0.9724
 5944TIP3   OH217795   1.300   1.567   2.891 -0.2053 -0.1473 -0.2084
 5944TIP3    H117796   1.242   1.640   2.868  0.4910  0.2462 -0.7229
 5944TIP3    H217797   1.364   1.605   2.951  1.5249  0.2328 -2.2059
 5945TIP3   OH217798   4.727   1.680   1.052 -0.2738  0.1460 -0.0364
 5945TIP3    H117799   4.659   1.720   0.997  0.0640 -0.4992 -0.9446
 5945TIP3    H217800   4.808   1.699   1.006  0.1447  0.6161  0.8688
 5946TIP3   OH217801   1.466   5.663   3.226 -0.0309 -0.0670  0.1464
 5946TIP3    H117802   1.507   5.741   3.187 -0.6160 -1.8775 -4.7726
 5946TIP3    H217803   1.540   5.610   3.256  0.6661  0.5390 -0.4523
 5947TIP3   OH217804   0.974   3.211   3.320  0.1007 -0.1024  0.4539
 5947TIP3    H117805   1.062   3.224   3.355  0.0001 -0.4024  0.8168
 5947TIP3    H217806   0.967   3.117   3.306  0.1244 -0.0001 -0.3385
 5948TIP3   OH217807   0.405   5.209   0.733 -0.2229 -0.0618  0.0250
 5948TIP3    H117808   0.408   5.143   0.663 -0.3170 -0.1056  0.0619
 5948TIP3    H217809   0.319   5.197   0.773 -0.1808 -0.0161  0.1289
 5949TIP3   OH217810   3.189   0.395   5.156  0.6335  0.2453  0.0061
 5949TIP3    H117811   3.147   0.314   5.184 -0.7862  1.4152  1.5174
 5949TIP3    H217812   3.174   0.399   5.061  0.0475 -0.8743  0.0385
 5950TIP3   OH217813   1.200   5.409   1.892 -0.1076  0.1384 -0.3132
 5950TIP3    H117814   1.214   5.482   1.952 -1.0293  0.2192 -0.1938
 5950TIP3    H217815   1.153   5.343   1.943  0.6869 -0.5493 -0.4268
 5951TIP3   OH217816   2.039   5.161   0.033 -0.1897 -0.2567 -0.1149
 5951TIP3    H117817   2.106   5.098   0.008  1.0012  0.6965  0.5402
 5951TIP3    H217818   2.043   5.228  -0.035 -0.2562 -0.0415  0.0921
 5952TIP3   OH217819   0.941   6.517   2.194 -0.2727  0.5154 -0.1230
 5952TIP3    H117820   0.991   6.587   2.236 -0.9190 -0.2847  2.1505
 5952TIP3    H217821   1.003   6.445   2.186  0.2257  1.0754 -1.9192
 5953TIP3   OH217822   4.832   2.860   3.665 -0.2072 -0.4643 -0.5482
 5953TIP3    H117823   4.829   2.847   3.760  2.9904  1.3392 -0.0319
 5953TIP3    H217824   4.904   2.803   3.636  0.4258  0.7637 -1.4705
 5954TIP3   OH217825   6.349   2.140   2.772  0.4950 -0.2229  0.2185
 5954TIP3    H117826   6.366   2.135   2.866  2.1591  1.9065  0.1141
 5954TIP3    H217827   6.390   2.062   2.736  0.3328 -0.7735  1.2037
 5955TIP3   OH217828   2.606   3.780   0.653 -0.0556 -0.0044 -0.0601
 5955TIP3    H117829   2.570   3.760   0.566 -0.1565  3.0060 -0.8287
 5955TIP3    H217830   2.529   3.798   0.707 -0.0109 -2.1929  0.8299
 5956TIP3   OH217831   6.863   4.144   0.218  0.2956  0.2416  0.3067
 5956TIP3    H117832   6.879   4.061   0.263  1.4914  0.5299  0.4613
 5956TIP3    H217833   6.826   4.201   0.284 -0.2965 -0.0898  0.2653
 5957TIP3   OH217834   0.964   4.807   0.431 -0.2720 -0.6969  0.3959
 5957TIP3    H117835   0.869   4.819   0.435 -0.0850  1.6524 -0.3526
 5957TIP3    H217836   0.977   4.712   0.429 -2.5329 -1.0947  1.4692
 5958TIP3   OH217837   5.333   5.156   3.979  0.3121  0.5231  0.0983
 5958TIP3    H117838   5.306   5.139   3.889 -1.8164  0.2052  0.7387
 5958TIP3    H217839   5.338   5.070   4.020  0.7957  0.6975  0.4153
 5959TIP3   OH217840   1.148   6.263   5.320 -0.0271 -0.5287 -0.0856
 5959TIP3    H117841   1.087   6.320   5.366 -0.0712 -0.4734 -0.2099
 5959TIP3    H217842   1.093   6.213   5.260 -0.1253 -1.4704  0.7758
 5960TIP3   OH217843   3.658   5.754   4.292 -0.3539 -0.2300  0.3952
 5960TIP3    H117844   3.745   5.793   4.285  0.4268 -2.0328 -0.5357
 5960TIP3    H217845   3.640   5.754   4.386 -0.1468  1.7582  0.4806
 5961TIP3   OH217846   3.335  -0.007   2.765 -0.0027 -0.2013 -0.3952
 5961TIP3    H117847   3.410   0.052   2.762  0.6335 -1.0182 -0.9531
 5961TIP3    H217848   3.336  -0.043   2.854  0.5300 -0.5320 -0.5313
 5962TIP3   OH217849   6.672   1.444   3.676  0.3703  0.3610 -0.5156
 5962TIP3    H117850   6.650   1.358   3.711  2.5896  0.1923  0.6643
 5962TIP3    H217851   6.595   1.470   3.625 -0.5609 -2.0658 -0.4760
 5963TIP3   OH217852   4.756   1.140   2.942 -0.3506 -0.2459  0.1106
 5963TIP3    H117853   4.835   1.157   2.892 -0.2513 -1.4343 -0.1819
 5963TIP3    H217854   4.704   1.220   2.934  1.1327  0.8435  0.9546
 5964TIP3   OH217855   2.177   6.737   5.829 -0.1586  0.0700  0.1747
 5964TIP3    H117856   2.179   6.677   5.904 -0.6530 -0.2420 -0.0469
 5964TIP3    H217857   2.174   6.679   5.753 -0.8404  0.3675 -0.0386
 5965TIP3   OH217858   0.535   3.569   4.978 -0.2691 -0.0601  0.1186
 5965TIP3    H117859   0.548   3.663   4.990 -0.8893 -0.1509  1.8525
 5965TIP3    H217860   0.444   3.554   5.004 -0.5100 -0.9903 -1.1859
 5966TIP3   OH217861   4.851   2.138   2.927 -0.4169  0.1253  0.5469
 5966TIP3    H117862   4.898   2.074   2.873 -1.2237  1.0267 -1.3461
 5966TIP3    H217863   4.774   2.090   2.958 -0.9998  0.1119 -0.8312
 5967TIP3   OH217864   4.811   5.963   2.750 -0.2995 -0.2890 -0.4351
 5967TIP3    H117865   4.805   5.928   2.661 -2.0454  0.2292 -0.5466
 5967TIP3    H217866   4.730   6.011   2.763  0.9616  1.6913  0.6036
 5968TIP3   OH217867   0.034   2.533   3.834 -0.5551 -0.1057 -0.1468
 5968TIP3    H117868   0.022   2.494   3.747 -1.9093 -0.4813  0.1831
 5968TIP3    H217869   0.034   2.627   3.819  0.9062 -0.1678 -0.7330
 5969TIP3   OH217870   5.173   1.657   3.481 -0.0027 -0.2000 -0.5787
 5969TIP3    H117871   5.104   1.710   3.521  0.3554  0.8500 -1.2940
 5969TIP3    H217872   5.252   1.711   3.492  0.7906 -1.5323  0.5450
 5970TIP3   OH217873   3.462   3.468   3.088  0.2392  0.5715 -0.0386
 5970TIP3    H117874   3.553   3.498   3.083  0.5893 -0.4378 -0.0448
 5970TIP3    H217875   3.442   3.468   3.181  0.6677 -0.3569  0.0688
 5971TIP3   OH217876   1.742   5.736   5.571  0.5794  0.3827  0.0211
 5971TIP3    H117877   1.679   5.696   5.631  0.0541  1.0868 -0.0490
 5971TIP3    H217878   1.765   5.819   5.612  0.0922  0.9465 -0.8131
 5972TIP3   OH217879   1.000   4.000   0.991 -0.4362  0.0754  0.5722
 5972TIP3    H117880   0.948   4.055   1.049 -1.0854  2.0191 -1.6607
 5972TIP3    H217881   0.938   3.971   0.924  0.9526  1.3751 -1.4316
 5973TIP3   OH217882   5.192   5.016   4.880 -0.5036 -0.2134 -0.2777
 5973TIP3    H117883   5.253   4.982   4.815 -1.1561  0.6655 -1.3951
 5973TIP3    H217884   5.247   5.038   4.956  0.2986 -1.0587 -0.5933
 5974TIP3   OH217885   5.208   0.106   0.795  0.2738 -0.1944 -0.1088
 5974TIP3    H117886   5.159   0.183   0.826 -0.2983  0.1334 -1.7268
 5974TIP3    H217887   5.284   0.144   0.750 -0.3259 -0.5355 -1.4367
 5975TIP3   OH217888   4.399   3.132   1.143  0.0642  0.1329 -0.1670
 5975TIP3    H117889   4.414   3.132   1.048  0.8388 -1.7402 -0.0887
 5975TIP3    H217890   4.306   3.153   1.153 -0.0024  0.4406 -1.3280
 5976TIP3   OH217891   6.449   3.622   0.716  0.1031 -0.2265  0.1379
 5976TIP3    H117892   6.519   3.564   0.686  1.3418  0.1254  2.1693
 5976TIP3    H217893   6.418   3.581   0.797  1.3467  2.0799  1.9035
 5977TIP3   OH217894   2.646   2.221   5.633 -0.0719  0.1234  0.0842
 5977TIP3    H117895   2.681   2.310   5.622  1.0279 -0.4458 -1.4474
 5977TIP3    H217896   2.713   2.164   5.595 -1.5890 -1.2130 -0.7178
 5978TIP3   OH217897   0.575   5.941   4.473  0.1598 -0.7572  0.4381
 5978TIP3    H117898   0.622   5.931   4.556 -1.0171  0.0172  1.2434
 5978TIP3    H217899   0.535   6.028   4.479  1.4141  0.0355 -1.6742
 5979TIP3   OH217900   5.179   4.460   4.527 -0.0752 -0.1460 -0.4013
 5979TIP3    H117901   5.258   4.491   4.483 -2.0042  4.6615 -1.0914
 5979TIP3    H217902   5.210   4.429   4.612  2.5337  4.1821  0.5359
 5980TIP3   OH217903   3.370   0.287   0.917  0.3197  0.0477  0.4736
 5980TIP3    H117904   3.411   0.208   0.951 -0.1651  0.6832  2.7283
 5980TIP3    H217905   3.281   0.260   0.893  0.5954 -0.3715 -0.0812
 5981TIP3   OH217906   4.440   6.156   3.315 -0.3596  0.0214  0.3462
 5981TIP3    H117907   4.443   6.132   3.407  0.5797 -2.5150 -0.2647
 5981TIP3    H217908   4.459   6.250   3.314  2.6063 -0.4337  2.5347
 5982TIP3   OH217909   2.695   3.519   3.961  0.3980  0.3715 -0.1003
 5982TIP3    H117910   2.764   3.578   3.993  0.1789  1.9076 -2.2208
 5982TIP3    H217911   2.615   3.572   3.965 -0.0186 -0.1719 -0.9208
 5983TIP3   OH217912   0.010   6.772   2.812 -0.2421 -0.3122 -0.0283
 5983TIP3    H117913   0.037   6.709   2.879  2.6726  1.9282  1.1098
 5983TIP3    H217914  -0.020   6.848   2.861 -1.4677  0.0943 -1.3546
 5984TIP3   OH217915   5.109   6.090   0.488  0.4684  0.7852 -0.3874
 5984TIP3    H117916   5.194   6.123   0.515  0.3838 -0.8256  2.1528
 5984TIP3    H217917   5.047   6.127   0.551 -0.0287 -1.5591  0.6170
 5985TIP3   OH217918   2.410   5.288   0.628  0.3489 -0.6144 -0.2333
 5985TIP3    H117919   2.465   5.211   0.642 -0.1500 -1.0073 -0.4082
 5985TIP3    H217920   2.409   5.300   0.533  2.6058  1.2229 -0.1173
 5986TIP3   OH217921   0.627   3.468   4.382  0.2722  0.5733  0.2195
 5986TIP3    H117922   0.714   3.459   4.344  0.7530  0.3999  1.3311
 5986TIP3    H217923   0.567   3.442   4.312  1.1669 -0.4357 -0.1916
 5987TIP3   OH217924   6.889   5.632   4.414 -0.2286  0.1036 -0.2058
 5987TIP3    H117925   6.965   5.670   4.369  0.4199 -1.4798 -0.5462
 5987TIP3    H217926   6.892   5.539   4.390 -0.9702 -0.4324  1.5969
 5988TIP3   OH217927   4.862   0.306   5.692  0.5143  0.2326 -0.5725
 5988TIP3    H117928   4.857   0.392   5.650  1.7910  0.2858 -0.6520
 5988TIP3    H217929   4.845   0.244   5.622  0.8478  0.3765 -0.7806
 5989TIP3   OH217930   3.906   2.660   0.497  0.1468  0.6248  0.0228
 5989TIP3    H117931   3.939   2.602   0.566  0.5430  1.0315  0.1807
 5989TIP3    H217932   3.811   2.652   0.502  0.2097 -0.5909 -0.4564
 5990TIP3   OH217933   5.440   5.904   4.149  0.4151  0.2313  0.3117
 5990TIP3    H117934   5.356   5.951   4.142  0.5452  0.6706  1.4972
 5990TIP3    H217935   5.430   5.848   4.225  0.3150 -1.6382 -1.0244
 5991TIP3   OH217936   1.910   0.881   2.409 -0.2887 -0.1400 -0.1745
 5991TIP3    H117937   1.963   0.819   2.460 -0.9233  0.1613  0.8829
 5991TIP3    H217938   1.961   0.962   2.409  0.6490 -0.6769 -1.7488
 5992TIP3   OH217939   6.587   3.148   5.658 -0.0585  0.3084  0.1206
 5992TIP3    H117940   6.568   3.234   5.695  2.3965  0.3504  1.5397
 5992TIP3    H217941   6.630   3.167   5.575  1.1758  0.5342  0.7835
 5993TIP3   OH217942   1.076   6.573   1.050  0.0877 -0.2353 -0.3263
 5993TIP3    H117943   1.062   6.491   1.001 -1.6586 -0.5048  0.5472
 5993TIP3    H217944   1.119   6.631   0.987  2.8894 -2.2944 -0.4987
 5994TIP3   OH217945   1.293   3.053   4.260  0.0633  0.0499  0.4770
 5994TIP3    H117946   1.278   2.960   4.275 -1.1186  0.2291  0.5463
 5994TIP3    H217947   1.377   3.072   4.301 -1.0058 -0.3995  3.0630
 5995TIP3   OH217948   2.197   0.404   0.070 -0.2417 -0.8085  0.4746
 5995TIP3    H117949   2.170   0.486   0.112 -1.3323 -1.2780  0.7177
 5995TIP3    H217950   2.149   0.402  -0.013 -0.8130 -1.5478  0.8100
 5996TIP3   OH217951   5.700   3.566   4.809  0.5813  0.5799  0.3973
 5996TIP3    H117952   5.650   3.558   4.890 -0.9591  1.6991 -0.4108
 5996TIP3    H217953   5.645   3.524   4.743  1.3126  0.6810 -0.2863
 5997TIP3   OH217954   5.454   3.598   0.460 -1.3058 -0.2572  0.3707
 5997TIP3    H117955   5.477   3.673   0.406 -1.9277  2.0713  3.1204
 5997TIP3    H217956   5.359   3.591   0.454 -1.1865 -1.3810 -0.4991
 5998TIP3   OH217957   2.281   5.478   2.204 -0.5150 -0.6680  0.1294
 5998TIP3    H117958   2.261   5.571   2.219  1.1832 -0.3062  0.4777
 5998TIP3    H217959   2.254   5.462   2.114  0.1024  0.4760 -0.2876
 5999TIP3   OH217960   6.538   0.106   2.602  0.5772 -0.3959  0.5282
 5999TIP3    H117961   6.555   0.141   2.515 -1.2116  1.6208  0.8872
 5999TIP3    H217962   6.618   0.059   2.626  1.8551  0.6774 -1.4016
 6000TIP3   OH217963   5.522   3.393   3.959  0.0076 -0.1541 -0.2548
 6000TIP3    H117964   5.443   3.357   3.999  0.1426 -0.0858  0.0751
 6000TIP3    H217965   5.593   3.339   3.993  0.2239  0.4841  0.3169
 6001TIP3   OH217966   2.407   3.569   0.889  0.0445  0.6416  0.2278
 6001TIP3    H117967   2.358   3.582   0.970  1.9438 -1.1098  1.7553
 6001TIP3    H217968   2.444   3.654   0.869 -0.5382  1.1204  1.1246
 6002TIP3   OH217969   0.023   0.440   2.946  0.1737 -0.2799 -0.4272
 6002TIP3    H117970   0.042   0.423   3.038  2.9504 -1.0154 -1.0292
 6002TIP3    H217971   0.022   0.535   2.939  1.2094 -0.2064  0.1830
 6003TIP3   OH217972   5.847   2.554   0.633 -0.2997 -0.1569 -0.0517
 6003TIP3    H117973   5.887   2.467   0.624  0.3950  0.1742 -0.2458
 6003TIP3    H217974   5.797   2.566   0.552  1.5395  0.5841 -1.1519
 6004TIP3   OH217975   5.977   4.021   2.335 -0.2843  0.1238 -0.4875
 6004TIP3    H117976   5.995   4.012   2.429  0.6280 -1.1359 -0.7581
 6004TIP3    H217977   5.951   4.113   2.325  0.9698  0.6726  0.7968
 6005TIP3   OH217978   2.740   4.989   5.503 -0.0429 -0.2403 -0.2426
 6005TIP3    H117979   2.781   5.054   5.445 -1.3291  0.4677 -0.3847
 6005TIP3    H217980   2.814   4.951   5.551  0.6194  3.5516  2.1966
 6006TIP3   OH217981   5.291   6.352   3.926 -0.3226 -0.0850 -0.5923
 6006TIP3    H117982   5.248   6.435   3.906  2.0374  1.2935 -0.2429
 6006TIP3    H217983   5.380   6.375   3.950  0.8426 -2.8311 -1.7563
 6007TIP3   OH217984   4.119   1.543   1.200  0.5606 -0.3337 -0.3944
 6007TIP3    H117985   4.096   1.532   1.108 -1.4019 -1.2081  0.1574
 6007TIP3    H217986   4.154   1.459   1.227  0.0526 -0.4361 -0.0521
 6008TIP3   OH217987   2.432   6.449   4.229  0.2009  0.8367  0.4974
 6008TIP3    H117988   2.468   6.404   4.153 -0.6000 -0.8558  1.0711
 6008TIP3    H217989   2.510   6.481   4.276  0.7580  0.8309 -0.4012
 6009TIP3   OH217990   0.926   5.360   0.775  0.1437 -0.4433  0.2032
 6009TIP3    H117991   0.884   5.445   0.759 -1.7216 -1.1507  1.1337
 6009TIP3    H217992   0.857   5.296   0.761  0.6894 -1.6181  2.5192
 6010TIP3   OH217993   0.066   0.248   4.733 -0.3273 -0.0065  0.2781
 6010TIP3    H117994   0.061   0.202   4.649  0.7924  0.7735 -0.2379
 6010TIP3    H217995   0.152   0.290   4.732 -0.0306 -0.4970  2.0995
 6011TIP3   OH217996   3.152   5.062   4.705 -0.2114 -0.2381 -0.3736
 6011TIP3    H117997   3.196   5.045   4.789 -1.1130  0.3936  0.2495
 6011TIP3    H217998   3.223   5.069   4.642  0.5505  0.2752  0.5145
 6012TIP3   OH217999   5.881   4.088   3.794 -0.0981  0.6414 -0.3317
 6012TIP3    H118000   5.891   4.031   3.718 -0.7806  0.3703 -0.2286
 6012TIP3    H218001   5.786   4.095   3.806  0.0001  0.4154  0.6818
 6013TIP3   OH218002   1.973   0.186   0.684  0.5551 -0.5831 -0.1117
 6013TIP3    H118003   2.036   0.254   0.659 -0.9039  0.9352  0.1106
 6013TIP3    H218004   1.987   0.115   0.622 -0.2884  1.4266 -2.7814
 6014TIP3   OH218005   0.603   6.468   3.545 -0.3852 -0.0863  0.1743
 6014TIP3    H118006   0.569   6.414   3.474 -1.0601 -0.4026  0.7241
 6014TIP3    H218007   0.683   6.507   3.509 -2.0518  1.8845 -1.7073
 6015TIP3   OH218008   3.301   4.653   3.590  0.3587  0.0207  0.2601
 6015TIP3    H118009   3.371   4.660   3.525  0.5688 -1.4066  0.3057
 6015TIP3    H218010   3.340   4.682   3.672  1.0228 -1.1170  0.3617
 6016TIP3   OH218011   6.469   3.754   3.935  0.2519 -0.0506  0.4212
 6016TIP3    H118012   6.469   3.700   4.014  2.6854  0.0037  0.5180
 6016TIP3    H218013   6.503   3.697   3.867 -3.2103 -0.5833 -1.0690
 6017TIP3   OH218014   3.763   0.916   1.516 -0.3990 -0.0271  0.2407
 6017TIP3    H118015   3.780   1.005   1.547 -1.5427  0.0623  0.6540
 6017TIP3    H218016   3.699   0.927   1.446 -0.2049 -0.4995 -0.0163
 6018TIP3   OH218017   1.925   2.459   2.904  0.1959 -0.3903 -0.0574
 6018TIP3    H118018   1.963   2.395   2.964  1.5433  0.2083 -0.2379
 6018TIP3    H218019   1.891   2.407   2.831  0.3464 -0.9623  0.2734
 6019TIP3   OH218020   1.168   6.669   1.944 -0.1956 -0.7306  0.0958
 6019TIP3    H118021   1.223   6.590   1.946 -0.2919 -0.9665 -2.8438
 6019TIP3    H218022   1.090   6.643   1.896 -0.1443  1.1958 -1.1374
 6020TIP3   OH218023   3.310   2.011   1.220 -0.0058  0.1925 -0.1905
 6020TIP3    H118024   3.215   2.022   1.213 -0.2607 -1.2375  0.6618
 6020TIP3    H218025   3.342   2.021   1.130 -1.3791 -2.5419 -1.0954
 6021TIP3   OH218026   5.126   1.866   4.771 -0.2834  0.5692 -0.1159
 6021TIP3    H118027   5.060   1.918   4.725 -1.0234 -0.1642  0.0930
 6021TIP3    H218028   5.171   1.817   4.702  0.3456  1.3818 -0.3019
 6022TIP3   OH218029   6.539   2.492   1.078  0.2503  0.3919  0.1720
 6022TIP3    H118030   6.589   2.559   1.124  0.4430 -0.2458  0.9086
 6022TIP3    H218031   6.493   2.445   1.148 -1.8115  1.2949 -0.5111
 6023TIP3   OH218032   0.243   6.027   3.730 -0.3482 -0.5598  0.6471
 6023TIP3    H118033   0.187   5.950   3.725 -0.1829 -0.6270 -0.5662
 6023TIP3    H218034   0.182   6.101   3.732 -0.4940 -0.6824  0.7410
 6024TIP3   OH218035   2.132   2.454   3.455 -0.8523 -0.0161 -0.2539
 6024TIP3    H118036   2.069   2.393   3.494  1.2231 -1.1656  1.4990
 6024TIP3    H218037   2.169   2.405   3.381  0.1301 -0.5490  0.5734
 6025TIP3   OH218038   6.683   1.393   1.748  0.5684 -0.3470  0.2245
 6025TIP3    H118039   6.602   1.345   1.732 -0.6664  1.9651 -0.9293
 6025TIP3    H218040   6.665   1.444   1.827  0.6656  0.6076 -0.3557
 6026TIP3   OH218041   6.105   4.769   4.906 -0.7809  0.0843 -0.3292
 6026TIP3    H118042   6.078   4.850   4.949 -1.4097  0.1241 -0.7790
 6026TIP3    H218043   6.097   4.702   4.974 -0.7812  0.3141 -0.1027
 6027TIP3   OH218044   3.738   2.156   4.336 -0.0408  0.2835 -0.1579
 6027TIP3    H118045   3.730   2.211   4.414  1.3742  1.4183 -0.7618
 6027TIP3    H218046   3.650   2.154   4.299 -0.8191 -0.5803  1.6354
 6028TIP3   OH218047   3.502   4.377   3.426 -0.0624  0.3049 -0.3870
 6028TIP3    H118048   3.408   4.395   3.433  0.2347  2.3264 -1.1169
 6028TIP3    H218049   3.506   4.289   3.388 -1.6391 -0.1854  0.5000
 6029TIP3   OH218050   5.424   2.841   2.118 -0.1211 -0.2151 -0.2486
 6029TIP3    H118051   5.419   2.840   2.213  0.0381  0.2174 -0.2353
 6029TIP3    H218052   5.478   2.764   2.096 -0.5017 -0.5515 -0.0161
 6030TIP3   OH218053   2.499   0.076   3.725  0.5750  0.2358 -0.0446
 6030TIP3    H118054   2.574   0.112   3.678  0.5179 -0.8187 -0.9818
 6030TIP3    H218055   2.534   0.050   3.810  1.4402 -0.8864 -0.7301
 6031TIP3   OH218056   0.194   5.386   3.088  0.5278 -0.1789  0.1358
 6031TIP3    H118057   0.168   5.389   2.996  2.2327 -0.6488 -0.4092
 6031TIP3    H218058   0.164   5.300   3.118 -0.6367  0.2493  0.2290
 6032TIP3   OH218059   6.944   2.509   4.501  0.0997  0.0330  0.0975
 6032TIP3    H118060   6.939   2.421   4.538 -1.3483 -0.1209 -0.4153
 6032TIP3    H218061   7.019   2.506   4.442  0.8650 -0.4567  1.0629
 6033TIP3   OH218062   2.942   6.166   2.938  0.2845 -0.0717 -0.5352
 6033TIP3    H118063   3.031   6.149   2.908  0.8518  1.0729  0.4087
 6033TIP3    H218064   2.933   6.261   2.932 -0.4514 -0.0636  0.4980
 6034TIP3   OH218065   7.040   0.009   2.851 -0.1165 -0.2583 -0.2270
 6034TIP3    H118066   7.074  -0.010   2.764 -0.9517  0.0047 -0.6163
 6034TIP3    H218067   7.102   0.072   2.888 -0.2116  0.2694 -0.9524
 6035TIP3   OH218068   6.781   4.999   4.034 -0.4590 -0.2364 -0.4408
 6035TIP3    H118069   6.724   5.017   3.960 -0.8406  0.6209  0.0462
 6035TIP3    H218070   6.747   4.917   4.071 -1.8255  0.5859  0.2364
 6036TIP3   OH218071   5.039   1.372   5.083  0.3696  0.0974 -0.1046
 6036TIP3    H118072   5.087   1.433   5.027  1.8131  0.9101  1.9128
 6036TIP3    H218073   4.996   1.428   5.148 -0.8879 -0.8487 -0.0748
 6037TIP3   OH218074   0.662   5.072   2.648  0.3614  0.0081 -0.6259
 6037TIP3    H118075   0.734   5.133   2.665  0.1877 -0.3040  1.5114
 6037TIP3    H218076   0.696   4.986   2.674 -0.7139 -0.1574  0.3162
 6038TIP3   OH218077   3.793   6.414   2.511 -0.3346 -0.1164  0.5341
 6038TIP3    H118078   3.880   6.381   2.489 -0.0851  0.1860  1.0547
 6038TIP3    H218079   3.775   6.481   2.444 -0.5466 -0.7945 -0.1006
 6039TIP3   OH218080   2.739   4.188   5.020 -0.3605 -0.0160 -0.0543
 6039TIP3    H118081   2.807   4.125   5.043 -1.3589 -0.7499  1.0421
 6039TIP3    H218082   2.736   4.186   4.925 -2.5233 -4.1511 -0.1436
 6040TIP3   OH218083   7.200   4.879   0.881 -0.3139  0.5049  0.3016
 6040TIP3    H118084   7.260   4.805   0.871  0.3742  1.0446  0.3265
 6040TIP3    H218085   7.113   4.841   0.873 -0.0222 -0.5277  1.7044
 6041TIP3   OH218086   1.318   0.551   2.459 -0.1843 -0.0340 -0.0288
 6041TIP3    H118087   1.396   0.603   2.475 -0.4121  0.3513 -0.1538
 6041TIP3    H218088   1.349   0.473   2.413  0.0575  0.3467 -0.5054
 6042TIP3   OH218089   0.468   5.836   0.711  0.0611 -0.4783 -0.6874
 6042TIP3    H118090   0.526   5.897   0.667  0.6572  0.1417  0.8906
 6042TIP3    H218091   0.483   5.851   0.804 -0.6787 -2.1819 -0.2523
 6043TIP3   OH218092   3.520   3.626   3.347 -0.0578 -0.4221 -0.8756
 6043TIP3    H118093   3.442   3.681   3.351 -0.1017 -0.5395  2.0187
 6043TIP3    H218094   3.574   3.665   3.278 -1.4963  1.2937 -1.0824
 6044TIP3   OH218095   0.390   3.375   3.610 -0.5048  0.1903 -0.3589
 6044TIP3    H118096   0.452   3.370   3.537  0.3998 -0.6489  0.4340
 6044TIP3    H218097   0.421   3.448   3.664 -0.7060  0.3001 -0.3879
 6045TIP3   OH218098   3.894   5.306   4.644 -0.2977  0.2508  0.3641
 6045TIP3    H118099   3.968   5.255   4.610 -0.3641  1.1241 -1.2059
 6045TIP3    H218100   3.854   5.345   4.566 -1.9245  0.4672  1.2634
 6046TIP3   OH218101   4.829   4.008   4.176  0.1282  0.0832 -0.3328
 6046TIP3    H118102   4.787   3.945   4.117 -2.0326  1.3784 -0.2882
 6046TIP3    H218103   4.762   4.027   4.242  1.3811  1.0277  0.7038
 6047TIP3   OH218104   6.764   2.553   1.940 -0.1235  1.3542  0.1603
 6047TIP3    H118105   6.688   2.512   1.900  0.5954 -0.9775  1.0055
 6047TIP3    H218106   6.740   2.565   2.032  0.1614  1.5767  0.2087
 6048TIP3   OH218107   6.562   2.670   4.859 -0.1833  0.2598 -0.2179
 6048TIP3    H118108   6.504   2.643   4.931 -0.4377 -0.5962 -0.7323
 6048TIP3    H218109   6.503   2.698   4.789 -0.0050 -0.8818 -0.8514
 6049TIP3   OH218110   0.125   4.635   3.373 -0.1148 -0.2558  0.6069
 6049TIP3    H118111   0.199   4.601   3.323  0.0105  2.0906 -0.9679
 6049TIP3    H218112   0.108   4.568   3.440  2.5645 -1.4538  0.2124
 6050TIP3   OH218113   2.950   6.453   0.699 -0.0331 -0.0612  0.4066
 6050TIP3    H118114   2.874   6.480   0.751  1.0758 -2.1647  3.4121
 6050TIP3    H218115   2.918   6.380   0.647 -0.5552  0.4029  0.0639
 6051TIP3   OH218116   0.337   4.575   0.064  0.2823  0.1431  0.2139
 6051TIP3    H118117   0.377   4.515   0.127 -0.4166 -0.3392  0.2020
 6051TIP3    H218118   0.405   4.641   0.048  0.0527  1.0342  2.4622
 6052TIP3   OH218119   3.464   4.574   5.812 -0.3861  0.6745 -0.1726
 6052TIP3    H118120   3.428   4.640   5.872 -3.1363 -0.0068 -0.9264
 6052TIP3    H218121   3.502   4.508   5.869  0.2369  1.7122  0.6641
 6053TIP3   OH218122   6.662   6.643   4.182 -0.4370  0.2558  0.4757
 6053TIP3    H118123   6.694   6.704   4.116 -1.0365  0.0175 -0.0427
 6053TIP3    H218124   6.741   6.600   4.216 -0.2660 -1.0625 -1.4833
 6054TIP3   OH218125   0.317   6.024   1.909  0.1266  0.2228  0.3630
 6054TIP3    H118126   0.255   5.960   1.875  1.8893 -0.0283 -2.8251
 6054TIP3    H218127   0.266   6.078   1.969 -2.6051 -1.2656 -0.4601
 6055TIP3   OH218128   7.016   6.741   4.121 -0.0783  0.7617  0.1922
 6055TIP3    H118129   7.060   6.795   4.055  1.7663 -1.9008 -0.9603
 6055TIP3    H218130   6.963   6.680   4.070  0.3507 -0.5189  1.2440
 6056TIP3   OH218131   4.093   3.429   1.324  0.0410 -0.6075 -0.7369
 6056TIP3    H118132   4.150   3.505   1.308  0.1177 -0.6925 -0.8736
 6056TIP3    H218133   4.129   3.360   1.268 -0.0720 -0.7234 -0.6679
 6057TIP3   OH218134   1.941   4.049   0.100 -0.4483 -0.0719 -0.1654
 6057TIP3    H118135   1.939   4.016   0.190 -1.5447 -1.2806 -0.6038
 6057TIP3    H218136   1.851   4.075   0.082 -0.4540 -0.8106 -1.2580
 6058TIP3   OH218137   3.388   6.444   3.518  0.0017 -0.0037 -0.1812
 6058TIP3    H118138   3.322   6.420   3.452  1.1296  0.5257 -1.5682
 6058TIP3    H218139   3.468   6.455   3.467  0.7295  1.2531  1.1927
 6059TIP3   OH218140   0.444   0.542   4.596  0.5039 -0.4080  0.5437
 6059TIP3    H118141   0.420   0.630   4.624 -0.3410 -0.4214 -0.1114
 6059TIP3    H218142   0.481   0.554   4.508 -0.1012 -0.7659  0.2361
 6060TIP3   OH218143   2.143   3.017   4.023  0.3598 -0.4840  0.1255
 6060TIP3    H118144   2.115   3.061   4.103 -0.7854 -0.5377 -0.2204
 6060TIP3    H218145   2.173   2.931   4.051 -0.0718 -0.5158  0.4947
 6061TIP3   OH218146   7.235   0.950   4.452  0.3806  0.2282  0.2739
 6061TIP3    H118147   7.228   0.897   4.531  2.0427 -0.9241 -0.3099
 6061TIP3    H218148   7.170   0.912   4.392  0.6422 -0.3184  0.3293
 6062TIP3   OH218149   6.705   1.607   0.683 -0.1003  0.0223  0.4484
 6062TIP3    H118150   6.722   1.565   0.599  1.0714  1.0810  0.1365
 6062TIP3    H218151   6.791   1.619   0.723 -0.5659  0.3345  1.4126
 6063TIP3   OH218152   6.443   5.822   4.288 -0.3814  0.1869  0.2212
 6063TIP3    H118153   6.376   5.755   4.300 -0.3665 -0.2438 -1.7663
 6063TIP3    H218154   6.401   5.889   4.234  0.0456  1.1164  1.0088
 6064TIP3   OH218155   7.020   6.736   0.916 -0.0806 -0.4300 -0.2168
 6064TIP3    H118156   7.063   6.661   0.956  2.3258  1.0053  0.0372
 6064TIP3    H218157   6.970   6.776   0.988  0.9027 -0.2079  0.3578
 6065TIP3   OH218158   3.286   2.129   3.010 -0.2208 -0.2718 -0.1596
 6065TIP3    H118159   3.339   2.058   2.975  2.7536  0.7615  1.8023
 6065TIP3    H218160   3.332   2.209   2.983 -0.4978  0.6814  1.9591
 6066TIP3   OH218161   5.944   4.811   5.406 -0.2131 -0.2738 -0.5755
 6066TIP3    H118162   5.937   4.879   5.338 -0.5580 -0.3591 -0.6251
 6066TIP3    H218163   6.028   4.770   5.390 -0.8439 -1.1478 -1.7487
 6067TIP3   OH218164   4.366   5.621   2.545  0.0927  0.1024 -0.3581
 6067TIP3    H118165   4.289   5.665   2.579 -0.3104 -0.8407 -0.0264
 6067TIP3    H218166   4.382   5.662   2.460  0.9588  2.3034  0.7876
 6068TIP3   OH218167   5.435   0.666   0.034 -0.2430 -0.0139 -0.2618
 6068TIP3    H118168   5.354   0.653  -0.015 -0.2831  0.9122 -0.4662
 6068TIP3    H218169   5.408   0.715   0.112  0.2823  1.3499 -0.9148
 6069TIP3   OH218170   1.797   4.083   0.509 -0.7908 -0.7195  0.3595
 6069TIP3    H118171   1.773   4.033   0.587 -0.9492  0.4683  1.0950
 6069TIP3    H218172   1.871   4.137   0.536  1.0415 -2.3331 -1.1265
 6070TIP3   OH218173   5.078   0.599   5.732  0.6504 -0.9131 -0.1811
 6070TIP3    H118174   5.036   0.633   5.812  0.7016 -2.5490  0.5688
 6070TIP3    H218175   5.103   0.678   5.684 -1.3101  0.1341  0.3836
 6071TIP3   OH218176   2.176   0.909   4.221  0.1648  0.3420  0.6186
 6071TIP3    H118177   2.153   0.928   4.130  0.0707  1.3815  0.8476
 6071TIP3    H218178   2.095   0.876   4.260  0.1686  0.0281  0.3698
 6072TIP3   OH218179   4.981   5.649   0.844  0.1651  0.2641  0.0994
 6072TIP3    H118180   5.023   5.684   0.922  0.6213  0.3539 -0.1849
 6072TIP3    H218181   5.020   5.563   0.830 -0.2500  0.0503  0.2338
 6073TIP3   OH218182   1.771   3.271   3.204 -0.7675 -0.3574  0.1352
 6073TIP3    H118183   1.779   3.317   3.120 -1.8061 -1.2608 -0.4732
 6073TIP3    H218184   1.757   3.341   3.268 -2.0036  0.2181 -0.7280
 6074TIP3   OH218185   3.520   5.306   4.992 -0.7909  0.0061  0.2759
 6074TIP3    H118186   3.430   5.317   5.022 -0.3434 -0.1255  1.7302
 6074TIP3    H218187   3.555   5.236   5.047  0.2171  0.0709 -0.2584
 6075TIP3   OH218188   3.378   0.595   5.270 -0.5669  0.2451  0.2054
 6075TIP3    H118189   3.330   0.513   5.256  1.4964 -0.8154 -1.0642
 6075TIP3    H218190   3.370   0.642   5.188 -1.2687  1.1053  0.7453
 6076TIP3   OH218191   5.668   2.261   2.975  0.0599 -0.0246  0.3129
 6076TIP3    H118192   5.717   2.243   2.894  1.4714 -0.1506  1.1715
 6076TIP3    H218193   5.674   2.356   2.986  0.6046 -0.0988  0.7056
 6077TIP3   OH218194   3.305   5.327   0.114  0.3009  0.0501  0.0940
 6077TIP3    H118195   3.364   5.387   0.160 -1.2863 -0.4009  2.9085
 6077TIP3    H218196   3.358   5.249   0.097  1.8780  1.4618 -2.0505
 6078TIP3   OH218197   5.197   0.773   1.916  0.6494  0.3991 -0.5281
 6078TIP3    H118198   5.212   0.682   1.943 -1.4733 -0.2251 -1.2312
 6078TIP3    H218199   5.195   0.822   1.998  2.2980 -0.0589 -0.1629
 6079TIP3   OH218200   3.129   5.966   5.604 -0.3262  0.0909  0.4238
 6079TIP3    H118201   3.077   5.906   5.550 -1.2276  0.5355  0.7878
 6079TIP3    H218202   3.151   5.914   5.682  0.8987 -0.5199 -0.3013
 6080TIP3   OH218203   4.408   0.237   2.108  0.0996 -0.1018 -0.3304
 6080TIP3    H118204   4.484   0.205   2.156  0.2854 -0.3590 -0.7927
 6080TIP3    H218205   4.437   0.245   2.018 -0.1808  0.6081 -0.3703
 6081TIP3   OH218206   5.239   2.584   4.032  0.1570  0.0221 -0.0043
 6081TIP3    H118207   5.330   2.578   4.002  0.0497  0.2934 -0.3930
 6081TIP3    H218208   5.187   2.581   3.952 -0.2896 -1.9881  0.3088
 6082TIP3   OH218209   1.083   0.474   5.841  0.4026 -0.0573 -0.5741
 6082TIP3    H118210   1.061   0.493   5.750 -1.0845  0.2170 -0.1875
 6082TIP3    H218211   1.003   0.438   5.878  0.9349 -0.0169  0.6692
 6083TIP3   OH218212   4.980   0.935   3.969 -0.1701  1.0400  0.4055
 6083TIP3    H118213   4.906   0.906   4.023 -0.3672  1.3703  0.3202
 6083TIP3    H218214   5.032   0.991   4.027  1.1846 -0.8495  1.1196
 6084TIP3   OH218215   7.140   3.664   0.699  0.6765  0.2521 -0.2903
 6084TIP3    H118216   7.159   3.758   0.693 -1.2464  0.6102 -1.1820
 6084TIP3    H218217   7.130   3.648   0.793  0.2595  1.1053 -0.1812
 6085TIP3   OH218218   4.969   6.049   5.119 -0.0171 -0.1150 -0.6525
 6085TIP3    H118219   4.931   6.137   5.124  1.2017  0.5116 -1.5435
 6085TIP3    H218220   5.004   6.033   5.206 -2.2261 -0.7108  0.1857
 6086TIP3   OH218221   3.319   5.835   4.383 -0.2195  0.3967 -0.6234
 6086TIP3    H118222   3.362   5.870   4.304  3.4088  0.8243  1.3277
 6086TIP3    H218223   3.311   5.911   4.441 -0.6966 -0.3350  0.2846
 6087TIP3   OH218224   3.140   4.865   1.783 -0.0184  0.3212 -0.4367
 6087TIP3    H118225   3.077   4.937   1.781  0.1304  0.4499 -1.8723
 6087TIP3    H218226   3.124   4.817   1.702 -0.2966 -1.4426  0.6255
 6088TIP3   OH218227   3.040   0.118   0.313  0.4531  0.2368 -0.1491
 6088TIP3    H118228   2.987   0.077   0.245 -1.2781  2.1253 -0.0332
 6088TIP3    H218229   3.032   0.060   0.389 -1.1277  0.2641 -0.2724
 6089TIP3   OH218230   2.322   2.689   0.992  0.3427  0.1376  0.4372
 6089TIP3    H118231   2.340   2.675   0.900  2.2198 -0.7292  0.9029
 6089TIP3    H218232   2.237   2.648   1.006  0.2041 -0.0452 -0.8151
 6090TIP3   OH218233   5.898   0.732   0.328  0.4582 -0.3062  0.0484
 6090TIP3    H118234   5.979   0.748   0.280  1.1601 -0.2866  1.2023
 6090TIP3    H218235   5.831   0.723   0.260  1.4225 -0.3334 -0.9228
 6091TIP3   OH218236   2.264   0.137   0.140 -0.7230 -0.2801 -0.2820
 6091TIP3    H118237   2.260   0.230   0.117  0.7029  0.0420  0.6734
 6091TIP3    H218238   2.316   0.097   0.071 -2.3681 -0.6333 -1.3715
 6092TIP3   OH218239   0.976   4.367   1.934 -0.1615  0.4234  0.1631
 6092TIP3    H118240   1.029   4.303   1.885  1.3195  1.3636  0.4668
 6092TIP3    H218241   0.936   4.315   2.005 -0.0579 -0.4059 -0.3702
 6093TIP3   OH218242   2.194   0.221   2.205  0.5132 -0.0811 -0.4641
 6093TIP3    H118243   2.126   0.238   2.270 -0.4611 -0.2718 -1.4053
 6093TIP3    H218244   2.273   0.207   2.257 -0.4987 -1.6299  0.7855
 6094TIP3   OH218245   4.187   6.342   2.671 -0.7348 -0.3540 -0.1212
 6094TIP3    H118246   4.142   6.412   2.717 -1.9181 -0.1767 -1.4969
 6094TIP3    H218247   4.275   6.340   2.710  0.0316  3.1949 -1.2967
 6095TIP3   OH218248   3.287   2.092   1.502  0.1547 -0.4661  0.8015
 6095TIP3    H118249   3.294   2.058   1.413  3.1541  0.5411  0.5293
 6095TIP3    H218250   3.209   2.050   1.537 -0.5816 -1.6713 -1.9545
 6096TIP3   OH218251   0.095   6.281   0.673  0.2716 -0.2881 -0.0839
 6096TIP3    H118252   0.109   6.188   0.652 -0.5245 -0.0343 -1.9305
 6096TIP3    H218253   0.089   6.283   0.769  0.0600 -2.1694 -0.0120
 6097TIP3   OH218254   5.973   6.021   5.170  0.5919 -0.0449  0.4922
 6097TIP3    H118255   5.883   6.040   5.198  0.5297 -0.2352  0.4286
 6097TIP3    H218256   6.027   6.086   5.215  0.4917 -0.3226  1.0320
 6098TIP3   OH218257   6.628   2.943   5.465 -0.1170  0.3898  0.4885
 6098TIP3    H118258   6.702   2.956   5.405 -0.8344 -1.0392 -0.7376
 6098TIP3    H218259   6.612   2.849   5.464 -1.7018  0.6252  1.0612
 6099TIP3   OH218260   3.469   2.359   0.857 -0.4710 -0.3870  0.7656
 6099TIP3    H118261   3.512   2.438   0.891 -1.2801  0.2661  0.3031
 6099TIP3    H218262   3.426   2.388   0.777  0.5541 -1.6686 -0.2880
 6100TIP3   OH218263   4.010   1.454   3.616 -0.2550 -0.2561 -0.2986
 6100TIP3    H118264   4.020   1.495   3.702 -0.5990 -0.1516 -0.3069
 6100TIP3    H218265   3.981   1.365   3.635 -0.7649 -0.0972 -0.3164
 6101TIP3   OH218266   5.165   6.367   5.365  0.0673 -0.5135 -0.3475
 6101TIP3    H118267   5.147   6.461   5.365  1.4289 -0.2319  0.3386
 6101TIP3    H218268   5.087   6.328   5.404  0.4193  0.5480  1.5686
 6102TIP3   OH218269   4.238   0.156   1.092  0.2492  0.0893 -0.0749
 6102TIP3    H118270   4.172   0.104   1.046 -0.4950  0.4254  0.5921
 6102TIP3    H218271   4.189   0.230   1.128  0.8962  0.0557  0.8821
 6103TIP3   OH218272   5.642   0.376   5.552 -0.3083  0.3707  0.3639
 6103TIP3    H118273   5.611   0.326   5.477  1.2909  1.5665 -1.1798
 6103TIP3    H218274   5.601   0.462   5.543 -1.2661  0.1007  1.7385
 6104TIP3   OH218275   2.825   4.364   3.680 -0.2471 -0.5577 -0.6014
 6104TIP3    H118276   2.772   4.439   3.707 -0.0779 -0.7591  0.3369
 6104TIP3    H218277   2.853   4.385   3.591 -0.4001  0.3836 -0.4396
 6105TIP3   OH218278   4.775   2.410   0.462 -0.0051  0.0755  0.0721
 6105TIP3    H118279   4.825   2.360   0.397  1.6020  0.6279  0.8454
 6105TIP3    H218280   4.818   2.391   0.545 -0.5936  1.2096  0.6497
 6106TIP3   OH218281   2.812   5.188   0.470 -0.2247 -0.2736  0.1587
 6106TIP3    H118282   2.769   5.256   0.419 -0.8733  0.0736  1.1504
 6106TIP3    H218283   2.741   5.143   0.515  0.3907 -0.0003  1.4386
 6107TIP3   OH218284   2.096   1.328   5.000  0.3687 -0.0124  0.1175
 6107TIP3    H118285   2.136   1.242   5.016 -0.4703 -0.1056  1.9673
 6107TIP3    H218286   2.021   1.331   5.059 -0.3091  1.5545 -0.7577
 6108TIP3   OH218287   1.547   2.591   1.145 -0.7194  0.0032  0.4302
 6108TIP3    H118288   1.456   2.610   1.166 -0.8317  0.1609 -0.1684
 6108TIP3    H218289   1.592   2.674   1.156 -0.9023  0.2467 -0.5743
 6109TIP3   OH218290   5.957   2.549   4.571  0.2884  0.3668  0.2539
 6109TIP3    H118291   5.989   2.593   4.492  0.6833  0.3376  0.3963
 6109TIP3    H218292   5.991   2.460   4.564  2.5493  1.0327  1.7127
 6110TIP3   OH218293   5.605   0.708   4.576  0.0527  0.3223  0.1317
 6110TIP3    H118294   5.579   0.632   4.628 -0.3115 -0.5075 -1.2112
 6110TIP3    H218295   5.523   0.749   4.549  0.2239  0.5548 -0.0506
 6111TIP3   OH218296   0.145   0.644   4.849  0.3121 -0.0419  0.0763
 6111TIP3    H118297   0.165   0.691   4.930  1.5828  0.6158 -0.6083
 6111TIP3    H218298   0.088   0.572   4.877 -0.1330  0.7894  1.3967
 6112TIP3   OH218299   7.123   3.239   3.530  0.0401  0.3530  0.2091
 6112TIP3    H118300   7.208   3.279   3.544  1.1290 -1.3530 -1.0148
 6112TIP3    H218301   7.064   3.312   3.509  0.7804  1.7246  2.5808
 6113TIP3   OH218302   0.932   3.891   2.868 -0.2737  0.3549  0.2843
 6113TIP3    H118303   0.903   3.807   2.833  0.6207  0.4767 -0.7949
 6113TIP3    H218304   0.940   3.876   2.963  0.1869 -0.8721  0.0713
 6114TIP3   OH218305   1.397   0.917   1.639 -0.5197  0.5393 -0.1993
 6114TIP3    H118306   1.361   0.829   1.627 -0.6442  0.6868 -1.0037
 6114TIP3    H218307   1.468   0.907   1.702 -1.1970  0.0389  0.5002
 6115TIP3   OH218308   4.694   3.554   1.893 -0.5046  0.1680  0.2790
 6115TIP3    H118309   4.788   3.541   1.881 -0.7876 -1.6666 -0.1769
 6115TIP3    H218310   4.662   3.576   1.806 -0.6372 -0.0877  0.2651
 6116TIP3   OH218311   4.938   2.292   3.692 -0.2285 -0.0799  0.6673
 6116TIP3    H118312   4.942   2.198   3.672 -0.0413 -0.0764  0.6866
 6116TIP3    H218313   4.943   2.335   3.606 -0.8873 -0.0999  0.6136
 6117TIP3   OH218314   0.937   1.017   3.751 -0.5612  0.4270  0.1239
 6117TIP3    H118315   1.022   1.040   3.715 -0.9084  0.2725 -0.8246
 6117TIP3    H218316   0.899   0.955   3.688 -0.4302 -1.3335  1.6885
 6118TIP3   OH218317   3.431   4.024   5.687 -0.1134 -0.5444  0.5770
 6118TIP3    H118318   3.474   4.110   5.687 -0.9810 -0.0737 -1.0061
 6118TIP3    H218319   3.455   3.986   5.771 -0.3991  1.5988  1.7017
 6119TIP3   OH218320   3.562   6.341   4.661 -0.5428  0.3039 -0.2284
 6119TIP3    H118321   3.504   6.289   4.606  0.0354  0.6136 -1.1737
 6119TIP3    H218322   3.597   6.279   4.725 -0.8755 -0.1742 -0.5054
 6120TIP3   OH218323   1.374   1.919   5.206 -0.6726  0.0841  0.1782
 6120TIP3    H118324   1.425   1.997   5.225 -0.5232 -0.2164  1.0434
 6120TIP3    H218325   1.334   1.937   5.121  2.1472 -0.3168 -1.3399
 6121TIP3   OH218326   4.573   5.006   5.177 -0.0781 -0.1532 -0.0281
 6121TIP3    H118327   4.511   4.982   5.245 -0.7823  2.0967  0.1946
 6121TIP3    H218328   4.627   4.928   5.166 -1.4314 -1.3758  1.4251
 6122TIP3   OH218329   0.085   0.278   5.144  0.1547 -0.6309 -0.7672
 6122TIP3    H118330   0.110   0.367   5.121 -2.7801  1.3129  2.4420
 6122TIP3    H218331   0.110   0.270   5.236 -0.9259 -2.5681 -0.5948
 6123TIP3   OH218332   0.588   2.190   3.096 -0.3029  0.4804  0.5295
 6123TIP3    H118333   0.629   2.196   3.010 -0.6932  0.6677  0.3561
 6123TIP3    H218334   0.614   2.104   3.129 -1.8755 -0.4856 -0.6612
 6124TIP3   OH218335   5.685   3.389   1.670 -0.0620  0.3027  0.8338
 6124TIP3    H118336   5.779   3.407   1.667  0.1863 -0.9897 -0.6493
 6124TIP3    H218337   5.649   3.437   1.596 -0.1610 -1.0517 -0.0479
 6125TIP3   OH218338   4.118   3.355   1.601  0.0482  0.7146  0.5094
 6125TIP3    H118339   4.074   3.365   1.517 -1.3288 -0.1032  1.0914
 6125TIP3    H218340   4.108   3.262   1.623  1.5128  0.6460  0.9922
 6126TIP3   OH218341   1.595   5.525   2.294 -0.1359  0.4169  0.0107
 6126TIP3    H118342   1.624   5.491   2.378  0.3427  0.4085 -0.1574
 6126TIP3    H218343   1.604   5.452   2.233 -0.3084  0.4752 -0.0876
 6127TIP3   OH218344   0.946   5.865   4.113  0.3929 -0.8621 -0.5665
 6127TIP3    H118345   0.991   5.942   4.077 -0.8416  0.3054  0.2628
 6127TIP3    H218346   0.919   5.814   4.036  2.2311 -1.1023 -1.1004
 6128TIP3   OH218347   2.481   6.043   1.260 -0.1816 -0.2572  0.4360
 6128TIP3    H118348   2.506   6.128   1.296  0.2626 -0.8550  1.6200
 6128TIP3    H218349   2.554   6.018   1.204 -1.1629  0.9741 -1.4910
 6129TIP3   OH218350   3.633   1.740   2.369 -0.3152  0.3160  0.0082
 6129TIP3    H118351   3.692   1.713   2.298 -1.3725 -1.5545 -0.2389
 6129TIP3    H218352   3.643   1.671   2.434  0.9460  2.2059  1.9440
 6130TIP3   OH218353   0.144   2.622   1.627 -0.0152  0.4138 -0.4841
 6130TIP3    H118354   0.069   2.571   1.597 -1.7545  2.6776 -0.2028
 6130TIP3    H218355   0.211   2.607   1.560 -0.8942 -1.1810 -1.0660
 6131TIP3   OH218356   5.184   3.742   0.098 -0.4054 -0.1450 -0.0054
 6131TIP3    H118357   5.207   3.785   0.181  1.4802 -1.0554 -0.0114
 6131TIP3    H218358   5.264   3.697   0.072 -0.4765  1.2728 -3.0714
 6132TIP3   OH218359   0.286   4.422   5.051 -0.0080  0.9606 -0.1894
 6132TIP3    H118360   0.362   4.363   5.048  0.4018  1.5199 -1.2746
 6132TIP3    H218361   0.221   4.379   4.997  0.1208  1.2678 -0.5912
 6133TIP3   OH218362   6.309   6.622   5.637 -0.1393 -0.4164  0.1935
 6133TIP3    H118363   6.352   6.556   5.691  0.0385 -1.6125 -1.3305
 6133TIP3    H218364   6.216   6.602   5.644 -0.2436  0.3923  1.2477
 6134TIP3   OH218365   5.667   6.217   3.824  0.1145  0.2837  0.1739
 6134TIP3    H118366   5.596   6.278   3.845 -1.5478 -0.2088 -3.3268
 6134TIP3    H218367   5.743   6.274   3.810 -0.4878  1.1851  0.4495
 6135TIP3   OH218368   3.995   1.006   4.930  0.3731 -0.9776  0.1736
 6135TIP3    H118369   3.900   1.007   4.927  0.3172 -0.2726  1.3657
 6135TIP3    H218370   4.017   1.069   4.999  1.7284 -0.4285 -0.7177
 6136TIP3   OH218371   4.739   4.347   5.342 -0.0391  0.5494 -0.6893
 6136TIP3    H118372   4.715   4.404   5.415  0.1578 -1.6430  1.1948
 6136TIP3    H218373   4.833   4.333   5.353 -0.2062 -0.6432 -0.7419
 6137TIP3   OH218374   3.751   4.277   4.703  0.4024 -1.0818  0.4022
 6137TIP3    H118375   3.834   4.324   4.710 -2.1576  4.1376  0.0490
 6137TIP3    H218376   3.740   4.263   4.609 -0.0425  0.3071  0.2248
 6138TIP3   OH218377   0.325   6.177   4.200  0.5106  0.0479  0.6732
 6138TIP3    H118378   0.268   6.119   4.250 -1.1885 -1.6388 -2.8645
 6138TIP3    H218379   0.408   6.129   4.193  0.7483  0.2791  1.7500
 6139TIP3   OH218380   2.820   4.841   5.252 -0.0095 -0.4633 -0.3774
 6139TIP3    H118381   2.740   4.809   5.293  0.0195  0.4878  0.4663
 6139TIP3    H218382   2.794   4.865   5.163 -0.4864 -0.8515 -0.3433
 6140TIP3   OH218383   2.144   4.081   5.149  0.6886  0.5047  0.4775
 6140TIP3    H118384   2.081   4.129   5.202 -1.6923 -0.8160 -0.9484
 6140TIP3    H218385   2.118   3.989   5.159  1.3357  0.0678 -1.4368
 6141TIP3   OH218386   4.160   0.385   0.380  0.2390  0.4118 -0.5733
 6141TIP3    H118387   4.185   0.405   0.470 -2.3168  0.6104  0.1826
 6141TIP3    H218388   4.136   0.292   0.382 -1.7031  0.8771 -0.5175
 6142TIP3   OH218389   1.220   4.182   4.093 -0.2417  0.1486 -0.2211
 6142TIP3    H118390   1.291   4.119   4.081  0.2773  0.5460  0.6692
 6142TIP3    H218391   1.143   4.128   4.113  0.3870 -0.2012  1.4048
 6143TIP3   OH218392   5.282   4.843   0.691  0.1188  0.2631  0.5753
 6143TIP3    H118393   5.239   4.767   0.730 -0.4144 -0.9446 -2.1386
 6143TIP3    H218394   5.223   4.916   0.708 -0.6002 -0.4206  1.0781
 6144TIP3   OH218395   7.134   6.656   4.371 -0.6891  0.1679 -0.2198
 6144TIP3    H118396   7.211   6.607   4.343 -0.5425 -0.0650  0.5595
 6144TIP3    H218397   7.109   6.709   4.295  0.3876  0.4333 -0.3994
 6145TIP3   OH218398   5.878   3.333   0.111 -0.1429 -0.2589  0.0169
 6145TIP3    H118399   5.868   3.392   0.037  0.2920  0.4764  0.5285
 6145TIP3    H218400   5.811   3.266   0.098 -2.4060  1.7062  0.7055
 6146TIP3   OH218401   3.377   4.753   1.470 -0.1267  0.3015 -0.0270
 6146TIP3    H118402   3.412   4.696   1.537  0.3795 -0.1300 -0.6481
 6146TIP3    H218403   3.418   4.724   1.389 -0.4753  1.0220 -0.4792
 6147TIP3   OH218404   2.920   4.682   4.378 -0.0778  0.0061  0.3517
 6147TIP3    H118405   3.008   4.675   4.343 -0.2973 -1.0202 -0.0244
 6147TIP3    H218406   2.898   4.776   4.371  0.8834  0.2270  0.2420
 6148TIP3   OH218407   0.836   0.685   1.465 -0.1232  0.0248  0.0010
 6148TIP3    H118408   0.795   0.744   1.402 -2.8824 -0.5587  1.1090
 6148TIP3    H218409   0.830   0.730   1.549  0.4872 -0.5843  0.3871
 6149TIP3   OH218410   6.870   3.438   4.665  0.1976  0.1985 -0.2100
 6149TIP3    H118411   6.837   3.349   4.652  2.5671 -1.2397  2.5615
 6149TIP3    H218412   6.828   3.467   4.747  0.2989  1.2061 -0.5048
 6150TIP3   OH218413   4.181   5.120   1.671  0.2161  0.2671  0.4951
 6150TIP3    H118414   4.262   5.097   1.716 -0.6789 -2.6684  0.8099
 6150TIP3    H218415   4.128   5.164   1.738  1.0026  0.9823  0.6667
 6151TIP3   OH218416   4.996   0.619   2.734 -0.4875 -0.0679  0.2713
 6151TIP3    H118417   5.063   0.638   2.799 -0.1110 -0.9638  0.1607
 6151TIP3    H218418   4.978   0.703   2.692 -0.2500  0.3858  1.0655
 6152TIP3   OH218419   4.952   1.713   4.421 -0.3744  0.3137 -0.2526
 6152TIP3    H118420   4.983   1.650   4.485  0.2307  1.5285  0.6988
 6152TIP3    H218421   4.957   1.667   4.337 -1.2059 -1.3112  0.5503
 6153TIP3   OH218422   6.529   5.478   2.252 -0.1681 -1.1962  0.8027
 6153TIP3    H118423   6.436   5.487   2.229 -0.7785  0.2037  3.4305
 6153TIP3    H218424   6.569   5.558   2.220 -0.3240 -0.8199  1.5307
 6154TIP3   OH218425   0.097   1.177   3.235  0.1405 -0.0116  0.1527
 6154TIP3    H118426   0.188   1.205   3.248  1.3280 -1.4955 -3.6374
 6154TIP3    H218427   0.095   1.087   3.265  0.5671 -0.6429 -1.5840
 6155TIP3   OH218428   3.209   5.634   5.376  0.4834  0.1981  0.4682
 6155TIP3    H118429   3.251   5.684   5.447 -1.7619  2.0421  0.6136
 6155TIP3    H218430   3.200   5.697   5.305  1.4456 -1.2600 -1.0190
 6156TIP3   OH218431   3.642  -0.006   0.889 -0.0945 -0.3583  0.1676
 6156TIP3    H118432   3.571  -0.003   0.953 -0.4071 -1.3921 -0.1252
 6156TIP3    H218433   3.712   0.047   0.929  0.4248 -2.4585  2.2287
 6157TIP3   OH218434   3.874   6.693   0.410 -0.1823  0.1382 -0.8094
 6157TIP3    H118435   3.785   6.683   0.444  0.2185  0.2691  0.3181
 6157TIP3    H218436   3.929   6.646   0.473  0.6125  0.5708 -1.1672
 6158TIP3   OH218437   0.169   5.760   0.085 -0.0505 -0.3402  0.3941
 6158TIP3    H118438   0.201   5.829   0.144 -1.4380  0.8806 -0.2115
 6158TIP3    H218439   0.243   5.742   0.027  0.2068  0.9930  0.2668
 6159TIP3   OH218440   0.512   0.956   1.093 -0.1418 -0.0632  0.0239
 6159TIP3    H118441   0.452   0.909   1.034 -0.9995  1.5041 -0.4221
 6159TIP3    H218442   0.454   1.013   1.144  0.8759  0.7055  0.3394
 6160TIP3   OH218443   3.648   3.286   1.073  0.5571 -0.0609 -0.0201
 6160TIP3    H118444   3.622   3.246   1.156 -0.1329  1.4103  0.5010
 6160TIP3    H218445   3.628   3.379   1.083  0.1199  0.1066 -1.9721
 6161TIP3   OH218446   5.412   1.294   4.663  0.2513  0.3322  0.0249
 6161TIP3    H118447   5.503   1.266   4.670  0.0144 -1.0766 -1.8617
 6161TIP3    H218448   5.381   1.256   4.581 -2.3491 -0.1438  1.1248
 6162TIP3   OH218449   3.444   0.299   4.994 -0.1757 -0.0368 -0.4685
 6162TIP3    H118450   3.354   0.265   4.988  0.4097 -1.6540 -0.5081
 6162TIP3    H218451   3.456   0.349   4.913 -0.4779 -1.2754 -1.3043
 6163TIP3   OH218452   4.898   5.600   0.380  0.1933 -0.3440 -0.1050
 6163TIP3    H118453   4.873   5.515   0.344 -1.0126 -0.0138 -0.0888
 6163TIP3    H218454   4.875   5.594   0.473  0.7703 -0.2507  0.0438
 6164TIP3   OH218455   0.704   4.494   3.253 -0.3385 -0.1044  0.1614
 6164TIP3    H118456   0.697   4.498   3.349  1.4372 -0.1428  0.3234
 6164TIP3    H218457   0.789   4.455   3.237  0.0482  1.2665 -1.4374
 6165TIP3   OH218458   2.483   2.263   3.527 -0.1748  0.3077  0.1741
 6165TIP3    H118459   2.418   2.211   3.479 -0.8490  1.1573  0.1513
 6165TIP3    H218460   2.431   2.324   3.580  0.5919  0.4189  0.8123
 6166TIP3   OH218461   1.180   0.657   0.393 -0.1987 -0.4336  0.2531
 6166TIP3    H118462   1.238   0.732   0.380 -0.7907 -0.1679 -1.1069
 6166TIP3    H218463   1.181   0.641   0.487  1.3184  0.1556  0.3535
 6167TIP3   OH218464   1.718   5.970   4.825 -0.3374 -0.2514  0.1829
 6167TIP3    H118465   1.647   5.925   4.871 -0.6110 -1.2004 -1.1196
 6167TIP3    H218466   1.675   6.011   4.750  0.5312 -1.2311 -0.8862
 6168TIP3   OH218467   6.364   6.271   2.218  0.5375 -1.1699  0.0818
 6168TIP3    H118468   6.441   6.317   2.251  0.2432 -0.7918  0.2450
 6168TIP3    H218469   6.342   6.317   2.137 -1.5233  0.9341  1.7011
 6169TIP3   OH218470   3.278   3.289   1.047 -0.0960  0.5716 -0.5051
 6169TIP3    H118471   3.260   3.331   1.132  1.1267  1.8802 -0.8436
 6169TIP3    H218472   3.246   3.199   1.057 -0.6200  0.9030  1.0957
 6170TIP3   OH218473   1.754   1.409   1.529  0.9055 -0.0953 -0.4486
 6170TIP3    H118474   1.754   1.358   1.448 -1.4156  0.0183 -0.5869
 6170TIP3    H218475   1.835   1.460   1.525  2.1445 -2.0084 -1.4056
 6171TIP3   OH218476   1.049   6.552   0.732 -0.3231  0.3425 -0.2464
 6171TIP3    H118477   0.971   6.590   0.772 -1.2878 -1.4601 -0.3147
 6171TIP3    H218478   1.057   6.598   0.648  0.2022  2.3041  0.8104
 6172TIP3   OH218479   5.650   4.659   2.306  0.2508 -0.0009  0.4851
 6172TIP3    H118480   5.671   4.691   2.394 -1.6565 -0.6202  1.2277
 6172TIP3    H218481   5.590   4.586   2.321 -0.6109  0.2643 -1.3535
 6173TIP3   OH218482   2.795   1.624   1.383 -0.3136  0.3968 -0.2599
 6173TIP3    H118483   2.750   1.543   1.362 -1.0607  1.2631 -2.2158
 6173TIP3    H218484   2.829   1.655   1.299 -0.5120  2.3784  0.3527
 6174TIP3   OH218485   2.014   1.825   5.285 -0.3344 -0.2103 -0.3633
 6174TIP3    H118486   2.047   1.908   5.251  0.4763 -0.6967 -0.7734
 6174TIP3    H218487   1.932   1.849   5.329  0.5598  1.0347  0.7276
 6175TIP3   OH218488   4.983   0.391   0.000 -0.1069  0.0548  0.1611
 6175TIP3    H118489   4.971   0.311   0.052 -0.5725 -0.1762 -0.2981
 6175TIP3    H218490   4.994   0.460   0.065  2.1433 -0.6165  0.6035
 6176TIP3   OH218491   3.103   3.615   5.205  0.5303  0.0041 -0.0179
 6176TIP3    H118492   3.135   3.705   5.211  0.3942  0.2689 -2.4222
 6176TIP3    H218493   3.012   3.624   5.176 -0.0184 -0.9061  1.2972
 6177TIP3   OH218494   0.100   1.523   2.147 -0.1250  0.2335 -0.4944
 6177TIP3    H118495   0.081   1.457   2.079  0.6364  0.2477 -0.7216
 6177TIP3    H218496   0.096   1.473   2.229 -1.0106  0.2085 -0.5355
 6178TIP3   OH218497   2.038   0.916   5.157 -0.5556 -0.5107  0.4918
 6178TIP3    H118498   1.974   0.944   5.091 -1.4901 -0.9907  1.1666
 6178TIP3    H218499   2.117   0.966   5.138 -1.3821  0.6706  0.1053
 6179TIP3   OH218500   6.061   6.103   0.270  0.4698 -0.2059  0.5288
 6179TIP3    H118501   6.034   6.173   0.210 -0.1493 -0.8835 -0.0098
 6179TIP3    H218502   6.138   6.065   0.230  0.4463 -0.2304  0.5070
 6180TIP3   OH218503   4.939   1.880   1.046  0.9850 -0.0116  0.0033
 6180TIP3    H118504   5.005   1.918   1.104  1.0894 -0.2384  0.0340
 6180TIP3    H218505   4.866   1.942   1.049  0.9633 -0.0560  0.4318
 6181TIP3   OH218506   4.023   5.404   3.435 -0.3293 -0.0184  0.5157
 6181TIP3    H118507   4.033   5.471   3.368  0.0215  1.7661  2.2503
 6181TIP3    H218508   4.112   5.376   3.455 -0.4388 -0.6183  0.1735
 6182TIP3   OH218509   2.958   2.268   3.698  0.4983 -0.2316  0.0287
 6182TIP3    H118510   2.872   2.284   3.735  0.4028 -0.3068 -0.1598
 6182TIP3    H218511   3.006   2.222   3.767 -0.4850 -2.6880 -0.7970
 6183TIP3   OH218512   3.916   4.179   0.678 -0.0897 -0.3459 -0.4863
 6183TIP3    H118513   3.998   4.138   0.708 -0.7388 -1.8295 -0.6430
 6183TIP3    H218514   3.852   4.108   0.679 -0.5636 -0.1134 -3.7532
 6184TIP3   OH218515   4.697   2.434   5.152 -0.0101 -0.4514  0.1722
 6184TIP3    H118516   4.679   2.354   5.202  0.5753  0.3147  1.6588
 6184TIP3    H218517   4.615   2.483   5.155  0.3861  0.1941  1.5886
 6185TIP3   OH218518   6.736   3.478   0.151 -0.9612  0.3727  0.0996
 6185TIP3    H118519   6.661   3.418   0.145 -0.4016 -0.4293  0.9147
 6185TIP3    H218520   6.810   3.426   0.120 -0.6597  1.0188 -0.2728
 6186TIP3   OH218521   0.978   6.359   1.733  0.2405 -0.2559 -0.1547
 6186TIP3    H118522   0.935   6.440   1.705 -1.0022  0.5997  3.6793
 6186TIP3    H218523   0.927   6.290   1.689 -1.5813  0.9249 -0.0142
 6187TIP3   OH218524   0.973   0.633   2.032  0.0622  0.0969 -0.0550
 6187TIP3    H118525   0.976   0.727   2.019  2.7134  0.2284  0.8983
 6187TIP3    H218526   1.051   0.600   1.988  1.1390 -1.1592  2.5657
 6188TIP3   OH218527   2.759   6.621   1.639  0.0004 -0.3392  0.0756
 6188TIP3    H118528   2.839   6.672   1.645  0.4929 -1.1636  0.7445
 6188TIP3    H218529   2.758   6.588   1.549  0.0151  0.2736 -0.1579
 6189TIP3   OH218530   5.183   4.542   4.141  0.3017  0.2557 -0.4745
 6189TIP3    H118531   5.191   4.638   4.145  1.2004  0.3448 -2.9887
 6189TIP3    H218532   5.092   4.527   4.116  0.2040  0.4504 -0.2457
 6190TIP3   OH218533   2.931   3.046   5.281 -0.3358  0.2075 -0.0865
 6190TIP3    H118534   2.895   3.135   5.278 -0.2944  0.3012  1.6653
 6190TIP3    H218535   2.855   2.989   5.264 -0.3779  0.5418 -1.1156
 6191TIP3   OH218536   1.965   4.874   4.150 -0.3045 -0.0627  0.0841
 6191TIP3    H118537   1.928   4.961   4.142  0.3530  0.0828 -1.8684
 6191TIP3    H218538   1.896   4.822   4.191 -1.0646  1.1339  0.3541
 6192TIP3   OH218539   1.293   1.072   4.904 -0.2671  0.3012 -0.6271
 6192TIP3    H118540   1.291   0.986   4.945  0.9227  0.2582 -0.6412
 6192TIP3    H218541   1.200   1.094   4.890 -0.6018 -0.6736 -0.0201
 6193TIP3   OH218542   7.190   3.418   4.630 -0.0618  0.4177  0.5224
 6193TIP3    H118543   7.165   3.480   4.562 -0.7811  0.0664  0.4658
 6193TIP3    H218544   7.240   3.350   4.583 -2.1451 -0.8275 -0.0144
 6194TIP3   OH218545   0.636   2.550   5.615  0.4033  0.4001  0.4984
 6194TIP3    H118546   0.552   2.581   5.648  0.5367 -0.3948  1.6249
 6194TIP3    H218547   0.665   2.485   5.679  2.7811  2.0030  1.1953
 6195TIP3   OH218548   0.450   4.134   1.256  0.1239  0.3972  0.1768
 6195TIP3    H118549   0.441   4.227   1.278  0.6394  0.3026  0.8202
 6195TIP3    H218550   0.466   4.091   1.340  0.6511 -0.1746 -0.2074
 6196TIP3   OH218551   1.525   6.416   4.517  0.3590 -0.4533  0.6876
 6196TIP3    H118552   1.542   6.346   4.454  1.7634 -0.4725  1.0570
 6196TIP3    H218553   1.447   6.461   4.482 -0.3798 -1.9723  0.2835
 6197TIP3   OH218554   6.218   1.638   3.179  0.4083  0.0131  0.0177
 6197TIP3    H118555   6.153   1.698   3.215  0.3608 -0.0032 -0.0401
 6197TIP3    H218556   6.167   1.566   3.142  0.4932 -0.3721  0.6429
 6198TIP3   OH218557   6.876   4.936   1.543 -0.2259  0.2636  0.6871
 6198TIP3    H118558   6.795   4.982   1.521 -0.9452 -0.6992  1.1995
 6198TIP3    H218559   6.916   4.917   1.459 -0.5481  0.7442  0.4222
 6199TIP3   OH218560   3.144   1.346   3.565 -0.3684  0.5125 -0.0470
 6199TIP3    H118561   3.096   1.352   3.483 -0.6853 -0.0302  0.0913
 6199TIP3    H218562   3.121   1.426   3.613 -1.0852  0.2885 -0.0089
 6200TIP3   OH218563   5.592   2.372   0.291  0.1494 -0.9534  0.0169
 6200TIP3    H118564   5.590   2.464   0.319  0.6250 -0.4558 -1.4780
 6200TIP3    H218565   5.503   2.341   0.304 -0.3022  0.0661 -0.5145
 6201TIP3   OH218566   1.899   2.057   3.401  0.2797 -0.1788 -0.0724
 6201TIP3    H118567   1.896   2.080   3.308  0.5748  0.1021 -0.0162
 6201TIP3    H218568   1.985   2.018   3.413  0.5483  0.4910  0.2379
 6202TIP3   OH218569   6.243   4.790   4.090 -0.2801  0.4039 -0.3288
 6202TIP3    H118570   6.307   4.780   4.161  1.0977  0.5286 -1.4961
 6202TIP3    H218571   6.234   4.885   4.080  0.1072  0.3953 -0.7981
 6203TIP3   OH218572   4.027   6.666   2.200  0.4523 -0.0028  0.2212
 6203TIP3    H118573   4.118   6.672   2.227  0.0885 -0.3153  1.5860
 6203TIP3    H218574   4.026   6.598   2.132  1.6991  2.2076 -2.1549
 6204TIP3   OH218575   3.787   6.361   2.817  0.5472  0.0629  0.0255
 6204TIP3    H118576   3.781   6.375   2.723  0.6951 -0.6530 -0.0960
 6204TIP3    H218577   3.804   6.268   2.827  2.1752  0.3770  0.6843
 6205TIP3   OH218578   5.451   1.108   5.339 -0.7886  0.1259  0.7131
 6205TIP3    H118579   5.467   1.175   5.272 -1.0072  1.7362  2.2241
 6205TIP3    H218580   5.392   1.045   5.296  1.0230 -0.2555 -1.4163
 6206TIP3   OH218581   3.819   3.754   2.478  0.4248  0.0235 -0.1843
 6206TIP3    H118582   3.807   3.847   2.500  1.1553 -0.2917  1.7195
 6206TIP3    H218583   3.894   3.753   2.418  1.1593  0.5935  0.6900
 6207TIP3   OH218584   2.629   4.407   1.152 -0.3358 -0.7406 -0.2400
 6207TIP3    H118585   2.694   4.347   1.190 -0.6433 -1.3145 -0.6047
 6207TIP3    H218586   2.564   4.419   1.221 -0.4137 -1.0483 -0.2584
 6208TIP3   OH218587   6.317   4.689   0.467  0.2072 -0.0262  0.2947
 6208TIP3    H118588   6.276   4.751   0.407 -1.5066  0.6867  2.0898
 6208TIP3    H218589   6.282   4.604   0.441  2.1269 -0.2788 -1.8130
 6209TIP3   OH218590   5.432   1.585   0.401  0.5460  0.3427  0.2421
 6209TIP3    H118591   5.339   1.605   0.407  0.1721 -0.9996 -0.5867
 6209TIP3    H218592   5.446   1.516   0.466  0.8510  0.2021  0.0282
 6210TIP3   OH218593   0.089   1.045   5.057 -0.1434 -0.7318 -0.4364
 6210TIP3    H118594   0.076   0.977   5.122  0.3396 -0.6849 -0.2873
 6210TIP3    H218595   0.036   1.017   4.982 -0.5644 -0.8684 -0.0901
 6211TIP3   OH218596   3.610   6.730   0.473  0.4725  0.0278 -0.0721
 6211TIP3    H118597   3.573   6.812   0.441  1.2576  0.5503  0.3000
 6211TIP3    H218598   3.553   6.662   0.438  0.6664  0.6310 -1.6620
 6212TIP3   OH218599   6.375   2.961   0.365 -0.5543 -0.2918  0.0253
 6212TIP3    H118600   6.348   2.917   0.446 -2.2307  0.8655  0.1518
 6212TIP3    H218601   6.443   3.023   0.394 -0.8093 -0.2162  0.4804
 6213TIP3   OH218602   3.967   3.254   4.982  0.0941  0.3168 -0.8164
 6213TIP3    H118603   3.956   3.181   5.044 -0.0762  2.1462  1.4587
 6213TIP3    H218604   3.921   3.226   4.903 -0.3721 -1.8319  0.1445
 6214TIP3   OH218605   1.635   1.203   4.746 -0.2111 -0.0405 -0.0582
 6214TIP3    H118606   1.577   1.128   4.734  1.8390 -1.3704 -2.6507
 6214TIP3    H218607   1.679   1.186   4.829 -1.5040 -0.4244  0.5752
 6215TIP3   OH218608   3.358   5.726   1.676 -0.2282 -0.6953  0.9757
 6215TIP3    H118609   3.442   5.770   1.664 -1.2805  1.1067 -0.5024
 6215TIP3    H218610   3.377   5.652   1.733  2.2631 -0.1125  1.0242
 6216TIP3   OH218611   6.715   3.167   3.119 -0.1723  0.2362 -1.2212
 6216TIP3    H118612   6.707   3.249   3.070 -1.8681  0.2165 -1.0056
 6216TIP3    H218613   6.658   3.106   3.073 -1.1053 -0.0303  0.2306
 6217TIP3   OH218614   6.524   1.969   4.239 -0.4672 -0.1507 -0.5917
 6217TIP3    H118615   6.476   1.889   4.260 -1.1596  0.4463  0.1774
 6217TIP3    H218616   6.603   1.965   4.293  0.4060 -1.1399 -1.8664
 6218TIP3   OH218617   1.692   0.233   5.316  0.6650 -0.1598 -0.3568
 6218TIP3    H118618   1.617   0.177   5.297 -0.7485  1.4599  0.2197
 6218TIP3    H218619   1.768   0.176   5.307 -0.4935 -1.4438 -2.6694
 6219TIP3   OH218620   6.102   2.851   2.213  0.0427  0.2757  0.3205
 6219TIP3    H118621   6.030   2.811   2.260  0.1248  0.1207  0.3145
 6219TIP3    H218622   6.164   2.879   2.281 -0.7605  1.8877  0.4445
 6220TIP3   OH218623   0.320   0.830   0.873 -0.0364  0.0023  0.0305
 6220TIP3    H118624   0.354   0.783   0.796  1.4572  1.5979 -0.3632
 6220TIP3    H218625   0.255   0.771   0.911  0.0736 -1.3508 -1.7551
 6221TIP3   OH218626   1.714   0.150   3.093  0.0272  0.1496 -0.6735
 6221TIP3    H118627   1.619   0.156   3.101  0.1451  0.7578  0.5432
 6221TIP3    H218628   1.738   0.221   3.035 -0.2004  0.4709 -0.3767
 6222TIP3   OH218629   4.565   4.932   0.799 -0.4539  0.2828  0.1632
 6222TIP3    H118630   4.640   4.964   0.850  0.1347  0.5516 -0.8565
 6222TIP3    H218631   4.543   5.005   0.741 -1.5225  0.2062  0.4511
 6223TIP3   OH218632   4.821   0.260   3.373 -0.1566 -0.1998  0.2164
 6223TIP3    H118633   4.855   0.249   3.462  0.5009  2.3168  0.3585
 6223TIP3    H218634   4.806   0.171   3.342  0.7638 -1.1938  2.3969
 6224TIP3   OH218635   0.163   5.149   1.316 -0.5518 -0.2924 -0.2391
 6224TIP3    H118636   0.134   5.076   1.261  1.0251 -0.1454 -1.3376
 6224TIP3    H218637   0.151   5.227   1.262  1.6765 -0.2178 -0.7434
 6225TIP3   OH218638   5.912   3.116   2.902  0.4638 -0.0076 -0.0816
 6225TIP3    H118639   5.879   3.143   2.987 -0.6828 -1.2576 -0.1051
 6225TIP3    H218640   5.989   3.062   2.921  0.0188 -0.5499  0.1703
 6226TIP3   OH218641   5.215   1.094   2.506 -0.1397 -1.0623  0.1580
 6226TIP3    H118642   5.271   1.151   2.559  1.0695 -1.0485 -1.0857
 6226TIP3    H218643   5.127   1.130   2.517  0.1052 -0.9378  1.9645
 6227TIP3   OH218644   2.488   3.279   5.759  0.5745  0.0574 -0.4214
 6227TIP3    H118645   2.501   3.268   5.665  0.7006 -0.5366 -0.3367
 6227TIP3    H218646   2.519   3.197   5.797 -1.6623 -0.6875 -0.0518
 6228TIP3   OH218647   6.271   3.408   0.535  0.2381  0.0876 -0.1076
 6228TIP3    H118648   6.337   3.474   0.514 -0.6946  1.1071  0.0784
 6228TIP3    H218649   6.224   3.444   0.610 -0.0224 -0.9814  0.2571
 6229TIP3   OH218650   6.643   3.421   2.039 -0.3418 -0.1888  0.2541
 6229TIP3    H118651   6.700   3.347   2.017 -0.2890 -0.5556  1.5139
 6229TIP3    H218652   6.555   3.391   2.015 -0.2457 -0.4193  0.1793
 6230TIP3   OH218653   3.158   3.276   4.742 -0.3706  0.0618 -0.2523
 6230TIP3    H118654   3.229   3.243   4.797  0.2913  0.3845 -0.9079
 6230TIP3    H218655   3.201   3.335   4.680 -1.6223  3.2383  1.6643
 6231TIP3   OH218656   4.574   6.384   1.151  0.3707 -0.0007  0.3183
 6231TIP3    H118657   4.492   6.410   1.192 -1.5523  0.1059 -3.1653
 6231TIP3    H218658   4.577   6.289   1.164  1.3125  0.3073  2.9400
 6232TIP3   OH218659   1.625   3.515   4.882 -0.5168 -0.7710 -0.3798
 6232TIP3    H118660   1.643   3.585   4.820 -1.7102  1.4057  1.6110
 6232TIP3    H218661   1.539   3.481   4.855 -0.3296 -0.9224 -0.8105
 6233TIP3   OH218662   4.950   2.376   5.424 -0.4286 -0.0266  0.2531
 6233TIP3    H118663   4.943   2.449   5.363 -1.1615 -0.6517 -0.4325
 6233TIP3    H218664   5.016   2.319   5.386  0.3280  0.3772  0.9172
 6234TIP3   OH218665   1.197   1.290   0.768  0.6755 -0.2613 -0.2559
 6234TIP3    H118666   1.244   1.210   0.743  1.1499 -0.0524 -0.0430
 6234TIP3    H218667   1.263   1.343   0.813  0.2232  0.0190  0.0792
 6235TIP3   OH218668   1.037   0.195   1.263  1.0915  0.5070 -0.4634
 6235TIP3    H118669   0.973   0.243   1.210  0.1319 -1.3064 -1.0215
 6235TIP3    H218670   1.078   0.135   1.202  0.8791 -0.7421  0.5879
 6236TIP3   OH218671   4.515   4.766   2.672  0.4257 -0.1287  0.4459
 6236TIP3    H118672   4.458   4.723   2.608 -0.9655  0.5353  1.1892
 6236TIP3    H218673   4.505   4.859   2.653  0.3262  0.0520  1.3397
 6237TIP3   OH218674   2.145   5.591   4.236  0.2910  0.0663  0.1031
 6237TIP3    H118675   2.152   5.599   4.331 -1.7671 -1.8967  0.5062
 6237TIP3    H218676   2.130   5.681   4.205  1.7382  0.8283  1.5182
 6238TIP3   OH218677   6.707   3.006   3.361 -0.0756  0.4122 -0.0789
 6238TIP3    H118678   6.698   2.919   3.323 -2.6419  1.2742 -1.7768
 6238TIP3    H218679   6.724   3.063   3.285  0.9983  1.4689  0.9173
 6239TIP3   OH218680   1.817   0.620   0.430  0.3804  0.1175  0.0793
 6239TIP3    H118681   1.820   0.684   0.502  1.4328 -0.4235  0.5311
 6239TIP3    H218682   1.807   0.536   0.474  0.5787 -0.1757 -0.4383
 6240TIP3   OH218683   4.914   6.227   5.758  0.7370 -0.3693  0.0932
 6240TIP3    H118684   4.859   6.306   5.765  2.0668  0.6953 -0.9424
 6240TIP3    H218685   4.988   6.243   5.816  0.8471 -1.0186  0.1416
 6241TIP3   OH218686   4.413   0.432   3.600 -0.1937 -0.3341 -0.1340
 6241TIP3    H118687   4.405   0.525   3.576  1.4860 -0.5369 -1.7494
 6241TIP3    H218688   4.339   0.416   3.658 -1.2336  1.7193 -0.7724
 6242TIP3   OH218689   4.540   0.768   0.206  0.4422  0.2869 -0.1879
 6242TIP3    H118690   4.476   0.728   0.266 -0.0737 -0.3157 -1.1095
 6242TIP3    H218691   4.521   0.728   0.121  1.5357  0.6982 -0.6437
 6243TIP3   OH218692   6.447   6.829   3.735 -0.2701  0.2628  0.1037
 6243TIP3    H118693   6.543   6.828   3.733 -0.2650  0.8775 -0.6827
 6243TIP3    H218694   6.423   6.747   3.778  0.5300 -1.9158 -3.2348
 6244TIP3   OH218695   2.633   4.774   1.962 -0.9065 -0.3054 -0.0288
 6244TIP3    H118696   2.611   4.813   2.046 -0.1258 -0.5099  0.2759
 6244TIP3    H218697   2.585   4.827   1.897  0.7508  1.6842  0.2817
 6245TIP3   OH218698   1.107   5.826   5.122 -0.1700  0.2576 -0.8011
 6245TIP3    H118699   1.110   5.792   5.211 -1.3243  0.1072 -0.7974
 6245TIP3    H218700   1.182   5.885   5.116  0.9772 -1.1056 -0.3298
 6246TIP3   OH218701   1.435   5.501   1.444  0.6268 -0.9012 -0.4209
 6246TIP3    H118702   1.383   5.529   1.519  0.5714  0.0357 -0.7939
 6246TIP3    H218703   1.521   5.540   1.458  0.6906 -0.9306 -0.7149
 6247TIP3   OH218704   6.749   5.422   3.998 -0.1591 -0.2827  0.1494
 6247TIP3    H118705   6.836   5.459   4.011 -0.1966 -0.1251 -0.0389
 6247TIP3    H218706   6.691   5.478   4.050  0.1910 -2.0490  2.5864
 6248TIP3   OH218707   5.388   0.734   0.573 -0.0250 -0.1534  0.3435
 6248TIP3    H118708   5.382   0.701   0.663  0.4400  0.4675  0.6133
 6248TIP3    H218709   5.331   0.676   0.522  0.3054 -0.9843  0.9021
 6249TIP3   OH218710   0.679   6.173   0.291  0.2693  0.1245 -0.0719
 6249TIP3    H118711   0.657   6.104   0.228  1.5552  1.0181 -1.5854
 6249TIP3    H218712   0.763   6.145   0.327 -0.4891 -0.4090  1.3430
 6250TIP3   OH218713   4.969   3.538   5.614  0.5104 -0.7151  0.2477
 6250TIP3    H118714   5.018   3.543   5.697  0.6765  0.7293  0.0902
 6250TIP3    H218715   4.877   3.542   5.641  0.5749  0.4243  0.3472
 6251TIP3   OH218716   6.060   3.413   3.784 -0.2282  0.0914  0.7560
 6251TIP3    H118717   6.018   3.353   3.723  0.7468  0.8145 -0.7086
 6251TIP3    H218718   6.149   3.379   3.794 -1.1786 -1.8075  4.3403
 6252TIP3   OH218719   5.799   4.436   0.711  0.2871  0.2345  0.3118
 6252TIP3    H118720   5.790   4.507   0.774 -0.1111 -1.4662  2.2863
 6252TIP3    H218721   5.755   4.362   0.752 -0.1410 -0.9224 -2.0866
 6253TIP3   OH218722   1.874   6.449   4.654 -0.5273 -0.6256 -0.3019
 6253TIP3    H118723   1.909   6.363   4.675 -1.8711 -0.8936  0.9773
 6253TIP3    H218724   1.836   6.439   4.567 -0.3778 -1.2211 -0.3026
 6254TIP3   OH218725   1.036   2.940   3.283 -0.4387 -0.1907  0.5720
 6254TIP3    H118726   1.122   2.937   3.325 -0.3031 -1.5452  0.2557
 6254TIP3    H218727   1.008   2.848   3.282 -0.2829 -0.2864 -2.5635
 6255TIP3   OH218728   5.843   2.940   4.557 -0.3024  0.3465  0.4379
 6255TIP3    H118729   5.779   2.889   4.507  0.4107  1.2971 -1.5389
 6255TIP3    H218730   5.914   2.879   4.574 -1.3829 -0.5353  2.0832
 6256TIP3   OH218731   7.173   0.570   2.443  0.0916 -1.0091 -0.0857
 6256TIP3    H118732   7.204   0.618   2.366  2.0396  0.3126  1.4198
 6256TIP3    H218733   7.248   0.519   2.472  0.0818  0.1013  2.0839
 6257TIP3   OH218734   3.522   0.466   4.789  0.5193 -0.6219 -0.0824
 6257TIP3    H118735   3.475   0.474   4.706 -2.0520 -1.6096  1.1429
 6257TIP3    H218736   3.583   0.540   4.790 -0.4778  0.3140 -2.1560
 6258TIP3   OH218737   2.464   3.508   2.019  0.2799  0.1174 -0.2383
 6258TIP3    H118738   2.415   3.431   1.990 -0.9281  0.1466  1.5531
 6258TIP3    H218739   2.461   3.503   2.114 -0.2122  2.6153 -0.0738
 6259TIP3   OH218740   5.607   1.959   4.610 -0.1059  0.7462 -0.0118
 6259TIP3    H118741   5.557   2.021   4.556  0.6745 -0.0553 -1.7325
 6259TIP3    H218742   5.661   2.015   4.667  1.8299  1.7975 -2.6692
 6260TIP3   OH218743   4.278   6.258   4.718  0.1188 -0.4942 -0.4467
 6260TIP3    H118744   4.364   6.299   4.722 -0.1264  0.2741 -2.0045
 6260TIP3    H218745   4.252   6.247   4.809  1.2367  0.6116  0.0326
 6261TIP3   OH218746   0.733   5.134   3.945  0.6000  0.1496 -0.1305
 6261TIP3    H118747   0.689   5.218   3.959 -1.6559 -1.2144  1.6859
 6261TIP3    H218748   0.794   5.125   4.018 -0.3376 -0.4464  0.6058
 6262TIP3   OH218749   2.320   3.332   0.786  0.2867 -0.1696 -0.1921
 6262TIP3    H118750   2.251   3.341   0.852  0.6585 -0.3779  0.2261
 6262TIP3    H218751   2.361   3.418   0.781 -0.6038  0.2224 -1.1185
 6263TIP3   OH218752   6.174   2.409   1.303 -0.2296 -0.5030  0.8775
 6263TIP3    H118753   6.122   2.484   1.331 -0.4682 -0.9293  1.5910
 6263TIP3    H218754   6.144   2.337   1.358 -0.3916 -1.2604 -0.1659
 6264TIP3   OH218755   5.038   3.135   0.450 -0.6907 -0.4433  0.3565
 6264TIP3    H118756   4.979   3.194   0.403  0.2153 -0.3602 -0.7048
 6264TIP3    H218757   5.098   3.194   0.496  0.1014 -0.5174 -0.5582
 6265TIP3   OH218758   6.042   6.203   4.671  0.2719 -0.1454  0.1708
 6265TIP3    H118759   5.947   6.209   4.673  0.3303  1.3563 -0.2576
 6265TIP3    H218760   6.065   6.213   4.579  0.9214  1.6326  0.4786
 6266TIP3   OH218761   2.095   0.705   1.558 -0.2400 -0.3120  0.2539
 6266TIP3    H118762   2.052   0.738   1.479  1.5295 -1.5160 -1.2935
 6266TIP3    H218763   2.186   0.691   1.531  0.2275 -1.5047  2.3031
 6267TIP3   OH218764   0.138   6.590   5.398 -0.4095  0.5762 -0.2010
 6267TIP3    H118765   0.170   6.664   5.450  1.5121 -0.7544  0.6101
 6267TIP3    H218766   0.125   6.519   5.461 -0.4801 -0.3354 -1.2006
 6268TIP3   OH218767   7.033   2.657   1.703 -0.4097  0.1063  0.1884
 6268TIP3    H118768   7.070   2.574   1.734  1.2939  0.7096 -0.1456
 6268TIP3    H218769   6.967   2.679   1.769 -2.0713 -2.2635 -0.5171
 6269TIP3   OH218770   3.243   6.656   4.067 -0.2480  0.3873 -0.3515
 6269TIP3    H118771   3.307   6.704   4.014  0.0738 -0.4700 -0.7586
 6269TIP3    H218772   3.175   6.720   4.086  0.7300  1.3388  0.1146
 6270TIP3   OH218773   1.603   2.594   4.673 -0.4570 -0.3494 -0.3065
 6270TIP3    H118774   1.667   2.664   4.660  2.1043 -2.1964  1.4923
 6270TIP3    H218775   1.545   2.627   4.743  1.2377 -0.2613  1.1259
 6271TIP3   OH218776   4.112   3.266   4.512 -0.6785 -0.0287 -1.0569
 6271TIP3    H118777   4.120   3.258   4.417 -0.2923  0.0434 -1.0303
 6271TIP3    H218778   4.195   3.233   4.546  0.1653  2.1686 -0.8384
 6272TIP3   OH218779   6.205   4.449   4.535  0.1095 -0.1335 -0.3665
 6272TIP3    H118780   6.222   4.527   4.482  1.1579  0.5167  0.8731
 6272TIP3    H218781   6.138   4.478   4.598  3.1114  1.0256  2.5543
 6273TIP3   OH218782   1.306   6.535   4.817  0.2946 -0.3456 -0.1605
 6273TIP3    H118783   1.309   6.616   4.868 -1.6075 -0.9960  1.1155
 6273TIP3    H218784   1.220   6.498   4.837  0.9081 -2.4228 -1.1059
 6274TIP3   OH218785   3.827   4.114   1.934 -0.4467  0.3998 -0.1315
 6274TIP3    H118786   3.826   4.026   1.898 -0.2320  0.2858  0.1381
 6274TIP3    H218787   3.740   4.125   1.972 -0.9787  0.8336 -1.4205
 6275TIP3   OH218788   1.385   2.916   3.026 -0.4573  0.1094  0.4545
 6275TIP3    H118789   1.313   2.957   3.073  0.6029  0.1261  2.1379
 6275TIP3    H218790   1.343   2.864   2.958 -1.9622  1.5031  0.2517
 6276TIP3   OH218791   4.230   3.924   1.577 -0.1127  0.1619  0.2887
 6276TIP3    H118792   4.167   3.852   1.570 -0.2031  0.2462  0.2279
 6276TIP3    H218793   4.291   3.897   1.645  1.7359 -1.4006 -1.8504
 6277TIP3   OH218794   7.006   6.491   3.404 -0.6063 -0.0493 -0.0265
 6277TIP3    H118795   7.080   6.495   3.464 -0.7888  1.3340  0.1389
 6277TIP3    H218796   6.976   6.400   3.409  0.5471 -0.4184  0.5325
 6278TIP3   OH218797   1.398   1.384   0.257 -0.0732  0.2049 -0.1027
 6278TIP3    H118798   1.309   1.385   0.293 -0.3075 -1.4779 -0.5432
 6278TIP3    H218799   1.454   1.364   0.332 -0.0807  0.9762  0.1191
 6279TIP3   OH218800   1.671   2.338   4.641  0.4144  0.1743 -0.1971
 6279TIP3    H118801   1.762   2.361   4.619  0.9785 -0.6891  1.1425
 6279TIP3    H218802   1.628   2.423   4.653  1.2826  0.5885  0.0853
 6280TIP3   OH218803   2.536   0.928   1.341  0.1584  0.4605  0.0461
 6280TIP3    H118804   2.620   0.884   1.330  0.6270  1.2561  0.3265
 6280TIP3    H218805   2.493   0.920   1.256  0.8182  0.6450 -0.3122
 6281TIP3   OH218806   0.063   1.026   1.435  0.3941 -0.4783  0.1266
 6281TIP3    H118807   0.048   1.108   1.388  0.9793 -0.8563 -0.7510
 6281TIP3    H218808   0.059   1.050   1.527 -1.8973  0.0939 -0.0531
 6282TIP3   OH218809   2.327   3.371   0.401  0.1654 -0.7184  0.4863
 6282TIP3    H118810   2.253   3.400   0.454  0.2280 -1.4266  0.9737
 6282TIP3    H218811   2.287   3.341   0.319  0.0304  0.0065  0.2824
 6283TIP3   OH218812   3.392   1.444   1.029  0.0939 -0.0581  0.4759
 6283TIP3    H118813   3.411   1.512   0.965 -0.2779 -0.8563 -0.4964
 6283TIP3    H218814   3.320   1.480   1.081  0.4679  0.6342  0.5309
 6284TIP3   OH218815   3.877   0.229   1.534 -0.0298  0.5572 -0.6915
 6284TIP3    H118816   3.972   0.227   1.528  0.2512  1.0158  2.3251
 6284TIP3    H218817   3.854   0.150   1.582 -1.1043  0.8916 -0.6382
 6285TIP3   OH218818   4.772   4.818   2.530  0.2828 -0.1019  0.4050
 6285TIP3    H118819   4.721   4.892   2.562  1.2047  1.3528 -1.2952
 6285TIP3    H218820   4.834   4.799   2.600  0.9511  1.6923  0.3565
 6286TIP3   OH218821   5.158   2.939   5.298  0.1727  0.4752 -0.9294
 6286TIP3    H118822   5.129   2.872   5.360 -0.5517  0.3130 -1.4335
 6286TIP3    H218823   5.079   2.965   5.251  0.1676  2.6445  0.1357
 6287TIP3   OH218824   5.189   4.093   2.470  0.2984  0.4683  0.3761
 6287TIP3    H118825   5.245   4.112   2.395 -0.0645 -0.3419 -0.1159
 6287TIP3    H218826   5.147   4.176   2.491  2.6063  1.4225  1.5625
 6288TIP3   OH218827   5.946   3.979   0.472  0.4093 -0.0374  0.0764
 6288TIP3    H118828   5.970   3.919   0.400 -1.5237  1.2817 -1.7900
 6288TIP3    H218829   6.023   4.036   0.481  0.7313 -0.2986 -0.8666
 6289TIP3   OH218830   6.557   0.264   3.982  0.2969 -0.4715  0.1565
 6289TIP3    H118831   6.580   0.218   4.063  0.8001 -1.7089 -0.6528
 6289TIP3    H218832   6.631   0.322   3.966  0.9945 -1.4403 -0.2659
 6290TIP3   OH218833   0.229   2.565   2.195  0.2624 -0.2622  0.1461
 6290TIP3    H118834   0.173   2.619   2.139 -1.3701 -2.9284 -0.9858
 6290TIP3    H218835   0.260   2.624   2.263 -0.3313  2.3552 -1.7301
 6291TIP3   OH218836   2.047   3.264   1.782  0.2979  0.0797 -0.2415
 6291TIP3    H118837   2.116   3.198   1.788 -0.0744 -0.3261 -0.3050
 6291TIP3    H218838   1.988   3.243   1.855 -0.1135 -0.0015 -0.5919
 6292TIP3   OH218839   4.498   5.376   1.052 -0.4148 -0.3456  0.5266
 6292TIP3    H118840   4.580   5.396   1.008 -0.2416  2.0089  1.8155
 6292TIP3    H218841   4.499   5.281   1.063  2.1562 -0.3655  0.5745
 6293TIP3   OH218842   5.136   0.703   4.020 -0.1051 -0.1857  0.1232
 6293TIP3    H118843   5.087   0.777   3.984  1.1865  1.0035  0.6991
 6293TIP3    H218844   5.158   0.650   3.944 -0.1795  0.5682 -0.4371
 6294TIP3   OH218845   6.804   4.772   3.534  0.0978  0.0663 -0.0974
 6294TIP3    H118846   6.882   4.732   3.496 -0.0982 -1.3149  0.8791
 6294TIP3    H218847   6.754   4.803   3.458 -0.0529 -2.1798 -0.9923
 6295TIP3   OH218848   3.034   2.523   5.330  1.0298  0.1615 -0.2508
 6295TIP3    H118849   3.088   2.572   5.392  0.4238  0.5435 -0.0061
 6295TIP3    H218850   2.944   2.548   5.353  0.7318 -0.7183 -0.4219
 6296TIP3   OH218851   5.984   2.633   3.799 -0.0542 -0.1278 -0.1272
 6296TIP3    H118852   6.024   2.618   3.714  0.0380  0.3877 -0.1815
 6296TIP3    H218853   6.033   2.577   3.859 -0.6150 -1.0657 -0.5299
 6297TIP3   OH218854   3.855   3.163   0.336  0.0925  0.0144 -0.2766
 6297TIP3    H118855   3.808   3.187   0.415  2.1618  0.4429  0.9001
 6297TIP3    H218856   3.931   3.114   0.367 -0.2262 -1.8311 -2.1656
 6298TIP3   OH218857   2.468   6.330   1.339 -0.1137  0.2404  0.3966
 6298TIP3    H118858   2.539   6.373   1.291 -2.0557  0.6794 -2.2976
 6298TIP3    H218859   2.449   6.390   1.411  0.9621  1.0478  0.0453
 6299TIP3   OH218860   1.271   2.912   3.419 -0.0376 -0.4670  0.1465
 6299TIP3    H118861   1.334   2.952   3.479 -1.6941  1.8696  0.4721
 6299TIP3    H218862   1.228   2.844   3.471  1.4462 -1.3647  0.2384
 6300TIP3   OH218863   2.486   4.620   2.356 -0.8929  0.3179  0.4789
 6300TIP3    H118864   2.582   4.624   2.351 -0.7828 -1.3632  0.7418
 6300TIP3    H218865   2.468   4.595   2.447 -1.4214 -2.3174 -0.2813
 6301TIP3   OH218866   6.747   5.197   3.460 -0.0731  0.0760 -0.7175
 6301TIP3    H118867   6.688   5.247   3.404  2.4387  1.9238 -1.9052
 6301TIP3    H218868   6.805   5.151   3.399 -0.3333 -1.8480  0.4018
 6302TIP3   OH218869   2.542   0.278   0.949 -0.2118  0.1111 -0.2127
 6302TIP3    H118870   2.495   0.242   0.873 -0.0830 -1.7199  0.5160
 6302TIP3    H218871   2.574   0.363   0.919  2.0269 -1.5788 -3.1513
 6303TIP3   OH218872   6.544   4.548   0.546  0.5727  0.1988 -0.4961
 6303TIP3    H118873   6.490   4.626   0.533 -0.2767 -0.2749  0.0730
 6303TIP3    H218874   6.627   4.581   0.581  0.0497  0.8067  0.1815
 6304TIP3   OH218875   5.132   5.657   5.543  0.1788  0.3569 -0.3625
 6304TIP3    H118876   5.204   5.700   5.497  0.5871 -0.6560 -0.6961
 6304TIP3    H218877   5.164   5.646   5.633  0.0519  0.7863 -0.2628
 6305TIP3   OH218878   2.433   2.988   1.355  0.7047  0.3115  0.5285
 6305TIP3    H118879   2.401   3.028   1.274 -1.8910 -1.1447  0.7188
 6305TIP3    H218880   2.430   3.059   1.419 -2.3203  0.3450  0.5075
 6306TIP3   OH218881   6.089   5.792   5.284  0.3599  0.3806 -0.1666
 6306TIP3    H118882   6.159   5.817   5.225  0.6690  0.6938  0.3258
 6306TIP3    H218883   6.027   5.865   5.281  0.4858  0.4988  0.0633
 6307TIP3   OH218884   2.636   1.748   0.419 -0.4013 -0.2672  0.2507
 6307TIP3    H118885   2.713   1.757   0.476  0.2654 -0.0952 -0.6580
 6307TIP3    H218886   2.604   1.837   0.408 -0.3336 -0.2610  0.1002
 6308TIP3   OH218887   1.654   6.366   1.625 -0.3572  0.5898  0.0643
 6308TIP3    H118888   1.622   6.277   1.641  2.3964 -0.5796 -0.4841
 6308TIP3    H218889   1.696   6.362   1.539 -1.2695  2.8022 -0.5696
 6309TIP3   OH218890   1.882   6.020   1.312  0.2671 -0.3357 -0.0861
 6309TIP3    H118891   1.924   6.030   1.397  1.0850  0.4820 -0.5723
 6309TIP3    H218892   1.892   5.927   1.291  0.8303 -0.3696  0.3209
 6310TIP3   OH218893   5.600   1.229   0.419  0.1211 -0.4332 -0.0940
 6310TIP3    H118894   5.573   1.302   0.476  0.6310 -0.5734  0.3293
 6310TIP3    H218895   5.527   1.167   0.426 -0.5957  0.2752 -0.9192
 6311TIP3   OH218896   1.061   6.343   2.482  0.4944 -0.6458 -0.2112
 6311TIP3    H118897   1.051   6.438   2.485 -2.2751 -0.8242 -0.7704
 6311TIP3    H218898   1.082   6.324   2.391  0.9568 -0.5961 -0.1184
 6312TIP3   OH218899   4.504   0.594   5.707  0.1633  0.0191 -0.2537
 6312TIP3    H118900   4.592   0.629   5.716  0.2338  0.8299 -3.1452
 6312TIP3    H218901   4.447   0.671   5.705 -0.3465 -0.3554 -0.5995
 6313TIP3   OH218902   5.856   0.112   0.329  0.0341  0.1080  0.2805
 6313TIP3    H118903   5.785   0.135   0.388  0.0351 -0.1757  0.3935
 6313TIP3    H218904   5.814   0.059   0.261 -0.0594  0.8558 -0.2525
 6314TIP3   OH218905   1.289   5.679   1.738  0.2010  0.2043 -0.2247
 6314TIP3    H118906   1.361   5.741   1.749 -1.7550  2.5290  0.1407
 6314TIP3    H218907   1.315   5.603   1.791  2.8770  0.4179 -1.0616
 6315TIP3   OH218908   3.227   5.030   5.705 -0.7863  0.1432 -0.2991
 6315TIP3    H118909   3.235   5.120   5.673 -2.3238  0.8160  1.0429
 6315TIP3    H218910   3.304   5.017   5.760 -0.9974  0.9678  0.2057
 6316TIP3   OH218911   3.130   3.305   0.216  0.3147 -0.1500  0.2310
 6316TIP3    H118912   3.049   3.353   0.197  0.0366 -1.4958 -2.4886
 6316TIP3    H218913   3.134   3.302   0.312 -2.9400 -0.1804  0.4927
 6317TIP3   OH218914   3.220   4.984   5.215 -0.1811 -0.0774  0.1433
 6317TIP3    H118915   3.167   4.915   5.176 -0.2900  0.0912 -0.0031
 6317TIP3    H218916   3.289   4.936   5.263 -0.5040 -0.2943  0.3948
 6318TIP3   OH218917   1.216   3.029   1.698 -0.4541 -0.2396  0.0072
 6318TIP3    H118918   1.134   3.002   1.656 -1.5248  0.5480  1.5098
 6318TIP3    H218919   1.223   2.973   1.776  0.0697  0.1791  0.2666
 6319TIP3   OH218920   1.051   5.380   4.212  0.0733  0.4213  0.0706
 6319TIP3    H118921   1.004   5.397   4.294 -1.3435  2.3711 -1.0511
 6319TIP3    H218922   1.125   5.440   4.213  0.4207 -0.0088  0.2028
 6320TIP3   OH218923   1.918   5.164   1.220 -0.1409 -0.1284  0.4348
 6320TIP3    H118924   1.910   5.068   1.216  1.5944 -0.3121  0.6337
 6320TIP3    H218925   1.978   5.185   1.148 -0.1032  0.7624  0.7265
 6321TIP3   OH218926   0.286   2.432   4.497  0.5860 -0.1257 -0.0785
 6321TIP3    H118927   0.216   2.370   4.479  0.9016 -0.1555 -1.3591
 6321TIP3    H218928   0.251   2.489   4.566 -2.3321  2.2748 -3.1809
 6322TIP3   OH218929   5.953   1.342   1.215  0.3327  0.4197 -0.0603
 6322TIP3    H118930   5.938   1.296   1.132 -1.5278 -1.3322  1.1528
 6322TIP3    H218931   5.873   1.392   1.230  0.1485 -0.2369  1.2501
 6323TIP3   OH218932   1.162   6.345   3.821  0.6027  0.3217 -0.1253
 6323TIP3    H118933   1.134   6.436   3.829 -1.6423 -0.4406  2.0366
 6323TIP3    H218934   1.254   6.346   3.847  0.0849  1.7505  1.9111
 6324TIP3   OH218935   5.178   2.100   0.576  0.0948  0.1052  0.3059
 6324TIP3    H118936   5.140   2.186   0.595 -0.5955 -0.0458 -0.3793
 6324TIP3    H218937   5.160   2.049   0.655  1.5420  0.9171  1.1999
 6325TIP3   OH218938   5.366   0.655   3.474 -0.0715  0.6404  0.0314
 6325TIP3    H118939   5.302   0.688   3.537  1.0452  1.0848  0.9659
 6325TIP3    H218940   5.390   0.568   3.508 -1.3864 -0.2531 -1.2300
 6326TIP3   OH218941   2.667   4.773   4.598 -0.2955 -0.2394 -0.1980
 6326TIP3    H118942   2.755   4.809   4.605 -0.4691  0.2871 -0.6687
 6326TIP3    H218943   2.668   4.722   4.517 -0.8042  0.8815 -0.9292
 6327TIP3   OH218944   6.678   4.361   0.112  0.3344  0.4303  0.1367
 6327TIP3    H118945   6.630   4.441   0.128 -0.8115 -0.1493 -0.3088
 6327TIP3    H218946   6.639   4.297   0.172  0.9648  0.1024  0.2080
 6328TIP3   OH218947   6.107   3.533   0.706  0.1875  0.2685  0.0735
 6328TIP3    H118948   6.125   3.626   0.722  1.4150  0.1067 -0.2767
 6328TIP3    H218949   6.094   3.496   0.794  0.2406  0.6641  0.2531
 6329TIP3   OH218950   0.538   0.465   2.847  0.1712 -0.4079  0.2065
 6329TIP3    H118951   0.633   0.468   2.835  0.1367  0.2138  0.0293
 6329TIP3    H218952   0.524   0.400   2.915  0.8286  0.5431  1.2884
 6330TIP3   OH218953   2.533   6.028   3.054  0.5238 -0.7851  0.6425
 6330TIP3    H118954   2.553   5.975   2.976  1.9644 -0.8686  1.0335
 6330TIP3    H218955   2.577   6.111   3.038 -1.0374  0.0126  0.4048
 6331TIP3   OH218956   4.318   3.164   4.659 -0.1186 -0.1769 -0.3663
 6331TIP3    H118957   4.298   3.130   4.746  0.0092  0.6621  0.0003
 6331TIP3    H218958   4.347   3.254   4.675 -3.2717  1.1616 -1.5608
 6332TIP3   OH218959   3.129   6.769   2.957  0.0558  0.0014  0.0155
 6332TIP3    H118960   3.130   6.744   3.049 -0.4895 -1.5876 -0.3599
 6332TIP3    H218961   3.207   6.728   2.920 -0.1025  0.0330 -0.3610
 6333TIP3   OH218962   2.691   4.781   0.623  0.1852 -0.3822 -0.0282
 6333TIP3    H118963   2.608   4.782   0.670  1.1466 -1.6473  1.8503
 6333TIP3    H218964   2.712   4.689   0.612  1.0507 -0.0929 -1.0425
 6334TIP3   OH218965   5.964   0.223   0.766 -0.3955 -0.2417  0.1206
 6334TIP3    H118966   5.972   0.130   0.788 -1.0151  0.2400  2.6530
 6334TIP3    H218967   6.010   0.268   0.836  0.1049  1.3967 -1.2064
 6335TIP3   OH218968   3.703   5.885   3.730 -0.0355  0.1641  0.4560
 6335TIP3    H118969   3.678   5.973   3.758  1.5896  1.0864 -0.7915
 6335TIP3    H218970   3.640   5.862   3.661  0.3428  0.9365 -0.1582
 6336TIP3   OH218971   2.292   5.494   4.759 -0.5445 -0.0263 -0.0841
 6336TIP3    H118972   2.290   5.411   4.807 -0.7379 -0.1994 -0.3892
 6336TIP3    H218973   2.361   5.483   4.694  0.6452  0.6926  1.0031
 6337TIP3   OH218974   5.699   4.157   3.212 -0.1477 -0.1856 -0.0698
 6337TIP3    H118975   5.762   4.162   3.141 -0.4068  0.3500 -0.2693
 6337TIP3    H218976   5.614   4.150   3.169 -0.3614  0.8171  0.1769
 6338TIP3   OH218977   4.381   2.581   4.156  0.5908 -0.2277 -0.1844
 6338TIP3    H118978   4.434   2.622   4.087  0.7257  0.4328  0.3020
 6338TIP3    H218979   4.373   2.648   4.223  1.4746 -1.2593  1.0027
 6339TIP3   OH218980   1.110   4.004   0.387  0.1196 -0.0825  0.6441
 6339TIP3    H118981   1.079   3.913   0.387 -0.0153 -0.0390  0.3256
 6339TIP3    H218982   1.090   4.036   0.474 -0.3933 -0.1720  0.5622
 6340TIP3   OH218983   6.558   2.456   4.483  0.0052  0.1829 -0.0731
 6340TIP3    H118984   6.571   2.379   4.427  3.7888  0.5050  0.1038
 6340TIP3    H218985   6.599   2.433   4.566  0.3885  2.0373  0.2978
 6341TIP3   OH218986   5.927   6.478   0.647 -0.1854  0.3311 -0.6227
 6341TIP3    H118987   6.011   6.434   0.656  0.5250  1.6768 -0.4767
 6341TIP3    H218988   5.888   6.438   0.569  0.0211 -1.1685  0.0131
 6342TIP3   OH218989   2.807   6.034   3.147 -0.3456  1.0005 -0.4127
 6342TIP3    H118990   2.837   6.066   3.232  1.1798 -0.6891 -0.2423
 6342TIP3    H218991   2.865   6.076   3.084  2.1963 -1.7436 -0.1327
 6343TIP3   OH218992   6.210   1.124   5.442  0.2256 -0.0894 -0.4225
 6343TIP3    H118993   6.283   1.166   5.397  1.3587 -1.0054  0.4766
 6343TIP3    H218994   6.250   1.085   5.520 -1.0279 -1.4953 -0.4317
 6344TIP3   OH218995   5.359   3.242   1.410  0.5484 -0.1371  0.2615
 6344TIP3    H118996   5.435   3.294   1.382  0.0463  0.8670  0.7019
 6344TIP3    H218997   5.355   3.257   1.504 -0.6812  0.4980  0.1247
 6345TIP3   OH218998   3.663   6.755   0.134 -0.1414  0.1555  0.2184
 6345TIP3    H118999   3.732   6.755   0.067 -0.9317  2.9586 -0.7458
 6345TIP3    H219000   3.707   6.784   0.214  0.2496 -0.4496  0.2299
 6346TIP3   OH219001   7.038   6.472   2.420  0.5496 -0.0779  0.6209
 6346TIP3    H119002   7.098   6.435   2.485 -0.3273 -0.8078  1.0424
 6346TIP3    H219003   6.951   6.451   2.453  0.0736 -0.6407 -0.8806
 6347TIP3   OH219004   1.666   0.810   4.956 -0.4446  0.0233 -0.3667
 6347TIP3    H119005   1.708   0.753   4.891  1.8458  0.8058  0.3382
 6347TIP3    H219006   1.724   0.885   4.963 -0.7864  0.1249  2.3249
 6348TIP3   OH219007   4.998   6.672   0.664 -0.4679  0.2347 -1.0632
 6348TIP3    H119008   4.932   6.689   0.730  0.4146  0.0829 -0.1126
 6348TIP3    H219009   4.997   6.750   0.608  0.1846  1.3089  0.3655
 6349TIP3   OH219010   5.975   0.405   3.496 -0.0240 -0.9302 -0.4079
 6349TIP3    H119011   6.036   0.455   3.551 -0.7261 -0.9847  0.4410
 6349TIP3    H219012   5.959   0.462   3.420  0.5388 -0.6254 -0.3019
 6350TIP3   OH219013   4.941   5.082   0.189 -0.3267  0.1645 -0.3814
 6350TIP3    H119014   5.006   5.062   0.256  0.4900  1.3090 -0.7958
 6350TIP3    H219015   4.878   5.139   0.232 -0.9567 -0.7705 -0.0390
 6351TIP3   OH219016   3.812   4.970   5.316 -0.0063  0.2347 -0.3878
 6351TIP3    H119017   3.896   4.960   5.361 -1.2716 -2.3930  1.6375
 6351TIP3    H219018   3.833   4.959   5.223  1.7112 -1.9637  0.1944
 6352TIP3   OH219019   6.742   2.415   0.828  0.3631  0.3313  0.1646
 6352TIP3    H119020   6.672   2.476   0.849  0.8487  0.5266  1.2496
 6352TIP3    H219021   6.753   2.362   0.907  1.9142  0.7786  0.2861
 6353TIP3   OH219022   6.324   3.065   2.789  0.0873  0.4638  0.1451
 6353TIP3    H119023   6.278   3.147   2.767 -1.0057 -0.7158 -2.5102
 6353TIP3    H219024   6.272   2.997   2.745  2.6606 -1.3067 -0.3580
 6354TIP3   OH219025   6.734   5.396   0.993  0.3769 -0.2965  0.0966
 6354TIP3    H119026   6.824   5.395   1.025 -0.1170  1.4538  1.7240
 6354TIP3    H219027   6.682   5.360   1.065 -0.0988 -4.1424 -1.8398
 6355TIP3   OH219028   5.597   2.881   1.241 -0.5562 -0.0470  0.6682
 6355TIP3    H119029   5.656   2.956   1.246 -1.7051  0.8874  0.5623
 6355TIP3    H219030   5.540   2.889   1.317 -0.6531 -0.8549  0.6944
 6356TIP3   OH219031   1.029   1.247   4.899  0.1805  0.3548  0.4149
 6356TIP3    H119032   1.071   1.287   4.975 -0.3467  0.8364  0.4614
 6356TIP3    H219033   0.969   1.314   4.867  0.7461  0.3375 -0.7187
 6357TIP3   OH219034   5.295   4.785   2.216  0.2456  0.3922  0.3885
 6357TIP3    H119035   5.253   4.781   2.302  1.3018 -1.4596  0.8891
 6357TIP3    H219036   5.354   4.710   2.216 -0.0702  0.0720 -2.1511
 6358TIP3   OH219037   7.223   0.405   0.932  0.1256  0.0363  0.2131
 6358TIP3    H119038   7.157   0.352   0.976  1.0797 -0.9342  0.5055
 6358TIP3    H219039   7.262   0.347   0.867  0.6554  0.6121  0.0002
 6359TIP3   OH219040   5.184   3.357   0.014  0.3286  0.0966  0.4643
 6359TIP3    H119041   5.269   3.378  -0.024 -0.3763  1.0964 -0.6154
 6359TIP3    H219042   5.140   3.441   0.023 -1.2656 -0.5441 -0.7900
 6360TIP3   OH219043   1.485   3.545   3.504  0.1571 -0.3441  0.3398
 6360TIP3    H119044   1.487   3.501   3.419  0.9393  0.0095  0.1656
 6360TIP3    H219045   1.410   3.506   3.549 -1.9921  1.3437 -1.5151
 6361TIP3   OH219046   5.079   3.730   3.326 -0.3649 -0.7187 -0.0559
 6361TIP3    H119047   5.024   3.768   3.394 -0.2475  0.3800 -0.5632
 6361TIP3    H219048   5.100   3.642   3.358  0.8155  0.2465  1.9860
 6362TIP3   OH219049   1.283   2.434   3.120 -0.0104  0.1850 -0.2563
 6362TIP3    H119050   1.260   2.369   3.186 -0.3133  0.0243 -0.5198
 6362TIP3    H219051   1.343   2.389   3.061  1.2813  0.7028  0.6216
 6363TIP3   OH219052   3.427   1.860   2.286 -0.4588 -0.5170 -0.0240
 6363TIP3    H119053   3.507   1.809   2.296 -0.5244 -0.6565 -0.2106
 6363TIP3    H219054   3.407   1.892   2.375 -1.7781 -2.8426  0.5964
 6364TIP3   OH219055   3.942   5.453   0.215 -0.3730 -0.4609 -0.1095
 6364TIP3    H119056   3.899   5.494   0.141 -1.5872  1.6225  1.6292
 6364TIP3    H219057   4.001   5.521   0.249 -0.3371 -1.1206  1.2112
 6365TIP3   OH219058   0.569   3.461   0.220 -0.5189 -0.5887 -0.6153
 6365TIP3    H119059   0.567   3.483   0.127 -0.1026 -1.7643 -0.9127
 6365TIP3    H219060   0.492   3.406   0.234  1.3836 -3.6506 -1.1564
 6366TIP3   OH219061   6.302   3.196   3.159  0.3622 -0.1966  0.4602
 6366TIP3    H119062   6.278   3.256   3.230  1.7084  1.6015 -0.4919
 6366TIP3    H219063   6.324   3.254   3.086 -0.3224 -1.9630 -1.2287
 6367TIP3   OH219064   6.257   6.162   4.824  0.1853  0.3046  0.3071
 6367TIP3    H119065   6.293   6.140   4.738 -1.3919  1.2358 -0.6377
 6367TIP3    H219066   6.165   6.181   4.807  0.4008  3.0635  1.7595
 6368TIP3   OH219067   1.914   2.166   4.728  0.3418  0.4987 -0.4599
 6368TIP3    H119068   1.843   2.128   4.675  0.2332 -0.6373  0.4724
 6368TIP3    H219069   1.906   2.260   4.713 -1.6332  0.4457 -0.0699
 6369TIP3   OH219070   6.021   1.084   4.470  0.3106  0.1104  0.0413
 6369TIP3    H119071   5.968   1.148   4.423  0.5452 -0.1967 -0.6663
 6369TIP3    H219072   5.962   1.009   4.483  0.5575 -0.2431 -0.7725
 6370TIP3   OH219073   3.205   1.204   1.378 -0.0426  0.2262 -0.3218
 6370TIP3    H119074   3.178   1.124   1.423 -0.1459  0.6518  0.3781
 6370TIP3    H219075   3.203   1.272   1.445  0.4282  0.7447 -0.8180
 6371TIP3   OH219076   1.670   2.736   0.459  0.0403  0.4473  0.0924
 6371TIP3    H119077   1.628   2.756   0.542  0.7367  0.0923  0.5327
 6371TIP3    H219078   1.728   2.811   0.443  2.0202 -0.7493  1.3298
 6372TIP3   OH219079   5.083   5.106   1.157  0.1399  0.4548 -0.3412
 6372TIP3    H119080   5.128   5.026   1.183  0.4034  0.5021 -0.6405
 6372TIP3    H219081   5.123   5.130   1.073  1.6099  2.1092  0.7760
 6373TIP3   OH219082   5.829   0.042   5.133 -0.3248 -0.2730 -0.4096
 6373TIP3    H119083   5.801  -0.041   5.172  1.8701 -1.2340 -0.7116
 6373TIP3    H219084   5.894   0.076   5.195 -0.0416  0.4087 -1.0788
 6374TIP3   OH219085   6.714   6.012   4.892  0.1923  0.3979 -0.2356
 6374TIP3    H119086   6.666   6.014   4.975  1.4740  0.5689  0.5259
 6374TIP3    H219087   6.698   5.924   4.858 -0.6221  0.4355  0.0118
 6375TIP3   OH219088   1.654   0.834   1.734 -0.1717 -0.1626  0.0641
 6375TIP3    H119089   1.675   0.743   1.710 -0.2487 -0.6520  1.7462
 6375TIP3    H219090   1.717   0.887   1.686  0.1944 -1.1385 -0.5568
 6376TIP3   OH219091   6.797   0.760   0.667 -0.1976 -0.7022  0.0913
 6376TIP3    H119092   6.774   0.750   0.759 -0.8599 -1.7774 -0.1780
 6376TIP3    H219093   6.713   0.771   0.622  0.1910  1.3528 -0.2382
 6377TIP3   OH219094   3.861   6.080   2.849  0.2178  0.6714  0.7458
 6377TIP3    H119095   3.919   6.093   2.924  1.4486 -0.4022  0.0241
 6377TIP3    H219096   3.831   5.989   2.858 -1.6370  1.2867  1.2607
 6378TIP3   OH219097   4.456   0.887   5.526 -0.0970  0.2624 -0.0268
 6378TIP3    H119098   4.506   0.968   5.523 -1.1251  0.8871 -1.7147
 6378TIP3    H219099   4.424   0.880   5.616  2.0696  0.3989  0.7913
 6379TIP3   OH219100   1.207   4.733   0.274  0.3048  0.5202 -0.4761
 6379TIP3    H119101   1.163   4.778   0.346  0.5400 -1.9434  1.3269
 6379TIP3    H219102   1.300   4.747   0.290  0.5235 -2.4536  1.5662
 6380TIP3   OH219103   6.059   5.531   3.924 -0.5497  0.1927  0.0700
 6380TIP3    H119104   6.035   5.454   3.977 -0.6886 -0.5023 -0.9856
 6380TIP3    H219105   5.988   5.541   3.862 -0.2262  0.7960 -0.2071
 6381TIP3   OH219106   6.057   1.871   3.285 -0.8022  0.0260  0.5596
 6381TIP3    H119107   5.979   1.820   3.306  0.7070 -3.7856 -2.0981
 6381TIP3    H219108   6.032   1.923   3.209 -1.0902 -0.2689  0.4532
 6382TIP3   OH219109   5.108   2.620   4.984 -0.0275  0.1769 -0.2238
 6382TIP3    H119110   5.073   2.534   5.004  0.4572  0.0228 -0.0304
 6382TIP3    H219111   5.040   2.662   4.931 -0.4661 -0.1458  0.0776
 6383TIP3   OH219112   2.197   6.495   3.722 -0.5220  0.2393  0.0162
 6383TIP3    H119113   2.183   6.400   3.724 -1.7158  0.3730 -0.8966
 6383TIP3    H219114   2.277   6.508   3.772 -1.4353 -1.0574  1.9510
 6384TIP3   OH219115   6.568   4.732   2.772  0.4112 -0.1859 -0.4842
 6384TIP3    H119116   6.626   4.659   2.747 -0.3710 -0.7632 -0.6420
 6384TIP3    H219117   6.557   4.723   2.866  0.1889 -0.3647 -0.5274
 6385TIP3   OH219118   6.244   0.465   2.474 -0.0433  0.5200  0.2643
 6385TIP3    H119119   6.220   0.554   2.498  2.4494  0.8434  2.0265
 6385TIP3    H219120   6.263   0.422   2.558 -1.1722 -1.6898 -0.5415
 6386TIP3   OH219121   2.872   0.789   4.887  0.1812 -0.0757 -0.2965
 6386TIP3    H119122   2.776   0.795   4.887  0.1526 -0.5323 -0.4724
 6386TIP3    H219123   2.901   0.877   4.863 -0.1711  0.3586  0.8088
 6387TIP3   OH219124   2.273   6.649   1.466  0.1055 -0.5080 -0.0765
 6387TIP3    H119125   2.289   6.694   1.550  0.3253 -2.2567  0.8614
 6387TIP3    H219126   2.199   6.591   1.483 -0.7568  0.1045 -1.5247
 6388TIP3   OH219127   3.511   5.592   4.955 -0.6019  0.2446 -0.2596
 6388TIP3    H119128   3.436   5.633   4.998 -0.0051  0.0133  1.0442
 6388TIP3    H219129   3.517   5.505   4.995  0.9596  0.6343  0.4062
 6389TIP3   OH219130   3.419   2.032   0.294  0.0716  0.2742  0.1129
 6389TIP3    H119131   3.352   2.015   0.361  0.0874 -0.6898 -0.0943
 6389TIP3    H219132   3.502   2.023   0.340  0.0768  0.0256  0.0557
 6390TIP3   OH219133   5.186   5.494   3.853  0.1391 -0.0634 -0.5613
 6390TIP3    H119134   5.273   5.527   3.876  0.5401 -0.8815 -0.8438
 6390TIP3    H219135   5.185   5.404   3.887 -1.5055  0.6877  1.6366
 6391TIP3   OH219136   3.768   4.224   4.211  0.3284 -0.0156  0.4838
 6391TIP3    H119137   3.780   4.310   4.169  0.8285 -1.0497 -1.6130
 6391TIP3    H219138   3.839   4.170   4.177 -0.5728 -1.5557  0.9439
 6392TIP3   OH219139   5.855   6.551   5.212  0.3162 -0.1573  0.3484
 6392TIP3    H119140   5.872   6.644   5.225 -0.2123 -0.0430  0.2544
 6392TIP3    H219141   5.819   6.545   5.124  0.0675 -0.4147  0.4642
 6393TIP3   OH219142   0.684   5.758   4.922  0.5051  0.2169 -0.4094
 6393TIP3    H119143   0.694   5.839   4.872  1.8718 -0.6620 -1.6319
 6393TIP3    H219144   0.603   5.771   4.973 -0.4513  1.5138 -2.1513
 6394TIP3   OH219145   6.179   5.336   2.775 -0.1029 -0.5642 -0.3992
 6394TIP3    H119146   6.221   5.382   2.848 -1.6582 -1.1978  0.9734
 6394TIP3    H219147   6.160   5.404   2.711 -2.7271  0.9286  1.7403
 6395TIP3   OH219148   0.293   4.815   5.853  0.4976  0.0785  0.2420
 6395TIP3    H119149   0.305   4.774   5.768  1.1680  0.7340  0.0035
 6395TIP3    H219150   0.241   4.894   5.834 -1.1387 -0.8431  0.7491
 6396TIP3   OH219151   0.401   4.943   0.977 -0.8809  0.1521 -0.3470
 6396TIP3    H119152   0.474   4.945   0.916  0.7394 -0.1534  1.4759
 6396TIP3    H219153   0.325   4.967   0.925  0.3981 -0.1892 -2.4670
 6397TIP3   OH219154   0.664   1.650   0.547  0.0832  0.0798 -0.1430
 6397TIP3    H119155   0.737   1.590   0.531 -1.7828 -2.2973 -0.3794
 6397TIP3    H219156   0.700   1.737   0.528  2.9502 -0.9078  0.2495
 6398TIP3   OH219157   5.279   1.972   5.751 -0.3666 -0.1332 -0.2079
 6398TIP3    H119158   5.292   2.043   5.688 -0.1697  0.3107  0.3218
 6398TIP3    H219159   5.206   1.921   5.715  0.2611 -0.3690 -1.2076
 6399TIP3   OH219160   5.774   2.171   2.751 -0.5082  0.1160  0.5916
 6399TIP3    H119161   5.854   2.120   2.760 -0.1485  0.6900  0.7122
 6399TIP3    H219162   5.719   2.119   2.692  0.8042  0.7295 -1.2608
 6400TIP3   OH219163   0.138   0.233   0.783 -0.5541 -0.6335  0.2370
 6400TIP3    H119164   0.141   0.240   0.688 -1.6883 -0.7260  0.1786
 6400TIP3    H219165   0.230   0.232   0.810 -0.2105 -1.0762 -0.8815
 6401TIP3   OH219166   2.729   5.476   4.677 -0.6870 -0.5976 -0.4546
 6401TIP3    H119167   2.715   5.389   4.715 -0.3435 -0.4971 -0.0955
 6401TIP3    H219168   2.689   5.536   4.740 -0.1013 -0.4275 -0.2369
 6402TIP3   OH219169   5.765   4.729   0.759  0.5648  0.5564 -0.0152
 6402TIP3    H119170   5.681   4.767   0.786  0.9252  1.6989 -0.4642
 6402TIP3    H219171   5.800   4.691   0.839 -1.1906 -1.5850 -0.1647
 6403TIP3   OH219172   4.208   5.154   4.918  0.1586 -0.2734  0.1878
 6403TIP3    H119173   4.271   5.217   4.885 -0.7432 -0.6256 -2.4566
 6403TIP3    H219174   4.211   5.164   5.014  2.5301  1.2650  0.0241
 6404TIP3   OH219175   0.390   1.636   2.694  0.3881 -0.1105 -0.4027
 6404TIP3    H119176   0.384   1.542   2.678 -1.2661 -0.0218 -0.5602
 6404TIP3    H219177   0.325   1.674   2.635  0.2045  1.0129  0.4826
 6405TIP3   OH219178   2.485   6.664   3.194  0.3190  0.0260 -0.8445
 6405TIP3    H119179   2.405   6.707   3.163  1.6162  2.4375 -1.0669
 6405TIP3    H219180   2.556   6.712   3.150  1.9483 -0.8848  0.7019
 6406TIP3   OH219181   6.460   0.941   3.413 -0.3103 -0.2786  1.0224
 6406TIP3    H119182   6.466   0.869   3.476 -1.3467  0.6025  2.1799
 6406TIP3    H219183   6.386   0.993   3.443  0.1741  1.0712 -0.0072
 6407TIP3   OH219184   4.406   6.800   4.925 -0.1212  0.4343  0.1549
 6407TIP3    H119185   4.359   6.717   4.929 -2.6322  1.7358 -0.1057
 6407TIP3    H219186   4.484   6.781   4.873 -0.1232 -1.9313  0.8880
 6408TIP3   OH219187   7.161   1.863   2.627  0.2065  1.2850 -0.0231
 6408TIP3    H119188   7.143   1.830   2.715 -1.2271  2.6778  0.2651
 6408TIP3    H219189   7.128   1.795   2.569  0.8202  0.5161  0.5039
 6409TIP3   OH219190   1.122   1.895   4.515 -0.0424  0.4420 -0.4565
 6409TIP3    H119191   1.199   1.946   4.539  0.2882 -0.0187 -0.5245
 6409TIP3    H219192   1.135   1.810   4.557 -0.9103  0.6259  0.2118
 6410TIP3   OH219193   6.505   3.302   0.180  0.2643 -0.1114  0.0626
 6410TIP3    H119194   6.544   3.237   0.122 -0.7548 -0.1659 -0.5935
 6410TIP3    H219195   6.457   3.361   0.122 -1.3067 -0.5351  0.8594
 6411TIP3   OH219196   0.008   1.415   0.498  0.1057 -0.1451  0.0278
 6411TIP3    H119197   0.050   1.496   0.527  0.1470 -1.1111  2.9785
 6411TIP3    H219198  -0.050   1.442   0.426  1.1583  2.2171 -0.0211
 6412TIP3   OH219199   6.597   2.622   4.240 -0.4832 -0.2642 -0.2394
 6412TIP3    H119200   6.560   2.562   4.305  0.2144  0.2702  0.6692
 6412TIP3    H219201   6.645   2.564   4.180 -1.2286 -0.7720 -0.3566
 6413TIP3   OH219202   2.159   5.963   5.112 -0.1029  0.3384  0.1584
 6413TIP3    H119203   2.094   5.916   5.164  0.2353  0.7734  0.9880
 6413TIP3    H219204   2.207   5.894   5.067 -2.4355  0.0558 -2.1426
 6414TIP3   OH219205   6.662   1.564   5.068 -0.1531  0.4761 -0.3252
 6414TIP3    H119206   6.580   1.548   5.021 -0.8662 -1.3299  1.4050
 6414TIP3    H219207   6.645   1.533   5.157  2.1476  0.8698  0.3109
 6415TIP3   OH219208   3.193   1.127   5.385  0.0912  0.0372  0.5835
 6415TIP3    H119209   3.186   1.179   5.465 -0.5995  2.0553 -0.7095
 6415TIP3    H219210   3.236   1.185   5.322  0.6292 -1.4997 -0.5166
 6416TIP3   OH219211   1.954   0.498   2.027  0.0023 -0.1304 -0.2142
 6416TIP3    H119212   1.941   0.562   1.957  1.1676 -0.0296 -0.3624
 6416TIP3    H219213   2.023   0.535   2.081 -0.0779 -0.7566  0.3333
 6417TIP3   OH219214   3.913   1.276   5.163 -0.2026  0.6510  0.3440
 6417TIP3    H119215   3.936   1.302   5.252 -0.1980  0.8981  0.2725
 6417TIP3    H219216   3.845   1.339   5.137 -0.0708  0.6951  0.1068
 6418TIP3   OH219217   4.239   0.263   5.571  0.0691  0.2203 -0.1088
 6418TIP3    H119218   4.193   0.318   5.634  0.9616  1.2494 -0.3111
 6418TIP3    H219219   4.320   0.311   5.553  1.5941 -1.8568  0.8135
 6419TIP3   OH219220   6.559   6.236   3.229  0.1871 -0.5071 -0.1224
 6419TIP3    H119221   6.507   6.223   3.150 -0.8934 -0.5268  0.5674
 6419TIP3    H219222   6.648   6.213   3.203 -0.1158 -0.3458 -1.3701
 6420TIP3   OH219223   0.305   0.908   1.820  0.4192  0.5156 -0.1077
 6420TIP3    H119224   0.377   0.929   1.880 -0.1217  2.7992 -0.1680
 6420TIP3    H219225   0.339   0.930   1.733  0.0693  0.3960 -0.2773
 6421TIP3   OH219226   1.889   6.707   1.489  0.5084  0.1068  0.1544
 6421TIP3    H119227   1.889   6.788   1.539 -0.2003  0.3198 -0.1759
 6421TIP3    H219228   1.826   6.722   1.418 -0.3484 -1.0618  0.6278
 6422TIP3   OH219229   5.382   4.640   1.338  0.0457  1.1441 -0.3933
 6422TIP3    H119230   5.324   4.681   1.403  1.6160 -2.2334  3.6379
 6422TIP3    H219231   5.330   4.569   1.301  0.9038 -0.8602  2.0157
 6423TIP3   OH219232   2.153   0.852   0.037  0.0912  0.2662 -0.2813
 6423TIP3    H119233   2.204   0.857  -0.044 -2.2094  1.7047 -1.7503
 6423TIP3    H219234   2.151   0.942   0.070 -0.4104 -0.0153  0.4824
 6424TIP3   OH219235   2.344   0.738   1.821 -0.0049  0.6231  0.4623
 6424TIP3    H119236   2.435   0.719   1.842 -0.1085  0.9803  1.2654
 6424TIP3    H219237   2.304   0.653   1.807  0.0503  0.3458  1.8524
 6425TIP3   OH219238   1.621   5.733   0.092 -0.2416  0.0762 -0.0573
 6425TIP3    H119239   1.527   5.722   0.078 -0.1016  1.0229 -2.2147
 6425TIP3    H219240   1.628   5.789   0.169 -1.4237 -0.4965  0.4840
 6426TIP3   OH219241   4.436   1.341   3.648  0.5195 -0.0140  0.1147
 6426TIP3    H119242   4.448   1.300   3.562  1.1257  2.1406 -0.9033
 6426TIP3    H219243   4.342   1.346   3.660  0.2524  2.5101 -1.9976
 6427TIP3   OH219244   3.944   4.082   3.415 -0.0015  0.1670 -0.1154
 6427TIP3    H119245   3.910   4.077   3.504 -0.7028  0.0856 -0.3843
 6427TIP3    H219246   4.039   4.084   3.426 -0.0912  2.0890  0.7428
 6428TIP3   OH219247   4.573   3.677   0.843  0.3357  0.3329  0.5339
 6428TIP3    H119248   4.490   3.723   0.836 -0.1042 -0.5565 -0.4012
 6428TIP3    H219249   4.577   3.622   0.764  1.0271 -0.8761  1.3698
 6429TIP3   OH219250   2.447   3.658   0.445  0.2408  0.4458 -0.7186
 6429TIP3    H119251   2.387   3.631   0.375 -0.4067  2.5375 -1.0325
 6429TIP3    H219252   2.504   3.582   0.459 -3.5910 -2.4555  0.9319
 6430TIP3   OH219253   1.568   5.802   5.356 -0.4545 -0.4501  0.0467
 6430TIP3    H119254   1.611   5.783   5.439  0.0146 -0.1258 -0.1167
 6430TIP3    H219255   1.590   5.727   5.300  1.0894  0.3702 -0.4830
 6431TIP3   OH219256   6.442   2.836   3.553  0.1223 -0.5891 -0.6042
 6431TIP3    H119257   6.409   2.773   3.489 -1.0604 -0.1638 -0.4317
 6431TIP3    H219258   6.410   2.921   3.522  3.5729  0.3566 -2.1430
 6432TIP3   OH219259   6.998   1.573   5.310  0.2755  0.0496  0.0254
 6432TIP3    H119260   6.944   1.515   5.363  0.0716  1.5880  1.5932
 6432TIP3    H219261   6.956   1.659   5.319  1.4231  0.7455 -0.9806
 6433TIP3   OH219262   3.879   5.673   3.479  0.2826  0.4474 -0.1561
 6433TIP3    H119263   3.930   5.592   3.473 -0.8079 -0.1167 -3.4018
 6433TIP3    H219264   3.816   5.656   3.549  0.4143 -1.3130 -0.4197
 6434TIP3   OH219265   0.867   1.615   2.539 -0.3206  0.0995  0.4062
 6434TIP3    H119266   0.784   1.663   2.533 -1.6006 -2.1054 -3.2163
 6434TIP3    H219267   0.932   1.675   2.504 -1.2008  0.4841 -0.6300
 6435TIP3   OH219268   3.209   0.658   1.036 -0.1389 -0.4557  0.7484
 6435TIP3    H119269   3.292   0.614   1.054  0.8074  0.5747 -0.8588
 6435TIP3    H219270   3.228   0.751   1.045  0.0896  0.1384 -3.5262
 6436TIP3   OH219271   6.613   1.039   4.646 -0.3258  0.2309  1.2728
 6436TIP3    H119272   6.708   1.042   4.635 -0.0730 -0.8457  2.8200
 6436TIP3    H219273   6.578   1.066   4.561  1.3633 -0.5020  0.2953
 6437TIP3   OH219274   5.831   2.030   5.176  0.4928 -0.0134 -0.5220
 6437TIP3    H119275   5.847   1.962   5.110 -0.8949  0.4288 -1.3611
 6437TIP3    H219276   5.737   2.043   5.174  0.6060  1.1066  0.4700
 6438TIP3   OH219277   3.508   1.976   0.837  0.1774  0.2044 -0.3822
 6438TIP3    H119278   3.435   2.025   0.799  0.4292 -0.1805 -1.3983
 6438TIP3    H219279   3.484   1.884   0.827  0.1767  0.0876  0.5668
 6439TIP3   OH219280   2.310   5.463   3.506  0.0192 -0.4022  0.1457
 6439TIP3    H119281   2.265   5.379   3.490 -2.4300  0.8175  0.0832
 6439TIP3    H219282   2.374   5.469   3.436  0.5205 -2.3690  0.3632
 6440TIP3   OH219283   6.992   5.892   0.919  0.4307  0.0879  0.1568
 6440TIP3    H119284   7.004   5.961   0.854  1.8832 -0.8460 -0.6147
 6440TIP3    H219285   7.009   5.934   1.003 -3.3930  1.8330  0.2909
 6441TIP3   OH219286   1.808   0.649   4.444  0.8404  0.6295  0.7351
 6441TIP3    H119287   1.717   0.620   4.432  0.1177  2.7965  0.6839
 6441TIP3    H219288   1.816   0.666   4.537  0.7587  1.7420  0.5509
 6442TIP3   OH219289   3.245   3.796   1.307 -0.1719 -0.0069  0.6961
 6442TIP3    H119290   3.159   3.764   1.278 -0.4312  0.0484  1.3801
 6442TIP3    H219291   3.272   3.734   1.374  1.2247 -1.1306 -0.8494
 6443TIP3   OH219292   5.797   4.186   5.857  0.2195  0.6820  0.2687
 6443TIP3    H119293   5.792   4.104   5.906  0.2654  0.7906  0.4555
 6443TIP3    H219294   5.714   4.192   5.809 -0.6360  1.4929  1.7851
 6444TIP3   OH219295   3.393   3.043   0.705 -0.0095 -0.1947  0.0779
 6444TIP3    H119296   3.452   3.095   0.759  1.6529 -0.2228 -1.5805
 6444TIP3    H219297   3.398   2.955   0.742 -0.6977  0.2352  1.2336
 6445TIP3   OH219298   4.577   1.831   0.890  0.0384  0.2488  0.5803
 6445TIP3    H119299   4.487   1.802   0.907 -0.5243  1.1472 -0.7348
 6445TIP3    H219300   4.588   1.825   0.796  1.7041 -0.7346  0.7969
 6446TIP3   OH219301   3.069   0.921   2.821  0.1349  0.5723 -0.1635
 6446TIP3    H119302   3.097   0.954   2.735 -0.2518 -0.0235 -0.5189
 6446TIP3    H219303   3.079   0.826   2.815 -2.4760  0.2682 -0.4934
 6447TIP3   OH219304   1.387   4.558   5.690 -0.4698  0.3503 -0.0853
 6447TIP3    H119305   1.427   4.471   5.694 -0.5849  0.3212  0.7251
 6447TIP3    H219306   1.342   4.567   5.775 -0.7435  1.0611 -0.2992
 6448TIP3   OH219307   3.951   1.957   0.500  1.3539 -0.1121 -0.3529
 6448TIP3    H119308   3.906   1.941   0.417 -1.6806  4.1090  0.1745
 6448TIP3    H219309   4.040   1.981   0.475  0.6895  0.4345 -2.3661
 6449TIP3   OH219310   5.664   1.808   4.940  0.1950  0.5576 -0.5499
 6449TIP3    H119311   5.688   1.895   4.908  1.4116  0.2243 -0.5847
 6449TIP3    H219312   5.738   1.752   4.917  0.6670  0.0741  1.8467
 6450TIP3   OH219313   0.776   1.651   5.516 -0.2444  0.4528  0.0318
 6450TIP3    H119314   0.820   1.576   5.557 -0.9401 -0.4954 -0.8940
 6450TIP3    H219315   0.716   1.683   5.583  0.2573  0.3572  0.5319
 6451TIP3   OH219316   6.332   3.597   2.669  0.1502 -0.7899 -0.1757
 6451TIP3    H119317   6.426   3.582   2.660  0.3028 -0.0054  0.0061
 6451TIP3    H219318   6.325   3.659   2.742 -0.5534 -1.3420  0.2345
 6452TIP3   OH219319   4.702   4.165   4.838  0.6206 -0.8600 -0.2786
 6452TIP3    H119320   4.696   4.145   4.932  0.4385  0.6604  0.0517
 6452TIP3    H219321   4.781   4.218   4.830  0.3607 -0.5663 -0.9118
 6453TIP3   OH219322   1.097   5.517   1.600  0.2911  0.4364 -0.0805
 6453TIP3    H119323   1.134   5.496   1.685 -0.9240 -1.2637  0.0744
 6453TIP3    H219324   1.051   5.600   1.613  0.9551  0.7052  0.6373
 6454TIP3   OH219325   4.066   1.376   1.593 -0.3800  0.0332  0.3060
 6454TIP3    H119326   4.049   1.294   1.547 -1.2145 -0.5649  1.6285
 6454TIP3    H219327   4.150   1.362   1.637 -0.2095  0.1265  0.0097
 6455TIP3   OH219328   2.543   3.027   3.723 -0.2758 -0.3556 -0.1357
 6455TIP3    H119329   2.612   3.086   3.755 -0.3787  0.5774 -1.5573
 6455TIP3    H219330   2.473   3.086   3.693 -1.7612 -1.2764  1.3416
 6456TIP3   OH219331   2.432   3.655   1.342 -0.4267  0.2570 -0.6581
 6456TIP3    H119332   2.460   3.716   1.410  1.8308 -2.2238  0.8109
 6456TIP3    H219333   2.398   3.580   1.390 -0.4700 -0.8231 -2.3134
 6457TIP3   OH219334   3.202   6.649   4.958 -0.6023 -0.4913  0.0298
 6457TIP3    H119335   3.187   6.687   5.044 -0.3399  0.0776 -0.1671
 6457TIP3    H219336   3.115   6.625   4.927 -1.1671  2.3415 -0.9094
 6458TIP3   OH219337   6.925   6.174   3.997  0.2874 -0.3818  0.1620
 6458TIP3    H119338   6.940   6.247   4.056 -0.5671 -1.1748  1.4304
 6458TIP3    H219339   6.843   6.135   4.028  2.0515 -3.5053  1.3200
 6459TIP3   OH219340   6.244   2.143   1.215 -0.2587 -0.6790  0.0894
 6459TIP3    H119341   6.225   2.053   1.240  0.9360 -1.3543 -1.2920
 6459TIP3    H219342   6.333   2.158   1.247 -0.2867 -0.1316 -0.0750
 6460TIP3   OH219343   6.154   0.497   1.444 -0.3820 -0.2373 -0.2736
 6460TIP3    H119344   6.151   0.451   1.527 -1.0707  0.1827 -0.0576
 6460TIP3    H219345   6.075   0.468   1.398 -1.4986  1.6386  0.3712
 6461TIP3   OH219346   6.902   4.378   3.846 -0.4211 -0.0646 -0.6417
 6461TIP3    H119347   6.808   4.361   3.839 -0.1424 -1.6969 -0.8380
 6461TIP3    H219348   6.943   4.297   3.817  1.0678  0.7637 -0.9470
 6462TIP3   OH219349   0.329   3.612   1.516 -0.1036 -0.2979 -0.0851
 6462TIP3    H119350   0.240   3.640   1.499 -0.9055 -0.9552  2.5294
 6462TIP3    H219351   0.365   3.678   1.574  0.7360 -0.6125 -0.2254
 6463TIP3   OH219352   4.890   1.168   4.979 -0.5274  0.1157 -0.2243
 6463TIP3    H119353   4.905   1.240   5.041  2.4660  1.0451 -1.8210
 6463TIP3    H219354   4.972   1.118   4.981 -1.8034 -2.0875 -0.6496
 6464TIP3   OH219355   3.919   3.284   5.455 -0.3426 -0.5018 -0.6456
 6464TIP3    H119356   3.898   3.204   5.405  0.8835 -1.4784  0.3274
 6464TIP3    H219357   3.869   3.275   5.536 -1.2515  0.4010 -1.0938
 6465TIP3   OH219358   1.297   1.955   1.847 -0.3175  0.1283  0.1433
 6465TIP3    H119359   1.327   2.011   1.919 -2.5009  1.6503 -0.0376
 6465TIP3    H219360   1.286   2.015   1.774 -0.6940 -0.9417 -0.6884
 6466TIP3   OH219361   7.135   2.997   3.663 -0.5633 -0.1323  0.2932
 6466TIP3    H119362   7.092   3.008   3.748  1.3351 -1.4371  1.5060
 6466TIP3    H219363   7.128   3.083   3.622 -1.9098  0.4200  1.5657
 6467TIP3   OH219364   5.485   0.668   2.680  0.9827 -0.0942 -0.0725
 6467TIP3    H119365   5.542   0.591   2.683  0.6236 -0.3341  1.5629
 6467TIP3    H219366   5.450   0.669   2.591  0.1523 -2.4753  0.1501
 6468TIP3   OH219367   2.009   0.534   2.386 -0.1143 -0.3528 -0.3855
 6468TIP3    H119368   2.045   0.447   2.402  0.8301  0.1862  0.6417
 6468TIP3    H219369   2.062   0.568   2.314 -0.4796 -0.6253 -0.7835
 6469TIP3   OH219370   6.951   6.029   5.098 -0.0282  0.1067  0.0159
 6469TIP3    H119371   6.931   6.093   5.167 -0.8655  0.5894 -0.6520
 6469TIP3    H219372   6.869   6.021   5.049  0.6682  0.0992 -1.1824
 6470TIP3   OH219373   1.530   4.444   0.280  0.0619  0.2600  0.1721
 6470TIP3    H119374   1.545   4.349   0.283 -1.6593 -0.1848 -2.2521
 6470TIP3    H219375   1.528   4.471   0.372  0.5964 -2.0416  0.9274
 6471TIP3   OH219376   2.493   1.181   4.216  0.0447  0.0725 -0.0902
 6471TIP3    H119377   2.405   1.194   4.181  0.0749  0.0839 -0.1614
 6471TIP3    H219378   2.536   1.123   4.154 -0.3464 -1.0271  0.6423
 6472TIP3   OH219379   4.932   0.817   1.455 -0.3971 -0.0203 -0.1382
 6472TIP3    H119380   4.932   0.790   1.547  0.1353 -1.5656 -0.5451
 6472TIP3    H219381   4.840   0.815   1.429 -0.5722  0.6492  0.4107
 6473TIP3   OH219382   7.023   3.007   0.909  0.0119  0.9250  0.0674
 6473TIP3    H119383   6.964   3.060   0.856  0.0518  1.5064  0.5951
 6473TIP3    H219384   7.097   2.987   0.852 -0.6799  0.2115 -0.5943
 6474TIP3   OH219385   2.812   6.512   5.387 -0.7827 -0.0634  0.1523
 6474TIP3    H119386   2.852   6.571   5.323 -0.7247  0.6436  0.8205
 6474TIP3    H219387   2.861   6.430   5.378  0.3640  0.5632  0.4570
 6475TIP3   OH219388   0.876   1.514   1.551  0.2799 -0.1353  0.1120
 6475TIP3    H119389   0.853   1.458   1.477  0.0142  1.2915 -0.9480
 6475TIP3    H219390   0.804   1.506   1.612  1.1053 -2.3558  0.8838
 6476TIP3   OH219391   2.629   0.702   1.698 -0.2562  0.0923  0.1630
 6476TIP3    H119392   2.681   0.622   1.707  0.6355  0.7975  1.6310
 6476TIP3    H219393   2.615   0.731   1.788 -1.5034  1.0102 -0.3061
 6477TIP3   OH219394   7.076   5.766   4.138 -0.3567 -0.2587  0.0520
 6477TIP3    H119395   7.057   5.860   4.148  0.7527  0.5037 -3.3464
 6477TIP3    H219396   7.110   5.739   4.223  2.2402  3.2406  0.3625
 6478TIP3   OH219397   0.238   5.856   4.570 -0.2511 -0.2822 -0.2522
 6478TIP3    H119398   0.241   5.862   4.475 -0.6337  0.2409 -0.2353
 6478TIP3    H219399   0.267   5.942   4.601 -0.6450 -0.2741  0.0983
 6479TIP3   OH219400   3.522   5.194   1.340  0.3748 -0.1781 -0.0809
 6479TIP3    H119401   3.511   5.283   1.371  0.7380  0.1055 -0.7565
 6479TIP3    H219402   3.616   5.183   1.329  0.3375 -0.6593  0.0407
 6480TIP3   OH219403   4.022   5.248   1.898  0.8781 -0.2325  0.1717
 6480TIP3    H119404   4.047   5.340   1.910  1.6183 -0.3585 -0.3722
 6480TIP3    H219405   4.005   5.216   1.987  2.5116 -0.1015  0.5570
 6481TIP3   OH219406   5.344   6.016   2.505 -0.3139 -0.5555  0.5512
 6481TIP3    H119407   5.365   6.005   2.412 -0.7767 -1.8722  0.5882
 6481TIP3    H219408   5.337   6.111   2.516  0.2997 -0.3510 -0.6313
 6482TIP3   OH219409   5.554   4.071   2.020  0.5589 -0.1004  0.6304
 6482TIP3    H119410   5.633   4.123   2.005 -0.3414  1.1426  0.0276
 6482TIP3    H219411   5.485   4.118   1.973 -0.3872 -1.6091  0.4561
 6483TIP3   OH219412   6.495   3.747   1.070  0.6234 -0.0987 -0.3796
 6483TIP3    H119413   6.581   3.766   1.106  1.0404  0.8966 -1.8275
 6483TIP3    H219414   6.502   3.659   1.035 -0.0282 -1.4423  2.5322
 6484TIP3   OH219415   5.194   6.111   3.756 -0.0182 -0.5502 -0.0300
 6484TIP3    H119416   5.134   6.072   3.819  0.4036  0.2999  0.9281
 6484TIP3    H219417   5.258   6.157   3.809  0.9772 -0.6977 -1.0557
 6485TIP3   OH219418   5.441   0.679   2.423 -0.2456  0.5443 -0.6374
 6485TIP3    H119419   5.353   0.717   2.430  0.4072  1.9843  0.0950
 6485TIP3    H219420   5.425   0.588   2.398 -2.0414  0.1491  1.5979
 6486TIP3   OH219421   5.267   4.648   2.711 -0.3108  0.7963 -0.6613
 6486TIP3    H119422   5.272   4.663   2.806  0.2776  1.2632 -0.7557
 6486TIP3    H219423   5.174   4.648   2.691 -0.5522 -1.1006  0.1826
 6487TIP3   OH219424   4.312   6.155   3.010 -0.1259 -0.2051 -0.1463
 6487TIP3    H119425   4.351   6.228   2.963 -0.3229  0.6705  0.9855
 6487TIP3    H219426   4.339   6.168   3.101 -2.3560  0.0213  0.5629
 6488TIP3   OH219427   4.706   0.805   2.209 -0.5037 -0.2043 -0.2373
 6488TIP3    H119428   4.710   0.882   2.265 -0.1019  1.3378 -2.2943
 6488TIP3    H219429   4.623   0.812   2.163  0.5474  0.3406 -2.1666
 6489TIP3   OH219430   3.979   2.144   1.624 -0.2709 -0.2020  0.8406
 6489TIP3    H119431   3.936   2.088   1.688  1.1662 -1.9734  0.3045
 6489TIP3    H219432   4.042   2.088   1.580  0.0710  1.4260 -0.8832
 6490TIP3   OH219433   3.633   6.229   2.320  0.3339 -0.0032  0.0855
 6490TIP3    H119434   3.655   6.321   2.325  0.7951 -0.1510  0.9000
 6490TIP3    H219435   3.640   6.197   2.410  0.9109 -0.9976 -0.2970
 6491TIP3   OH219436   1.634   3.284   5.609 -0.1438 -0.4099  0.0193
 6491TIP3    H119437   1.681   3.265   5.691  1.1424 -0.4506 -0.6997
 6491TIP3    H219438   1.560   3.337   5.637  0.6886  0.2236  1.1476
 6492TIP3   OH219439  -0.031   3.053   3.161  0.4015  0.0094 -0.4829
 6492TIP3    H119440   0.049   3.096   3.132 -0.6847  3.4155  1.0106
 6492TIP3    H219441  -0.013   3.028   3.252 -0.9038  3.3609  0.8675
 6493TIP3   OH219442   0.372   3.858   2.706 -0.3005 -0.4247 -0.2362
 6493TIP3    H119443   0.354   3.911   2.628 -1.8612 -1.2870 -0.5102
 6493TIP3    H219444   0.467   3.862   2.717 -0.1113  0.1818 -1.8573
 6494TIP3   OH219445   6.775   6.313   1.168  0.0870 -0.3620  0.1260
 6494TIP3    H119446   6.728   6.358   1.098 -1.3394 -1.4703  0.3057
 6494TIP3    H219447   6.796   6.227   1.131  0.4777 -0.4872  0.6260
 6495TIP3   OH219448   6.972   3.386   5.669 -0.5924 -0.6630 -0.1470
 6495TIP3    H119449   6.987   3.296   5.641  1.9438  0.5261 -3.2575
 6495TIP3    H219450   6.905   3.419   5.610  0.0351  0.0451 -0.4879
 6496TIP3   OH219451   5.626   1.380   1.724 -0.1765 -0.0285  0.1036
 6496TIP3    H119452   5.627   1.363   1.818 -0.2684  1.1592  0.3313
 6496TIP3    H219453   5.662   1.468   1.715 -0.9273  0.1911 -0.8988
 6497TIP3   OH219454   5.581   1.703   0.886 -0.0407 -0.8806  0.4355
 6497TIP3    H119455   5.516   1.646   0.846 -0.5375  0.8248 -1.3612
 6497TIP3    H219456   5.541   1.732   0.968 -0.3791 -1.9575  0.6589
 6498TIP3   OH219457   6.916   3.713   5.094 -0.1518  0.0768  0.0020
 6498TIP3    H119458   6.876   3.795   5.123 -0.3924  0.1861 -0.6045
 6498TIP3    H219459   6.911   3.655   5.170 -0.8051  0.3335  0.1627
 6499TIP3   OH219460   3.735   4.814   2.616 -0.1186  0.3856  0.2630
 6499TIP3    H119461   3.806   4.855   2.566 -0.7881  0.6177 -0.5412
 6499TIP3    H219462   3.655   4.846   2.573 -0.6793 -1.7747 -0.4190
 6500TIP3   OH219463   3.013   3.207   4.483 -0.5112 -0.5574  0.1720
 6500TIP3    H119464   2.928   3.249   4.469  0.3145  1.0768 -0.3132
 6500TIP3    H219465   3.050   3.253   4.558  0.6891  0.0916 -0.7712
 6501TIP3   OH219466   6.960   5.190   3.858  0.1695  0.3374 -0.0390
 6501TIP3    H119467   7.015   5.264   3.832  0.0397  0.5086  0.1669
 6501TIP3    H219468   6.971   5.183   3.952  1.3441 -0.8608 -0.2387
 6502TIP3   OH219469   0.713   1.418   1.281 -0.7488 -0.1143 -0.3054
 6502TIP3    H119470   0.625   1.431   1.315  0.0407  2.2801  1.0981
 6502TIP3    H219471   0.737   1.503   1.244  1.5419 -0.1769  0.8525
 6503TIP3   OH219472   4.636   6.569   3.767  0.1422  0.4711  0.1763
 6503TIP3    H119473   4.687   6.582   3.687 -0.1821 -0.8339 -0.2723
 6503TIP3    H219474   4.663   6.640   3.824  1.0530  0.9083 -0.7571
 6504TIP3   OH219475   1.788   3.508   3.756 -0.3768 -0.1085 -0.2288
 6504TIP3    H119476   1.878   3.490   3.729 -0.4581  0.2268 -0.7351
 6504TIP3    H219477   1.784   3.476   3.846  0.3346  0.1622 -0.0918
 6505TIP3   OH219478   6.157   3.218   5.815  0.6186 -0.2830 -0.1725
 6505TIP3    H119479   6.196   3.271   5.885 -0.2752 -0.2993  0.3562
 6505TIP3    H219480   6.128   3.281   5.750 -0.2042 -0.1265  0.3336
 6506TIP3   OH219481   6.249   3.222   1.487  0.1410  0.8995 -0.2691
 6506TIP3    H119482   6.163   3.181   1.479  0.3955  0.3128 -0.0613
 6506TIP3    H219483   6.233   3.315   1.472 -0.7120  0.9497  0.8110
 6507TIP3   OH219484   0.281   4.428   0.325 -0.2636  0.2909  0.4291
 6507TIP3    H119485   0.263   4.378   0.245  0.5889  0.4210  0.1482
 6507TIP3    H219486   0.245   4.515   0.308 -0.4883  0.1888  0.3711
 6508TIP3   OH219487   3.852   6.697   5.416 -0.0941 -0.4675 -0.2807
 6508TIP3    H119488   3.921   6.711   5.352  1.7862 -0.6938  1.5810
 6508TIP3    H219489   3.897   6.698   5.500 -1.9639 -3.1251  0.8937
 6509TIP3   OH219490   5.561   6.678   5.485  0.0424  0.2525 -0.3100
 6509TIP3    H119491   5.556   6.619   5.411 -2.0354  0.6790 -0.5812
 6509TIP3    H219492   5.624   6.638   5.545  0.1791 -1.1615 -1.3687
 6510TIP3   OH219493   6.730   1.175   4.219 -0.4795 -0.1831  0.2597
 6510TIP3    H119494   6.652   1.179   4.275 -1.5614 -1.6223 -1.0539
 6510TIP3    H219495   6.708   1.110   4.152  2.0138 -0.9402  0.0666
 6511TIP3   OH219496   0.945   2.287   3.099 -0.4443 -0.2315  0.1284
 6511TIP3    H119497   1.016   2.257   3.041 -1.3105 -1.9307 -0.1147
 6511TIP3    H219498   0.924   2.211   3.153 -0.6071  0.9096  1.7502
 6512TIP3   OH219499   5.772   4.349   4.714 -0.6636 -0.3199  0.1993
 6512TIP3    H119500   5.848   4.297   4.740 -0.1021  0.4330  0.0970
 6512TIP3    H219501   5.771   4.343   4.618  0.5678  1.4095  0.0295
 6513TIP3   OH219502   5.463   1.849   2.911 -0.4029  0.6711  0.1821
 6513TIP3    H119503   5.444   1.942   2.922  0.4346  0.8033  0.5939
 6513TIP3    H219504   5.543   1.835   2.962 -0.2341 -0.1610 -0.2939
 6514TIP3   OH219505   3.406   6.329   3.111 -0.2441 -0.2534  0.0668
 6514TIP3    H119506   3.495   6.306   3.135 -0.6406 -1.8471  0.1548
 6514TIP3    H219507   3.413   6.364   3.022  0.4725 -0.3928  0.0636
 6515TIP3   OH219508   3.529   2.868   4.495 -0.0795  0.1838 -0.3494
 6515TIP3    H119509   3.517   2.852   4.401 -0.5562  0.4593 -0.3402
 6515TIP3    H219510   3.589   2.941   4.499 -2.6400  2.4507 -0.5432
 6516TIP3   OH219511   3.552   3.408   3.639  0.0630 -0.2329 -0.1798
 6516TIP3    H119512   3.553   3.313   3.650 -1.7249 -0.1478  1.2371
 6516TIP3    H219513   3.606   3.424   3.561 -0.6856 -2.5155 -1.2658
 6517TIP3   OH219514   5.781   5.857   1.278 -0.0270 -0.2159 -0.0804
 6517TIP3    H119515   5.858   5.905   1.309 -0.2783  0.1309  0.0311
 6517TIP3    H219516   5.763   5.893   1.191 -1.0161  0.8976  0.5399
 6518TIP3   OH219517   3.813   6.239   5.787 -0.5848  0.2942  0.7578
 6518TIP3    H119518   3.829   6.254   5.694 -0.0830 -0.6959  0.6707
 6518TIP3    H219519   3.900   6.241   5.827 -0.5843 -1.1801  0.8920
 6519TIP3   OH219520   5.977   0.924   2.753 -0.0039 -0.1552  0.1886
 6519TIP3    H119521   5.969   0.911   2.658  0.4736 -0.9581  0.2480
 6519TIP3    H219522   5.894   0.892   2.789  0.5322 -1.5882  0.1898
 6520TIP3   OH219523   3.116   0.162   1.810 -0.5302 -0.4310 -0.3913
 6520TIP3    H119524   3.109   0.128   1.899 -1.3091 -0.0500 -0.2979
 6520TIP3    H219525   3.082   0.091   1.755  1.7071 -1.4392 -0.5876
 6521TIP3   OH219526   3.347   1.817   1.011  0.4896  0.4406  0.4406
 6521TIP3    H119527   3.318   1.792   1.099  0.2692 -0.4541  0.1283
 6521TIP3    H219528   3.397   1.741   0.980 -1.3040 -0.2231 -1.0514
 6522TIP3   OH219529   1.646   4.600   5.614  0.2881 -0.0795 -0.5936
 6522TIP3    H119530   1.670   4.604   5.707  1.5415 -0.8506 -0.8583
 6522TIP3    H219531   1.552   4.614   5.613  0.2454 -0.1118  0.8021
 6523TIP3   OH219532   5.235   3.103   0.123 -0.1640 -0.1662 -0.6196
 6523TIP3    H119533   5.276   3.142   0.200 -2.1401  0.7510  0.0428
 6523TIP3    H219534   5.224   3.177   0.062 -1.5071 -0.1858 -0.4424
 6524TIP3   OH219535   3.417   0.795   1.317 -0.2605  0.0125  0.6312
 6524TIP3    H119536   3.423   0.700   1.331  0.9787  0.2756  2.1058
 6524TIP3    H219537   3.331   0.819   1.351 -1.1003 -0.7207 -0.8580
 6525TIP3   OH219538   0.643   6.476   2.287 -0.2903  0.4360 -0.0152
 6525TIP3    H119539   0.720   6.492   2.232  0.8326  0.6609  1.5454
 6525TIP3    H219540   0.602   6.562   2.297  1.4653  1.1380  2.2026
 6526TIP3   OH219541   6.739   0.799   1.811 -0.1310 -0.3369  0.8664
 6526TIP3    H119542   6.760   0.850   1.890 -0.1495 -1.1852  1.4305
 6526TIP3    H219543   6.819   0.748   1.794 -0.3089 -0.5420  0.6383
 6527TIP3   OH219544   3.640   6.566   1.068 -0.4687  0.0699 -0.1762
 6527TIP3    H119545   3.576   6.554   0.999 -1.5657 -2.5975  1.1763
 6527TIP3    H219546   3.725   6.554   1.024 -0.9919  1.0461 -1.5032
 6528TIP3   OH219547   3.627   0.931   0.308 -0.1806 -0.1419 -0.7089
 6528TIP3    H119548   3.716   0.899   0.295 -0.6818 -1.9188  0.0190
 6528TIP3    H219549   3.575   0.853   0.327 -1.4333  1.0911  1.3962
 6529TIP3   OH219550   0.218   5.594   3.763 -0.7888  0.3042  0.2270
 6529TIP3    H119551   0.296   5.646   3.782 -1.1398  1.1657 -0.6225
 6529TIP3    H219552   0.223   5.521   3.824 -0.0981  1.1434  1.2101
 6530TIP3   OH219553   5.688   5.395   2.829  0.2171 -0.1683 -0.4288
 6530TIP3    H119554   5.686   5.299   2.829  0.7447 -0.1828 -0.7649
 6530TIP3    H219555   5.614   5.420   2.775 -0.7018 -0.3544  0.6927
 6531TIP3   OH219556   6.864   0.986   3.163 -0.5441 -0.2717 -0.2825
 6531TIP3    H119557   6.897   1.068   3.200  1.2072 -0.8741 -0.3848
 6531TIP3    H219558   6.915   0.974   3.083  0.8257 -2.4729  0.7929
 6532TIP3   OH219559   6.491   4.839   4.577 -0.2677  0.2703 -0.3471
 6532TIP3    H119560   6.490   4.745   4.595 -0.2179  0.7109  2.4017
 6532TIP3    H219561   6.400   4.860   4.555 -0.0869 -0.5409 -2.0422
 6533TIP3   OH219562   1.096   4.878   3.127  0.3135  0.2948 -0.3505
 6533TIP3    H119563   1.118   4.785   3.135 -2.1538 -0.1908  2.8918
 6533TIP3    H219564   1.146   4.920   3.198  0.1964  1.1820 -0.7838
 6534TIP3   OH219565   7.050   4.439   4.074  0.0047 -0.0446  0.0284
 6534TIP3    H119566   7.092   4.365   4.119 -0.5395 -1.7733 -2.1102
 6534TIP3    H219567   7.009   4.399   3.997 -1.3312  2.3511 -0.5878
 6535TIP3   OH219568   6.070   3.789   2.514 -0.0728 -0.2833 -0.3942
 6535TIP3    H119569   6.038   3.704   2.482  1.1263 -0.7695 -0.3655
 6535TIP3    H219570   6.161   3.792   2.484  0.1964  0.5454  0.4911
 6536TIP3   OH219571   4.031   4.328   3.557  0.5650 -0.2731  0.7453
 6536TIP3    H119572   4.110   4.288   3.521  1.6034  0.9232  1.6163
 6536TIP3    H219573   4.058   4.416   3.583 -1.4073  0.6615 -0.1718
 6537TIP3   OH219574   7.057   0.643   4.246 -0.9212 -0.2333  0.3079
 6537TIP3    H119575   7.010   0.634   4.329 -2.4122  0.5855 -0.3932
 6537TIP3    H219576   7.063   0.738   4.233 -1.1946 -0.3482 -0.7555
 6538TIP3   OH219577   5.124   6.259   4.588 -0.0867  0.4525  0.7891
 6538TIP3    H119578   5.194   6.203   4.554 -0.4885  1.2821 -1.6089
 6538TIP3    H219579   5.095   6.215   4.667  0.0585 -2.4091 -0.6230
 6539TIP3   OH219580   1.302   4.931   3.335 -0.1009 -0.3218  0.0986
 6539TIP3    H119581   1.384   4.979   3.336 -1.0768  1.4365  0.6057
 6539TIP3    H219582   1.269   4.937   3.425 -0.6336 -1.2800 -0.0198
 6540TIP3   OH219583   3.408   0.503   1.124 -0.2251 -0.2734 -0.0434
 6540TIP3    H119584   3.384   0.418   1.088  0.7420 -0.6913  0.2634
 6540TIP3    H219585   3.429   0.485   1.216  0.1935  0.2562 -0.0311
 6541TIP3   OH219586   0.692   4.354   2.935 -0.2561  0.3541 -0.8293
 6541TIP3    H119587   0.721   4.412   3.005 -1.7667  0.1893 -0.0295
 6541TIP3    H219588   0.773   4.313   2.904  0.5799  1.2531  0.0487
 6542TIP3   OH219589   4.228   2.451   1.220 -0.0373 -0.1395  0.4722
 6542TIP3    H119590   4.254   2.486   1.134 -0.8642  0.9744  0.6546
 6542TIP3    H219591   4.273   2.367   1.225  1.5262  0.5924 -0.2629
 6543TIP3   OH219592   4.279   0.391   0.884  0.5830  0.3314  0.6501
 6543TIP3    H119593   4.305   0.299   0.894  0.4148  0.2949  0.7560
 6543TIP3    H219594   4.248   0.416   0.971  0.0948  0.3205  0.4847
 6544TIP3   OH219595   1.056   6.186   0.088 -0.1047 -0.1802  0.5107
 6544TIP3    H119596   1.119   6.118   0.065 -0.6142  0.0760 -1.8856
 6544TIP3    H219597   1.108   6.267   0.089 -0.2037 -0.1012 -0.4662
 6545TIP3   OH219598   2.586   5.656   4.848 -0.5553 -0.1543 -0.0131
 6545TIP3    H119599   2.530   5.721   4.805 -0.3202 -0.4233 -0.7383
 6545TIP3    H219600   2.525   5.593   4.886 -0.7657 -1.0686 -1.7666
 6546TIP3   OH219601   3.518   0.639   0.339  0.4441 -0.5739  0.5426
 6546TIP3    H119602   3.516   0.608   0.248  0.4911  0.6846  0.1015
 6546TIP3    H219603   3.538   0.560   0.390  4.3568 -0.6819 -0.8347
 6547TIP3   OH219604   6.156   3.500   2.469  0.4226  0.1960  0.0373
 6547TIP3    H119605   6.221   3.553   2.514 -0.6108  2.1203 -0.6101
 6547TIP3    H219606   6.207   3.435   2.421  1.6573 -0.4571  2.0837
 6548TIP3   OH219607   6.685   3.975   4.031  0.0799 -0.0356 -0.6316
 6548TIP3    H119608   6.601   3.930   4.023 -0.0303 -0.0333  0.4079
 6548TIP3    H219609   6.692   3.998   4.124  1.4025 -0.3660 -0.6290
 6549TIP3   OH219610   5.099   0.162   0.493  0.4519 -0.4105 -0.1841
 6549TIP3    H119611   5.183   0.116   0.498 -1.0231 -3.4197 -0.5105
 6549TIP3    H219612   5.119   0.243   0.447  2.8971 -1.8768 -1.9997
 6550TIP3   OH219613   1.329   4.715   4.349 -0.0809 -0.2467  0.0561
 6550TIP3    H119614   1.399   4.650   4.348 -0.4650 -0.7161  1.2270
 6550TIP3    H219615   1.316   4.738   4.258  1.5487 -0.2013 -0.1857
 6551TIP3   OH219616   3.634   5.896   0.024  0.0804  0.1441 -0.2415
 6551TIP3    H119617   3.668   5.853  -0.055  0.4378 -0.6143  0.3124
 6551TIP3    H219618   3.638   5.828   0.092 -1.7732  0.2643  0.0551
 6552TIP3   OH219619   1.427   0.728   4.674 -0.0419  0.3636 -0.3521
 6552TIP3    H119620   1.364   0.690   4.613  0.5129  0.9486 -1.3109
 6552TIP3    H219621   1.499   0.665   4.677  0.5513  0.9617 -1.3866
 6553TIP3   OH219622   3.045   2.567   4.005  0.4815  0.5908 -0.2267
 6553TIP3    H119623   3.005   2.654   4.008 -2.4244 -0.4922 -2.4566
 6553TIP3    H219624   3.076   2.559   3.915 -0.2798 -1.0328 -0.3644
 6554TIP3   OH219625   5.852   5.114   1.606  0.0037  0.2847 -0.0688
 6554TIP3    H119626   5.805   5.036   1.633 -1.1391  0.5240 -1.2398
 6554TIP3    H219627   5.941   5.101   1.638  0.4306 -2.5209 -2.0415
 6555TIP3   OH219628   0.234   4.189   5.292  0.5547 -0.0538  1.0090
 6555TIP3    H119629   0.199   4.170   5.204  1.1853 -2.4259  1.2001
 6555TIP3    H219630   0.156   4.191   5.348  0.4017 -3.3635  1.1114
 6556TIP3   OH219631   1.975   1.574   1.535  0.1398  0.0763 -0.1309
 6556TIP3    H119632   2.049   1.609   1.485  0.5619 -1.0209 -0.2891
 6556TIP3    H219633   1.934   1.652   1.573  0.4108  0.8363 -1.3428
 6557TIP3   OH219634   3.520   3.783   2.337  0.6719 -0.3055 -0.2004
 6557TIP3    H119635   3.452   3.784   2.405  0.1657 -0.0705 -0.7016
 6557TIP3    H219636   3.602   3.790   2.385  0.4699 -2.4104  0.5557
 6558TIP3   OH219637   1.372   2.394   1.728  0.0448  0.0400  0.0953
 6558TIP3    H119638   1.424   2.394   1.809  2.1370 -2.1138 -1.1183
 6558TIP3    H219639   1.311   2.320   1.739  1.6952 -1.5769 -0.9771
 6559TIP3   OH219640   4.836   4.833   1.441  0.2120  0.3200  0.0604
 6559TIP3    H119641   4.905   4.776   1.407  0.2459  0.1512  0.4009
 6559TIP3    H219642   4.821   4.800   1.530  1.3245  1.8090  0.8385
 6560TIP3   OH219643   6.437   6.545   4.871  0.3146 -0.3251 -0.5583
 6560TIP3    H119644   6.397   6.535   4.785  0.7840 -0.9129 -0.7073
 6560TIP3    H219645   6.502   6.476   4.877  1.1643  0.4756 -0.2229
 6561TIP3   OH219646   5.975   5.629   0.045  0.5344  0.0585 -0.5295
 6561TIP3    H119647   6.051   5.681   0.070  1.6274 -1.4521 -0.5079
 6561TIP3    H219648   5.959   5.652  -0.046  1.2327  0.1830 -0.6302
 6562TIP3   OH219649   4.494   3.009   0.392  0.3862 -0.0612 -0.1767
 6562TIP3    H119650   4.473   2.922   0.356 -0.7301  0.1594 -0.0938
 6562TIP3    H219651   4.584   3.025   0.364  0.3972 -0.9820 -0.7267
 6563TIP3   OH219652   1.597   3.834   1.612 -0.1550 -0.1465  0.1344
 6563TIP3    H119653   1.517   3.780   1.610  0.6047 -1.3048  0.0112
 6563TIP3    H219654   1.576   3.906   1.671 -1.2364 -0.5284  0.2385
 6564TIP3   OH219655   4.011   3.755   3.008 -0.0516  0.1459  0.0545
 6564TIP3    H119656   4.003   3.659   3.004 -2.7962  0.3226 -0.1844
 6564TIP3    H219657   3.955   3.787   2.938 -2.3382  1.9855  2.5195
 6565TIP3   OH219658   6.261   5.542   2.227 -0.1472 -0.0121 -0.2229
 6565TIP3    H119659   6.230   5.574   2.142 -1.9081 -0.5607  0.1828
 6565TIP3    H219660   6.195   5.478   2.254  0.7802 -0.3890  1.2290
 6566TIP3   OH219661   1.352   3.343   2.504 -0.0796 -0.4798  0.1306
 6566TIP3    H119662   1.264   3.327   2.537 -0.2083 -1.5542 -0.7025
 6566TIP3    H219663   1.403   3.364   2.582 -0.6233 -1.8485  0.8833
 6567TIP3   OH219664   0.432   1.035   0.537  0.4107 -0.1032  0.3841
 6567TIP3    H119665   0.442   1.127   0.511  1.8498  0.2393  1.9684
 6567TIP3    H219666   0.401   1.039   0.627 -0.7547 -1.2215  0.0683
 6568TIP3   OH219667   1.990   4.248   4.056  0.4845  0.4845  0.3118
 6568TIP3    H119668   1.917   4.266   4.115  1.9768 -0.6616  2.6658
 6568TIP3    H219669   2.052   4.318   4.073  0.1571  1.2332 -1.3919
 6569TIP3   OH219670   4.036   1.929   4.481  0.1663  0.2722 -0.4861
 6569TIP3    H119671   4.064   1.968   4.398 -1.3024  0.7685 -0.7839
 6569TIP3    H219672   4.088   1.850   4.489  0.1776  0.0884 -2.0167
 6570TIP3   OH219673   6.736   5.996   5.379 -0.1063  0.7360  0.3925
 6570TIP3    H119674   6.808   5.956   5.427  0.1751  0.7212 -0.0427
 6570TIP3    H219675   6.673   6.021   5.447  0.6455  1.4362  0.8395
 6571TIP3   OH219676   3.049   4.843   3.821 -0.0591  0.0430 -0.1044
 6571TIP3    H119677   2.996   4.859   3.743  1.2640 -0.4234 -1.1316
 6571TIP3    H219678   3.002   4.888   3.891 -0.1979  2.3007 -1.5497
 6572TIP3   OH219679   4.330   6.682   0.586  0.2493 -0.4325  0.4706
 6572TIP3    H119680   4.425   6.685   0.587  0.3518 -2.1881  2.0877
 6572TIP3    H219681   4.308   6.591   0.606 -1.7843 -0.6476 -2.1883
 6573TIP3   OH219682   3.270   3.810   4.915 -0.1253 -0.6486 -0.1313
 6573TIP3    H119683   3.348   3.838   4.867  0.8437 -2.7093  0.1292
 6573TIP3    H219684   3.249   3.884   4.972 -0.9199  1.6202 -3.1143
 6574TIP3   OH219685   3.534   1.504   5.296  0.1295 -0.0710  0.4229
 6574TIP3    H119686   3.577   1.541   5.373 -1.0819 -0.2925  1.2444
 6574TIP3    H219687   3.605   1.488   5.234  1.1910 -0.2239  1.6284
 6575TIP3   OH219688   5.473   2.180   1.374  0.2157  0.7296 -0.1152
 6575TIP3    H119689   5.398   2.236   1.356 -1.1672 -1.2700 -0.8527
 6575TIP3    H219690   5.519   2.173   1.291 -0.3077 -0.1617 -0.3455
 6576TIP3   OH219691   7.052   1.127   3.370 -0.1156  0.2112  0.1263
 6576TIP3    H119692   7.125   1.136   3.431  0.2201 -0.8794 -0.0867
 6576TIP3    H219693   7.078   1.178   3.293 -1.0425  2.5617  1.2690
 6577TIP3   OH219694   7.025   5.180   0.839 -0.3919  0.1567  0.2215
 6577TIP3    H119695   7.061   5.257   0.795  0.2424  0.0723  0.5793
 6577TIP3    H219696   6.957   5.148   0.779  0.1152  0.3318 -0.4646
 6578TIP3   OH219697   3.901   3.058   2.252 -0.4110 -0.2653 -0.7544
 6578TIP3    H119698   3.904   3.137   2.199 -0.2214  0.1061 -0.2006
 6578TIP3    H219699   3.810   3.051   2.280  0.0774  1.3704  1.5492
 6579TIP3   OH219700   6.248   2.358   3.355 -0.5161  0.8233 -0.2425
 6579TIP3    H119701   6.154   2.342   3.359 -0.4173 -0.3462 -1.6871
 6579TIP3    H219702   6.266   2.370   3.261  1.0728 -1.0041 -0.2262
 6580TIP3   OH219703   4.504   1.926   1.549  0.3496  0.6073 -0.1539
 6580TIP3    H119704   4.414   1.901   1.572 -0.3920 -0.3978 -3.5107
 6580TIP3    H219705   4.555   1.847   1.567  0.4096  0.8573  0.8363
 6581TIP3   OH219706   5.134   6.139   2.881  0.0591 -0.0977  0.3138
 6581TIP3    H119707   5.212   6.155   2.935 -0.3891  1.0063  0.6584
 6581TIP3    H219708   5.115   6.046   2.893  1.6516 -0.5279 -0.2360
 6582TIP3   OH219709   5.357   1.448   5.336 -0.0760 -0.4274  0.3320
 6582TIP3    H119710   5.447   1.475   5.352 -0.0447 -0.2158 -0.1840
 6582TIP3    H219711   5.364   1.374   5.276 -0.2095 -1.0127  1.0097
 6583TIP3   OH219712   3.092   5.249   2.452 -0.5980 -0.2153  0.2953
 6583TIP3    H119713   3.021   5.252   2.388 -0.6475 -0.6769  0.3227
 6583TIP3    H219714   3.075   5.170   2.503  0.0311 -0.4284  0.1861
 6584TIP3   OH219715   5.008   6.042   3.920 -0.7071 -0.1069 -0.8214
 6584TIP3    H119716   4.924   6.070   3.882 -0.0422  1.5270 -1.1471
 6584TIP3    H219717   4.983   5.991   3.997 -2.0862 -2.6472 -2.7670
 6585TIP3   OH219718   5.941   2.828   2.435 -0.0250  0.1533  0.4627
 6585TIP3    H119719   5.892   2.816   2.516  0.2621 -0.8660  0.4972
 6585TIP3    H219720   5.952   2.923   2.427 -0.0367  0.2641  1.6252
 6586TIP3   OH219721   1.043   3.944   1.364  0.3123 -0.8556 -0.0524
 6586TIP3    H119722   1.055   4.028   1.320  0.3102  0.3101  1.9995
 6586TIP3    H219723   1.127   3.899   1.357  1.4781  0.8671  1.7277
 6587TIP3   OH219724   0.707   3.860   4.566  0.2989  0.3441  0.1796
 6587TIP3    H119725   0.707   3.956   4.557 -0.1591  0.3474  0.1612
 6587TIP3    H219726   0.622   3.840   4.605 -0.2561 -0.1733 -1.2112
 6588TIP3   OH219727   2.041   1.383   5.376 -0.0265  0.0750  0.3427
 6588TIP3    H119728   2.108   1.425   5.430 -0.1331  1.1188 -0.2937
 6588TIP3    H219729   2.089   1.320   5.322  0.3248  0.2120  0.4950
 6589TIP3   OH219730   7.158   1.114   5.538  0.7209 -0.4315 -0.2581
 6589TIP3    H119731   7.079   1.160   5.567  0.2729 -1.2254 -0.1779
 6589TIP3    H219732   7.169   1.141   5.447  2.4622  2.5351  0.6759
 6590TIP3   OH219733   4.792   5.800   1.910 -0.0379  0.3513 -0.2158
 6590TIP3    H119734   4.742   5.881   1.898 -0.8827 -0.1748 -0.3456
 6590TIP3    H219735   4.824   5.778   1.822 -2.0693 -0.8623 -0.7158
 6591TIP3   OH219736   1.940   1.158   3.839  0.1683  0.1336 -0.2616
 6591TIP3    H119737   1.943   1.131   3.747 -0.5720 -0.3848 -0.1416
 6591TIP3    H219738   1.951   1.253   3.836  0.6189  0.0723 -0.8491
 6592TIP3   OH219739   5.525   4.940   2.223  0.0012 -0.2245  0.7434
 6592TIP3    H119740   5.452   4.879   2.222 -0.6904  0.5896  0.6989
 6592TIP3    H219741   5.525   4.977   2.311  0.2123 -0.0468  0.6704
 6593TIP3   OH219742   0.513   5.524   4.861  0.2231  0.1301 -0.1319
 6593TIP3    H119743   0.580   5.593   4.860 -0.7327  1.1581  2.0309
 6593TIP3    H219744   0.448   5.553   4.797  0.9637 -0.0011 -0.9656
 6594TIP3   OH219745   5.116   5.805   1.473 -0.1717 -0.0420 -1.0140
 6594TIP3    H119746   5.103   5.865   1.400  0.8289 -0.1201 -1.2766
 6594TIP3    H219747   5.202   5.829   1.508 -1.0805  0.7047  0.8284
 6595TIP3   OH219748   5.185   1.330   1.542  0.0212  0.4136  0.2497
 6595TIP3    H119749   5.121   1.401   1.549  1.8730  2.2577 -0.5744
 6595TIP3    H219750   5.270   1.374   1.536  1.4010 -1.9269  1.1228
 6596TIP3   OH219751   3.910   6.528   4.656 -0.4141  0.1043 -0.4922
 6596TIP3    H119752   4.005   6.537   4.656 -0.3608 -0.4285 -0.2226
 6596TIP3    H219753   3.880   6.588   4.724 -0.2724  0.2645 -0.5695
 6597TIP3   OH219754   4.837   1.187   0.485  0.2196 -0.3634 -0.2365
 6597TIP3    H119755   4.784   1.142   0.551 -1.3478  1.2579 -0.3037
 6597TIP3    H219756   4.776   1.204   0.413  1.2457  0.1630 -1.0072
 6598TIP3   OH219757   0.811   5.867   0.915  0.7046 -0.8629  0.5403
 6598TIP3    H119758   0.873   5.856   0.987  2.5237 -1.7590 -1.0774
 6598TIP3    H219759   0.864   5.863   0.836 -1.1398  0.6464 -0.8839
 6599TIP3   OH219760   0.808   1.627   1.947  0.0824 -0.0835 -0.4029
 6599TIP3    H119761   0.787   1.609   2.039  1.9583  1.1946  0.3208
 6599TIP3    H219762   0.722   1.630   1.904 -0.8060 -1.2888  1.1559
 6600TIP3   OH219763   0.105   6.012   5.523  0.1554  0.2212 -0.2068
 6600TIP3    H119764   0.041   5.950   5.488 -0.0690  0.0856  0.4307
 6600TIP3    H219765   0.160   5.959   5.581  1.2120  0.2138 -1.1706
 6601TIP3   OH219766   0.994   0.399   2.518  0.0737  0.5328 -0.4684
 6601TIP3    H119767   1.012   0.489   2.492  0.5692  1.2440  2.0823
 6601TIP3    H219768   1.080   0.356   2.517 -0.0206  0.3460 -0.7303
 6602TIP3   OH219769   1.536   5.929   4.302  0.1809  0.2444 -0.0597
 6602TIP3    H119770   1.457   5.875   4.305  1.4744 -1.9081 -1.8596
 6602TIP3    H219771   1.599   5.883   4.358  1.5773 -0.7211 -2.2970
 6603TIP3   OH219772   5.237   5.649   5.841  0.5052 -0.2781 -0.0899
 6603TIP3    H119773   5.195   5.567   5.814  0.6743  0.2258 -2.0302
 6603TIP3    H219774   5.198   5.669   5.926 -2.2340 -0.5223 -1.1847
 6604TIP3   OH219775   3.078   2.639   4.495 -0.3827 -0.4686  0.5079
 6604TIP3    H119776   3.123   2.699   4.555  0.2406  0.1079 -0.5113
 6604TIP3    H219777   3.047   2.695   4.424 -1.3394 -1.1079  0.4058
 6605TIP3   OH219778   5.716   2.398   3.312  0.5901  0.3478  0.0011
 6605TIP3    H119779   5.679   2.443   3.237  0.8684  0.1044 -0.2847
 6605TIP3    H219780   5.666   2.316   3.318  0.7883  0.2180 -0.1194
 6606TIP3   OH219781   5.431   1.113   2.300  0.4540 -0.1354  0.1465
 6606TIP3    H119782   5.348   1.072   2.326 -0.9322  1.3721 -1.6785
 6606TIP3    H219783   5.449   1.078   2.213  1.8596 -0.5536  0.5732
 6607TIP3   OH219784   2.467   2.726   1.369  0.7370 -0.6297 -0.2128
 6607TIP3    H119785   2.449   2.817   1.394 -2.6704 -1.3799  0.5948
 6607TIP3    H219786   2.521   2.733   1.290  0.6890  2.0797 -0.0948
 6608TIP3   OH219787   2.818   0.723   4.166  0.1315 -0.5340  0.3223
 6608TIP3    H119788   2.800   0.685   4.252 -0.2197 -0.7979  0.1344
 6608TIP3    H219789   2.768   0.669   4.105  0.3450 -0.3209 -0.0441
 6609TIP3   OH219790   4.789   3.146   1.862  0.1594 -0.2937  0.6612
 6609TIP3    H119791   4.747   3.130   1.778  0.7312 -0.2913  0.3761
 6609TIP3    H219792   4.731   3.208   1.906  0.1144  0.0850  0.0719
 6610TIP3   OH219793   5.541   2.159   1.826 -0.1097 -0.1163  0.7447
 6610TIP3    H119794   5.576   2.092   1.768  1.3729  0.7642  0.5932
 6610TIP3    H219795   5.448   2.138   1.834 -0.7585  0.5746 -3.1868
 6611TIP3   OH219796   0.568   0.309   1.353  0.3667 -0.2969 -0.2657
 6611TIP3    H119797   0.478   0.339   1.362  0.8765  0.6808  2.4422
 6611TIP3    H219798   0.610   0.375   1.298  0.3816  1.6545  1.9518
 6612TIP3   OH219799   3.228   6.130   1.842  0.1002 -0.0120  0.2775
 6612TIP3    H119800   3.193   6.166   1.924 -1.2119  1.1295 -0.7482
 6612TIP3    H219801   3.322   6.121   1.859 -0.1649  0.0106  1.9667
 6613TIP3   OH219802   0.868   6.588   3.471 -0.2831  0.5342  0.0602
 6613TIP3    H119803   0.942   6.558   3.523  0.1715  0.4956 -0.6044
 6613TIP3    H219804   0.897   6.580   3.380 -1.6199 -0.9050 -0.2889
 6614TIP3   OH219805   3.086   3.126   5.063  0.2713  0.1677  0.9985
 6614TIP3    H119806   3.025   3.104   4.992  0.0763  1.1121  0.8632
 6614TIP3    H219807   3.029   3.142   5.139  0.5278 -1.9598  1.7183
 6615TIP3   OH219808   6.935   5.700   4.670  0.2322 -0.1019 -0.1656
 6615TIP3    H119809   6.906   5.648   4.595 -1.3929 -0.5665  0.7180
 6615TIP3    H219810   6.853   5.730   4.710  1.0101 -0.7594  2.0181
 6616TIP3   OH219811   4.093   1.596   5.323 -0.0613  0.3527  0.0771
 6616TIP3    H119812   4.060   1.531   5.386 -2.0735  2.2823  1.1694
 6616TIP3    H219813   4.174   1.628   5.362 -0.3021  0.1681  0.7599
 6617TIP3   OH219814   1.496   2.452   0.360 -0.4797 -0.0843 -0.8443
 6617TIP3    H119815   1.446   2.530   0.382  1.2530  0.2050  2.7854
 6617TIP3    H219816   1.519   2.464   0.268 -2.3188  2.4560 -1.0707
 6618TIP3   OH219817   0.858   2.596   0.193 -0.2510 -0.0914 -0.2368
 6618TIP3    H119818   0.858   2.688   0.221 -0.6660 -0.1422 -0.0560
 6618TIP3    H219819   0.849   2.546   0.274  0.9446 -0.3324 -0.2403
 6619TIP3   OH219820   3.645   3.718   1.410  0.3744 -0.4273  0.0179
 6619TIP3    H119821   3.596   3.688   1.486  3.0026 -2.6559  1.0130
 6619TIP3    H219822   3.650   3.642   1.352  1.6771  0.0480 -0.5432
 6620TIP3   OH219823   0.054   1.446   2.415 -0.3855 -0.1511 -0.3484
 6620TIP3    H119824   0.125   1.457   2.478 -1.0981  0.4749  0.3675
 6620TIP3    H219825  -0.001   1.523   2.427 -0.7661 -0.2333 -1.4484
 6621TIP3   OH219826   0.884   5.235   1.509  0.4755  0.1841 -0.2202
 6621TIP3    H119827   0.833   5.248   1.589  0.0680  0.7708 -0.5647
 6621TIP3    H219828   0.975   5.243   1.536  0.3729 -0.5099  0.3388
 6622TIP3   OH219829   1.886   2.975   4.902  0.4960 -0.5055  0.7343
 6622TIP3    H119830   1.861   2.904   4.844 -0.9825 -0.7255  1.5653
 6622TIP3    H219831   1.838   3.051   4.869 -1.8384 -1.0283  2.6136
 6623TIP3   OH219832   6.433   4.560   2.165 -0.3036  0.1595  0.3857
 6623TIP3    H119833   6.428   4.477   2.212 -0.6411 -0.2146 -0.2970
 6623TIP3    H219834   6.502   4.609   2.210  1.6211 -1.4542 -0.6692
 6624TIP3   OH219835   1.480   5.592   0.339  0.3487 -0.2099 -0.0549
 6624TIP3    H119836   1.532   5.517   0.369  1.2647  0.2968 -0.3192
 6624TIP3    H219837   1.537   5.667   0.354  0.6972  0.1354 -2.6243
 6625TIP3   OH219838   6.476   1.536   3.514  0.3902  0.0543  0.4188
 6625TIP3    H119839   6.448   1.627   3.526 -0.3094 -0.1756  0.5601
 6625TIP3    H219840   6.414   1.499   3.452  0.8840 -0.2357  0.0850
 6626TIP3   OH219841   1.681   5.380   2.506 -0.1083 -0.2957  0.0263
 6626TIP3    H119842   1.660   5.296   2.546 -0.4257 -0.8365 -1.2232
 6626TIP3    H219843   1.771   5.397   2.532 -0.4673 -0.3515  1.4004
 6627TIP3   OH219844   5.456   3.506   4.923 -0.0413  0.6087  0.0092
 6627TIP3    H119845   5.448   3.454   5.003  1.6506 -0.6904 -0.6011
 6627TIP3    H219846   5.369   3.542   4.909 -0.4921  0.4846  2.1725
 6628TIP3   OH219847   2.457   0.299   3.181  0.0167  0.0049  0.2198
 6628TIP3    H119848   2.552   0.291   3.190  0.0158  0.1422  0.3708
 6628TIP3    H219849   2.422   0.220   3.223 -0.0157  1.0292  2.2336
 6629TIP3   OH219850   1.056   4.954   3.976  0.5795  0.0422  0.3710
 6629TIP3    H119851   0.989   4.929   4.040 -0.8394 -2.8700 -1.9935
 6629TIP3    H219852   1.011   5.017   3.919 -0.4467 -2.2400 -1.4761
 6630TIP3   OH219853   4.963   5.370   3.577 -0.3252 -0.1034  0.1912
 6630TIP3    H119854   4.896   5.416   3.628 -0.7768 -0.2930 -0.2257
 6630TIP3    H219855   4.993   5.300   3.634  0.2025  0.5661  0.7440
 6631TIP3   OH219856   2.472   2.244   0.655 -0.0694 -0.1893 -0.2295
 6631TIP3    H119857   2.460   2.288   0.738 -0.2340 -1.1806  0.2924
 6631TIP3    H219858   2.563   2.212   0.658 -0.3438 -0.9701 -0.0509
 6632TIP3   OH219859   1.937   1.173   0.294  0.3238  0.0893 -0.7199
 6632TIP3    H119860   1.910   1.082   0.305 -0.4063  0.3493 -0.3388
 6632TIP3    H219861   1.855   1.221   0.284  0.7207  0.6659 -1.2566
 6633TIP3   OH219862   4.246   4.570   2.216  0.9355  0.6559  0.5373
 6633TIP3    H119863   4.171   4.624   2.190 -0.5062 -0.4814  2.0894
 6633TIP3    H219864   4.271   4.524   2.136 -0.9708  0.0226  0.2544
 6634TIP3   OH219865   3.571   4.439   3.707  0.7727  0.2514 -0.2266
 6634TIP3    H119866   3.511   4.380   3.751  0.5295  2.1163  2.0993
 6634TIP3    H219867   3.544   4.436   3.615 -0.9778 -1.1236  0.2723
 6635TIP3   OH219868   2.177   2.628   3.796  0.2098  0.1743 -0.0425
 6635TIP3    H119869   2.109   2.643   3.730 -0.6121 -1.5380  0.3653
 6635TIP3    H219870   2.255   2.605   3.746 -0.3349 -0.8423 -0.4444
 6636TIP3   OH219871   2.733   6.057   4.069 -0.6217 -0.8435  0.1885
 6636TIP3    H119872   2.809   6.092   4.024 -1.3671  2.5564  1.2923
 6636TIP3    H219873   2.687   6.006   4.003  0.9617 -0.3139 -1.3786
 6637TIP3   OH219874   4.899   3.334   5.310  0.2075 -0.2226 -0.3230
 6637TIP3    H119875   4.939   3.421   5.311 -0.8120  0.2729  1.3009
 6637TIP3    H219876   4.858   3.327   5.224  0.1856  0.9721 -0.4248
 6638TIP3   OH219877   0.752   4.662   5.349 -0.3160 -0.1658 -0.3112
 6638TIP3    H119878   0.688   4.709   5.296 -0.8902 -0.6399 -0.0537
 6638TIP3    H219879   0.836   4.695   5.320 -0.7146  2.6704  1.3621
 6639TIP3   OH219880   5.090   4.138   5.657 -0.9049  0.0967  0.0689
 6639TIP3    H119881   5.172   4.184   5.641 -0.7925  0.0841  0.5775
 6639TIP3    H219882   5.081   4.078   5.583 -0.9014  0.7170 -0.4424
 6640TIP3   OH219883   4.006   1.681   1.776 -0.5326  0.5358  0.4189
 6640TIP3    H119884   3.979   1.666   1.867  0.5204  0.6341  0.7646
 6640TIP3    H219885   3.996   1.595   1.734 -0.1551  0.2593  0.8752
 6641TIP3   OH219886   4.406   5.889   4.753  0.7808  0.2235 -0.1651
 6641TIP3    H119887   4.383   5.905   4.844  1.1938  1.1313 -0.2105
 6641TIP3    H219888   4.322   5.890   4.706  0.4917 -0.9927  0.2940
 6642TIP3   OH219889   5.401   2.907   3.489 -0.1170  0.1059 -0.0111
 6642TIP3    H119890   5.371   2.824   3.527  0.4115  0.0758  0.3527
 6642TIP3    H219891   5.384   2.972   3.557  1.5381 -0.0677  0.6171
 6643TIP3   OH219892   2.774   3.623   5.321 -0.4261  0.2572  0.0628
 6643TIP3    H119893   2.810   3.650   5.236 -0.5845 -1.9286 -0.7734
 6643TIP3    H219894   2.765   3.705   5.370 -0.0713  1.5706 -1.9160
 6644TIP3   OH219895   1.933   5.468   4.027 -0.0680  0.4562 -0.3996
 6644TIP3    H119896   1.847   5.506   4.045  0.1913  1.0802 -0.4697
 6644TIP3    H219897   1.991   5.509   4.091 -0.1289 -1.2226  0.8075
 6645TIP3   OH219898   6.111   1.587   1.233  0.0852  0.6014  0.1999
 6645TIP3    H119899   6.204   1.576   1.215  0.2810  1.8489  0.3861
 6645TIP3    H219900   6.073   1.500   1.217  1.4795 -0.3038  1.4716
 6646TIP3   OH219901   2.879   3.080   0.953  0.1646 -0.2225  0.0357
 6646TIP3    H119902   2.850   3.055   0.866 -0.0820 -1.0009  0.3329
 6646TIP3    H219903   2.973   3.060   0.954 -0.0624 -1.3344  0.3260
 6647TIP3   OH219904   4.434   2.690   2.260  0.1288 -0.0850 -0.0145
 6647TIP3    H119905   4.518   2.659   2.226  0.8401  1.6269  0.1051
 6647TIP3    H219906   4.371   2.668   2.191  0.8647 -0.3074 -0.6282
 6648TIP3   OH219907   5.893   0.983   3.844 -0.2902  0.2463 -0.0715
 6648TIP3    H119908   5.971   0.964   3.792 -0.9311 -0.0924 -0.9341
 6648TIP3    H219909   5.906   0.934   3.925  1.1565  1.5339  0.5176
 6649TIP3   OH219910   6.014   5.570   3.641  0.0182 -0.5343 -0.1793
 6649TIP3    H119911   6.060   5.653   3.628 -1.9745  0.4340 -1.5402
 6649TIP3    H219912   6.081   5.503   3.629  1.6826  0.8400  0.9324
 6650TIP3   OH219913   6.698   6.679   1.724  0.1133  0.3145 -0.6736
 6650TIP3    H119914   6.651   6.762   1.725  0.4482  0.5948  2.3417
 6650TIP3    H219915   6.788   6.701   1.700 -0.0739  0.6294 -1.0827
 6651TIP3   OH219916   2.095   0.095   3.505 -0.5781  0.8628  0.2222
 6651TIP3    H119917   2.124   0.141   3.427 -0.0116  0.3171  0.0982
 6651TIP3    H219918   2.163   0.029   3.521 -1.8541 -0.6511 -0.2420
 6652TIP3   OH219919   4.370   0.226   4.776 -0.7225 -0.0798 -0.3140
 6652TIP3    H119920   4.325   0.288   4.833 -0.9452 -0.5650  0.0445
 6652TIP3    H219921   4.301   0.168   4.744 -0.1510 -1.9897  1.6983
 6653TIP3   OH219922   2.886   3.568   1.969  0.1416  0.0497 -0.0194
 6653TIP3    H119923   2.908   3.656   1.999 -0.2180 -0.1505  0.8577
 6653TIP3    H219924   2.971   3.523   1.962  0.2040 -0.0091  1.0607
 6654TIP3   OH219925   6.467   5.504   4.499  0.2347  0.8692  0.1027
 6654TIP3    H119926   6.544   5.552   4.469  1.2632  0.1839  1.5545
 6654TIP3    H219927   6.456   5.530   4.590 -0.4595 -0.0663  0.3065
 6655TIP3   OH219928   3.305   4.903   3.279  0.2769 -0.5035  0.1735
 6655TIP3    H119929   3.393   4.919   3.246 -0.1452 -2.8205 -2.4207
 6655TIP3    H219930   3.310   4.817   3.322 -0.6779 -0.6433  0.0359
 6656TIP3   OH219931   4.397   2.171   5.359 -0.2854  0.5324  0.4517
 6656TIP3    H119932   4.307   2.192   5.335 -0.6423  0.4228  1.6575
 6656TIP3    H219933   4.389   2.119   5.439  0.8878  1.4860  1.2172
 6657TIP3   OH219934   3.091   5.902   4.999  0.1369 -0.3770  0.3679
 6657TIP3    H119935   3.057   5.843   5.067 -0.6024  0.7167  0.9795
 6657TIP3    H219936   3.034   5.888   4.924 -0.1249 -0.3435  0.5591
 6658TIP3   OH219937   7.138   2.333   3.977  0.0085 -0.3751  0.0349
 6658TIP3    H119938   7.181   2.410   3.939 -1.6699  1.4974  1.6776
 6658TIP3    H219939   7.053   2.329   3.933 -0.7126 -0.0502  1.3705
 6659TIP3   OH219940   3.362   1.443   2.811 -0.4342  0.3419  0.0238
 6659TIP3    H119941   3.441   1.406   2.773 -1.4519 -0.3902 -1.4927
 6659TIP3    H219942   3.347   1.524   2.762 -1.8374 -0.6840 -1.3623
 6660TIP3   OH219943   0.049   6.133   1.243  0.0001  0.2081  0.3288
 6660TIP3    H119944   0.121   6.082   1.281  0.3929  1.0439  0.7433
 6660TIP3    H219945  -0.016   6.068   1.217  0.5518 -0.5077  0.7100
 6661TIP3   OH219946   5.132   2.646   0.695  0.1486 -0.2788 -0.1606
 6661TIP3    H119947   5.142   2.605   0.609 -3.9690  0.2078 -1.0687
 6661TIP3    H219948   5.150   2.739   0.680 -1.6390 -0.0101 -0.8393
 6662TIP3   OH219949   6.276   4.309   3.221  0.2173 -0.1791 -0.1633
 6662TIP3    H119950   6.218   4.379   3.190  0.0284 -0.1166  0.3360
 6662TIP3    H219951   6.359   4.354   3.240  0.2357 -0.1669 -0.2701
 6663TIP3   OH219952   2.174   6.772   4.075  0.6683 -1.0498  0.1472
 6663TIP3    H119953   2.253   6.724   4.049  1.3093 -0.8013  1.5682
 6663TIP3    H219954   2.105   6.735   4.020  1.4071 -2.6391  0.2199
 6664TIP3   OH219955   1.092   0.933   1.176  0.9593  0.4604 -0.6312
 6664TIP3    H119956   1.063   0.957   1.088 -0.5780  0.2364 -0.1999
 6664TIP3    H219957   1.106   0.839   1.172  1.6823  0.5629 -0.8287
 6665TIP3   OH219958   3.615   4.607   3.922 -0.4311 -0.1803  0.4362
 6665TIP3    H119959   3.655   4.672   3.864  1.4136 -0.1776  1.6409
 6665TIP3    H219960   3.581   4.540   3.862  2.4022 -0.7380 -0.6879
 6666TIP3   OH219961   3.408   6.659   3.124 -0.7417 -0.1491  0.2556
 6666TIP3    H119962   3.474   6.600   3.158  0.5606  0.7677 -0.6036
 6666TIP3    H219963   3.429   6.745   3.162 -0.4655  0.4718 -1.2331
 6667TIP3   OH219964   6.556   5.508   3.053 -0.0356 -0.2672  0.0816
 6667TIP3    H119965   6.534   5.598   3.026 -0.7149 -0.5891 -0.4778
 6667TIP3    H219966   6.645   5.514   3.088  0.8065  0.2199 -2.0209
 6668TIP3   OH219967   0.968   2.556   0.853  0.0538 -0.8909 -0.3901
 6668TIP3    H119968   0.980   2.538   0.760 -0.2061 -2.3337 -0.1769
 6668TIP3    H219969   0.873   2.549   0.866  0.1085 -0.8941  0.0192
 6669TIP3   OH219970   1.552   4.085   4.052 -0.6535 -0.0060  0.2264
 6669TIP3    H119971   1.613   4.088   4.126  0.0503 -0.4313 -0.3198
 6669TIP3    H219972   1.585   4.152   3.991 -2.0249  1.3244  0.8675
 6670TIP3   OH219973   1.258   0.296   2.839 -0.0183  0.4031 -0.2518
 6670TIP3    H119974   1.192   0.232   2.864 -1.5965  1.4051 -1.6100
 6670TIP3    H219975   1.291   0.264   2.755  1.9436 -0.5719  0.8388
 6671TIP3   OH219976   3.249   1.544   3.295 -0.0750  0.3435  0.6858
 6671TIP3    H119977   3.235   1.465   3.242 -1.6834  1.0124  0.0251
 6671TIP3    H219978   3.270   1.612   3.231 -1.1159  0.9605  0.9771
 6672TIP3   OH219979   0.897   0.076   0.428  0.3498 -0.6094 -0.2494
 6672TIP3    H119980   0.901   0.154   0.372 -1.8451  0.1006  0.4916
 6672TIP3    H219981   0.848   0.012   0.376  1.7742 -1.4109 -0.6806
 6673TIP3   OH219982   5.993   2.746   0.746 -0.2863  0.3241 -0.1856
 6673TIP3    H119983   6.059   2.749   0.677 -1.2546 -1.5118 -1.2650
 6673TIP3    H219984   5.941   2.668   0.726 -1.9249  0.9397  1.4177
 6674TIP3   OH219985   1.950   5.049   1.848 -0.7132  0.6561  0.5857
 6674TIP3    H119986   1.922   4.959   1.869  1.0621  0.0983  0.7724
 6674TIP3    H219987   2.042   5.051   1.874 -0.6629  2.4794  0.3488
 6675TIP3   OH219988   1.946   2.695   2.546  0.2594  0.1459 -0.2225
 6675TIP3    H119989   2.004   2.640   2.494 -0.4044  0.1472 -0.9782
 6675TIP3    H219990   1.938   2.776   2.495  1.5926  1.1643  1.0910
 6676TIP3   OH219991   1.395   6.426   5.702  0.5849  0.0353 -0.0022
 6676TIP3    H119992   1.397   6.389   5.614 -0.0985 -1.1879  0.4730
 6676TIP3    H219993   1.485   6.456   5.717  0.8866 -0.4151 -0.8379
 6677TIP3   OH219994   1.656   2.795   3.486 -0.0867 -0.9452 -0.0073
 6677TIP3    H119995   1.749   2.784   3.466  0.3965  1.7364  0.4231
 6677TIP3    H219996   1.645   2.753   3.572  0.6171 -1.6140 -0.2276
 6678TIP3   OH219997   1.094   4.055   3.875  0.2407  0.2618  0.1780
 6678TIP3    H119998   1.008   4.016   3.886 -0.1413  1.1383  0.3761
 6678TIP3    H219999   1.079   4.131   3.819  1.3731 -1.2891 -2.4282
 6679TIP3   OH220000   6.531   2.913   1.896  0.0336  0.3187 -0.3683
 6679TIP3    H120001   6.623   2.889   1.886  0.0751  0.5642 -0.5838
 6679TIP3    H220002   6.532   2.982   1.963 -0.1487 -0.6902  0.7049
 6680TIP3   OH220003   6.976   4.745   0.068  0.1887 -0.0578  0.1895
 6680TIP3    H120004   6.970   4.823   0.012  0.3299 -0.5667 -0.5468
 6680TIP3    H220005   6.988   4.673   0.006 -1.8602 -0.9179  0.7378
 6681TIP3   OH220006   1.548   1.052   2.321  0.0940  0.1039  0.2550
 6681TIP3    H120007   1.565   1.132   2.270  0.4448 -0.7861 -1.0628
 6681TIP3    H220008   1.453   1.052   2.332 -0.3457 -0.9484 -2.6631
 6682TIP3   OH220009   0.925   5.384   2.841  0.0951 -0.1752 -0.0203
 6682TIP3    H120010   1.001   5.377   2.899 -0.6558  1.0227  1.1687
 6682TIP3    H220011   0.956   5.438   2.768  0.8501 -1.0996 -0.3928
 6683TIP3   OH220012   4.315   4.542   5.368 -0.5661  0.1966  0.4554
 6683TIP3    H120013   4.350   4.460   5.335 -0.9224 -0.3067  1.2958
 6683TIP3    H220014   4.222   4.524   5.385 -0.6499  0.7718  0.6384
 6684TIP3   OH220015   5.332   1.269   3.808 -0.1451  0.6202 -0.8081
 6684TIP3    H120016   5.350   1.269   3.902 -0.2059  1.4229 -0.7906
 6684TIP3    H220017   5.291   1.184   3.791 -0.3200  0.5529 -0.0742
 6685TIP3   OH220018   2.685   1.523   1.081  0.2248  0.5128  0.2357
 6685TIP3    H120019   2.621   1.486   1.142  0.4826 -0.3834 -0.0357
 6685TIP3    H220020   2.721   1.448   1.034  1.6980  0.9571  0.5961
 6686TIP3   OH220021   5.137   2.172   4.240  0.8473  0.3661 -0.2954
 6686TIP3    H120022   5.079   2.208   4.172  2.4505  0.1229 -1.8789
 6686TIP3    H220023   5.164   2.248   4.291 -0.7192  0.4979  0.3855
 6687TIP3   OH220024   3.851   4.155   2.939  0.1223 -0.1997 -0.1337
 6687TIP3    H120025   3.934   4.177   2.897 -0.0126  0.8890  0.1276
 6687TIP3    H220026   3.848   4.212   3.016 -0.6661 -0.5427  0.0953
 6688TIP3   OH220027   2.339   0.989   3.771 -0.2522  0.5566  0.0107
 6688TIP3    H120028   2.366   0.924   3.706  0.1943  0.9848 -0.2339
 6688TIP3    H220029   2.290   0.939   3.836 -0.0648  0.0053 -0.2698
 6689TIP3   OH220030   1.586   0.601   0.260  0.7406  0.2230 -0.2839
 6689TIP3    H120031   1.620   0.603   0.171  1.0312 -0.0509 -0.1825
 6689TIP3    H220032   1.664   0.611   0.315  0.6663 -0.5044 -0.0438
 6690TIP3   OH220033   3.575   0.476   2.274  0.0043  0.3284  0.1711
 6690TIP3    H120034   3.508   0.544   2.276 -0.8238 -0.4482 -0.4363
 6690TIP3    H220035   3.547   0.417   2.204  2.2716  0.9684 -1.4055
 6691TIP3   OH220036   0.843   4.605   1.938  0.5323  0.3345  0.1251
 6691TIP3    H120037   0.873   4.515   1.933 -0.1572  0.1677 -2.1450
 6691TIP3    H220038   0.843   4.636   1.847 -0.5007  2.1869  0.6916
 6692TIP3   OH220039   4.384   5.662   1.415  0.3321 -0.1261  0.1924
 6692TIP3    H120040   4.413   5.700   1.499 -0.6116 -1.4333  1.1571
 6692TIP3    H220041   4.454   5.603   1.390 -0.7485 -2.2019  1.7882
 6693TIP3   OH220042   6.376   0.240   0.836  0.1211 -0.0890  0.3050
 6693TIP3    H120043   6.348   0.325   0.868 -0.2804 -0.2449  0.3758
 6693TIP3    H220044   6.377   0.249   0.741  1.1493  0.3243  0.3446
 6694TIP3   OH220045   4.948   0.257   2.175 -0.6501  0.3640 -0.4930
 6694TIP3    H120046   4.889   0.212   2.114  1.3542  0.6838 -2.8477
 6694TIP3    H220047   4.990   0.325   2.121  2.8185 -0.7188  0.6107
 6695TIP3   OH220048   5.330   0.570   3.842  0.2343  0.1682  0.2488
 6695TIP3    H120049   5.394   0.619   3.893 -0.1143 -0.4815  1.3445
 6695TIP3    H220050   5.357   0.479   3.850 -0.6269 -0.0792  0.4469
 6696TIP3   OH220051   5.481   5.555   5.203 -0.0675  0.0364  0.6371
 6696TIP3    H120052   5.504   5.638   5.162  1.0707 -0.7731 -0.4417
 6696TIP3    H220053   5.426   5.579   5.278 -0.3084  1.7009 -0.0342
 6697TIP3   OH220054   2.156   0.628   2.175 -0.8855  0.7142 -0.7777
 6697TIP3    H120055   2.230   0.568   2.176 -1.2915  0.1814  1.1016
 6697TIP3    H220056   2.193   0.712   2.150  0.2186  0.2891 -0.5963
 6698TIP3   OH220057   0.942   2.524   3.625  0.4320  0.1463 -0.1883
 6698TIP3    H120058   0.861   2.472   3.615  0.4789  0.3737 -2.3970
 6698TIP3    H220059   0.953   2.534   3.719 -2.5580  0.7688  0.2059
 6699TIP3   OH220060   4.020   4.607   4.847 -0.3423 -0.3028 -0.0524
 6699TIP3    H120061   4.074   4.678   4.883  1.7261 -0.0489 -3.2440
 6699TIP3    H220062   3.967   4.649   4.780 -1.5130 -1.2868  0.2239
 6700TIP3   OH220063   4.577   2.668   1.776  0.0322  0.0633 -0.0077
 6700TIP3    H120064   4.610   2.673   1.686 -0.8392  0.9621 -0.2807
 6700TIP3    H220065   4.505   2.605   1.772 -0.1559  0.2755  0.0102
 6701TIP3   OH220066   0.276   4.951   5.002 -0.2324 -0.0309 -0.3224
 6701TIP3    H120067   0.303   4.890   4.933  0.8015  1.7173 -1.5452
 6701TIP3    H220068   0.220   4.899   5.060  0.1983 -1.9832 -1.5728
 6702TIP3   OH220069   5.260   2.323   5.068 -0.9251  0.0519  0.3226
 6702TIP3    H120070   5.289   2.294   4.982 -2.3292  0.6725 -0.3893
 6702TIP3    H220071   5.215   2.247   5.105  1.3546 -0.8800  1.3890
 6703TIP3   OH220072   3.318   2.150   0.989  0.0864  0.5093 -0.2358
 6703TIP3    H120073   3.377   2.226   0.979  1.5993 -0.7726 -1.7674
 6703TIP3    H220074   3.309   2.116   0.900 -0.1078 -1.4321  0.4871
 6704TIP3   OH220075   4.285   3.527   3.443 -0.0284  0.4521 -0.3942
 6704TIP3    H120076   4.206   3.500   3.490 -0.1500  1.5466  0.0725
 6704TIP3    H220077   4.251   3.572   3.365  0.1692 -1.7498 -1.8414
 6705TIP3   OH220078   4.782   3.866   0.852  0.1627  0.7775 -0.4861
 6705TIP3    H120079   4.715   3.800   0.872  0.4437  0.1237 -1.5809
 6705TIP3    H220080   4.756   3.943   0.902  0.0011 -0.2562  1.0912
 6706TIP3   OH220081   2.533   0.148   1.435  0.0735 -0.7357 -0.3423
 6706TIP3    H120082   2.566   0.194   1.358 -0.4104 -1.4043 -0.9716
 6706TIP3    H220083   2.451   0.108   1.406 -1.9344  1.7565  1.4454
 6707TIP3   OH220084   6.731   3.624   1.803  0.4028  0.0366  0.4320
 6707TIP3    H120085   6.740   3.576   1.886  1.7527 -1.3523 -0.4640
 6707TIP3    H220086   6.664   3.576   1.755  0.0221  0.5095  0.4847
 6708TIP3   OH220087   2.584   1.276   3.668 -0.2273 -0.3260  0.0357
 6708TIP3    H120088   2.677   1.255   3.675 -0.1345  0.3744  0.9849
 6708TIP3    H220089   2.579   1.343   3.600  0.1101  0.5313  0.8467
 6709TIP3   OH220090   3.974   0.710   4.471  0.3619  0.2095 -0.1552
 6709TIP3    H120091   4.025   0.751   4.541  0.2154  1.0553 -0.5327
 6709TIP3    H220092   3.915   0.649   4.517 -0.3614  1.4054  0.5506
 6710TIP3   OH220093   3.405   4.959   2.816  0.2570 -0.4049  0.6371
 6710TIP3    H120094   3.324   4.978   2.863  0.2463  0.2284  0.3631
 6710TIP3    H220095   3.457   4.908   2.879 -0.6728 -1.5380  0.5343
 6711TIP3   OH220096   0.573   0.852   3.498 -0.2275 -0.5189  0.4597
 6711TIP3    H120097   0.530   0.767   3.496 -1.7803  0.2425 -0.8060
 6711TIP3    H220098   0.505   0.913   3.524 -0.0351  0.7562 -1.7319
 6712TIP3   OH220099   5.686   5.666   0.724  0.3562  0.0718  0.2481
 6712TIP3    H120100   5.725   5.610   0.657  0.3582  0.4246 -0.0482
 6712TIP3    H220101   5.705   5.755   0.695 -0.4809  0.2472  0.2120
 6713TIP3   OH220102   6.871   3.647   1.485  0.5054  0.2869 -0.4320
 6713TIP3    H120103   6.895   3.686   1.569 -3.4246 -0.4707  1.2718
 6713TIP3    H220104   6.875   3.553   1.499  0.9227  0.1251 -1.5133
 6714TIP3   OH220105   4.377   1.752   5.182  0.0506 -0.1725 -0.2983
 6714TIP3    H120106   4.416   1.805   5.252  1.6987 -1.0383 -0.5229
 6714TIP3    H220107   4.392   1.662   5.209 -1.1298 -0.5416 -0.7991
 6715TIP3   OH220108   2.265   3.215   1.234  0.3124  0.3158 -0.2159
 6715TIP3    H120109   2.261   3.138   1.178  0.6706 -0.7091  1.1123
 6715TIP3    H220110   2.317   3.278   1.185  2.4768 -1.3325 -0.1605
 6716TIP3   OH220111   3.290   4.234   2.154  0.4318  0.4967 -0.8932
 6716TIP3    H120112   3.304   4.325   2.180 -1.1622  0.9631 -1.5125
 6716TIP3    H220113   3.264   4.189   2.234  1.0753  0.6038 -0.6161
 6717TIP3   OH220114   3.215   0.202   4.861  1.4073 -0.1492  0.0595
 6717TIP3    H120115   3.163   0.129   4.895  2.7809 -0.8332  0.7802
 6717TIP3    H220116   3.268   0.163   4.791  0.0970  0.8084 -1.5257
 6718TIP3   OH220117   5.818   3.601   2.137  0.4778 -0.0524 -0.3052
 6718TIP3    H120118   5.759   3.676   2.139 -0.9183 -1.0351 -1.8612
 6718TIP3    H220119   5.905   3.639   2.125  0.1144  1.3909  1.2334
 6719TIP3   OH220120   5.586   4.730   3.345  0.0180 -0.3609  0.3345
 6719TIP3    H120121   5.513   4.703   3.400 -0.2397  0.1597  0.2567
 6719TIP3    H220122   5.664   4.694   3.388 -0.2667 -0.7968  0.4941
 6720TIP3   OH220123   6.594   3.003   2.869  0.2186  0.2748 -0.0370
 6720TIP3    H120124   6.502   3.019   2.851 -0.1753 -0.0448  1.5550
 6720TIP3    H220125   6.604   2.908   2.859 -0.3885 -0.1644  2.7838
 6721TIP3   OH220126   5.450   4.339   5.173 -0.1867  0.0515 -0.3216
 6721TIP3    H120127   5.531   4.389   5.172 -1.5192  2.3518 -1.2830
 6721TIP3    H220128   5.450   4.291   5.090  1.3120 -2.1025  0.8043
 6722TIP3   OH220129   4.904   2.673   3.883  0.7365 -0.0091  0.3010
 6722TIP3    H120130   4.853   2.594   3.869 -0.1822  0.5914  0.1695
 6722TIP3    H220131   4.985   2.659   3.833 -0.2043 -0.1079 -1.2412
 6723TIP3   OH220132   5.188   1.965   3.026 -0.1960 -0.6955 -0.4164
 6723TIP3    H120133   5.254   1.943   2.961 -1.1727 -0.6407 -1.4620
 6723TIP3    H220134   5.104   1.951   2.981 -0.9640  3.0120 -0.4796
 6724TIP3   OH220135   1.179   0.795   1.400  0.2080 -0.7205  0.6493
 6724TIP3    H120136   1.249   0.745   1.358  0.4936  0.2255 -0.0365
 6724TIP3    H220137   1.166   0.871   1.343 -1.7634 -1.1479  0.4815
 6725TIP3   OH220138   6.055   6.665   3.217  0.0128 -0.5180 -0.0270
 6725TIP3    H120139   6.120   6.623   3.161 -1.1514 -1.3536 -0.8100
 6725TIP3    H220140   6.001   6.593   3.249 -0.7455  0.1859  0.3181
 6726TIP3   OH220141   2.478   4.852   1.174 -0.2681 -0.0732  0.2057
 6726TIP3    H120142   2.527   4.893   1.103 -1.0200 -1.2733 -1.0315
 6726TIP3    H220143   2.481   4.916   1.245 -0.1287  1.4611 -1.1461
 6727TIP3   OH220144   5.110   5.390   0.495  0.2656  0.3977  0.4734
 6727TIP3    H120145   5.191   5.410   0.449 -0.2397  0.9269 -0.2222
 6727TIP3    H220146   5.046   5.452   0.459 -0.6651 -0.5989  0.3439
 6728TIP3   OH220147   4.154   3.406   5.394 -0.2481  0.1343  0.1617
 6728TIP3    H120148   4.237   3.367   5.422 -0.3001 -0.5110 -0.5645
 6728TIP3    H220149   4.087   3.350   5.433 -0.3462  0.4112  0.3979
 6729TIP3   OH220150   6.175   4.665   5.333 -0.0929 -0.3997 -0.1600
 6729TIP3    H120151   6.248   4.725   5.346 -0.7413  0.3837 -0.0364
 6729TIP3    H220152   6.185   4.600   5.402  1.7175 -1.6001 -1.4446
 6730TIP3   OH220153   6.226   2.337   1.026  0.2022  0.6765  0.0942
 6730TIP3    H120154   6.215   2.249   1.062 -0.1449  0.4284 -0.5940
 6730TIP3    H220155   6.219   2.395   1.102  2.2700  0.0226  0.8468
 6731TIP3   OH220156   1.095   1.317   2.110 -0.5534 -0.1010 -0.0472
 6731TIP3    H120157   1.136   1.231   2.103  2.5415  1.2909 -0.9007
 6731TIP3    H220158   1.103   1.355   2.023 -1.5000  1.1919  0.3993
 6732TIP3   OH220159   1.305   5.438   5.310 -0.4188  0.0367  0.1457
 6732TIP3    H120160   1.297   5.391   5.393  0.7938 -0.5370 -0.0382
 6732TIP3    H220161   1.325   5.370   5.246  1.3192  0.7577 -0.1356
 6733TIP3   OH220162   5.685   3.699   0.906 -0.5839  0.0319  0.3232
 6733TIP3    H120163   5.684   3.698   0.811  1.3222 -1.2347  0.2642
 6733TIP3    H220164   5.775   3.675   0.930 -0.6848  1.4470  2.4422
 6734TIP3   OH220165   1.117   2.544   0.111  0.4019 -0.3091  0.2242
 6734TIP3    H120166   1.129   2.483   0.038  0.5543 -0.9991  0.8112
 6734TIP3    H220167   1.022   2.554   0.119  0.3695 -0.5990  0.2247
 6735TIP3   OH220168   4.233   0.154   2.292 -0.0808 -0.4383  0.5127
 6735TIP3    H120169   4.290   0.151   2.214 -0.5737  0.9275  0.0624
 6735TIP3    H220170   4.209   0.063   2.308  0.8260 -0.8490 -0.3387
 6736TIP3   OH220171   4.668   5.838   3.065 -0.2792  0.5231 -0.3972
 6736TIP3    H120172   4.582   5.848   3.103 -0.1576  0.0042  0.0261
 6736TIP3    H220173   4.652   5.793   2.981 -0.5187  1.4358 -0.8525
 6737TIP3   OH220174   1.897   5.906   5.182 -0.0420  0.2611  0.3612
 6737TIP3    H120175   1.850   5.824   5.196  0.9292 -0.4968 -0.6714
 6737TIP3    H220176   1.887   5.953   5.265 -0.6612 -0.8677  0.9577
 6738TIP3   OH220177   3.456   4.128   0.070 -0.6794  0.2006  0.8309
 6738TIP3    H120178   3.479   4.057   0.010 -1.4046  0.8063 -0.2014
 6738TIP3    H220179   3.430   4.084   0.151  2.1065 -0.5684  1.4002
 6739TIP3   OH220180   5.061   3.885   0.860 -0.2586  0.1673 -0.0969
 6739TIP3    H120181   4.968   3.879   0.840 -0.4053 -0.7075  0.7968
 6739TIP3    H220182   5.064   3.923   0.948  0.2321  0.1560 -0.1057
 6740TIP3   OH220183   6.285   2.143   0.359  0.1419  0.7018 -0.7606
 6740TIP3    H120184   6.253   2.151   0.269 -1.1509 -1.8653 -0.6175
 6740TIP3    H220185   6.354   2.076   0.354 -0.9958 -0.6225  0.3250
 6741TIP3   OH220186   1.768   2.694   2.883  0.7037  0.2529  0.0198
 6741TIP3    H120187   1.792   2.699   2.975 -1.6154 -3.4084  1.0551
 6741TIP3    H220188   1.821   2.623   2.847  1.1715  1.2514 -1.3759
 6742TIP3   OH220189   5.699   6.431   4.221  0.0473 -0.2421  0.1107
 6742TIP3    H120190   5.771   6.367   4.227 -0.6347 -1.0323  0.0907
 6742TIP3    H220191   5.660   6.431   4.309  0.2242  0.3668  0.1897
 6743TIP3   OH220192   0.140   1.462   4.921  0.4299  0.0734  0.0809
 6743TIP3    H120193   0.118   1.496   4.834 -0.5511 -0.0766  0.2631
 6743TIP3    H220194   0.075   1.394   4.938 -0.5211  1.3129  1.6664
 6744TIP3   OH220195   6.021   4.779   1.607  0.1140  1.0955  0.2772
 6744TIP3    H120196   5.965   4.704   1.627  1.9188 -0.7270 -1.1289
 6744TIP3    H220197   6.003   4.799   1.515  0.0491  2.0754  0.4894
 6745TIP3   OH220198   2.875   6.534   3.977 -0.0371 -0.0929  0.1800
 6745TIP3    H120199   2.868   6.628   3.963  1.7294 -0.0568 -0.9065
 6745TIP3    H220200   2.958   6.510   3.935 -0.2631 -2.0761  0.7417
 6746TIP3   OH220201   0.488   6.685   4.084  0.0209 -0.7202  0.2467
 6746TIP3    H120202   0.448   6.640   4.010 -0.1625  0.6513 -0.5049
 6746TIP3    H220203   0.432   6.664   4.159 -1.3240  0.0364 -0.5219
 6747TIP3   OH220204   4.249   0.953   3.456 -0.3964 -1.0616  0.0356
 6747TIP3    H120205   4.159   0.929   3.432 -0.2066 -1.8714  0.1084
 6747TIP3    H220206   4.249   1.049   3.456 -1.4158 -1.0477  0.5797
 6748TIP3   OH220207   0.344   0.385   3.670 -0.4716  0.0235 -0.2447
 6748TIP3    H120208   0.286   0.368   3.596  0.1045 -2.2079 -0.2346
 6748TIP3    H220209   0.287   0.377   3.747 -0.5198 -0.3902 -0.3204
 6749TIP3   OH220210   2.616   0.966   4.608 -0.5858  0.0940 -0.0112
 6749TIP3    H120211   2.641   0.880   4.576  1.3033  0.2200  0.9949
 6749TIP3    H220212   2.664   1.027   4.552 -2.1732  0.5383 -0.9386
 6750TIP3   OH220213   2.072   5.971   4.700  0.5003  0.0620  0.1867
 6750TIP3    H120214   1.994   5.998   4.749 -1.5660 -0.0502 -2.7967
 6750TIP3    H220215   2.100   5.890   4.742 -0.5837  0.4284  1.7071
 6751TIP3   OH220216   5.812   2.489   2.057 -0.1384  0.1134  0.5352
 6751TIP3    H120217   5.907   2.503   2.055  0.1136 -1.4377 -0.2710
 6751TIP3    H220218   5.786   2.510   2.146  0.9725  0.4960  0.7860
 6752TIP3   OH220219   3.474   6.402   4.075 -0.7429 -0.0093  0.4349
 6752TIP3    H120220   3.422   6.413   4.154 -0.3265 -1.4002  0.9285
 6752TIP3    H220221   3.416   6.429   4.004 -1.5083  0.1954  1.1209
 6753TIP3   OH220222   4.574   1.369   2.853  0.4881 -0.3267  0.2681
 6753TIP3    H120223   4.652   1.413   2.886 -0.3465  1.9842 -0.5959
 6753TIP3    H220224   4.510   1.378   2.924  0.3996 -0.4427  0.2035
 6754TIP3   OH220225   6.596   6.754   4.924  0.0490  0.1182 -0.0771
 6754TIP3    H120226   6.578   6.660   4.934  0.9281  0.0014  0.4799
 6754TIP3    H220227   6.685   6.765   4.956  0.7452  0.7969 -2.1150
 6755TIP3   OH220228   5.630   3.675   4.055  0.0953  0.1210 -0.4492
 6755TIP3    H120229   5.601   3.659   4.145  0.4256  0.8331 -0.2132
 6755TIP3    H220230   5.584   3.609   4.003  1.5692 -1.7996  0.5126
 6756TIP3   OH220231   2.336   6.752   0.312 -0.1952 -0.2410  0.0040
 6756TIP3    H120232   2.295   6.670   0.285 -0.9508  0.1891 -0.1777
 6756TIP3    H220233   2.338   6.806   0.233 -0.1309  0.0896  0.2256
 6757TIP3   OH220234   4.267   5.145   4.275  0.5364 -0.0011 -0.2929
 6757TIP3    H120235   4.294   5.054   4.261 -0.0034 -0.2212  0.0524
 6757TIP3    H220236   4.178   5.138   4.310  0.5068  0.6604 -0.2290
 6758TIP3   OH220237   0.330   0.308   4.647 -0.2013  0.2175 -0.2680
 6758TIP3    H120238   0.372   0.390   4.622  0.3006 -0.9289 -3.5700
 6758TIP3    H220239   0.399   0.242   4.640 -0.9802 -0.7602  0.8146
 6759TIP3   OH220240   3.557   0.009   3.580 -0.3779 -0.8763  0.0626
 6759TIP3    H120241   3.549   0.104   3.593  0.4551 -0.6001 -1.1904
 6759TIP3    H220242   3.535  -0.004   3.487 -0.0394 -1.8472  0.1064
 6760TIP3   OH220243   1.161   2.485   1.070 -0.0013 -0.1938  0.0774
 6760TIP3    H120244   1.109   2.525   1.001  1.5243 -0.6838 -1.4235
 6760TIP3    H220245   1.204   2.559   1.113  0.3871  0.0209 -0.6532
 6761TIP3   OH220246   3.295   0.452   5.866 -0.1199  0.2659 -0.1103
 6761TIP3    H120247   3.319   0.527   5.811 -0.5019 -0.1003 -0.7772
 6761TIP3    H220248   3.284   0.490   5.954 -2.5304  1.4165 -0.8366
 6762TIP3   OH220249   7.134   3.814   4.463  0.0943 -0.2838  0.2277
 6762TIP3    H120250   7.227   3.832   4.479 -0.3012  1.4154  0.8891
 6762TIP3    H220251   7.107   3.758   4.535  0.4199 -0.0685  0.5221
 6763TIP3   OH220252   7.133   6.540   1.086  0.2978 -0.6093  0.2268
 6763TIP3    H120253   7.086   6.546   1.169 -0.2222  0.0781 -0.1067
 6763TIP3    H220254   7.224   6.563   1.108 -0.3460  2.5182  0.1883
 6764TIP3   OH220255   0.306   2.336   0.757 -0.0604 -0.1904  0.1019
 6764TIP3    H120256   0.281   2.292   0.676 -1.4077 -0.4063  0.6147
 6764TIP3    H220257   0.317   2.265   0.821  1.4869 -0.0668  0.0239
 6765TIP3   OH220258   6.800   0.300   5.659  0.1171 -0.0785  0.6103
 6765TIP3    H120259   6.733   0.292   5.591  0.3951  1.1921  0.1648
 6765TIP3    H220260   6.752   0.320   5.739 -0.1023 -0.1339  0.4917
 6766TIP3   OH220261   2.692   3.990   1.621  0.0142  0.1773  0.7196
 6766TIP3    H120262   2.757   3.931   1.659 -0.1879 -0.9558 -0.5985
 6766TIP3    H220263   2.742   4.046   1.562 -0.1499 -0.4987 -0.0726
 6767TIP3   OH220264   2.459   0.785   0.548 -0.5250  0.3648 -0.8385
 6767TIP3    H120265   2.510   0.718   0.593 -0.9890  1.9663  2.4379
 6767TIP3    H220266   2.401   0.737   0.490  0.8297 -1.8540 -0.4545
 6768TIP3   OH220267   1.879   6.622   5.892 -0.3670  0.8118 -0.3311
 6768TIP3    H120268   1.883   6.691   5.825 -0.0174  0.5976 -0.5325
 6768TIP3    H220269   1.925   6.548   5.853 -2.3560 -0.2016 -0.8862
 6769TIP3   OH220270   6.831   5.465   0.298  0.1411  0.6031  0.0920
 6769TIP3    H120271   6.881   5.416   0.364 -0.9867 -1.4440 -0.4789
 6769TIP3    H220272   6.746   5.480   0.339 -0.5449 -0.6225 -0.8148
 6770TIP3   OH220273   5.737   2.067   0.278  0.1222 -0.0098  0.1849
 6770TIP3    H120274   5.754   2.149   0.324  0.0223 -0.1275  0.4304
 6770TIP3    H220275   5.650   2.078   0.240 -0.8383 -0.8269  2.0382
 6771TIP3   OH220276   4.962   3.254   0.207  0.7854  0.4816  0.5126
 6771TIP3    H120277   4.924   3.322   0.151 -0.5666 -0.2030  0.5635
 6771TIP3    H220278   5.048   3.237   0.169  0.6927  1.4356 -0.1584
 6772TIP3   OH220279   2.255   2.499   1.541 -0.7736  0.6111  0.3374
 6772TIP3    H120280   2.261   2.593   1.525 -0.3474  0.8059  1.4980
 6772TIP3    H220281   2.345   2.473   1.562 -1.0058  0.0736  0.6849
 6773TIP3   OH220282   4.022   1.959   4.157 -0.3428 -0.1007  0.0458
 6773TIP3    H120283   3.938   1.930   4.193  0.4440 -0.0163  2.0455
 6773TIP3    H220284   4.018   2.054   4.161  0.3568 -0.1092  1.4581
 6774TIP3   OH220285   6.237   3.082   1.884  0.0937  0.5299 -0.0268
 6774TIP3    H120286   6.167   3.128   1.837 -0.2293 -0.5017 -0.5861
 6774TIP3    H220287   6.231   2.992   1.853 -0.4362 -0.3101  2.3816
 6775TIP3   OH220288   1.835   5.315   5.285  0.1010  0.0660  0.2234
 6775TIP3    H120289   1.755   5.366   5.274  0.2935  0.4311  0.5198
 6775TIP3    H220290   1.805   5.228   5.312 -0.2129  0.0785 -0.0761
 6776TIP3   OH220291   3.986   1.769   3.097  0.6218  0.1258  0.3801
 6776TIP3    H120292   3.925   1.803   3.163 -0.7596 -1.2317 -0.1366
 6776TIP3    H220293   4.026   1.693   3.138 -0.4339 -0.8810 -0.3834
 6777TIP3   OH220294   3.690   5.786   5.495 -0.3415  0.3231 -0.6684
 6777TIP3    H120295   3.660   5.806   5.407 -1.2301  2.1184 -0.0024
 6777TIP3    H220296   3.763   5.726   5.482 -0.8262  0.0925 -2.5862
 6778TIP3   OH220297   2.431   6.771   5.614  0.4414  0.5512 -0.0426
 6778TIP3    H120298   2.445   6.692   5.666 -0.5265  0.1872 -0.3099
 6778TIP3    H220299   2.403   6.738   5.529  1.4108  1.1578 -0.6138
 6779TIP3   OH220300   6.580   5.325   3.289 -0.3661 -0.0322  0.3277
 6779TIP3    H120301   6.499   5.278   3.269  0.1582 -0.0519 -2.0642
 6779TIP3    H220302   6.587   5.391   3.220  1.5195  0.1468  0.6467
 6780TIP3   OH220303   6.888   1.284   5.267 -0.1340  0.0568  0.1291
 6780TIP3    H120304   6.932   1.234   5.198 -1.4670 -2.0711  0.7465
 6780TIP3    H220305   6.811   1.322   5.223 -1.0582 -1.4097  0.4020
 6781TIP3   OH220306   0.854   3.000   2.342 -0.4184 -0.0768  0.0550
 6781TIP3    H120307   0.903   3.076   2.373  0.6891 -0.8899  0.3601
 6781TIP3    H220308   0.912   2.926   2.359 -1.6496 -1.0426  0.1418
 6782TIP3   OH220309   2.061   0.202   5.773 -0.2101 -0.3101 -0.0630
 6782TIP3    H120310   2.069   0.140   5.846 -0.3583  1.1365  1.2358
 6782TIP3    H220311   2.077   0.288   5.813  1.8850  0.3819 -2.1221
 6783TIP3   OH220312   2.388   5.229   1.655  0.3988 -0.1931 -0.1129
 6783TIP3    H120313   2.475   5.192   1.641  0.5039 -0.2667  0.6475
 6783TIP3    H220314   2.404   5.307   1.709 -0.0756 -0.8178  0.9774
 6784TIP3   OH220315   3.190   2.211   1.811 -0.0754  0.0641  0.1251
 6784TIP3    H120316   3.173   2.300   1.779  0.2729  0.1361  0.1443
 6784TIP3    H220317   3.174   2.155   1.735 -0.1163  0.1571  0.0649
 6785TIP3   OH220318   5.200   0.868   5.674 -0.6562  0.0696  0.1678
 6785TIP3    H120319   5.276   0.891   5.727 -0.0591 -0.4970 -0.4282
 6785TIP3    H220320   5.236   0.850   5.587 -1.6033  0.8429 -0.3948
 6786TIP3   OH220321   5.855   5.922   0.144  0.4761  0.0012 -0.0240
 6786TIP3    H120322   5.944   5.886   0.144 -0.0963 -1.4901 -0.3836
 6786TIP3    H220323   5.865   6.009   0.106  1.6626 -0.5055 -0.9644
 6787TIP3   OH220324   3.217   3.655   2.206 -0.4763 -0.1490  0.2094
 6787TIP3    H120325   3.243   3.696   2.289 -0.0692 -1.4823  0.7712
 6787TIP3    H220326   3.170   3.576   2.233 -1.0812 -0.1521 -0.8370
 6788TIP3   OH220327   5.867   3.527   0.568 -0.2237  0.2591  0.8558
 6788TIP3    H120328   5.820   3.590   0.623  0.4522  0.2908  1.4032
 6788TIP3    H220329   5.955   3.525   0.603  0.2965  0.4501 -0.3685
 6789TIP3   OH220330   3.564   0.406   2.537 -0.1432 -0.2821 -0.0099
 6789TIP3    H120331   3.633   0.441   2.594 -1.2181  1.6382  0.1743
 6789TIP3    H220332   3.582   0.445   2.452 -0.3007 -0.7568 -0.2631
 6790TIP3   OH220333   4.594   5.051   3.014 -0.0290 -0.3207 -0.1244
 6790TIP3    H120334   4.534   5.009   2.954 -1.4248  1.8031 -0.3327
 6790TIP3    H220335   4.575   5.011   3.099  0.1950 -1.5591 -0.6331
 6791TIP3   OH220336   1.932   6.285   1.475 -0.0823 -0.3226  0.3046
 6791TIP3    H120337   2.009   6.300   1.531  0.2884  0.2132 -0.3349
 6791TIP3    H220338   1.953   6.330   1.393 -0.6847 -0.9637 -0.2154
 6792TIP3   OH220339   5.786   5.730   4.793 -0.0052  0.4873  0.1577
 6792TIP3    H120340   5.761   5.733   4.701  0.5563  0.3393 -0.0025
 6792TIP3    H220341   5.732   5.659   4.830  0.6451 -0.2784 -0.3319
 6793TIP3   OH220342   7.066   3.494   3.710 -0.2402  0.3421  0.2686
 6793TIP3    H120343   7.134   3.468   3.647  0.0648 -1.2730  1.1947
 6793TIP3    H220344   7.113   3.502   3.793 -0.7607  1.7354  0.4449
 6794TIP3   OH220345   6.103   0.763   0.141 -0.3590  0.0201 -0.1254
 6794TIP3    H120346   6.096   0.691   0.079 -1.2298 -0.3890  0.4327
 6794TIP3    H220347   6.083   0.841   0.089  1.8316  0.0524 -1.0326
 6795TIP3   OH220348   2.699   6.662   5.579 -0.2087  0.5524  0.0352
 6795TIP3    H120349   2.666   6.597   5.642  2.9631  0.8005  2.1941
 6795TIP3    H220350   2.764   6.614   5.527 -0.3325  1.1871 -0.7171
 6796TIP3   OH220351   4.886   2.743   1.435  0.1442 -0.1701 -0.0337
 6796TIP3    H120352   4.906   2.661   1.390 -0.2108 -0.4853  0.3688
 6796TIP3    H220353   4.920   2.731   1.523  0.3755  0.2398 -0.0676
 6797TIP3   OH220354   2.842   2.196   4.934 -0.4121 -0.2080 -0.1701
 6797TIP3    H120355   2.839   2.244   5.017 -0.9331  2.2278 -1.5076
 6797TIP3    H220356   2.915   2.234   4.887  0.7794 -2.5432 -0.3651
 6798TIP3   OH220357   6.052   2.266   5.154 -0.0698  0.5295  0.4271
 6798TIP3    H120358   6.028   2.283   5.246  2.2182 -0.4423  1.2590
 6798TIP3    H220359   6.022   2.177   5.138  0.0299  0.4987  0.4123
 6799TIP3   OH220360   6.201   0.230   2.308 -0.1846 -0.2209  0.4733
 6799TIP3    H120361   6.121   0.247   2.260 -1.1859 -0.5969  1.9476
 6799TIP3    H220362   6.221   0.312   2.352  0.3389 -0.0842 -0.0024
 6800TIP3   OH220363   4.788   3.902   1.798 -0.0572  0.0181 -0.2007
 6800TIP3    H120364   4.836   3.982   1.820  2.1066 -1.7342  2.0302
 6800TIP3    H220365   4.698   3.919   1.826 -0.0581  2.1990 -1.3184
 6801TIP3   OH220366   6.692   2.929   3.625  0.4685  0.6798 -0.4095
 6801TIP3    H120367   6.715   2.942   3.533 -1.4498  1.4660 -0.8148
 6801TIP3    H220368   6.598   2.909   3.624  0.2718  1.3214  1.4329
 6802TIP3   OH220369   2.437   3.214   2.254  0.4057 -0.1048 -0.1813
 6802TIP3    H120370   2.530   3.236   2.247  0.0451  1.4555 -0.4791
 6802TIP3    H220371   2.394   3.297   2.274 -1.2193 -0.2794 -2.5206
 6803TIP3   OH220372   2.452   4.868   0.409  0.0795  0.2163 -0.4961
 6803TIP3    H120373   2.485   4.818   0.335 -2.6697 -1.5358 -0.6711
 6803TIP3    H220374   2.430   4.802   0.475  1.1777  1.6423  1.4187
 6804TIP3   OH220375   1.943   0.222   1.489 -0.0624 -0.0872  0.1138
 6804TIP3    H120376   1.848   0.224   1.498 -0.0007  0.0738  0.8388
 6804TIP3    H220377   1.959   0.229   1.395 -0.7680 -0.2288 -0.0211
 6805TIP3   OH220378   4.572   1.060   4.026 -0.2278  0.7352 -0.2688
 6805TIP3    H120379   4.488   1.093   4.056 -1.3028 -1.0859 -1.1471
 6805TIP3    H220380   4.603   1.125   3.963 -0.9097  1.4516  0.1159
 6806TIP3   OH220381   3.912   1.644   0.554 -0.9553  0.4255  0.6252
 6806TIP3    H120382   3.981   1.632   0.619 -0.2894 -0.4577 -0.1994
 6806TIP3    H220383   3.926   1.731   0.518  0.0929  0.0481  0.0846
 6807TIP3   OH220384   5.331   4.306   4.297  0.7128  0.3728 -0.2536
 6807TIP3    H120385   5.336   4.400   4.313  1.7572  0.0446  1.6830
 6807TIP3    H220386   5.238   4.285   4.307  0.4404  1.1935 -0.8932
 6808TIP3   OH220387   3.872   6.426   0.676 -0.1883  0.4934  0.1949
 6808TIP3    H120388   3.932   6.500   0.687  0.4981 -0.2795  2.1040
 6808TIP3    H220389   3.922   6.350   0.705 -0.9649 -0.7321 -1.5000
 6809TIP3   OH220390   0.535   6.086   0.066  0.0383 -0.3070  0.2322
 6809TIP3    H120391   0.458   6.121   0.110 -0.5911 -0.4789 -0.6975
 6809TIP3    H220392   0.506   6.070  -0.024  1.6590  1.4053 -0.6711
 6810TIP3   OH220393   3.462   4.532   1.199 -0.0595  0.1272 -0.1947
 6810TIP3    H120394   3.416   4.457   1.160  0.3697 -0.7312  0.9140
 6810TIP3    H220395   3.409   4.608   1.172 -2.5049 -0.8591  1.4689
 6811TIP3   OH220396   1.622   1.673   2.049 -0.0658 -0.2374 -0.5048
 6811TIP3    H120397   1.683   1.740   2.020 -0.6492  0.8771  0.7429
 6811TIP3    H220398   1.552   1.674   1.984 -0.0803  0.3871 -0.4829
 6812TIP3   OH220399   2.356   1.459   4.615 -0.3353 -0.6913 -0.1160
 6812TIP3    H120400   2.319   1.492   4.697 -0.1430  0.3518 -0.4290
 6812TIP3    H220401   2.318   1.515   4.547 -0.0987 -1.2123 -0.6889
 6813TIP3   OH220402   4.144   4.369   3.935 -0.3924 -0.0663  0.1336
 6813TIP3    H120403   4.112   4.394   4.022  1.1800  0.0602  0.7073
 6813TIP3    H220404   4.083   4.411   3.875 -1.3368  0.0954  1.1702
 6814TIP3   OH220405   7.152   5.608   2.554  0.1544  0.0655  0.8002
 6814TIP3    H120406   7.154   5.700   2.579 -1.0019 -0.1370  1.6701
 6814TIP3    H220407   7.060   5.589   2.537  0.3584 -0.9795  0.7903
 6815TIP3   OH220408   3.066   2.094   3.476 -0.2333  0.3115 -0.1176
 6815TIP3    H120409   3.021   2.151   3.539 -0.9453  1.1102 -1.3211
 6815TIP3    H220410   3.159   2.103   3.498 -0.2663  2.4411 -0.6525
 6816TIP3   OH220411   3.363   0.739   4.173  0.0752 -0.7066 -0.1075
 6816TIP3    H120412   3.407   0.709   4.094  0.8034  1.3442 -0.5385
 6816TIP3    H220413   3.270   0.734   4.152  0.2137 -1.4404 -0.5814
 6817TIP3   OH220414   3.916   2.373   5.199 -0.0545  0.3335 -0.3061
 6817TIP3    H120415   3.929   2.466   5.177  0.1737  0.0409 -1.4719
 6817TIP3    H220416   3.823   2.359   5.185 -0.6336  0.9613  2.2898
 6818TIP3   OH220417   3.955   4.355   4.893  0.0545  0.4615  0.5568
 6818TIP3    H120418   3.987   4.442   4.869 -0.5935  0.3946 -0.6085
 6818TIP3    H220419   3.980   4.299   4.820 -0.9576  0.0036  0.5461
 6819TIP3   OH220420   0.263   5.251   0.068 -0.0842 -0.7992  0.2692
 6819TIP3    H120421   0.349   5.218   0.095 -0.1563  0.0292  1.5916
 6819TIP3    H220422   0.252   5.218  -0.021  1.5695 -0.9833  0.0992
 6820TIP3   OH220423   6.233   0.278   3.663 -0.4676  0.7173  0.2956
 6820TIP3    H120424   6.209   0.235   3.580  2.0021 -0.7167  0.2270
 6820TIP3    H220425   6.164   0.251   3.724 -0.9414 -0.3711 -0.6699
 6821TIP3   OH220426   1.818   2.555   0.331 -0.2202 -0.1432  0.4431
 6821TIP3    H120427   1.803   2.477   0.384  0.3266  1.0474  2.4861
 6821TIP3    H220428   1.761   2.621   0.370  0.8829  1.0305  0.1336
 6822TIP3   OH220429   3.442   6.531   0.376  0.1712  0.1352  0.0897
 6822TIP3    H120430   3.402   6.528   0.289 -1.1066  0.9324  0.6161
 6822TIP3    H220431   3.510   6.464   0.374 -0.4365 -0.4738 -1.2414
 6823TIP3   OH220432   3.330   2.548   4.371  0.1300 -1.2531  0.0492
 6823TIP3    H120433   3.360   2.470   4.419 -0.3582 -1.3317  0.2328
 6823TIP3    H220434   3.271   2.592   4.432  1.8474  0.3000  0.6919
 6824TIP3   OH220435   2.918   3.262   3.790  0.1232 -0.3176  0.3632
 6824TIP3    H120436   2.963   3.337   3.829 -1.1212  0.6636 -0.0064
 6824TIP3    H220437   2.880   3.297   3.709 -0.3295 -1.3961  0.0887
 6825TIP3   OH220438   2.049   6.214   1.190 -0.5032  0.6490  0.1763
 6825TIP3    H120439   2.029   6.124   1.215  0.5806 -0.5180 -2.7828
 6825TIP3    H220440   1.969   6.263   1.210 -1.4802 -1.1481  0.8855
 6826TIP3   OH220441   5.880   6.157   0.622 -0.2604 -0.1829 -0.2881
 6826TIP3    H120442   5.949   6.114   0.571 -1.1505 -2.0329  0.0029
 6826TIP3    H220443   5.812   6.177   0.559 -0.3710 -0.3231 -0.2124
 6827TIP3   OH220444   5.659   2.080   4.212  0.1536 -0.3462 -0.0357
 6827TIP3    H120445   5.602   2.055   4.285  1.4435 -2.3263  0.3726
 6827TIP3    H220446   5.611   2.053   4.134 -0.2571 -0.3157  0.2030
 6828TIP3   OH220447   5.848   1.204   2.719  0.1883  0.6662 -0.4667
 6828TIP3    H120448   5.791   1.128   2.714  0.7346  0.1760  0.4870
 6828TIP3    H220449   5.898   1.202   2.638 -0.1648  0.3114 -0.6791
 6829TIP3   OH220450   2.172   6.468   4.333  0.0464 -0.3580  0.6957
 6829TIP3    H120451   2.258   6.494   4.298  0.0831  1.1440  1.8061
 6829TIP3    H220452   2.192   6.412   4.407  0.0464 -0.5789  0.5298
 6830TIP3   OH220453   5.916   6.381   1.705 -0.5909 -0.7343 -0.0427
 6830TIP3    H120454   5.847   6.444   1.726  1.2418  2.4823 -2.6332
 6830TIP3    H220455   5.948   6.350   1.790 -2.3950  0.9035  1.3118
 6831TIP3   OH220456   2.585   3.981   4.488 -0.0665  0.5258 -0.2811
 6831TIP3    H120457   2.664   3.950   4.443 -0.7989 -0.3888 -0.9776
 6831TIP3    H220458   2.600   3.959   4.580 -0.3682 -1.5789 -0.6868
 6832TIP3   OH220459   4.065   3.708   5.018 -0.0844 -0.3198  0.4107
 6832TIP3    H120460   4.029   3.680   5.102 -1.7596  0.6565  0.0605
 6832TIP3    H220461   4.011   3.783   4.992 -1.4972 -2.2490 -2.8506
 6833TIP3   OH220462   3.883   4.723   0.266 -0.2918 -0.0818 -0.7165
 6833TIP3    H120463   3.927   4.719   0.352 -0.6381  3.3743 -0.2145
 6833TIP3    H220464   3.792   4.745   0.287 -0.4452  0.5053 -1.9329
 6834TIP3   OH220465   0.254   1.112   2.983  0.3271 -0.1636 -0.5773
 6834TIP3    H120466   0.194   1.120   3.057  0.4386 -1.4499 -0.3259
 6834TIP3    H220467   0.206   1.061   2.918  1.2045 -1.3914 -0.2845
 6835TIP3   OH220468   2.195   5.846   1.793  0.1583 -0.6177  0.1309
 6835TIP3    H120469   2.164   5.913   1.854 -0.2217 -0.5230 -0.1646
 6835TIP3    H220470   2.116   5.814   1.751  0.4851 -0.0785 -0.9333
 6836TIP3   OH220471   5.105   0.852   0.592 -0.3381  0.0096  0.1751
 6836TIP3    H120472   5.193   0.821   0.570 -0.3464 -0.3736  0.6862
 6836TIP3    H220473   5.048   0.776   0.578 -0.2539 -0.4574  2.1583
 6837TIP3   OH220474   4.691   2.962   1.661 -0.1157 -0.0224  0.1020
 6837TIP3    H120475   4.660   2.877   1.630  0.8680 -0.4395  0.2266
 6837TIP3    H220476   4.702   3.014   1.581 -1.4542  0.2515  0.0850
 6838TIP3   OH220477   3.674   6.779   1.722  0.5493  0.4082  0.3631
 6838TIP3    H120478   3.761   6.820   1.718  1.2332 -1.0999 -0.9848
 6838TIP3    H220479   3.673   6.733   1.806  0.5488  1.4266  0.9459
 6839TIP3   OH220480   1.590   1.110   0.717  0.4429 -0.2176 -0.4889
 6839TIP3    H120481   1.523   1.148   0.661 -0.7132 -2.4251 -0.7200
 6839TIP3    H220482   1.546   1.097   0.801  1.8214  1.9916  0.6726
 6840TIP3   OH220483   1.426   3.611   5.704 -0.0201  0.0439  0.3313
 6840TIP3    H120484   1.339   3.593   5.740  0.5186  0.3656  1.8566
 6840TIP3    H220485   1.428   3.706   5.691 -0.5430 -0.1551 -1.5324
 6841TIP3   OH220486   5.105   4.131   2.129 -0.5683  0.2478 -0.0099
 6841TIP3    H120487   5.053   4.134   2.048  3.7538  2.0346 -3.1593
 6841TIP3    H220488   5.129   4.222   2.144  0.3115 -0.3072  2.2231
 6842TIP3   OH220489   2.564   6.107  -0.004  0.2208  0.0944  0.3334
 6842TIP3    H120490   2.538   6.053   0.071  0.8442  0.4704  0.8219
 6842TIP3    H220491   2.562   6.197   0.028  0.6069  0.2513 -0.0689
 6843TIP3   OH220492   3.217   1.534   3.894 -0.0288 -0.0406  0.3205
 6843TIP3    H120493   3.271   1.598   3.939  0.9087 -0.9500  0.5273
 6843TIP3    H220494   3.278   1.483   3.842 -1.0333  0.6601 -1.6228
 6844TIP3   OH220495   2.666   5.183   4.729  0.7693 -0.4179 -0.5811
 6844TIP3    H120496   2.742   5.147   4.682 -0.8063 -1.3882 -2.5112
 6844TIP3    H220497   2.597   5.118   4.715 -0.7135  0.9347  0.2707
 6845TIP3   OH220498   4.168   3.906   4.585 -0.9710  0.3663  0.1244
 6845TIP3    H120499   4.111   3.831   4.605 -0.8131  0.1900 -0.0885
 6845TIP3    H220500   4.184   3.947   4.670  0.1201 -0.6826  0.4497
 6846TIP3   OH220501   6.255   5.995   2.189 -0.0360 -0.0263  0.4091
 6846TIP3    H120502   6.185   6.046   2.231 -0.2445  0.1263 -0.1127
 6846TIP3    H220503   6.332   6.051   2.196  0.5623 -1.0070  2.7731
 6847TIP3   OH220504   5.978   1.804   4.499  0.0767  0.3712  0.1507
 6847TIP3    H120505   5.925   1.733   4.535  0.4802  0.0953  0.2124
 6847TIP3    H220506   5.989   1.781   4.406 -1.5371  1.4341 -0.3394
 6848TIP3   OH220507   2.639   1.399   1.358  0.1924 -0.2897  0.2185
 6848TIP3    H120508   2.703   1.336   1.389 -1.5147 -2.0477  0.3105
 6848TIP3    H220509   2.560   1.348   1.341 -1.3616  1.8415  0.5434
 6849TIP3   OH220510   1.568   2.417   4.992 -0.0573  0.4206  0.0784
 6849TIP3    H120511   1.627   2.442   5.063 -0.3052 -0.9143  0.7879
 6849TIP3    H220512   1.482   2.450   5.019 -0.1392 -0.0305  0.3731
 6850TIP3   OH220513   6.589   5.150   0.410 -0.4610  0.4477  0.3415
 6850TIP3    H120514   6.673   5.124   0.372  0.6510  4.2744 -0.2301
 6850TIP3    H220515   6.563   5.076   0.464  3.6788 -0.6115  1.1906
 6851TIP3   OH220516   1.703   3.798   5.816  0.4994  0.4063  0.0229
 6851TIP3    H120517   1.608   3.812   5.806  0.4811 -0.2717 -0.8025
 6851TIP3    H220518   1.740   3.824   5.732  1.1657  1.5544  0.6467
 6852TIP3   OH220519   6.982   1.093   5.050  0.2175 -0.0022  0.1884
 6852TIP3    H120520   6.923   1.021   5.072  0.6348 -0.6747 -0.8081
 6852TIP3    H220521   7.031   1.061   4.974  0.0296  1.5245 -0.6217
 6853TIP3   OH220522   0.764   2.748   3.769  0.1383  0.3021  0.2320
 6853TIP3    H120523   0.736   2.809   3.700 -1.2534 -0.5618 -0.0224
 6853TIP3    H220524   0.798   2.804   3.839 -0.3379  1.3232 -0.3332
 6854TIP3   OH220525   6.004   3.043   0.824 -0.3138  0.2863  0.2140
 6854TIP3    H120526   5.981   2.950   0.828 -0.6218  0.3849  0.8471
 6854TIP3    H220527   5.933   3.083   0.774 -0.5104  0.2833  0.4920
 6855TIP3   OH220528   4.167   2.846   4.513  0.0278 -0.2425 -0.4738
 6855TIP3    H120529   4.232   2.849   4.442 -0.8336 -0.0305 -1.2729
 6855TIP3    H220530   4.094   2.795   4.476 -0.5124  0.0360  0.1939
 6856TIP3   OH220531   4.418   4.028   2.386 -0.3167  0.4389  0.2677
 6856TIP3    H120532   4.498   4.035   2.438 -0.2847  0.3397  0.2324
 6856TIP3    H220533   4.414   3.935   2.361  1.4281  1.0496 -2.7185
 6857TIP3   OH220534   1.154   0.074   2.126  0.3875  0.8637 -0.1173
 6857TIP3    H120535   1.248   0.079   2.109  0.6746 -0.7887  0.7475
 6857TIP3    H220536   1.124   0.001   2.072 -0.1209  0.4457  0.7176
 6858TIP3   OH220537   5.422   4.428   4.067  0.3975  0.6360  0.5324
 6858TIP3    H120538   5.334   4.434   4.103  0.3555 -2.1483  1.1459
 6858TIP3    H220539   5.477   4.403   4.142  0.7471 -2.7653 -0.6760
 6859TIP3   OH220540   5.612   0.361   3.363  0.6115  0.4046 -0.4279
 6859TIP3    H120541   5.554   0.396   3.431 -0.6756 -1.5233 -0.4588
 6859TIP3    H220542   5.656   0.287   3.405  0.3389 -0.3672 -1.4620
 6860TIP3   OH220543   5.529   5.429   3.713 -0.3760  0.0641 -0.1333
 6860TIP3    H120544   5.607   5.448   3.662  0.4441  0.0565  1.0763
 6860TIP3    H220545   5.463   5.489   3.679 -0.0947 -0.4710 -1.7019
 6861TIP3   OH220546   5.658   4.135   3.540  0.4686  0.4536 -0.5409
 6861TIP3    H120547   5.597   4.099   3.476 -1.4433  0.4835  1.1932
 6861TIP3    H220548   5.717   4.190   3.488 -0.0325 -0.7349 -2.4691
 6862TIP3   OH220549   2.264   1.997   1.433  0.3349  0.0446  0.0520
 6862TIP3    H120550   2.263   2.075   1.378  2.1712  0.1763  0.1602
 6862TIP3    H220551   2.293   1.927   1.375 -0.6919 -0.4599  0.1150
 6863TIP3   OH220552   2.921   4.199   2.363 -0.2169 -0.2680 -0.0922
 6863TIP3    H120553   2.989   4.265   2.377 -1.3888  1.2453 -1.2519
 6863TIP3    H220554   2.914   4.192   2.268 -1.6527 -0.4076  0.0138
 6864TIP3   OH220555   6.628   6.077   0.985  0.3134 -0.4881 -0.5080
 6864TIP3    H120556   6.550   6.095   1.036 -0.0022 -1.1674 -0.7294
 6864TIP3    H220557   6.628   5.982   0.973  1.6058 -0.6013  0.1704
 6865TIP3   OH220558   5.128   6.609   0.330 -0.1342  0.4592 -0.1715
 6865TIP3    H120559   5.108   6.660   0.408  1.9931  0.3163  0.5250
 6865TIP3    H220560   5.184   6.666   0.278 -0.8109  0.2147 -1.2023
 6866TIP3   OH220561   5.867   5.588   2.714 -0.1579  0.0812  0.1947
 6866TIP3    H120562   5.828   5.587   2.627 -0.9049  0.8787  0.5120
 6866TIP3    H220563   5.809   5.533   2.767  0.2789 -0.3780  0.2077
 6867TIP3   OH220564   3.417   6.005   5.225 -0.3855  0.0574 -0.0172
 6867TIP3    H120565   3.503   6.033   5.192 -0.1280  1.4185  1.6530
 6867TIP3    H220566   3.424   6.016   5.320 -1.5975 -2.2076  0.3867
 6868TIP3   OH220567   1.713   1.566   5.013 -0.2976  0.1087 -0.1135
 6868TIP3    H120568   1.664   1.584   5.093 -0.9671  1.5073 -0.8070
 6868TIP3    H220569   1.805   1.577   5.038 -0.5655  2.0005  0.1410
 6869TIP3   OH220570   4.871   4.592   1.802  0.4381 -0.3954 -0.5734
 6869TIP3    H120571   4.837   4.513   1.844 -2.4583  0.8539 -0.3581
 6869TIP3    H220572   4.827   4.595   1.717  1.2817  0.4903 -0.9988
 6870TIP3   OH220573   1.124   4.554   5.448  0.4956  0.3718  0.0971
 6870TIP3    H120574   1.079   4.627   5.492 -0.2671  0.7023 -1.1844
 6870TIP3    H220575   1.095   4.560   5.357  2.4930  0.0522 -0.5934
 6871TIP3   OH220576   7.106   5.798   2.280  0.0253  0.1031 -0.0841
 6871TIP3    H120577   7.034   5.860   2.291  1.2290  1.9848 -2.2571
 6871TIP3    H220578   7.184   5.846   2.305  0.7206 -1.6064  1.2820
 6872TIP3   OH220579   6.331   5.983   3.358  0.0579  0.1232 -0.3763
 6872TIP3    H120580   6.373   6.041   3.295 -0.2281 -1.0357 -1.6735
 6872TIP3    H220581   6.267   6.039   3.403  1.5409  1.4013  0.2164
 6873TIP3   OH220582   5.619   5.528   4.917  0.5295 -0.1659  0.5788
 6873TIP3    H120583   5.660   5.468   4.979  2.2722 -0.7360 -1.0398
 6873TIP3    H220584   5.542   5.480   4.885 -1.0376  0.5610  2.9781
 6874TIP3   OH220585   2.858   1.783   3.217 -0.1867 -0.3378 -0.2313
 6874TIP3    H120586   2.941   1.826   3.194  1.3746 -2.1841  1.4761
 6874TIP3    H220587   2.885   1.708   3.271 -2.9844 -1.2208  0.0875
 6875TIP3   OH220588   1.000   5.485   4.461  0.2871 -0.3126 -0.0234
 6875TIP3    H120589   0.912   5.447   4.460  0.6223 -1.1466 -1.5777
 6875TIP3    H220590   0.986   5.579   4.450 -0.4057 -0.5396 -1.2667
 6876TIP3   OH220591   0.907   4.610   5.706 -0.3201  0.3049  0.0766
 6876TIP3    H120592   0.957   4.664   5.645  2.2514 -1.2495  0.6721
 6876TIP3    H220593   0.827   4.660   5.721  0.4545  2.3415 -1.9143
 6877TIP3   OH220594   2.325   3.777   0.096  0.2804 -0.0154  0.6097
 6877TIP3    H120595   2.288   3.835   0.030  1.5686  1.4399  1.1034
 6877TIP3    H220596   2.284   3.804   0.178 -0.3859 -0.9750  0.6065
 6878TIP3   OH220597   4.453   1.447   2.591 -0.0362  0.3730 -0.2771
 6878TIP3    H120598   4.398   1.404   2.525 -0.6781  1.3568 -0.3981
 6878TIP3    H220599   4.393   1.474   2.660  0.6071 -0.4846  0.6484
 6879TIP3   OH220600   5.843   1.459   3.820  0.2568 -0.7416 -0.1370
 6879TIP3    H120601   5.897   1.501   3.886  0.0296  0.6966 -0.8397
 6879TIP3    H220602   5.817   1.376   3.860 -0.9679  0.6320  2.1370
 6880TIP3   OH220603   0.514   6.497   5.423 -0.2403  0.6744  0.0509
 6880TIP3    H120604   0.496   6.557   5.351  0.2307  0.1295 -0.5361
 6880TIP3    H220605   0.592   6.449   5.394 -0.6922 -0.3063  0.4424
 6881TIP3   OH220606   0.769   2.059   2.468 -0.1501 -0.1295  0.0850
 6881TIP3    H120607   0.835   2.038   2.534  0.5411 -0.9843 -0.8379
 6881TIP3    H220608   0.752   1.975   2.424 -0.2414  0.4980 -1.1262
 6882TIP3   OH220609   2.606   6.683   4.982 -0.6558  0.2329 -0.5868
 6882TIP3    H120610   2.526   6.735   4.989 -1.0553 -0.5753  1.5132
 6882TIP3    H220611   2.586   6.601   5.027  1.4627  0.1410  0.2952
 6883TIP3   OH220612   2.255   6.183   3.702  0.5487 -0.2874 -0.2175
 6883TIP3    H120613   2.319   6.119   3.669  1.9427  0.7336  0.4227
 6883TIP3    H220614   2.173   6.159   3.658  1.2129 -1.9976 -0.6160
 6884TIP3   OH220615   6.959   3.063   1.423 -0.4983  0.4586  0.0250
 6884TIP3    H120616   6.914   2.985   1.454  0.5737 -0.4240 -0.5668
 6884TIP3    H220617   7.050   3.035   1.411 -0.1460  1.7292 -0.4619
 6885TIP3   OH220618   5.359   6.343   5.179 -0.1286 -0.3119 -0.7409
 6885TIP3    H120619   5.288   6.368   5.238 -1.5106  0.9839 -2.8411
 6885TIP3    H220620   5.362   6.248   5.184  0.7923 -0.2347  2.4303
 6886TIP3   OH220621   3.215   3.011   2.954  0.3209  0.5628  0.0035
 6886TIP3    H120622   3.175   3.062   3.024  1.0438  0.4179  0.5326
 6886TIP3    H220623   3.277   3.071   2.912 -0.4354  0.7948 -0.8320
 6887TIP3   OH220624   3.327   3.974   0.637 -0.3824 -0.4766  0.0993
 6887TIP3    H120625   3.257   4.038   0.652 -0.9712 -1.1032  0.0985
 6887TIP3    H220626   3.374   3.970   0.720  0.4899  0.9075 -0.2903
 6888TIP3   OH220627   5.330   4.463   0.369  0.3056 -0.2528 -0.4775
 6888TIP3    H120628   5.287   4.380   0.389  2.0772 -1.3457 -1.0055
 6888TIP3    H220629   5.260   4.529   0.378 -1.0547 -1.7282  0.3004
 6889TIP3   OH220630   5.525   1.877   5.358  0.2588  0.0487  0.5511
 6889TIP3    H120631   5.531   1.931   5.436  0.3172 -0.1200  0.6631
 6889TIP3    H220632   5.464   1.807   5.382  0.5191 -0.1800  0.5498
 6890TIP3   OH220633   2.423   0.663   1.501 -0.0321  0.1927 -0.2582
 6890TIP3    H120634   2.385   0.590   1.549 -1.0298  1.7562  1.4464
 6890TIP3    H220635   2.502   0.686   1.550 -0.6748  1.3526  0.2589
 6891TIP3   OH220636   3.800   5.283   3.814 -0.0042  0.0974  0.0677
 6891TIP3    H120637   3.711   5.295   3.782  0.4283 -0.3306 -1.3506
 6891TIP3    H220638   3.848   5.246   3.740  0.9990 -1.1447  1.2827
 6892TIP3   OH220639   1.943   4.098   2.910 -0.3324  0.3208  1.1272
 6892TIP3    H120640   1.896   4.031   2.960  0.1684 -0.9724 -0.0713
 6892TIP3    H220641   1.892   4.106   2.829  0.9661 -0.4173  0.2121
 6893TIP3   OH220642   2.419   4.883   5.812 -0.4196  0.2693  0.1458
 6893TIP3    H120643   2.445   4.792   5.800  0.2445  0.5293 -0.5284
 6893TIP3    H220644   2.324   4.883   5.800 -0.3292 -0.2156 -0.6741
 6894TIP3   OH220645   3.293   5.340   0.516 -0.2165 -0.1446  0.0178
 6894TIP3    H120646   3.199   5.359   0.518  0.1567  2.0658 -0.7798
 6894TIP3    H220647   3.325   5.368   0.601 -0.0103  0.7539 -0.3514
 6895TIP3   OH220648   5.509   3.627   5.304 -0.4567 -0.0695 -0.2046
 6895TIP3    H120649   5.499   3.540   5.265 -2.0182 -0.4602  0.9979
 6895TIP3    H220650   5.548   3.610   5.390  3.0929  0.7926 -1.4614
 6896TIP3   OH220651   4.365   1.094   0.567 -0.1919 -0.6057 -0.3064
 6896TIP3    H120652   4.289   1.049   0.532 -0.2164 -1.1143  0.3870
 6896TIP3    H220653   4.367   1.070   0.659  0.5782 -0.2800 -0.2312
 6897TIP3   OH220654   2.508   1.542   4.300 -0.4308 -0.3396 -0.3790
 6897TIP3    H120655   2.465   1.504   4.224  0.4670 -1.5473 -0.3101
 6897TIP3    H220656   2.597   1.509   4.296 -0.7464 -1.6972  2.0160
 6898TIP3   OH220657   4.413   0.805   0.800  0.3570  0.1964 -0.1291
 6898TIP3    H120658   4.385   0.780   0.888 -0.3076 -0.0588 -0.4068
 6898TIP3    H220659   4.427   0.899   0.805  0.2019  0.2020  0.2256
 6899TIP3   OH220660   2.645   1.600   3.567 -0.0725  0.8919 -0.2154
 6899TIP3    H120661   2.635   1.594   3.662  0.0801 -0.7185 -0.2858
 6899TIP3    H220662   2.610   1.686   3.545  1.2230  1.9234  1.4641
 6900TIP3   OH220663   0.867   3.599   1.936  0.2982  0.1635 -0.7544
 6900TIP3    H120664   0.839   3.523   1.987 -1.5519 -1.0060 -3.3064
 6900TIP3    H220665   0.794   3.617   1.878  1.0626  3.3874 -0.8889
 6901TIP3   OH220666   6.817   0.297   3.539  0.3147 -0.3591  0.1548
 6901TIP3    H120667   6.806   0.299   3.444  2.0830 -1.9138 -0.1603
 6901TIP3    H220668   6.728   0.299   3.575 -0.3503  1.5451 -1.4474
 6902TIP3   OH220669   7.225   3.113   0.500 -0.1600 -0.4925  0.2385
 6902TIP3    H120670   7.155   3.125   0.435 -1.3812 -0.4724  1.5001
 6902TIP3    H220671   7.246   3.202   0.527 -0.4558 -0.5523  0.6732
 6903TIP3   OH220672   5.159   1.677   2.854 -0.0621 -0.1569  0.2681
 6903TIP3    H120673   5.189   1.722   2.775 -0.0086  0.1733  0.4747
 6903TIP3    H220674   5.233   1.682   2.914 -0.4282  0.4218  0.6814
 6904TIP3   OH220675   2.627   4.265   1.970 -0.0611 -0.8311  0.1133
 6904TIP3    H120676   2.637   4.333   2.035 -0.5639 -0.0984 -0.5597
 6904TIP3    H220677   2.579   4.195   2.014  0.2766 -0.6677  0.7424
 6905TIP3   OH220678   1.226   5.541   0.444 -0.4890  0.0230 -0.4036
 6905TIP3    H120679   1.303   5.550   0.388 -0.5926 -0.5096 -0.6391
 6905TIP3    H220680   1.172   5.474   0.400 -0.3034 -0.8263  0.6227
 6906TIP3   OH220681   6.546   4.775   2.494 -0.0551  0.1719  0.1653
 6906TIP3    H120682   6.565   4.747   2.583  1.7033  1.4767  0.2445
 6906TIP3    H220683   6.597   4.715   2.439 -1.1647 -0.6544  0.0041
 6907TIP3   OH220684   2.469   6.542   0.533  0.0852  0.2323  0.3933
 6907TIP3    H120685   2.462   6.490   0.613  0.2404 -1.3061 -0.5425
 6907TIP3    H220686   2.562   6.564   0.527  0.0509  0.4633  0.7051
 6908TIP3   OH220687   0.335   6.240   1.080  0.0329  0.4899 -0.6560
 6908TIP3    H120688   0.401   6.196   1.133 -0.7240  1.0609  0.8219
 6908TIP3    H220689   0.293   6.170   1.030  0.2894 -0.1697  0.0462
 6909TIP3   OH220690   5.002   0.893   1.213  0.2128  0.4536  0.1951
 6909TIP3    H120691   4.975   0.985   1.207 -0.6721  0.1418 -1.3466
 6909TIP3    H220692   4.985   0.869   1.304  1.0872  1.9712  0.8040
 6910TIP3   OH220693   5.195   3.885   1.726  0.3249 -0.2729 -0.4432
 6910TIP3    H120694   5.162   3.839   1.650 -0.0674 -0.3884 -0.2066
 6910TIP3    H220695   5.263   3.944   1.692 -0.0452 -0.1187 -0.9153
 6911TIP3   OH220696   4.950   6.476   5.616  0.0194 -0.2738 -0.0181
 6911TIP3    H120697   4.943   6.544   5.548 -0.3932  0.2694  0.5594
 6911TIP3    H220698   4.946   6.394   5.567  0.0168  0.1133 -0.6860
 6912TIP3   OH220699   2.584   2.546   1.538 -0.2954 -0.4783 -0.3634
 6912TIP3    H120700   2.637   2.477   1.498  0.9778  0.3909 -0.2338
 6912TIP3    H220701   2.556   2.601   1.465 -1.6694 -1.3484 -0.5149
 6913TIP3   OH220702   3.894   3.887   2.757 -0.1434  0.3360 -0.2131
 6913TIP3    H120703   3.942   3.969   2.766  0.2358  0.3838 -2.1717
 6913TIP3    H220704   3.802   3.912   2.760 -0.0537  0.5198  1.4604
 6914TIP3   OH220705   5.812   6.020   2.117 -0.4198  0.3080 -0.3030
 6914TIP3    H120706   5.869   5.949   2.087  0.5277  0.3237  1.3025
 6914TIP3    H220707   5.776   5.988   2.200 -1.5520  0.9273 -0.5400
 6915TIP3   OH220708   6.471   1.549   0.942  0.3336  0.6158 -0.3688
 6915TIP3    H120709   6.445   1.565   0.851 -0.1324  1.1294 -0.1494
 6915TIP3    H220710   6.563   1.576   0.945  0.6082 -0.2261 -0.8952
 6916TIP3   OH220711   5.108   5.765   2.739  0.9301  0.6303 -0.3272
 6916TIP3    H120712   5.090   5.834   2.803  1.8599  0.0765  0.5694
 6916TIP3    H220713   5.026   5.715   2.735 -0.3346  2.6785 -2.2182
 6917TIP3   OH220714   2.659   3.957   2.618  0.4285 -0.0458 -0.0954
 6917TIP3    H120715   2.639   3.894   2.549  0.4636 -0.2531  0.0818
 6917TIP3    H220716   2.653   3.906   2.699  3.2412 -0.5226 -0.0911
 6918TIP3   OH220717   1.391   4.811   2.046  0.5073 -0.0758  0.3710
 6918TIP3    H120718   1.300   4.790   2.066  0.5183 -1.1526 -0.5986
 6918TIP3    H220719   1.415   4.749   1.977  1.8245  0.5213  0.2678
 6919TIP3   OH220720   5.484   6.378   3.265  0.3624  0.4193 -0.5074
 6919TIP3    H120721   5.509   6.294   3.304 -0.5589 -0.2755 -1.3546
 6919TIP3    H220722   5.412   6.410   3.320  0.9383  0.8340  0.0170
 6920TIP3   OH220723   2.672  -0.026   5.589 -0.9575 -0.1999 -0.3898
 6920TIP3    H120724   2.617   0.052   5.601 -1.4537 -0.6995  0.6322
 6920TIP3    H220725   2.761   0.007   5.596 -1.1585  0.3028 -0.1385
 6921TIP3   OH220726   4.246   2.729   1.752  0.2397 -0.7980 -0.4510
 6921TIP3    H120727   4.273   2.645   1.715 -2.8471 -2.1470 -0.0251
 6921TIP3    H220728   4.198   2.772   1.681  0.8932  0.1334 -0.3354
 6922TIP3   OH220729   3.638   0.653   3.193 -0.3772 -0.5912 -0.3368
 6922TIP3    H120730   3.689   0.735   3.199  0.8567 -1.2836 -0.8819
 6922TIP3    H220731   3.640   0.631   3.100  0.1516 -1.7372 -0.0684
 6923TIP3   OH220732   4.072   1.680   3.455 -0.3159  0.2966  0.2444
 6923TIP3    H120733   4.057   1.604   3.512  0.8175  0.7404  1.1637
 6923TIP3    H220734   4.167   1.683   3.443 -0.2515  2.0599  0.9331
 6924TIP3   OH220735   2.902   2.462   1.967  0.6251  0.1628  0.1126
 6924TIP3    H120736   2.968   2.483   1.900 -0.3092  1.3252 -0.4845
 6924TIP3    H220737   2.827   2.429   1.917 -0.1710  1.2725  0.5433
 6925TIP3   OH220738   1.019   1.392   5.137  0.2279  0.6974 -0.6851
 6925TIP3    H120739   0.934   1.432   5.116  0.1384  2.2406  2.0677
 6925TIP3    H220740   1.080   1.466   5.137  0.9066  0.1519  0.4952
 6926TIP3   OH220741   6.947   4.895   5.339  0.0705 -0.3588  0.2658
 6926TIP3    H120742   6.942   4.986   5.366  0.4503  0.1298 -1.1845
 6926TIP3    H220743   7.034   4.867   5.365  0.8709  0.4538 -1.3384
 6927TIP3   OH220744   4.168   1.893   5.045  0.5581 -0.4109  0.2043
 6927TIP3    H120745   4.128   1.920   5.128 -2.0997  0.0060 -1.1061
 6927TIP3    H220746   4.228   1.823   5.070 -1.8690 -1.9286  2.2720
 6928TIP3   OH220747   2.076   0.478   5.189 -0.2534 -0.1791 -0.3736
 6928TIP3    H120748   1.991   0.507   5.156  0.3899  1.1515 -0.9284
 6928TIP3    H220749   2.119   0.441   5.113  0.3481  0.8102 -0.5324
 6929TIP3   OH220750   1.857   2.888   2.306 -0.0609 -0.3424 -0.2395
 6929TIP3    H120751   1.923   2.911   2.241 -0.7591 -1.1008 -1.2383
 6929TIP3    H220752   1.827   2.801   2.281 -1.8299  0.1962 -0.1309
 6930TIP3   OH220753   3.732   0.416   3.290  0.0540 -0.3170  0.2824
 6930TIP3    H120754   3.723   0.405   3.385 -0.0098  0.9387  0.4362
 6930TIP3    H220755   3.676   0.491   3.269  0.5836 -0.1704 -0.6520
 6931TIP3   OH220756   4.204   4.400   5.682 -0.2400  0.0324  0.2048
 6931TIP3    H120757   4.217   4.492   5.658 -0.7643  0.5339  1.7585
 6931TIP3    H220758   4.121   4.399   5.730  0.1018 -1.1362  0.8148
 6932TIP3   OH220759   1.414   0.208   2.626 -0.1483 -0.3509  0.0509
 6932TIP3    H120760   1.445   0.143   2.689  0.6669 -1.8559 -1.8000
 6932TIP3    H220761   1.491   0.260   2.604 -0.7924  1.2960  1.5036
 6933TIP3   OH220762   7.174   1.194   4.650  0.0680  0.7378  0.0286
 6933TIP3    H120763   7.174   1.287   4.671  2.0223  0.7500  0.1326
 6933TIP3    H220764   7.243   1.184   4.583 -0.4932 -0.5430 -0.4043
 6934TIP3   OH220765   3.237   1.429   0.741 -0.3635 -0.0648  0.0057
 6934TIP3    H120766   3.162   1.370   0.733 -1.5308  1.5193 -1.4338
 6934TIP3    H220767   3.282   1.400   0.821 -1.2524 -2.4230 -0.2717
 6935TIP3   OH220768   1.722   6.661   4.235  0.5376  0.1784  0.3934
 6935TIP3    H120769   1.687   6.579   4.200 -0.3919  1.1116 -0.9609
 6935TIP3    H220770   1.817   6.647   4.238  0.5813 -0.2886 -1.6922
 6936TIP3   OH220771   0.615   1.490   4.562  0.0213  0.8303 -0.3040
 6936TIP3    H120772   0.634   1.575   4.522  1.3850  0.6307 -0.1440
 6936TIP3    H220773   0.628   1.427   4.491 -2.7330  0.8307 -0.9163
 6937TIP3   OH220774   4.503   4.473   2.715  0.2402  0.3884 -1.0276
 6937TIP3    H120775   4.416   4.514   2.715  0.0165  0.0543  1.0475
 6937TIP3    H220776   4.558   4.535   2.765  0.0865 -1.3625  1.4919
 6938TIP3   OH220777   3.385   2.204   0.099  0.0083 -0.1234  0.1776
 6938TIP3    H120778   3.410   2.142   0.168 -0.1425  0.8603  1.1336
 6938TIP3    H220779   3.295   2.180   0.078 -0.0924 -0.1516  0.6278
 6939TIP3   OH220780   1.974   0.240   4.969 -0.2247 -0.0036  0.2442
 6939TIP3    H120781   2.000   0.199   4.886  0.1286 -0.4949  0.5870
 6939TIP3    H220782   1.895   0.289   4.948 -0.3282 -0.3950 -0.3111
 6940TIP3   OH220783   4.439   5.867   3.521 -0.0869 -0.2174  0.0087
 6940TIP3    H120784   4.405   5.953   3.546  0.2924 -0.4654  1.5065
 6940TIP3    H220785   4.390   5.806   3.576  1.1514 -0.7707  0.5227
 6941TIP3   OH220786   2.997   5.520   4.300 -0.0917  0.4580  0.3255
 6941TIP3    H120787   3.001   5.581   4.227 -1.9454  1.6165  1.1217
 6941TIP3    H220788   2.905   5.493   4.305  0.2203 -0.4992  1.5011
 6942TIP3   OH220789   4.994   4.190   2.961  0.0076 -0.5158 -0.8229
 6942TIP3    H120790   5.066   4.227   3.013 -0.4439  1.5669 -1.5941
 6942TIP3    H220791   5.021   4.100   2.945  1.2569 -0.5370  1.0345
 6943TIP3   OH220792   1.907   2.457   4.726 -0.9219 -0.0154  0.7138
 6943TIP3    H120793   1.941   2.495   4.806 -0.2787  1.8184 -0.3716
 6943TIP3    H220794   1.855   2.527   4.686  1.3705  0.3218 -2.0102
 6944TIP3   OH220795   3.337   1.273   3.882  0.5408 -0.0508  0.5111
 6944TIP3    H120796   3.250   1.299   3.911  0.5841  0.7010 -0.0010
 6944TIP3    H220797   3.391   1.279   3.960  0.0096 -1.1685  0.9859
 6945TIP3   OH220798   2.490   1.587   0.653  0.0335  0.0247 -0.1046
 6945TIP3    H120799   2.552   1.626   0.591 -0.0237  1.2429  0.5699
 6945TIP3    H220800   2.514   1.624   0.738 -1.0738 -0.1465  0.2981
 6946TIP3   OH220801   6.024   2.344   1.507  0.1002 -0.0134 -0.3529
 6946TIP3    H120802   6.031   2.425   1.558  1.8617 -0.7828  0.7316
 6946TIP3    H220803   5.937   2.310   1.529  0.1716  0.5111  0.8580
 6947TIP3   OH220804   2.929   1.187   5.365 -0.0089 -0.1769  0.1785
 6947TIP3    H120805   3.001   1.125   5.370 -1.6602 -2.3002 -0.8171
 6947TIP3    H220806   2.952   1.245   5.292  1.2298 -0.0235  0.6654
 6948TIP3   OH220807   6.514   0.282   4.570 -0.3043  0.1240 -0.2927
 6948TIP3    H120808   6.486   0.351   4.630 -0.2936 -0.9567  0.9875
 6948TIP3    H220809   6.437   0.227   4.558 -0.0221 -0.2411 -0.4435
 6949TIP3   OH220810   1.735   6.042   1.070 -0.6106 -0.3953  0.2586
 6949TIP3    H120811   1.793   6.038   1.146 -0.1387 -1.8736 -0.1273
 6949TIP3    H220812   1.752   6.128   1.031 -0.2037  0.0142  1.3136
 6950TIP3   OH220813   1.370   5.703   2.291 -0.1365 -0.4007  0.2043
 6950TIP3    H120814   1.447   5.658   2.324 -1.6722 -1.6434  2.3390
 6950TIP3    H220815   1.322   5.729   2.369 -2.3903 -0.5836 -1.0400
 6951TIP3   OH220816   0.426   0.289   2.461 -0.7593 -0.1235  0.6763
 6951TIP3    H120817   0.389   0.250   2.540 -0.3947  0.8905  1.3698
 6951TIP3    H220818   0.514   0.251   2.456 -1.2514 -1.2284 -0.0233
 6952TIP3   OH220819   1.267   3.654   3.312 -0.1936  0.2931 -0.0558
 6952TIP3    H120820   1.244   3.590   3.379 -1.5201  0.9361  0.1502
 6952TIP3    H220821   1.233   3.737   3.345 -2.2873  0.3889 -2.1371
 6953TIP3   OH220822   0.347   1.793   4.695  0.8780 -0.1966  0.3200
 6953TIP3    H120823   0.364   1.801   4.789  0.6215  0.8232  0.2966
 6953TIP3    H220824   0.312   1.879   4.670  0.6857 -0.5471 -0.6542
 6954TIP3   OH220825   2.564   1.743   2.195  0.1039  0.1682  0.2999
 6954TIP3    H120826   2.621   1.718   2.268 -0.1106 -0.6698  0.1902
 6954TIP3    H220827   2.600   1.696   2.119 -1.7882 -1.8653  0.5813
 6955TIP3   OH220828   5.174   4.033   5.298 -0.3688 -0.4971  0.1106
 6955TIP3    H120829   5.262   4.051   5.331 -0.7525 -0.1298  0.9562
 6955TIP3    H220830   5.163   3.938   5.310  0.6478 -0.9097 -1.8618
 6956TIP3   OH220831   5.752   6.005   1.773  0.3427 -0.0310 -0.4135
 6956TIP3    H120832   5.838   6.008   1.816 -0.5361  0.1067  1.4340
 6956TIP3    H220833   5.727   5.913   1.775  0.1680  0.0163 -0.3863
 6957TIP3   OH220834   6.002   6.779   0.407 -0.3800 -0.3055 -0.2612
 6957TIP3    H120835   6.041   6.743   0.327 -1.7927 -1.8748 -0.3099
 6957TIP3    H220836   5.916   6.810   0.379 -0.9261 -0.9652  0.6498
 6958TIP3   OH220837   0.538   2.478   0.674  0.1349  0.0394 -0.1729
 6958TIP3    H120838   0.456   2.526   0.662 -0.9204 -1.9177 -1.1770
 6958TIP3    H220839   0.526   2.397   0.625  2.0862 -0.9858  0.9385
 6959TIP3   OH220840   6.004   5.671   1.327 -0.4353  0.2494  0.1422
 6959TIP3    H120841   5.920   5.706   1.299 -0.2527  1.4292  1.0324
 6959TIP3    H220842   6.063   5.688   1.253 -0.7099  0.4316 -0.0352
 6960TIP3   OH220843   2.364   5.756   2.326  0.6624  0.1167 -0.3387
 6960TIP3    H120844   2.425   5.810   2.377  0.2175  0.7591 -0.4846
 6960TIP3    H220845   2.278   5.794   2.342  0.4871  0.2085 -1.4133
 6961TIP3   OH220846   2.957   0.285   0.593 -0.1029  0.3453  0.3654
 6961TIP3    H120847   3.027   0.257   0.534 -0.7295  0.0719 -0.2617
 6961TIP3    H220848   2.939   0.376   0.568  0.1499  0.4762  0.6517
 6962TIP3   OH220849   2.118   4.526   2.796  0.1063 -0.3694 -0.8037
 6962TIP3    H120850   2.093   4.511   2.705  0.3987 -1.4467 -0.7269
 6962TIP3    H220851   2.111   4.440   2.837  1.7761 -0.2935 -0.2651
 6963TIP3   OH220852   0.776   2.705   3.101 -0.1739 -0.0849 -0.0353
 6963TIP3    H120853   0.739   2.793   3.098 -0.0254 -0.0302 -2.6152
 6963TIP3    H220854   0.826   2.703   3.182 -1.7308  1.5257  1.0515
 6964TIP3   OH220855   5.708   0.817   2.857 -0.5252  0.4665 -0.1831
 6964TIP3    H120856   5.693   0.825   2.763  0.1479 -0.6663 -0.3994
 6964TIP3    H220857   5.635   0.764   2.889 -1.6346  2.1394  0.2365
 6965TIP3   OH220858   2.647   1.913   1.200 -0.0620 -0.3424 -0.3023
 6965TIP3    H120859   2.644   1.912   1.104 -0.3852 -0.0348 -0.2977
 6965TIP3    H220860   2.692   1.995   1.221  0.3831 -0.6150 -0.1987
 6966TIP3   OH220861   1.523   6.695   4.683 -0.8213 -0.2365 -0.1452
 6966TIP3    H120862   1.517   6.626   4.750 -0.6666 -0.1532 -0.0440
 6966TIP3    H220863   1.518   6.648   4.600  0.9199 -0.5560 -0.1099
 6967TIP3   OH220864   6.128   0.167   5.658  0.0186  0.3597 -0.2260
 6967TIP3    H120865   6.040   0.204   5.671 -1.2964 -1.8839 -1.9164
 6967TIP3    H220866   6.161   0.212   5.580  0.1957  0.9102  0.1640
 6968TIP3   OH220867   0.402   4.286   5.869 -0.1657 -0.1616  0.2568
 6968TIP3    H120868   0.342   4.218   5.838  0.0926 -0.6986  0.9240
 6968TIP3    H220869   0.354   4.328   5.941 -0.9865  1.4308 -1.1378
 6969TIP3   OH220870   5.368   0.751   5.492 -0.5710 -0.0429  0.1815
 6969TIP3    H120871   5.308   0.760   5.418  0.7061  0.6107 -0.8330
 6969TIP3    H220872   5.369   0.658   5.512 -0.5087 -0.3147 -1.0251
 6970TIP3   OH220873   6.288   6.100   0.138  0.0069  0.2317  0.1841
 6970TIP3    H120874   6.379   6.077   0.159 -0.0904 -0.9704 -0.6617
 6970TIP3    H220875   6.285   6.195   0.150  0.9150  0.0955  1.9176
 6971TIP3   OH220876   4.025   6.699   0.664 -0.4262  0.3407 -0.6250
 6971TIP3    H120877   4.001   6.780   0.619  0.0222  1.5518  1.2004
 6971TIP3    H220878   4.111   6.717   0.702 -0.6541 -0.7110  0.4621
 6972TIP3   OH220879   1.385   2.016   4.291  0.3256 -0.1247  0.2394
 6972TIP3    H120880   1.414   2.107   4.292  2.6349 -0.6405 -3.0092
 6972TIP3    H220881   1.384   1.990   4.383  1.3180  2.6542  1.1397
 6973TIP3   OH220882   4.469   4.546   3.129  0.0809 -0.3437 -0.2816
 6973TIP3    H120883   4.426   4.614   3.077 -1.8283 -1.0527  0.2961
 6973TIP3    H220884   4.552   4.531   3.085  0.7497  2.6073 -0.2326
 6974TIP3   OH220885   1.252   4.823   0.550 -0.1280  0.1979  0.0958
 6974TIP3    H120886   1.210   4.761   0.610  1.1005 -0.4133  0.3640
 6974TIP3    H220887   1.310   4.874   0.606 -0.6863  1.2104 -0.2265
 6975TIP3   OH220888   0.393   6.279   5.514 -0.1757 -0.0456 -0.4419
 6975TIP3    H120889   0.298   6.288   5.519 -0.1566 -0.6761  2.0353
 6975TIP3    H220890   0.422   6.363   5.479 -1.6833 -0.3689 -2.7097
 6976TIP3   OH220891   0.010   6.444   2.869  0.0849 -0.0243 -0.0448
 6976TIP3    H120892  -0.007   6.424   2.961  0.9766 -0.4127  0.0527
 6976TIP3    H220893   0.072   6.516   2.871 -0.3182  0.3350 -0.3554
 6977TIP3   OH220894   0.153   0.114   4.504  0.2188 -0.2124  0.0352
 6977TIP3    H120895   0.225   0.107   4.566 -0.2646  1.2651  0.8218
 6977TIP3    H220896   0.189   0.164   4.431 -0.3725  2.0175  1.1628
 6978TIP3   OH220897   3.445   4.227   3.824 -0.1303  0.2440 -0.5333
 6978TIP3    H120898   3.371   4.187   3.778 -0.9036  1.1583 -0.1173
 6978TIP3    H220899   3.522   4.184   3.787 -0.9140 -1.6113 -0.0982
 6979TIP3   OH220900   5.813   5.805   2.893 -0.1000  0.1149 -0.2785
 6979TIP3    H120901   5.855   5.741   2.836 -0.2059  0.6502 -0.9688
 6979TIP3    H220902   5.851   5.789   2.979 -1.4780 -2.0990 -0.0200
 6980TIP3   OH220903   4.141   6.490   5.836  0.3451  0.0444  0.2503
 6980TIP3    H120904   4.154   6.396   5.822  0.4865 -0.2115  1.8356
 6980TIP3    H220905   4.116   6.524   5.750  1.4667 -1.2259 -0.6230
 6981TIP3   OH220906   0.371   1.452   0.683 -0.0629  0.1796  0.1236
 6981TIP3    H120907   0.432   1.409   0.743  1.6378  2.3740  0.1263
 6981TIP3    H220908   0.362   1.392   0.610 -0.5842 -1.6733  1.6439
 6982TIP3   OH220909   2.968   6.069   5.834  0.3535  0.0046  0.2830
 6982TIP3    H120910   3.023   6.129   5.885  0.0762  0.5270 -0.0194
 6982TIP3    H220911   2.993   6.086   5.743 -0.2694  0.2163  0.1460
 6983TIP3   OH220912   1.443   2.394   0.725  1.0317 -0.4078  0.1099
 6983TIP3    H120913   1.352   2.421   0.716  1.1756  0.1157  0.1767
 6983TIP3    H220914   1.445   2.347   0.809  0.5471 -1.6575 -0.5506
 6984TIP3   OH220915   3.262   4.404   0.908 -0.1056  0.1436  0.0664
 6984TIP3    H120916   3.319   4.476   0.879 -1.2595  1.2502  0.4301
 6984TIP3    H220917   3.317   4.352   0.966  1.0914  0.0883 -1.0743
 6985TIP3   OH220918   0.345   0.180   1.817  0.2227  0.1753 -0.1257
 6985TIP3    H120919   0.440   0.172   1.812  0.6319  1.9620  2.5769
 6985TIP3    H220920   0.321   0.239   1.745  1.3033  0.5170 -0.2198
 6986TIP3   OH220921   1.287   4.966   5.785 -0.1935 -0.1429 -0.4216
 6986TIP3    H120922   1.380   4.989   5.776 -0.5483  1.2186 -0.7422
 6986TIP3    H220923   1.259   5.011   5.864 -1.0415  1.0540 -1.3692
 6987TIP3   OH220924   5.375   5.218   4.442  0.0394  0.2687 -0.0911
 6987TIP3    H120925   5.408   5.206   4.353  0.7638  1.0115  0.0670
 6987TIP3    H220926   5.452   5.210   4.498 -0.4143 -0.2080  0.4818
 6988TIP3   OH220927   4.047   6.413   4.905  0.2806 -0.3845 -0.3907
 6988TIP3    H120928   4.042   6.430   4.999  2.1301 -3.3100  0.3518
 6988TIP3    H220929   3.956   6.422   4.875 -0.9296 -2.2015  2.2826
 6989TIP3   OH220930   3.707   3.334   2.243 -0.1826 -0.5840 -0.0301
 6989TIP3    H120931   3.676   3.424   2.240 -2.0015 -1.1611  0.3226
 6989TIP3    H220932   3.734   3.315   2.154 -0.0595  0.2153 -0.1703
 6990TIP3   OH220933   2.438   3.825   5.836 -0.5295  0.4145 -0.0010
 6990TIP3    H120934   2.515   3.770   5.846 -0.7020 -0.0788 -1.2265
 6990TIP3    H220935   2.382   3.802   5.910 -0.7406 -1.3345 -0.6522
 6991TIP3   OH220936   6.116   1.291   3.958 -0.1502  0.4796 -1.2127
 6991TIP3    H120937   6.166   1.352   3.903  2.4310 -1.1794 -0.8695
 6991TIP3    H220938   6.032   1.283   3.913  0.5375  1.9358 -2.9276
 6992TIP3   OH220939   2.677   2.255   3.792  0.3689  0.1992 -0.1743
 6992TIP3    H120940   2.643   2.196   3.725  0.1487  0.6038 -0.4205
 6992TIP3    H220941   2.654   2.343   3.761 -0.8823  0.3454  1.0585
 6993TIP3   OH220942   0.839   2.397   2.890  0.6912  0.1336  0.0566
 6993TIP3    H120943   0.853   2.362   2.978  1.7315 -0.0176 -0.1643
 6993TIP3    H220944   0.889   2.340   2.833  1.3872  1.2304 -0.4541
 6994TIP3   OH220945   5.378   2.448   1.094 -0.3572 -0.3123 -0.0446
 6994TIP3    H120946   5.319   2.492   1.034 -0.9169 -0.4897  0.3661
 6994TIP3    H220947   5.423   2.519   1.140 -1.1320 -0.1583  0.4966
 6995TIP3   OH220948   4.285   1.372   2.965 -0.3089 -0.2833 -0.2959
 6995TIP3    H120949   4.227   1.418   2.903  2.0351 -0.4231 -2.7998
 6995TIP3    H220950   4.238   1.291   2.985 -0.8289 -0.6683 -2.6686
 6996TIP3   OH220951   3.555   2.685   3.399  0.0893  0.8291 -0.3423
 6996TIP3    H120952   3.518   2.602   3.368 -2.9937  1.5300  1.1026
 6996TIP3    H220953   3.568   2.737   3.320 -0.0928 -0.1846 -1.0575
 6997TIP3   OH220954   1.211   3.617   4.669  0.2643  0.0435  0.2524
 6997TIP3    H120955   1.285   3.667   4.704  1.5958 -1.4702 -0.2995
 6997TIP3    H220956   1.229   3.609   4.576 -1.6993  1.4225 -0.3140
 6998TIP3   OH220957   0.734   5.695   1.320 -0.0031 -0.3804 -0.1187
 6998TIP3    H120958   0.797   5.641   1.272  0.5899 -0.5864  0.8648
 6998TIP3    H220959   0.721   5.648   1.403 -1.6492 -0.4748 -0.3947
 6999TIP3   OH220960   0.825   3.865   0.779  0.6453  0.4741  0.2334
 6999TIP3    H120961   0.903   3.809   0.783 -0.3876 -1.2112 -1.4319
 6999TIP3    H220962   0.752   3.805   0.791 -0.5116  1.4295 -1.5320
 7000TIP3   OH220963   3.284   2.297   2.189 -0.0182  0.1422  0.7325
 7000TIP3    H120964   3.342   2.295   2.265  1.6096  1.1086 -0.4302
 7000TIP3    H220965   3.249   2.386   2.188  1.6501  0.8589 -0.7757
 7001TIP3   OH220966   3.907   0.904   4.687  0.0590  0.3364 -0.2608
 7001TIP3    H120967   3.944   0.952   4.613  1.3187 -0.2330 -0.0201
 7001TIP3    H220968   3.842   0.964   4.725  0.4350  1.1920 -0.9527
 7002TIP3   OH220969   0.215   5.149   1.853  0.2537  0.0745 -0.2025
 7002TIP3    H120970   0.219   5.118   1.762 -0.6485 -0.2673 -0.1334
 7002TIP3    H220971   0.129   5.191   1.860  0.7207  0.9728  0.2219
 7003TIP3   OH220972   4.512   0.031   5.302 -0.0728 -0.4643  0.1240
 7003TIP3    H120973   4.501   0.125   5.289 -0.8812 -0.7099 -1.2936
 7003TIP3    H220974   4.460  -0.009   5.231  2.4227 -1.9483 -1.0084
 7004TIP3   OH220975   6.146   4.493   5.546 -0.2110  1.4827 -0.8355
 7004TIP3    H120976   6.109   4.409   5.521 -1.4118  1.6999  0.0996
 7004TIP3    H220977   6.097   4.519   5.624  1.4297  2.1596  0.0259
 7005TIP3   OH220978   2.002   0.872   2.967 -0.0843  0.4790  0.4128
 7005TIP3    H120979   1.989   0.939   3.033  0.3940 -0.0426  1.0479
 7005TIP3    H220980   1.933   0.888   2.902 -0.2899  1.2563  0.8145
 7006TIP3   OH220981   1.108   1.504   3.982 -0.2019  0.0405 -0.2271
 7006TIP3    H120982   1.122   1.425   4.035 -1.1482  0.2353  0.3245
 7006TIP3    H220983   1.059   1.472   3.906  0.2104 -0.0475 -0.4633
 7007TIP3   OH220984   5.761   5.461   3.583  0.2199  0.0928  0.0099
 7007TIP3    H120985   5.844   5.497   3.614  0.3959 -0.2043 -0.1088
 7007TIP3    H220986   5.785   5.379   3.539 -0.2966 -0.7775  1.2745
 7008TIP3   OH220987   7.046   3.475   5.200 -0.3746 -0.4983  0.2089
 7008TIP3    H120988   7.114   3.488   5.135 -1.9264  1.1431 -1.1809
 7008TIP3    H220989   7.091   3.436   5.275  2.4205  2.0308  0.0020
 7009TIP3   OH220990   1.938   6.355   5.157 -0.0974  0.3247  0.1650
 7009TIP3    H120991   1.857   6.406   5.161 -0.0621  0.6525 -2.1050
 7009TIP3    H220992   1.914   6.276   5.109  0.5887 -0.3258  0.8668
 7010TIP3   OH220993   6.871   4.567   5.547  0.1838 -0.2349  0.1051
 7010TIP3    H120994   6.956   4.525   5.558 -0.3488 -3.3019 -4.4406
 7010TIP3    H220995   6.808   4.497   5.561 -1.2123  0.6194 -1.5320
 7011TIP3   OH220996   0.845   3.302   5.774 -0.4528 -0.4835 -0.2838
 7011TIP3    H120997   0.882   3.347   5.850 -0.6483 -2.1367  0.8481
 7011TIP3    H220998   0.775   3.359   5.743  1.3548  1.4866 -0.9020
 7012TIP3   OH220999   6.508   2.652   5.420  0.1956  0.1094 -0.0499
 7012TIP3    H121000   6.544   2.646   5.331  0.2106  0.0874 -0.0422
 7012TIP3    H221001   6.544   2.576   5.466 -0.5425 -0.3984 -0.2887
 7013TIP3   OH221002   4.538   4.515   1.507  0.3996  0.3658 -0.0163
 7013TIP3    H121003   4.557   4.471   1.590  1.0008  1.1543  0.2727
 7013TIP3    H221004   4.622   4.520   1.462 -0.2081 -1.7786 -1.5670
 7014TIP3   OH221005   2.314   5.463   0.150 -0.5017  0.0807  0.4477
 7014TIP3    H121006   2.300   5.383   0.098  1.9330 -0.3292  0.3170
 7014TIP3    H221007   2.296   5.535   0.089 -0.7698 -0.3738 -0.0208
 7015TIP3   OH221008   3.858   1.073   5.806  0.0839  0.2703 -0.2317
 7015TIP3    H121009   3.821   1.042   5.723  0.5272  1.7733 -1.0205
 7015TIP3    H221010   3.901   1.156   5.784  0.4611  0.5539  1.4470
 7016TIP3   OH221011   5.848   5.288   4.714 -0.0611  0.2628 -0.2822
 7016TIP3    H121012   5.835   5.383   4.714 -1.7534  0.0586  0.8226
 7016TIP3    H221013   5.791   5.256   4.644  0.7228  0.0691 -0.8430
 7017TIP3   OH221014   2.495   4.072   1.803 -0.1605 -0.7082 -1.2282
 7017TIP3    H121015   2.565   4.120   1.848 -1.4080 -0.0015  0.0630
 7017TIP3    H221016   2.539   4.026   1.732  1.3294  1.2082 -1.6495
 7018TIP3   OH221017   3.426   1.428   3.475 -0.0067 -0.3180 -0.1298
 7018TIP3    H121018   3.347   1.481   3.464 -0.1541 -0.6701 -0.8433
 7018TIP3    H221019   3.411   1.351   3.419 -0.7871 -2.2689  2.5800
 7019TIP3   OH221020   4.157   5.812   2.032  1.1280  0.4756  0.5101
 7019TIP3    H121021   4.127   5.758   2.105  1.6903  1.1103  1.2267
 7019TIP3    H221022   4.173   5.898   2.071  0.0647  1.2360 -0.6331
 7020TIP3   OH221023   2.474   2.613   3.257  0.1433  0.0754 -0.1594
 7020TIP3    H121024   2.491   2.551   3.186 -2.6103 -0.8496 -0.1136
 7020TIP3    H221025   2.427   2.686   3.216 -2.7583 -1.1113  0.7930
 7021TIP3   OH221026   4.934   3.908   4.841 -0.4064  0.5742 -0.2144
 7021TIP3    H121027   4.910   3.979   4.781 -3.8292  1.0608  1.5153
 7021TIP3    H221028   4.921   3.945   4.928 -0.2239 -1.5461  0.7740
 7022TIP3   OH221029   6.479   4.806   1.916 -0.2719 -0.2710 -0.3408
 7022TIP3    H121030   6.427   4.737   1.875 -0.6791 -0.3570  0.3170
 7022TIP3    H221031   6.422   4.845   1.981  0.1272  0.3562 -0.3473
 7023TIP3   OH221032   5.364   0.429   2.376 -0.2893 -0.0328 -0.2659
 7023TIP3    H121033   5.302   0.391   2.439  0.6456 -0.5542  0.3819
 7023TIP3    H221034   5.346   0.383   2.294 -0.4253 -0.5437  0.0434
 7024TIP3   OH221035   2.057   5.194   0.293 -0.8536 -0.0959  0.1935
 7024TIP3    H121036   2.139   5.151   0.318 -0.9985 -0.1145  0.6468
 7024TIP3    H221037   2.069   5.218   0.201 -0.6301 -0.7770  0.0419
 7025TIP3   OH221038   1.180   6.592   2.299 -0.7061  0.2220  0.2135
 7025TIP3    H121039   1.258   6.536   2.306  0.2377  1.5199  0.4299
 7025TIP3    H221040   1.206   6.675   2.339 -1.2010  1.7174 -2.3413
 7026TIP3   OH221041   1.750   3.037   0.985  0.1868 -0.1002 -0.3474
 7026TIP3    H121042   1.739   2.947   0.956  1.1307  0.1962 -1.7276
 7026TIP3    H221043   1.778   3.085   0.907  1.7360  0.9852  0.7894
 7027TIP3   OH221044   1.539   2.458   0.093  0.0878  0.2588  0.0334
 7027TIP3    H121045   1.562   2.369   0.119  0.1368  0.5278  0.9204
 7027TIP3    H221046   1.462   2.448   0.038  0.5143 -0.3905 -0.4638
 7028TIP3   OH221047   1.347   5.139   0.930 -0.1553 -0.8239 -0.2164
 7028TIP3    H121048   1.416   5.174   0.986 -0.5253 -1.3603  0.5949
 7028TIP3    H221049   1.329   5.052   0.965 -0.6510 -1.0334 -0.9509
 7029TIP3   OH221050   0.266   1.239   5.579 -0.2353  0.2532 -0.0469
 7029TIP3    H121051   0.339   1.235   5.642 -0.0578  0.1131 -0.2590
 7029TIP3    H221052   0.278   1.162   5.524  1.0632  1.6492 -1.8232
 7030TIP3   OH221053   1.991   3.941   1.524  0.3448  0.1208  0.4991
 7030TIP3    H121054   1.923   4.000   1.557  0.8360  0.7109  0.4696
 7030TIP3    H221055   2.058   3.941   1.592 -0.1450 -1.2953  1.0163
 7031TIP3   OH221056   1.085   1.996   3.334 -0.5020  0.0392  0.2471
 7031TIP3    H121057   1.098   1.911   3.292 -0.9584 -0.6330  1.4225
 7031TIP3    H221058   1.144   1.994   3.409 -0.9880  0.4989  0.6477
 7032TIP3   OH221059   4.267   5.603   1.738 -0.7564  0.2599 -0.0284
 7032TIP3    H121060   4.325   5.669   1.774  0.7668 -0.6434 -0.7293
 7032TIP3    H221061   4.187   5.651   1.716  0.1690  1.7891 -0.2049
 7033TIP3   OH221062   3.474   2.290   2.910 -0.1358  0.0129 -0.3618
 7033TIP3    H121063   3.547   2.246   2.866  0.0470  2.5567 -2.8673
 7033TIP3    H221064   3.514   2.360   2.961 -0.7452  1.5587 -1.9195
 7034TIP3   OH221065   6.138   4.868   2.583  0.3988 -0.2620 -0.0923
 7034TIP3    H121066   6.231   4.860   2.563  0.8614 -0.1975  1.7974
 7034TIP3    H221067   6.132   4.949   2.635 -0.8092  0.0386 -0.6597
 7035TIP3   OH221068   6.391   5.698   4.713  0.7362  0.3544  0.0230
 7035TIP3    H121069   6.324   5.638   4.679  0.3773  0.0462  1.2188
 7035TIP3    H221070   6.341   5.762   4.764  1.3045  0.4765  0.4326
 7036TIP3   OH221071   7.104   5.253   1.302 -0.2864  0.2962 -0.9357
 7036TIP3    H121072   7.182   5.302   1.275 -0.5993  0.8667 -0.7969
 7036TIP3    H221073   7.059   5.310   1.364 -1.0963  0.1819 -1.4104
 7037TIP3   OH221074   1.306   0.206   0.270  0.2623  0.0744  0.5058
 7037TIP3    H121075   1.320   0.294   0.304  1.5722 -0.5615  1.7411
 7037TIP3    H221076   1.244   0.167   0.331 -0.9814  0.3716 -0.5191
 7038TIP3   OH221077   2.877   1.353   5.159  0.3650  0.1221  0.5051
 7038TIP3    H121078   2.784   1.340   5.175  0.4916 -1.0668  0.3247
 7038TIP3    H221079   2.887   1.349   5.064  0.7520 -0.8883  0.5791
 7039TIP3   OH221080   2.110   4.697   2.562  0.2772  0.5295  0.2178
 7039TIP3    H121081   2.180   4.753   2.529  1.8176 -0.2486  1.9613
 7039TIP3    H221082   2.135   4.609   2.535  0.0021  0.2324  0.9031
 7040TIP3   OH221083   2.483   1.887   3.165  0.0812 -0.5410 -0.2630
 7040TIP3    H121084   2.540   1.931   3.228  2.0126 -1.0648 -1.5704
 7040TIP3    H221085   2.445   1.959   3.114 -1.9334 -0.0695  1.7214
 7041TIP3   OH221086   2.518   5.094   5.353 -0.4134  0.2335  0.5305
 7041TIP3    H121087   2.443   5.086   5.412 -0.4920 -0.0946  0.3884
 7041TIP3    H221088   2.588   5.045   5.397 -0.8809 -1.2855 -0.3176
 7042TIP3   OH221089   2.761   4.890   4.980  0.9345 -0.0198 -0.4166
 7042TIP3    H121090   2.768   4.955   4.909  0.9604  0.4618  0.0177
 7042TIP3    H221091   2.693   4.830   4.951  0.3407  0.6685 -0.4718
 7043TIP3   OH221092   3.025   4.048   1.603 -0.4188  0.1082 -0.7367
 7043TIP3    H121093   2.978   3.984   1.551 -0.3444 -0.8948  0.3852
 7043TIP3    H221094   2.972   4.128   1.597 -0.9546 -0.2949 -1.4716
 7044TIP3   OH221095   1.124   3.848   3.470 -0.7627 -0.1237  1.0004
 7044TIP3    H121096   1.041   3.857   3.518 -0.7249  1.1608  0.8685
 7044TIP3    H221097   1.173   3.927   3.493  0.6412 -1.1041  1.4545
 7045TIP3   OH221098   4.663   6.770   2.158  0.0664  0.7326 -0.2100
 7045TIP3    H121099   4.602   6.746   2.089  1.0399  0.6805 -1.0932
 7045TIP3    H221100   4.641   6.861   2.179  1.0313  1.4618 -2.0675
 7046TIP3   OH221101   2.976   3.543   4.660  0.1143  0.4352 -0.2367
 7046TIP3    H121102   3.052   3.498   4.624 -0.2066  0.8837 -1.5200
 7046TIP3    H221103   2.913   3.473   4.680 -0.8974  0.2870 -3.4094
 7047TIP3   OH221104   1.075   5.015   0.629  0.0740  0.5411 -0.1030
 7047TIP3    H121105   1.071   4.971   0.714 -3.6475 -0.7291 -0.7568
 7047TIP3    H221106   1.121   4.953   0.572 -0.1298  0.0147  0.2968
 7048TIP3   OH221107   5.565   6.084   5.009 -0.2381  0.5004 -0.5128
 7048TIP3    H121108   5.528   6.072   5.097  1.4190 -0.8586  0.0400
 7048TIP3    H221109   5.489   6.085   4.951 -1.3203  0.7857  0.8529
 7049TIP3   OH221110   4.155   5.447   1.468 -0.1858 -0.0435 -0.3370
 7049TIP3    H121111   4.207   5.528   1.461 -1.6849  1.0083  0.3099
 7049TIP3    H221112   4.112   5.453   1.553 -0.4074 -1.4968 -0.3255
 7050TIP3   OH221113   5.708   4.708   5.110 -0.0494 -0.7266 -0.2611
 7050TIP3    H121114   5.799   4.735   5.127  0.9472 -2.9873 -1.5834
 7050TIP3    H221115   5.696   4.628   5.161 -0.7729 -1.2998 -1.2921
 7051TIP3   OH221116   4.894   2.591   5.281 -0.2657  0.2866  0.1406
 7051TIP3    H121117   4.880   2.592   5.186 -2.4579  0.9717  0.4305
 7051TIP3    H221118   4.807   2.594   5.319  0.5843  1.1212  2.2041
 7052TIP3   OH221119   1.841   4.297   2.295 -0.3046  1.1256 -0.4030
 7052TIP3    H121120   1.873   4.382   2.267 -1.6658  1.0370 -2.4358
 7052TIP3    H221121   1.751   4.313   2.324 -0.1997  0.5458  0.2903
 7053TIP3   OH221122   0.225   2.187   5.420 -0.0920  0.6632 -0.4172
 7053TIP3    H121123   0.228   2.266   5.475 -0.3546  0.3064  0.1222
 7053TIP3    H221124   0.278   2.123   5.467 -1.4380 -0.0837  0.1479
 7054TIP3   OH221125   0.364   4.283   4.413 -0.0566 -0.1117 -0.2877
 7054TIP3    H121126   0.370   4.345   4.340  1.1247  1.6851  1.2230
 7054TIP3    H221127   0.295   4.319   4.469  0.6208 -0.1475  0.5931
 7055TIP3   OH221128   3.828   3.331   4.526 -0.2758 -0.2390  0.6256
 7055TIP3    H121129   3.831   3.424   4.501  0.9240 -0.9309 -2.1585
 7055TIP3    H221130   3.919   3.302   4.524 -0.5817 -1.3824  1.9661
 7056TIP3   OH221131   6.305   0.995   2.348 -0.3055  0.2685  0.2099
 7056TIP3    H121132   6.310   1.024   2.439  0.1208  1.1057 -0.0749
 7056TIP3    H221133   6.374   1.044   2.303  0.0232 -0.7221 -0.4114
 7057TIP3   OH221134   4.886   0.926   5.286  0.8914  0.6885  0.1346
 7057TIP3    H121135   4.934   1.007   5.267 -0.0753  1.0929 -0.7413
 7057TIP3    H221136   4.888   0.878   5.203  2.1215 -0.5795  0.8573
 7058TIP3   OH221137   1.335   1.593   3.285  0.1985  0.4598 -0.3398
 7058TIP3    H121138   1.341   1.610   3.379  1.5494  1.5151 -0.5749
 7058TIP3    H221139   1.314   1.500   3.278 -0.7924  0.5606  0.9997
 7059TIP3   OH221140   1.002   6.476   0.408 -0.5189  0.7524  0.1619
 7059TIP3    H121141   1.089   6.470   0.368 -1.3713 -1.8673 -1.5776
 7059TIP3    H221142   0.992   6.394   0.456 -3.2507 -0.8106 -2.6853
 7060TIP3   OH221143   4.814   5.971   0.346 -0.1392 -0.2965 -0.0118
 7060TIP3    H121144   4.771   6.051   0.378  1.4097  1.0410 -1.1076
 7060TIP3    H221145   4.742   5.916   0.317 -1.2099  1.2372 -0.4280
 7061TIP3   OH221146   0.760   2.188   5.531 -0.3507 -0.7180  0.3049
 7061TIP3    H121147   0.828   2.252   5.511 -0.2459 -1.4137 -1.8898
 7061TIP3    H221148   0.805   2.103   5.523 -0.9899 -1.1377  1.0179
 7062TIP3   OH221149   1.827   5.897   2.174 -0.6400  0.2748 -0.3090
 7062TIP3    H121150   1.843   5.912   2.081  1.1964 -0.2285 -0.1125
 7062TIP3    H221151   1.778   5.974   2.202 -2.9903 -0.4724 -2.0617
 7063TIP3   OH221152   2.076   2.283   0.971  0.0765 -0.0630 -0.1619
 7063TIP3    H121153   2.049   2.222   0.902 -1.6634  0.5524 -0.0564
 7063TIP3    H221154   2.007   2.276   1.037  0.5953  0.9738  0.5044
 7064TIP3   OH221155   1.866   1.045   4.473 -0.2436  0.2571 -0.7404
 7064TIP3    H121156   1.911   0.978   4.423 -0.7644 -1.2715  0.7291
 7064TIP3    H221157   1.900   1.036   4.562 -3.4748 -1.1849  0.5283
 7065TIP3   OH221158   1.267   2.792   4.239 -0.3581 -0.0455  0.1856
 7065TIP3    H121159   1.206   2.720   4.252  0.6510 -0.8904  0.3565
 7065TIP3    H221160   1.352   2.750   4.223 -0.0438  1.0654 -1.3697
 7066TIP3   OH221161   3.270   3.461   3.433 -0.4735  0.0673 -0.0477
 7066TIP3    H121162   3.287   3.380   3.384 -1.8789  0.5165 -1.3812
 7066TIP3    H221163   3.344   3.469   3.493  0.8088 -1.0713 -1.3976
 7067TIP3   OH221164   4.755   3.573   0.357 -0.0336  0.1980  0.5134
 7067TIP3    H121165   4.816   3.567   0.284  0.2678 -0.1750  0.7884
 7067TIP3    H221166   4.793   3.638   0.416 -0.7473  1.1913 -0.0869
 7068TIP3   OH221167   5.050   5.980   5.362  0.3526 -0.0868 -0.0199
 7068TIP3    H121168   5.134   5.960   5.404  0.2654 -1.5590 -0.4754
 7068TIP3    H221169   4.986   5.929   5.413  0.0246 -0.5561 -0.8820
 7069TIP3   OH221170   6.790   5.262   5.870  0.2916 -0.4142  0.2271
 7069TIP3    H121171   6.805   5.169   5.853 -1.2146 -0.3269 -2.0152
 7069TIP3    H221172   6.720   5.286   5.809 -0.2233  1.9129  1.6209
 7070TIP3   OH221173   0.684   6.207   4.268  0.1919 -0.2789 -0.3490
 7070TIP3    H121174   0.655   6.116   4.256 -0.1348 -0.2584  0.2275
 7070TIP3    H221175   0.632   6.256   4.204  2.1864 -0.7795 -2.5011
 7071TIP3   OH221176   2.604   3.667   4.587 -0.5704 -0.1887  0.1878
 7071TIP3    H121177   2.539   3.668   4.517  0.4983  2.0913 -0.8676
 7071TIP3    H221178   2.552   3.667   4.668 -1.8297 -1.4843 -0.5737
 7072TIP3   OH221179   1.904   0.601   5.500  0.2896 -0.0919 -0.3392
 7072TIP3    H121180   1.896   0.511   5.532  0.0725  0.1165  0.1945
 7072TIP3    H221181   1.829   0.647   5.537  1.2575  0.6897  0.7026
 7073TIP3   OH221182   2.094   5.451   3.779  0.3920 -0.6227 -0.2302
 7073TIP3    H121183   2.063   5.500   3.703  0.9953  2.0548  1.1448
 7073TIP3    H221184   2.014   5.419   3.820 -0.2479  1.3167  0.1391
 7074TIP3   OH221185   6.184   2.934   5.200 -0.5892 -0.0379 -0.1558
 7074TIP3    H121186   6.259   2.900   5.249 -0.3845 -0.1237 -0.5173
 7074TIP3    H221187   6.219   2.949   5.112  0.0411  3.5366  0.5609
 7075TIP3   OH221188   3.473   1.496   1.273 -0.8316 -0.6570 -0.5561
 7075TIP3    H121189   3.512   1.583   1.278  2.1593 -1.8760 -0.8300
 7075TIP3    H221190   3.451   1.485   1.180 -1.0925 -0.2556 -0.5448
 7076TIP3   OH221191   5.886   2.414   0.194  0.0329  0.0645 -0.2807
 7076TIP3    H121192   5.817   2.378   0.248 -1.9152  0.4420 -2.3748
 7076TIP3    H221193   5.848   2.494   0.156  2.3657  1.4712  0.1193
 7077TIP3   OH221194   0.285   0.085   3.761 -0.0417 -0.3640  0.7509
 7077TIP3    H121195   0.213   0.064   3.821 -0.7028  0.2365  0.1998
 7077TIP3    H221196   0.286   0.181   3.760 -1.0312 -0.3136 -1.2996
 7078TIP3   OH221197   6.568   0.463   0.534 -0.2888 -0.3864  0.7496
 7078TIP3    H121198   6.647   0.410   0.548  0.0357  0.3263  1.7291
 7078TIP3    H221199   6.593   0.524   0.465 -1.2589 -2.6306 -1.7757
 7079TIP3   OH221200   2.681   1.814   4.373 -0.6414 -0.2689 -0.0067
 7079TIP3    H121201   2.722   1.828   4.288 -1.3484 -0.1852 -0.3398
 7079TIP3    H221202   2.640   1.728   4.367 -0.5968 -0.3130  0.2914
 7080TIP3   OH221203   2.315   2.423   0.395  0.1743  0.1790  0.7692
 7080TIP3    H121204   2.403   2.434   0.359 -0.6827 -0.1041 -1.5695
 7080TIP3    H221205   2.298   2.329   0.391 -1.6127  0.5140 -2.5512
 7081TIP3   OH221206   1.981   4.333   3.792 -0.2244  0.1108 -0.3160
 7081TIP3    H121207   2.072   4.364   3.797 -0.8288  1.8292  0.6941
 7081TIP3    H221208   1.963   4.297   3.878 -0.1536 -1.4089 -0.8957
 7082TIP3   OH221209   2.595   6.143   3.663 -0.1045  0.0912  0.0021
 7082TIP3    H121210   2.654   6.204   3.708 -1.0612  1.0969 -0.0535
 7082TIP3    H221211   2.597   6.172   3.571 -0.9434  0.3703  0.0635
 7083TIP3   OH221212   2.832   6.149   4.650 -0.0359 -0.1786 -0.0668
 7083TIP3    H121213   2.851   6.131   4.558  0.0023 -2.3105  0.3040
 7083TIP3    H221214   2.748   6.195   4.648 -0.4840 -0.9967 -1.1321
 7084TIP3   OH221215   1.980   4.476   3.139  0.3297  0.1308 -0.3288
 7084TIP3    H121216   2.042   4.442   3.075  0.2109 -2.1779  0.6982
 7084TIP3    H221217   2.016   4.452   3.224 -3.3421 -4.4787  0.3684
 7085TIP3   OH221218   4.684   3.061   5.633 -0.3134 -0.7394  0.5051
 7085TIP3    H121219   4.645   3.044   5.548 -1.6306 -0.0216  0.9365
 7085TIP3    H221220   4.775   3.082   5.614 -0.7157 -0.0606 -0.7833
 7086TIP3   OH221221   2.915   2.987   2.583 -0.7891 -0.4112 -0.0968
 7086TIP3    H121222   2.831   2.959   2.619 -0.9941  0.8974  0.5042
 7086TIP3    H221223   2.892   3.047   2.512 -0.4333  1.4631  1.2680
 7087TIP3   OH221224   6.148   0.687   2.596  0.2933  0.8320  0.5029
 7087TIP3    H121225   6.055   0.702   2.576  0.3499 -1.7026 -2.4298
 7087TIP3    H221226   6.180   0.773   2.625 -2.6882  2.0543  0.5894
 7088TIP3   OH221227   1.389   1.709   0.034 -0.0809 -0.6324 -0.1712
 7088TIP3    H121228   1.368   1.621   0.005  0.6898 -0.7416 -0.4098
 7088TIP3    H221229   1.453   1.697   0.104 -1.7779 -0.3709  1.5252
 7089TIP3   OH221230   2.691   3.684   3.479  0.2822 -0.6801 -0.2021
 7089TIP3    H121231   2.715   3.593   3.499  0.6697 -0.2550  1.4093
 7089TIP3    H221232   2.771   3.722   3.442 -0.1616 -1.2190 -1.8024
 7090TIP3   OH221233   1.992   4.829   1.164  0.4133 -0.7093  0.1785
 7090TIP3    H121234   2.053   4.902   1.176 -0.9827  0.0456  4.0348
 7090TIP3    H221235   2.038   4.753   1.200  0.6409 -1.0875 -0.8743
 7091TIP3   OH221236   4.623   5.890   5.678 -0.4923 -0.4565  0.3242
 7091TIP3    H121237   4.555   5.863   5.741 -1.5679  2.5464  0.6154
 7091TIP3    H221238   4.574   5.932   5.607  0.9702  0.5813 -0.1077
 7092TIP3   OH221239   6.477   3.521   4.593  0.1787 -0.4473 -1.0051
 7092TIP3    H121240   6.433   3.604   4.577  3.0376  1.2467 -0.8091
 7092TIP3    H221241   6.440   3.461   4.528 -1.4201  1.1636 -1.6651
 7093TIP3   OH221242   6.493   0.974   2.052  0.0881 -0.2201  0.3623
 7093TIP3    H121243   6.457   0.889   2.078 -0.9754 -0.7982 -2.6307
 7093TIP3    H221244   6.586   0.967   2.070 -0.3068 -1.0779  2.3778
 7094TIP3   OH221245   0.338   4.837   2.984 -1.1575  0.1145  0.2599
 7094TIP3    H121246   0.409   4.784   3.021 -0.6694  1.7964  1.8858
 7094TIP3    H221247   0.263   4.818   3.040 -1.6101 -0.5804 -0.5759
 7095TIP3   OH221248   4.953   5.383   2.398  0.4311  0.0671 -0.1718
 7095TIP3    H121249   5.009   5.334   2.338  0.8922  0.0892  0.2261
 7095TIP3    H221250   4.962   5.474   2.370 -0.7414 -0.0962 -1.1641
 7096TIP3   OH221251   6.060   0.504   4.392 -0.0365 -0.1355  0.2824
 7096TIP3    H121252   6.016   0.551   4.463  0.6830  0.7954  0.1298
 7096TIP3    H221253   6.152   0.528   4.401  0.1228 -0.3585 -0.6973
 7097TIP3   OH221254   0.725   2.712   0.764 -0.1452  0.0749  0.3009
 7097TIP3    H121255   0.699   2.720   0.856 -3.0481  1.5602 -0.5260
 7097TIP3    H221256   0.667   2.646   0.728  0.8167 -0.3378 -0.5529
 7098TIP3   OH221257   6.237   6.242   5.080  0.0007  0.2026  0.2610
 7098TIP3    H121258   6.242   6.222   4.986 -1.1273 -0.9146  0.4110
 7098TIP3    H221259   6.147   6.222   5.104  0.5191 -0.4856  1.7803
 7099TIP3   OH221260   0.124   3.191   4.870  0.4176 -0.6012 -0.3666
 7099TIP3    H121261   0.094   3.103   4.892  0.5725 -0.6181 -0.2220
 7099TIP3    H221262   0.055   3.249   4.902  0.0537 -0.7012 -0.9532
 7100TIP3   OH221263   5.731   6.229   5.168  0.7993 -0.8561 -0.5631
 7100TIP3    H121264   5.816   6.244   5.127  0.8732  0.4070  0.0134
 7100TIP3    H221265   5.677   6.191   5.099  1.1052  0.6231 -1.6508
 7101TIP3   OH221266   6.337   3.369   2.160  0.6101  0.0142 -0.0263
 7101TIP3    H121267   6.355   3.462   2.152  0.7975  0.2024  2.0014
 7101TIP3    H221268   6.242   3.363   2.169  0.3874 -0.2056 -1.9946
 7102TIP3   OH221269   1.419   1.953   3.920  0.4189  0.4140 -0.2809
 7102TIP3    H121270   1.421   1.949   4.015 -0.1628  0.8242 -0.2493
 7102TIP3    H221271   1.345   1.898   3.894  1.4322 -0.8652 -0.5803
 7103TIP3   OH221272   1.303   6.027   0.096  0.4281  0.4289  0.0782
 7103TIP3    H121273   1.380   6.068   0.136  0.4265 -0.3003  0.8623
 7103TIP3    H221274   1.312   5.934   0.118  0.8908 -0.1818 -2.3839
 7104TIP3   OH221275   6.233   4.903   4.524  0.9105 -0.1653  0.5417
 7104TIP3    H121276   6.167   4.948   4.576  2.8297  0.3373  2.6890
 7104TIP3    H221277   6.251   4.963   4.452 -1.1068 -0.4442 -0.2768
 7105TIP3   OH221278   4.328   1.107   1.602  0.1313  0.0355 -0.4107
 7105TIP3    H121279   4.395   1.142   1.660 -0.6513  0.4613  0.2575
 7105TIP3    H221280   4.249   1.155   1.625 -0.9905 -2.1568  0.5262
 7106TIP3   OH221281   3.953   6.099   3.828 -0.2409  0.6166 -0.1633
 7106TIP3    H121282   3.967   6.186   3.791  0.3509  1.0379  1.0227
 7106TIP3    H221283   3.991   6.102   3.916  1.1139 -1.2829 -0.6121
 7107TIP3   OH221284   5.361   1.355   4.089  0.3471 -0.2332 -0.0002
 7107TIP3    H121285   5.417   1.425   4.123 -0.0873 -0.1220  0.4992
 7107TIP3    H221286   5.419   1.281   4.077  1.2215  0.7421 -2.3293
 7108TIP3   OH221287   1.169   1.236   2.607 -0.0270  0.3377 -0.5192
 7108TIP3    H121288   1.124   1.192   2.679  1.1345 -1.5521 -0.8968
 7108TIP3    H221289   1.160   1.330   2.627 -3.0460  0.0305  0.0433
 7109TIP3   OH221290   1.856   1.060   0.883 -0.7333  0.0261  0.1043
 7109TIP3    H121291   1.886   0.977   0.919 -0.5864  0.5639  1.2384
 7109TIP3    H221292   1.789   1.035   0.819 -2.0996 -0.8983  1.8018
 7110TIP3   OH221293   3.501   4.647   0.195  0.0550 -0.3123  0.0120
 7110TIP3    H121294   3.514   4.552   0.201 -1.8023 -0.7178 -1.2984
 7110TIP3    H221295   3.512   4.666   0.101 -2.5105  0.2123 -0.2460
 7111TIP3   OH221296   0.965   0.612   5.161 -0.6011 -0.0470  0.1908
 7111TIP3    H121297   0.950   0.553   5.235  0.0194 -0.4823 -0.0195
 7111TIP3    H221298   0.883   0.610   5.111 -0.1467 -1.8388 -0.5731
 7112TIP3   OH221299   3.604   4.270   2.633  0.3739  0.0481 -1.0652
 7112TIP3    H121300   3.628   4.360   2.615 -0.9121  0.3168 -1.5193
 7112TIP3    H221301   3.517   4.275   2.672  1.3788 -0.7990  1.5770
 7113TIP3   OH221302   6.377   4.484   5.753  0.1319  0.3073 -0.0036
 7113TIP3    H121303   6.422   4.539   5.689 -0.3039  0.4393 -0.1934
 7113TIP3    H221304   6.314   4.542   5.795  0.5278  0.2666  0.6706
 7114TIP3   OH221305   7.133   1.982   3.570 -0.1175  0.3400 -0.2422
 7114TIP3    H121306   7.219   1.963   3.532 -0.2768 -0.0623 -0.4094
 7114TIP3    H221307   7.084   1.900   3.561 -1.1207  1.0554 -1.7844
 7115TIP3   OH221308   0.929   3.656   4.491 -0.5480 -0.0699  0.2043
 7115TIP3    H121309   0.835   3.654   4.512 -0.4139  0.7672  0.9096
 7115TIP3    H221310   0.947   3.568   4.458 -1.5654 -0.2699  0.1345
 7116TIP3   OH221311   6.574   2.082   0.329 -0.1348  0.4340 -0.1328
 7116TIP3    H121312   6.528   2.047   0.253  0.8077 -0.0086 -0.5090
 7116TIP3    H221313   6.628   2.153   0.294  0.9881 -0.3491 -0.0609
 7117TIP3   OH221314   1.831   1.044   4.959 -0.5487  0.0075  0.2146
 7117TIP3    H121315   1.836   1.066   4.866 -1.5406  1.0362  0.3737
 7117TIP3    H221316   1.856   1.125   5.004  0.3820 -0.6195  0.8552
 7118TIP3   OH221317   4.750   5.604   3.554  0.2025  0.4733  0.4208
 7118TIP3    H121318   4.758   5.521   3.506  1.3544  0.3492  0.7887
 7118TIP3    H221319   4.656   5.618   3.563 -0.0297 -0.0121 -0.9840
 7119TIP3   OH221320   2.406   1.456   4.019 -0.1474  0.4729  0.7463
 7119TIP3    H121321   2.362   1.372   4.002 -0.2945  0.5829  0.5802
 7119TIP3    H221322   2.499   1.433   4.023 -0.1854  0.3018  0.6881
 7120TIP3   OH221323   7.179   6.717   2.396 -1.6315  0.3187 -0.0835
 7120TIP3    H121324   7.176   6.714   2.492 -0.7273  0.0793 -0.0500
 7120TIP3    H221325   7.121   6.646   2.369 -1.4556  0.0210  0.3005
 7121TIP3   OH221326   2.534   0.600   3.992 -0.8965  0.3888 -0.2242
 7121TIP3    H121327   2.508   0.683   4.032 -3.4078 -0.3213 -0.2287
 7121TIP3    H221328   2.470   0.587   3.922 -1.8368 -2.4926  1.0394
 7122TIP3   OH221329   3.597   5.418   2.578 -0.7025  0.4574  0.1381
 7122TIP3    H121330   3.602   5.494   2.636 -0.4178 -0.3996  1.2752
 7122TIP3    H221331   3.504   5.408   2.560 -0.9563 -0.0587  1.5769
 7123TIP3   OH221332   6.473   1.887   1.527 -0.1868 -0.2389  0.0701
 7123TIP3    H121333   6.418   1.832   1.472  0.1980  0.8106 -1.4333
 7123TIP3    H221334   6.483   1.968   1.477  0.0958  0.8127  1.7452
 7124TIP3   OH221335   6.823   6.760   0.457  0.0805  0.2972 -0.6502
 7124TIP3    H121336   6.767   6.760   0.379 -1.8669  1.7774  0.6525
 7124TIP3    H221337   6.828   6.668   0.482 -1.4648  0.0697 -1.0577
 7125TIP3   OH221338   1.389   6.402   2.284  0.4840 -0.6569 -0.0479
 7125TIP3    H121339   1.413   6.396   2.192  0.8583 -2.2881  0.1334
 7125TIP3    H221340   1.458   6.356   2.331 -0.3995 -1.0544  0.9219
 7126TIP3   OH221341   3.208   5.085   3.506  0.5569  0.6874 -0.0269
 7126TIP3    H121342   3.295   5.046   3.491  0.1082 -0.2613 -0.2237
 7126TIP3    H221343   3.147   5.018   3.478 -0.2482  1.5817 -0.4503
 7127TIP3   OH221344   4.378   4.604   4.177  0.2244 -0.0289  0.1703
 7127TIP3    H121345   4.340   4.562   4.100  1.4046  0.0145 -0.4560
 7127TIP3    H221346   4.463   4.560   4.189  0.7782  1.0952  0.4542
 7128TIP3   OH221347   7.115   5.528   3.180  0.2205  0.4776  0.7242
 7128TIP3    H121348   7.072   5.525   3.095  0.7149 -0.1327  0.4886
 7128TIP3    H221349   7.064   5.469   3.235  0.4690  0.1248  0.5789
 7129TIP3   OH221350   7.047   1.509   1.339 -0.3593 -0.1970 -0.4201
 7129TIP3    H121351   7.028   1.481   1.429 -0.1219  0.0032 -0.3024
 7129TIP3    H221352   6.992   1.586   1.326  0.4248  0.4541 -0.0372
 7130TIP3   OH221353   6.093   0.587   5.532  0.1226  0.6274 -0.6712
 7130TIP3    H121354   6.054   0.579   5.619 -0.4986  1.8684 -0.8169
 7130TIP3    H221355   6.046   0.524   5.478 -0.3418  0.7316 -0.3915
 7131TIP3   OH221356   5.612   3.596   5.552  0.2799 -0.6973 -0.4224
 7131TIP3    H121357   5.586   3.508   5.580 -0.2860 -0.3106  0.3276
 7131TIP3    H221358   5.679   3.622   5.616 -1.3775  0.3930  0.9966
 7132TIP3   OH221359   4.949   5.201   2.863  0.0944 -0.5908 -0.8335
 7132TIP3    H121360   5.010   5.273   2.847 -1.6975  1.4965  0.9576
 7132TIP3    H221361   4.999   5.122   2.843  2.8217  1.0523 -1.0413
 7133TIP3   OH221362   4.241   4.511   1.682  0.4361 -0.0439  0.8765
 7133TIP3    H121363   4.153   4.537   1.709  0.0566 -1.4641  1.0795
 7133TIP3    H221364   4.251   4.547   1.594 -0.7197 -0.6625  0.4662
 7134TIP3   OH221365   2.070   1.830   2.781 -0.3438  1.0311 -0.0583
 7134TIP3    H121366   2.132   1.758   2.794 -0.6760  0.8089  0.3386
 7134TIP3    H221367   1.983   1.788   2.787 -0.5385  1.4569  0.1336
 7135TIP3   OH221368   4.475   4.563   3.587 -0.3523 -0.1041 -0.5432
 7135TIP3    H121369   4.402   4.573   3.648  1.1538  1.0190  1.1706
 7135TIP3    H221370   4.500   4.652   3.565 -0.1586 -0.4866 -2.0136
 7136TIP3   OH221371   2.645   0.446   0.002 -0.3375 -1.1658  0.2318
 7136TIP3    H121372   2.669   0.357   0.024 -2.2121 -1.3165  1.9394
 7136TIP3    H221373   2.573   0.468   0.062 -1.8508  0.4893 -1.9997
 7137TIP3   OH221374   6.822   2.811   1.876  0.4277  0.1104  0.0328
 7137TIP3    H121375   6.853   2.837   1.963 -0.6673  0.4082  0.3451
 7137TIP3    H221376   6.812   2.716   1.882  1.7062 -0.0625 -0.2263
 7138TIP3   OH221377   3.606   4.395   2.138  0.2182  0.1853 -0.0771
 7138TIP3    H121378   3.593   4.375   2.045  1.0415  1.7440 -0.5745
 7138TIP3    H221379   3.519   4.421   2.169 -0.2587 -1.2346 -0.1362
 7139TIP3   OH221380   2.082   2.248   2.962  0.1372 -0.0059  0.2493
 7139TIP3    H121381   2.038   2.165   2.978  0.4414 -0.0315  1.0408
 7139TIP3    H221382   2.155   2.226   2.905  0.0353 -0.2324  0.2057
 7140TIP3   OH221383   6.698   1.627   1.572  0.2762  0.0694 -0.1314
 7140TIP3    H121384   6.682   1.547   1.622 -0.7268  0.2092 -0.2006
 7140TIP3    H221385   6.672   1.604   1.482  0.1830  0.4049 -0.1895
 7141TIP3   OH221386   6.743   1.014   5.503  0.0446 -0.3957 -0.6050
 7141TIP3    H121387   6.689   0.978   5.573  1.2387 -1.3852 -0.1437
 7141TIP3    H221388   6.813   0.950   5.492  1.2494  0.9399 -1.0147
 7142TIP3   OH221389   3.030   5.712   1.542 -0.2616 -0.2499  0.3692
 7142TIP3    H121390   3.039   5.681   1.632 -2.5065  0.8490  1.0749
 7142TIP3    H221391   3.059   5.803   1.546  1.0825 -0.6339 -0.3953
 7143TIP3   OH221392   6.296   6.511   3.132  0.3141 -0.6923 -0.1008
 7143TIP3    H121393   6.374   6.558   3.160 -0.4557  1.0167 -0.6881
 7143TIP3    H221394   6.303   6.509   3.036 -1.0178  0.7707 -0.2706
 7144TIP3   OH221395   2.034   5.875   3.363 -0.3557  0.1480 -0.9793
 7144TIP3    H121396   2.072   5.857   3.277  1.2607  0.2761 -0.3297
 7144TIP3    H221397   2.031   5.790   3.406  0.3033  0.3068 -0.6093
 7145TIP3   OH221398   4.115   6.067   1.415 -0.1473 -0.4642 -0.2181
 7145TIP3    H121399   4.194   6.122   1.412 -0.0800 -0.5898 -0.8382
 7145TIP3    H221400   4.145   5.981   1.384 -0.6855 -0.3110 -1.2010
 7146TIP3   OH221401   2.776   6.321   3.794  0.0195 -0.0893 -0.0024
 7146TIP3    H121402   2.852   6.343   3.741  0.4609 -1.2781  0.1035
 7146TIP3    H221403   2.766   6.395   3.854 -0.3053  1.1440 -1.5043
 7147TIP3   OH221404   0.889   0.649   0.522  0.1956 -0.4840  0.3494
 7147TIP3    H121405   0.794   0.655   0.507  0.0602 -0.1362  1.3344
 7147TIP3    H221406   0.902   0.559   0.552  0.2239 -0.6262 -0.0809
 7148TIP3   OH221407   4.457   5.649   4.102 -0.0208 -0.1699  0.2007
 7148TIP3    H121408   4.409   5.589   4.160  0.4156 -1.1202 -0.4027
 7148TIP3    H221409   4.393   5.674   4.035  0.2506 -1.2566 -0.4742
 7149TIP3   OH221410   0.579   1.405   5.670  0.0161  0.2682 -0.5339
 7149TIP3    H121411   0.549   1.491   5.700 -0.8181  0.1038 -0.8479
 7149TIP3    H221412   0.525   1.343   5.720 -0.2502 -0.0390 -1.1964
 7150TIP3   OH221413   0.678   6.362   1.198  0.4149  0.2262  0.5691
 7150TIP3    H121414   0.630   6.292   1.242  1.3706 -0.3621  0.6940
 7150TIP3    H221415   0.735   6.399   1.266  0.5414  0.5492  0.2895
 7151TIP3   OH221416   3.886   0.041   0.083 -0.3582 -0.0550  0.1706
 7151TIP3    H121417   3.938  -0.022   0.133 -1.2810  0.0761  1.3477
 7151TIP3    H221418   3.850   0.100   0.149 -3.0388 -0.9056 -0.3777
 7152TIP3   OH221419   0.673   0.660   0.947 -0.2562 -0.1643 -0.0749
 7152TIP3    H121420   0.743   0.595   0.939 -0.9926 -0.8634 -1.0468
 7152TIP3    H221421   0.639   0.649   1.036 -0.0131 -0.7311 -0.0517
 7153TIP3   OH221422   3.957   4.279   2.130  0.2855  0.0983  0.1139
 7153TIP3    H121423   3.916   4.242   2.051 -1.2953 -3.1102  2.2326
 7153TIP3    H221424   4.051   4.267   2.116  0.0173 -0.8351 -1.0940
 7154TIP3   OH221425   1.109   2.929   2.998  0.2407 -0.4261 -0.0297
 7154TIP3    H121426   1.123   2.834   2.993 -0.7165 -0.5358 -1.8781
 7154TIP3    H221427   1.021   2.938   3.034  0.9603 -0.1455  1.7318
 7155TIP3   OH221428   6.762   0.744   0.929  0.2333 -0.7021  0.1403
 7155TIP3    H121429   6.735   0.819   0.981  0.0465 -0.6761  0.0113
 7155TIP3    H221430   6.797   0.681   0.992 -1.9300 -1.5564  0.6077
 7156TIP3   OH221431   4.327   6.371  -0.001 -0.2200 -0.5150 -0.0483
 7156TIP3    H121432   4.361   6.326   0.076  0.1895 -2.2975 -1.1937
 7156TIP3    H221433   4.404   6.409  -0.044 -0.0262 -1.8845 -0.9885
 7157TIP3   OH221434   2.050   4.366   5.027  0.1338 -0.0929 -0.4764
 7157TIP3    H121435   1.999   4.297   5.068 -0.4714 -0.6118 -2.0252
 7157TIP3    H221436   1.986   4.435   5.007  0.3610  0.0401 -0.7577
 7158TIP3   OH221437   6.736   1.596   0.988 -0.4351 -0.7556  0.0915
 7158TIP3    H121438   6.786   1.570   1.066 -1.1739 -1.7755  0.2521
 7158TIP3    H221439   6.796   1.582   0.915 -0.2921 -1.4283  0.3292
 7159TIP3   OH221440   0.768   3.446   1.547  0.0540  0.1149 -0.1112
 7159TIP3    H121441   0.778   3.379   1.615  0.4630 -0.1849 -0.4630
 7159TIP3    H221442   0.857   3.474   1.528 -0.0698  0.3126 -0.4091
 7160TIP3   OH221443   4.336   2.590   1.419 -0.4327  0.1846 -0.3575
 7160TIP3    H121444   4.288   2.524   1.370  0.7716  0.1335 -1.5210
 7160TIP3    H221445   4.307   2.674   1.381 -0.3651  0.2147 -0.3422
 7161TIP3   OH221446   0.683   0.364   4.169  0.5596 -0.1972 -0.4363
 7161TIP3    H121447   0.654   0.445   4.211 -0.5557 -0.7672 -0.0731
 7161TIP3    H221448   0.673   0.381   4.075  0.4970  0.1336 -0.3718
 7162TIP3   OH221449   2.409   6.461   4.553  0.3502  0.6040  0.5240
 7162TIP3    H121450   2.339   6.486   4.614 -1.5281 -0.0086 -1.2636
 7162TIP3    H221451   2.385   6.373   4.524  2.7573 -0.2912  1.0040
 7163TIP3   OH221452   1.066   4.503   4.362  0.1633  0.0061  0.1635
 7163TIP3    H121453   1.148   4.456   4.377 -0.2497 -1.3958 -1.7218
 7163TIP3    H221454   1.061   4.565   4.435  3.2802  0.7027 -0.0888
 7164TIP3   OH221455   2.012   1.823   4.595 -0.3407 -0.1517 -0.2125
 7164TIP3    H121456   2.103   1.850   4.585 -0.8606  2.8203  1.8365
 7164TIP3    H221457   2.017   1.735   4.633  1.6551 -0.0039 -0.0338
 7165TIP3   OH221458   3.199   3.805   5.866 -0.2974  0.2723  0.2549
 7165TIP3    H121459   3.245   3.847   5.938 -1.1435 -1.0569  1.6369
 7165TIP3    H221460   3.123   3.861   5.849 -0.0485  0.6352  0.3440
 7166TIP3   OH221461   6.617   1.597   4.698 -0.5635 -0.2572 -0.2309
 7166TIP3    H121462   6.525   1.614   4.716 -0.4281 -1.6953  2.2825
 7166TIP3    H221463   6.617   1.524   4.636 -1.1197 -0.6109  0.1814
 7167TIP3   OH221464   4.091   4.879   0.957  0.2364  0.3137 -0.5521
 7167TIP3    H121465   4.152   4.807   0.937 -0.4945  0.1810 -2.5320
 7167TIP3    H221466   4.015   4.861   0.902 -0.6883  1.6673  0.2496
 7168TIP3   OH221467   0.980   1.690   0.272 -0.4406 -0.3762 -0.7027
 7168TIP3    H121468   1.062   1.726   0.239  0.2187 -0.5709  0.6381
 7168TIP3    H221469   0.920   1.694   0.198  1.3884 -2.2835 -2.4166
 7169TIP3   OH221470   6.357   4.462   4.076  0.2506 -0.4339  0.1033
 7169TIP3    H121471   6.414   4.463   3.999  1.6293 -0.4044  1.0865
 7169TIP3    H221472   6.363   4.372   4.109 -1.6311 -0.9058 -0.7151
 7170TIP3   OH221473   6.226   1.030   4.222  0.3169  0.2627 -0.7664
 7170TIP3    H121474   6.311   1.067   4.244 -0.0362  1.5839 -1.5254
 7170TIP3    H221475   6.184   1.012   4.306  0.0965  2.5788 -0.3252
 7171TIP3   OH221476   1.352   0.729   4.948  0.5884 -0.1736  0.1551
 7171TIP3    H121477   1.410   0.676   5.004  0.3872  0.4985  1.0274
 7171TIP3    H221478   1.391   0.723   4.861  0.9897 -1.1435  0.3823
 7172TIP3   OH221479   2.242   3.516   1.801 -0.8088 -0.1893 -0.3398
 7172TIP3    H121480   2.167   3.462   1.775  0.0044 -1.2874 -0.5260
 7172TIP3    H221481   2.241   3.590   1.740 -1.4162 -0.4855 -0.7006
 7173TIP3   OH221482   2.620   3.803   2.835  0.2452 -0.0746 -0.1291
 7173TIP3    H121483   2.672   3.796   2.915  1.5223 -1.0175 -1.0032
 7173TIP3    H221484   2.585   3.715   2.822 -0.1389  0.1308 -0.5043
 7174TIP3   OH221485   6.766   3.230   5.437  0.3031  0.0721  0.6738
 7174TIP3    H121486   6.847   3.188   5.464 -0.0118 -1.1576 -0.2126
 7174TIP3    H221487   6.779   3.250   5.344 -0.7965 -1.1981  0.2078
 7175TIP3   OH221488   4.560   5.296   1.376 -0.6590  0.0431 -0.1095
 7175TIP3    H121489   4.521   5.253   1.300 -1.2778  0.4013 -0.0071
 7175TIP3    H221490   4.535   5.240   1.450  0.1104 -0.4123 -0.1860
 7176TIP3   OH221491   6.503   4.233   0.333  0.1596  0.1865  0.6523
 7176TIP3    H121492   6.487   4.213   0.426 -0.1523  0.1025  0.5845
 7176TIP3    H221493   6.421   4.272   0.303  1.5246  3.9983  1.4106
 7177TIP3   OH221494   6.592   2.958   5.099  0.1986 -0.1339  0.3226
 7177TIP3    H121495   6.580   2.949   5.005  2.0764 -0.4553  0.0813
 7177TIP3    H221496   6.546   3.039   5.121 -1.3478 -0.7160 -0.6260
 7178TIP3   OH221497   2.351   0.541   2.483 -0.0417  0.5654  0.5340
 7178TIP3    H121498   2.320   0.623   2.522 -0.5835 -0.2573  1.8846
 7178TIP3    H221499   2.331   0.550   2.390  2.6509  3.2097  0.0813
 7179TIP3   OH221500   2.422   2.676   0.736  0.1296 -0.3891 -0.1267
 7179TIP3    H121501   2.411   2.634   0.650 -1.8373 -1.0035  0.3929
 7179TIP3    H221502   2.408   2.769   0.719 -0.1948 -0.5000 -0.4696
 7180TIP3   OH221503   3.825   5.737   0.461  0.2454  0.1902  0.1614
 7180TIP3    H121504   3.854   5.828   0.450  0.6918  0.0403  0.0654
 7180TIP3    H221505   3.886   5.700   0.525 -0.3614  0.1509  0.7188
 7181TIP3   OH221506   3.806   2.045   0.218 -0.4157  0.2339 -0.4671
 7181TIP3    H121507   3.793   1.975   0.154  1.2672  0.8603 -1.5790
 7181TIP3    H221508   3.729   2.100   0.209 -1.8915 -1.5244  0.5913
 7182TIP3   OH221509   5.697   4.110   2.903  0.2386  0.1755 -0.7492
 7182TIP3    H121510   5.711   4.023   2.864  2.1128 -0.0760  0.3835
 7182TIP3    H221511   5.781   4.154   2.894  0.4279  0.5180  1.9007
 7183TIP3   OH221512   2.855   3.244   1.596 -0.4673  0.7326  0.1264
 7183TIP3    H121513   2.797   3.173   1.621 -0.4309  0.2452 -1.1092
 7183TIP3    H221514   2.818   3.321   1.639 -0.6289  0.0343  1.3112
 7184TIP3   OH221515   5.524   5.794   4.909  0.2904  0.2399 -0.5700
 7184TIP3    H121516   5.586   5.824   4.975  1.4964 -0.4600 -1.3525
 7184TIP3    H221517   5.554   5.706   4.886  0.9694  1.0824 -3.2728
 7185TIP3   OH221518   3.684   6.139   5.219 -0.2695 -0.4675  0.1939
 7185TIP3    H121519   3.661   6.215   5.166  2.5441  0.0361 -0.5013
 7185TIP3    H221520   3.674   6.169   5.309  0.9271  0.8490 -0.0648
 7186TIP3   OH221521   3.769   5.477   5.222 -0.0294 -0.2646 -0.1055
 7186TIP3    H121522   3.839   5.423   5.186  0.9478  1.1080 -0.3539
 7186TIP3    H221523   3.704   5.414   5.253  1.0715 -1.5704 -0.3289
 7187TIP3   OH221524   6.114   5.830   2.671 -0.1104  0.5765  0.2476
 7187TIP3    H121525   6.136   5.899   2.733  0.6757 -0.0161  0.6367
 7187TIP3    H221526   6.161   5.753   2.702 -0.7937 -0.0866 -0.3077
 7188TIP3   OH221527   5.204   2.947   3.924 -0.0071  0.1478 -0.2323
 7188TIP3    H121528   5.136   2.897   3.970 -0.7469  0.4407 -0.9700
 7188TIP3    H221529   5.250   2.994   3.994  0.4886 -1.2771  0.4339
 7189TIP3   OH221530   4.336   0.708   5.365 -0.3889  0.2636 -0.5498
 7189TIP3    H121531   4.427   0.708   5.335 -0.4824  1.3095 -0.8819
 7189TIP3    H221532   4.328   0.788   5.417 -1.5847  1.1552 -2.0410
 7190TIP3   OH221533   2.945   5.066   1.787  0.2663  0.4099 -0.2967
 7190TIP3    H121534   2.964   5.152   1.826  0.7789  0.7034 -1.1563
 7190TIP3    H221535   2.953   5.080   1.692 -2.2694  0.0488 -0.6478
 7191TIP3   OH221536   0.122   4.614   4.178 -0.0921  0.3288  0.1334
 7191TIP3    H121537   0.076   4.530   4.178 -1.4082  1.0178  0.2592
 7191TIP3    H221538   0.072   4.669   4.239  0.7168  1.2242  0.0291
 7192TIP3   OH221539   7.033   3.777   2.935 -0.1263  0.3696  0.4142
 7192TIP3    H121540   7.012   3.870   2.935 -2.2434 -0.0473 -0.1799
 7192TIP3    H221541   7.050   3.757   2.843  0.5213  0.1929  0.5672
 7193TIP3   OH221542   5.730   3.943   5.625 -0.1235  0.3810 -0.6952
 7193TIP3    H121543   5.817   3.965   5.659 -0.7496  1.2525  0.3511
 7193TIP3    H221544   5.734   3.967   5.532  0.7498  0.3790 -0.6672
 7194TIP3   OH221545   6.849   6.730   1.186  0.4045  0.2796  0.9350
 7194TIP3    H121546   6.889   6.646   1.209  0.7294  0.1993  0.1110
 7194TIP3    H221547   6.755   6.712   1.182  0.6347 -0.7029 -1.7865
 7195TIP3   OH221548   0.112   6.290   5.537 -0.1440  0.1429  0.5946
 7195TIP3    H121549   0.098   6.196   5.536 -0.3424  0.1691  0.7102
 7195TIP3    H221550   0.107   6.314   5.629  2.3203 -0.0695  0.8255
 7196TIP3   OH221551   2.989   1.332   5.792 -0.3414 -0.7570  0.0312
 7196TIP3    H121552   3.065   1.297   5.745  0.7615 -0.3130  1.4464
 7196TIP3    H221553   3.004   1.426   5.796 -2.0964 -0.3391 -1.6035
 7197TIP3   OH221554   4.132   3.374   2.772 -0.3782  0.1708  0.8885
 7197TIP3    H121555   4.221   3.371   2.737 -1.1423 -1.8162 -1.1159
 7197TIP3    H221556   4.091   3.448   2.727 -0.8165 -1.2836 -1.2514
 7198TIP3   OH221557   4.584   4.725   1.967  0.8042 -0.1514  0.4390
 7198TIP3    H121558   4.659   4.774   1.999 -0.3840  1.0056  1.5191
 7198TIP3    H221559   4.537   4.697   2.046 -0.1054 -0.5563 -0.2221
 7199TIP3   OH221560   1.623   4.835   5.439  0.7025 -0.1893 -0.1926
 7199TIP3    H121561   1.640   4.751   5.480 -0.6123 -1.0095 -1.2673
 7199TIP3    H221562   1.531   4.854   5.457  0.7988  0.6889 -0.5373
 7200TIP3   OH221563   0.785   5.813   0.618  0.1994 -0.0102  0.0021
 7200TIP3    H121564   0.789   5.726   0.657 -0.3982  0.4777  1.1936
 7200TIP3    H221565   0.837   5.806   0.538  0.4806 -1.3504  0.2853
 7201TIP3   OH221566   3.232   3.575   0.257 -0.0563 -0.9401 -0.3006
 7201TIP3    H121567   3.237   3.480   0.251 -0.5200 -0.9462 -0.6309
 7201TIP3    H221568   3.153   3.591   0.309  0.4247 -0.7460  0.3945
 7202TIP3   OH221569   2.064   5.409   1.417 -0.2899 -0.3153 -0.1478
 7202TIP3    H121570   2.001   5.347   1.453 -1.5487  1.6156  1.2335
 7202TIP3    H221571   2.028   5.433   1.331 -1.4178  0.6106  0.5376
 7203TIP3   OH221572   5.724   5.323   3.198  0.2365  0.5071  0.5130
 7203TIP3    H121573   5.793   5.313   3.263 -0.4541  0.6773  1.2953
 7203TIP3    H221574   5.699   5.416   3.204  0.0796  0.4928  0.1000
 7204TIP3   OH221575   4.726   0.736   2.863 -0.0882  0.1253 -0.3483
 7204TIP3    H121576   4.770   0.775   2.787  0.3746 -0.1581 -0.2301
 7204TIP3    H221577   4.634   0.761   2.853 -0.0370  0.0587 -1.0227
 7205TIP3   OH221578   1.878   5.179   4.166  0.0499  0.0469  0.0917
 7205TIP3    H121579   1.859   5.182   4.260  0.2552 -0.4739  0.1512
 7205TIP3    H221580   1.914   5.265   4.146  0.9493 -0.1723  0.6951
 7206TIP3   OH221581   6.541   6.765   2.568 -0.3199  0.1910 -0.4303
 7206TIP3    H121582   6.548   6.860   2.574 -0.7840  0.2157 -0.1910
 7206TIP3    H221583   6.617   6.738   2.517  0.3092  0.6039  0.2719
 7207TIP3   OH221584   2.135   0.058   5.100  0.0028  0.4885 -0.2298
 7207TIP3    H121585   2.061   0.115   5.079  0.8235  0.6633 -2.9401
 7207TIP3    H221586   2.170   0.094   5.182 -1.6070  1.6958 -0.0243
 7208TIP3   OH221587   2.144   4.607   2.006 -0.1219 -0.8560  0.6556
 7208TIP3    H121588   2.227   4.565   1.982 -0.0161 -0.7868  0.8980
 7208TIP3    H221589   2.160   4.700   1.992 -0.2534 -0.8696  0.4218
 7209TIP3   OH221590   1.606   1.019   4.412 -0.2688 -0.0957  0.0599
 7209TIP3    H121591   1.693   1.057   4.419 -0.5185  0.6365 -0.5582
 7209TIP3    H221592   1.566   1.034   4.498  0.5958 -1.4734  0.7291
 7210TIP3   OH221593   2.023   3.400   3.608 -0.3406  0.2489 -0.4680
 7210TIP3    H121594   2.013   3.314   3.567 -0.0501 -0.4855  0.9718
 7210TIP3    H221595   2.036   3.459   3.534 -0.4490 -0.9409 -1.4826
 7211TIP3   OH221596   4.223   6.768   0.342  0.4613  0.0174  0.2211
 7211TIP3    H121597   4.157   6.837   0.350 -0.5288 -0.9141  0.3748
 7211TIP3    H221598   4.246   6.745   0.432 -0.7008 -1.2074  0.2308
 7212TIP3   OH221599   1.075   1.051   5.179 -0.4125 -0.0460  0.4607
 7212TIP3    H121600   1.052   1.015   5.093  2.3312  0.3814 -0.5515
 7212TIP3    H221601   1.032   1.136   5.182  1.0319  0.8346 -1.4283
 7213TIP3   OH221602   6.273   0.082   4.042  0.1768 -0.0253 -0.1750
 7213TIP3    H121603   6.343   0.147   4.035  1.8715 -1.8276 -0.9903
 7213TIP3    H221604   6.314   0.007   4.085 -2.5018  0.3769  3.5822
 7214TIP3   OH221605   3.015   6.357   1.623 -0.2923 -0.1985 -0.3460
 7214TIP3    H121606   3.010   6.449   1.597 -1.4638 -0.2351 -0.2876
 7214TIP3    H221607   3.063   6.359   1.706 -0.8954  0.4375 -0.0043
 7215TIP3   OH221608   1.407   0.684   1.338 -0.3636  0.0971 -0.1665
 7215TIP3    H121609   1.469   0.624   1.297 -0.2890  0.7312 -1.0081
 7215TIP3    H221610   1.413   0.665   1.432  1.6708  0.6652 -0.1406
 7216TIP3   OH221611   6.549   1.553   5.818 -0.7667  0.4586 -0.1126
 7216TIP3    H121612   6.561   1.517   5.906  0.1913  0.2615 -0.3226
 7216TIP3    H221613   6.636   1.579   5.789 -1.0515  0.4318 -1.0482
 7217TIP3   OH221614   0.045   6.676   4.624 -0.2338  0.4703  0.4001
 7217TIP3    H121615  -0.016   6.668   4.550 -0.5722  2.4841  0.4021
 7217TIP3    H221616   0.030   6.598   4.677 -2.8349  0.8890  0.3899
 7218TIP3   OH221617   5.985   2.017   2.179  0.2103  0.2552  0.1009
 7218TIP3    H121618   5.942   2.083   2.233 -1.6715 -0.6074 -0.2683
 7218TIP3    H221619   6.046   2.067   2.124 -0.2019  1.5089  0.7442
 7219TIP3   OH221620   3.414   6.778   3.874 -0.0439  0.3755 -0.0287
 7219TIP3    H121621   3.489   6.807   3.927  0.5897 -0.1228 -0.6422
 7219TIP3    H221622   3.448   6.706   3.821 -0.4434  1.3714 -1.7013
 7220TIP3   OH221623   3.882   4.987   3.901 -0.3369 -0.1878 -0.7625
 7220TIP3    H121624   3.917   5.055   3.842  1.9943  0.3146  1.0365
 7220TIP3    H221625   3.819   5.033   3.956 -1.5651 -0.3818 -1.9422
 7221TIP3   OH221626   3.592   3.420   0.380  0.3712  0.7397  0.2203
 7221TIP3    H121627   3.583   3.410   0.475  0.2965 -0.1846  0.1230
 7221TIP3    H221628   3.568   3.335   0.344  0.1017  1.1686 -0.6547
 7222TIP3   OH221629   5.021   1.991   1.631  0.4046 -0.0863  0.4635
 7222TIP3    H121630   5.031   2.026   1.542  1.3631 -1.4581  0.0069
 7222TIP3    H221631   4.966   2.056   1.676 -1.6965 -0.2753 -1.6614
 7223TIP3   OH221632   2.846   4.972   4.343  0.2246 -0.6566  0.3773
 7223TIP3    H121633   2.872   5.012   4.426  0.2561 -1.4013  0.7304
 7223TIP3    H221634   2.751   4.961   4.349  0.1760 -0.3869  0.1634
 7224TIP3   OH221635   6.842   2.269   4.241  0.3814 -0.2246  0.2759
 7224TIP3    H121636   6.920   2.294   4.291  0.9239  0.9473 -1.0949
 7224TIP3    H221637   6.869   2.191   4.193  0.5832 -0.0395  0.0892
 7225TIP3   OH221638   2.820   1.065   2.078 -0.2672 -0.1498  0.6928
 7225TIP3    H121639   2.868   1.050   2.160 -0.4906  1.3098  1.1107
 7225TIP3    H221640   2.850   1.150   2.047 -0.4190 -0.5451 -0.5979
 7226TIP3   OH221641   5.156   0.235   1.682  0.3800  0.2214 -0.8682
 7226TIP3    H121642   5.136   0.175   1.610 -1.4059  0.2514 -0.4549
 7226TIP3    H221643   5.070   0.268   1.709  0.7825 -0.9739  2.2882
 7227TIP3   OH221644   6.721   1.677   0.179  0.2558 -0.1686 -0.2097
 7227TIP3    H121645   6.727   1.771   0.162 -1.3241 -0.0909 -0.4381
 7227TIP3    H221646   6.804   1.642   0.147  1.2511  1.2475  0.6892
 7228TIP3   OH221647   3.481   2.862   4.181  0.0631 -0.0391  0.0665
 7228TIP3    H121648   3.399   2.886   4.223 -1.1427  0.4269 -2.4195
 7228TIP3    H221649   3.507   2.940   4.133  1.6101 -0.4259  0.2164
 7229TIP3   OH221650   0.524   4.194   0.574  0.4846  0.0540  0.5112
 7229TIP3    H121651   0.518   4.289   0.581 -0.3027  0.0384  0.1668
 7229TIP3    H221652   0.609   4.173   0.611  1.0040  0.9615 -0.1162
 7230TIP3   OH221653   7.208   4.634   4.548  0.1043  0.4507  0.2512
 7230TIP3    H121654   7.138   4.659   4.609  0.7458  0.4833  0.9894
 7230TIP3    H221655   7.178   4.665   4.463 -1.6139 -1.1353  0.2299
 7231TIP3   OH221656   7.195   3.664   3.186  0.3111 -1.0180  0.0801
 7231TIP3    H121657   7.170   3.571   3.184  0.2513 -1.0613 -3.5588
 7231TIP3    H221658   7.168   3.698   3.101  0.0984  2.4741  1.3923
 7232TIP3   OH221659   2.028   2.838   0.542  0.1317 -0.0813 -0.0382
 7232TIP3    H121660   2.020   2.764   0.481 -0.1440  1.1645 -1.5969
 7232TIP3    H221661   2.077   2.904   0.492  0.6582  0.6801  1.4334
 7233TIP3   OH221662   5.691   0.490   4.885 -0.2200  0.2910  0.2967
 7233TIP3    H121663   5.664   0.409   4.928 -2.0150  0.7789  0.1925
 7233TIP3    H221664   5.784   0.499   4.906  0.2834 -2.2690 -0.5073
 7234TIP3   OH221665   4.222   6.293   1.660  0.0409 -0.0207 -0.4267
 7234TIP3    H121666   4.168   6.360   1.618 -0.4827 -0.5857 -0.6598
 7234TIP3    H221667   4.310   6.310   1.629  0.1019  1.2407  0.3633
 7235TIP3   OH221668   1.796   5.945   2.734 -0.2770  0.0602 -0.5877
 7235TIP3    H121669   1.759   5.884   2.798 -0.1258 -0.4236 -0.9491
 7235TIP3    H221670   1.820   6.022   2.785 -0.0398 -0.3669 -0.0422
 7236TIP3   OH221671   6.118   5.542   5.025  0.8903  0.2881 -0.3228
 7236TIP3    H121672   6.163   5.528   5.108  1.5463  0.9696 -0.5579
 7236TIP3    H221673   6.072   5.625   5.036 -0.8555 -0.6987  0.1383
 7237TIP3   OH221674   2.644   1.947   3.798  0.2395 -0.3225  0.1969
 7237TIP3    H121675   2.635   2.034   3.838  2.9976  0.1161  0.1036
 7237TIP3    H221676   2.557   1.926   3.765 -0.1949  3.2411 -1.4091
 7238TIP3   OH221677   0.557   4.613   5.112  0.2619  0.2578  0.6579
 7238TIP3    H121678   0.611   4.617   5.033  0.6655 -2.1853  0.7247
 7238TIP3    H221679   0.589   4.536   5.159 -0.1121  1.5164  3.1329
 7239TIP3   OH221680   5.678   5.287   1.366  0.2016  0.0330  0.3369
 7239TIP3    H121681   5.594   5.253   1.396  0.9208 -3.0932 -0.7738
 7239TIP3    H221682   5.738   5.275   1.440  0.4219 -1.1496 -0.0082
 7240TIP3   OH221683   4.315   1.945   2.521 -0.3306  0.5932 -0.0800
 7240TIP3    H121684   4.298   1.988   2.437 -1.2857  0.5435  0.0760
 7240TIP3    H221685   4.360   1.864   2.497  1.7914  1.7756 -0.3574
 7241TIP3   OH221686   6.718   4.111   2.951  0.1051 -0.5345 -0.1721
 7241TIP3    H121687   6.734   4.075   3.038  0.8033 -0.5657 -0.3079
 7241TIP3    H221688   6.633   4.075   2.926  0.0954 -0.8706  0.3155
 7242TIP3   OH221689   5.311   1.824   3.748 -0.1483 -0.2008 -0.1619
 7242TIP3    H121690   5.227   1.856   3.781 -0.6724 -0.7586 -0.9395
 7242TIP3    H221691   5.319   1.861   3.660 -0.1937 -1.1938 -0.5996
 7243TIP3   OH221692   4.329   2.815   4.294  0.2653  0.3465 -0.1376
 7243TIP3    H121693   4.419   2.823   4.327 -0.5253  3.4228  1.6486
 7243TIP3    H221694   4.336   2.831   4.200  1.7801 -1.6145 -0.4170
 7244TIP3   OH221695   1.988   0.907   0.341 -0.0162  0.3191 -0.4014
 7244TIP3    H121696   2.071   0.869   0.314 -0.7060 -0.5070 -1.4531
 7244TIP3    H221697   1.924   0.871   0.279 -1.6418 -1.3438  2.0503
 7245TIP3   OH221698   6.306   4.164   1.490  0.2241  0.1213  0.4582
 7245TIP3    H121699   6.259   4.168   1.406 -2.1995 -0.4451  1.6888
 7245TIP3    H221700   6.378   4.104   1.474  0.6062  1.0318 -1.5513
 7246TIP3   OH221701   6.866   2.961   5.126  0.6248  0.2500 -0.7270
 7246TIP3    H121702   6.772   2.977   5.128  0.9752  2.9145 -1.3666
 7246TIP3    H221703   6.903   3.043   5.093  3.0807 -1.1652 -1.7545
 7247TIP3   OH221704   2.182   6.325   2.544  0.2008 -0.1204 -0.3340
 7247TIP3    H121705   2.160   6.291   2.631 -2.2101  2.0885  0.0583
 7247TIP3    H221706   2.156   6.255   2.484 -2.1214 -0.1352  0.5781
 7248TIP3   OH221707   1.150   4.498   2.687 -0.3625 -0.3730 -0.7151
 7248TIP3    H121708   1.234   4.452   2.681 -0.2804 -0.4773  0.7617
 7248TIP3    H221709   1.169   4.587   2.659  0.2050 -0.4450 -0.5733
 7249TIP3   OH221710   2.189   5.014   1.219 -0.3628  0.1849 -0.1037
 7249TIP3    H121711   2.190   5.063   1.302  0.7113 -0.0061  0.0152
 7249TIP3    H221712   2.194   5.082   1.152 -0.8557  0.3239 -0.0039
 7250TIP3   OH221713   0.016   5.215   2.190  0.3516 -0.0240  0.1813
 7250TIP3    H121714   0.063   5.258   2.261  1.1030  0.5209 -0.6262
 7250TIP3    H221715  -0.050   5.162   2.234 -0.4531  1.7499  1.2415
 7251TIP3   OH221716   5.019   1.502   3.682 -0.2544 -0.1907 -0.4849
 7251TIP3    H121717   5.064   1.511   3.598 -0.9530 -1.4646 -1.0181
 7251TIP3    H221718   4.989   1.590   3.702  0.3959  0.2341 -1.3019
 7252TIP3   OH221719   5.538   3.505   1.868 -0.0986  0.8893  0.3585
 7252TIP3    H121720   5.595   3.497   1.791 -1.2675  0.3047 -0.4876
 7252TIP3    H221721   5.525   3.415   1.898  0.7181  1.1503  1.5419
 7253TIP3   OH221722   5.135   1.147   1.338  0.1431  0.0097 -0.5055
 7253TIP3    H121723   5.168   1.061   1.363 -0.4810  0.2276  1.1993
 7253TIP3    H221724   5.181   1.208   1.396 -0.3600  0.6925 -0.8157
 7254TIP3   OH221725   0.621   6.592   1.010 -0.3725  0.4634  0.5311
 7254TIP3    H121726   0.598   6.520   1.069 -0.5505  0.1980  0.1344
 7254TIP3    H221727   0.549   6.654   1.020  1.6062  2.5974  4.0172
 7255TIP3   OH221728   5.680   2.177   5.718 -0.4840 -0.5660 -0.1018
 7255TIP3    H121729   5.705   2.085   5.726 -1.4203 -1.3132 -3.8387
 7255TIP3    H221730   5.753   2.225   5.757 -0.0369 -2.8177  2.0941
 7256TIP3   OH221731   1.709   1.510   1.786 -0.1185  0.1355  0.0875
 7256TIP3    H121732   1.715   1.462   1.703  1.0232  3.0235 -1.6470
 7256TIP3    H221733   1.635   1.570   1.774 -0.2870  0.2112  1.3899
 7257TIP3   OH221734   0.959   5.750   1.595 -0.2412 -0.1511 -0.6113
 7257TIP3    H121735   1.002   5.798   1.523  0.3532 -0.6133 -0.5730
 7257TIP3    H221736   0.963   5.811   1.669  1.7452 -0.7371 -0.1814
 7258TIP3   OH221737   5.951   1.577   4.680  0.1904  0.2655 -0.4869
 7258TIP3    H121738   6.037   1.547   4.649 -0.2247  0.4596 -1.8858
 7258TIP3    H221739   5.972   1.647   4.743  1.0593  1.5524 -2.1257
 7259TIP3   OH221740   7.039   4.703   3.398 -0.1910 -0.6306  0.0153
 7259TIP3    H121741   7.017   4.610   3.393  0.1756 -0.7679  0.6693
 7259TIP3    H221742   7.125   4.709   3.356  0.3809 -0.8276  1.1165
 7260TIP3   OH221743   2.599   0.979   1.607 -0.1246  0.6038 -0.5535
 7260TIP3    H121744   2.564   0.958   1.520  0.3496 -0.0913 -0.5894
 7260TIP3    H221745   2.624   0.894   1.643 -0.2771  0.8938  0.2507
 7261TIP3   OH221746   5.104   5.062   0.690 -0.0828 -0.1158  0.2481
 7261TIP3    H121747   5.010   5.059   0.676 -0.0791 -0.7684  0.3367
 7261TIP3    H221748   5.116   5.126   0.760 -0.5442 -0.7220  0.8867
 7262TIP3   OH221749   4.585   5.579   4.467 -0.6713  0.3117 -0.5120
 7262TIP3    H121750   4.578   5.551   4.559  1.2631  0.0214 -0.4191
 7262TIP3    H221751   4.525   5.521   4.420  0.6019 -1.6549  0.1708
 7263TIP3   OH221752   3.961   3.597   2.081 -0.2276  0.0289 -0.1367
 7263TIP3    H121753   3.952   3.615   1.987  0.2416 -1.4633 -0.4872
 7263TIP3    H221754   3.872   3.608   2.115 -0.1879  1.8095 -0.4964
 7264TIP3   OH221755   1.838   1.650   1.042  0.0764  0.4064 -0.7984
 7264TIP3    H121756   1.854   1.700   1.122  1.3233 -0.1776 -0.6590
 7264TIP3    H221757   1.923   1.648   0.998  0.7723 -3.6906  0.4054
 7265TIP3   OH221758   1.646   6.032   3.662  0.3980  0.0151  0.5736
 7265TIP3    H121759   1.583   5.998   3.726  0.7815 -1.2144  0.3092
 7265TIP3    H221760   1.610   6.117   3.637 -0.6569 -0.2459  1.1319
 7266TIP3   OH221761   2.796   5.073   3.132  0.1667 -0.3191 -0.7797
 7266TIP3    H121762   2.810   5.086   3.226  1.5346  3.6477 -1.3460
 7266TIP3    H221763   2.703   5.090   3.119 -0.2746 -2.0038 -0.0745
 7267TIP3   OH221764   4.885   3.076   4.871  0.0611 -0.0821 -0.3880
 7267TIP3    H121765   4.829   3.146   4.903  0.6268  0.3824 -0.3846
 7267TIP3    H221766   4.865   3.070   4.778 -0.0606  0.0153 -0.3685
 7268TIP3   OH221767   6.216   0.760   1.438  0.3739  0.3114 -0.6408
 7268TIP3    H121768   6.207   0.665   1.432 -1.1273  0.4875 -1.6553
 7268TIP3    H221769   6.140   0.789   1.488 -0.0158  1.1056 -1.6463
 7269TIP3   OH221770   4.713   5.086   4.858  0.1583 -0.2878  0.0013
 7269TIP3    H121771   4.679   5.140   4.929  0.5231 -2.0840  1.6561
 7269TIP3    H221772   4.711   5.142   4.781 -0.8193  1.5665  1.3032
 7270TIP3   OH221773   1.994   2.268   1.884 -0.1988  0.3719  0.1784
 7270TIP3    H121774   2.021   2.189   1.836 -1.3008 -0.3372  0.6924
 7270TIP3    H221775   2.018   2.340   1.825 -2.1051 -0.4834 -1.7872
 7271TIP3   OH221776   1.227   6.771   0.429 -0.2954 -0.1961 -0.5499
 7271TIP3    H121777   1.275   6.749   0.508 -1.0564 -1.0027 -0.3008
 7271TIP3    H221778   1.227   6.690   0.378 -1.3564 -0.1918 -0.5614
 7272TIP3   OH221779   1.115   1.888   1.554  0.1778 -0.4867  0.6573
 7272TIP3    H121780   1.111   1.868   1.647  0.6275 -0.1567  0.7509
 7272TIP3    H221781   1.052   1.828   1.513  3.1745 -3.8792  0.5894
 7273TIP3   OH221782   1.333   5.306   5.877 -0.3149  0.7277 -0.1069
 7273TIP3    H121783   1.258   5.359   5.849 -0.2735 -0.0335 -1.7946
 7273TIP3    H221784   1.295   5.233   5.925 -0.4064  1.9259  1.7618
 7274TIP3   OH221785   0.456   2.449   3.103 -0.5704 -0.3334  0.2039
 7274TIP3    H121786   0.506   2.367   3.100 -1.3740 -0.8177 -0.1369
 7274TIP3    H221787   0.458   2.475   3.195  0.3953 -0.2895  0.1807
 7275TIP3   OH221788   4.010   3.807   0.153 -0.5240 -0.7147  0.2613
 7275TIP3    H121789   3.947   3.739   0.177 -3.2749  1.1615 -1.1029
 7275TIP3    H221790   4.006   3.870   0.225  0.1017 -0.7397  0.3252
 7276TIP3   OH221791   0.855   3.335   1.212 -0.5588 -0.0466 -0.0047
 7276TIP3    H121792   0.827   3.244   1.206 -0.5830  0.0321 -1.6202
 7276TIP3    H221793   0.936   3.333   1.262  0.1668 -1.1523 -1.1617
 7277TIP3   OH221794   4.558   1.355   4.921 -0.2601  0.0545  0.8027
 7277TIP3    H121795   4.540   1.446   4.897 -0.1406 -0.2417 -0.4727
 7277TIP3    H221796   4.620   1.324   4.855  0.1244 -0.7963  1.5345
 7278TIP3   OH221797   2.248   3.990   4.705 -0.0453  0.1308 -0.9682
 7278TIP3    H121798   2.324   4.045   4.721  1.1450 -1.9929  1.3533
 7278TIP3    H221799   2.235   3.943   4.787 -2.4217 -1.3239 -2.0845
 7279TIP3   OH221800   1.222   5.587   2.099 -0.4365  0.2670 -0.1225
 7279TIP3    H121801   1.305   5.609   2.140  0.1677 -1.5431 -0.2507
 7279TIP3    H221802   1.156   5.600   2.168  0.1664  0.2187  0.4695
 7280TIP3   OH221803   1.213   4.595   2.952  1.0663 -0.2532 -0.3791
 7280TIP3    H121804   1.155   4.558   2.885  2.2863  0.2363 -1.7563
 7280TIP3    H221805   1.241   4.519   3.003 -0.3584 -0.5579  0.0179
 7281TIP3   OH221806   6.808   4.586   1.480  0.1431  0.1043 -0.2678
 7281TIP3    H121807   6.879   4.522   1.486  0.5092  0.4692 -0.5898
 7281TIP3    H221808   6.762   4.580   1.564  0.9714  0.3371  0.2177
 7282TIP3   OH221809   2.622   5.456   2.853  0.0753  0.5570  0.6249
 7282TIP3    H121810   2.577   5.541   2.857 -1.0744  0.1207 -1.5081
 7282TIP3    H221811   2.687   5.466   2.783  0.3942 -0.1282  0.8093
 7283TIP3   OH221812   1.906  -0.002   5.664 -0.1710 -0.1420  0.7183
 7283TIP3    H121813   1.832   0.059   5.660 -0.7100 -0.8015  0.1868
 7283TIP3    H221814   1.981   0.052   5.686 -0.8748  0.4955  1.6515
 7284TIP3   OH221815   1.402   2.111   2.058 -0.0765 -0.2425 -0.6642
 7284TIP3    H121816   1.462   2.182   2.034 -0.5550  0.3758 -0.0569
 7284TIP3    H221817   1.402   2.111   2.153 -1.0711 -0.2081 -0.6599
 7285TIP3   OH221818   1.205   1.963   5.606  0.1050  0.2061 -0.4830
 7285TIP3    H121819   1.184   2.054   5.624 -0.1284 -0.0170  0.4052
 7285TIP3    H221820   1.143   1.913   5.659  1.6398 -0.4719  0.7300
 7286TIP3   OH221821   3.916   1.665   1.045  0.6748  0.1071 -0.6486
 7286TIP3    H121822   3.891   1.596   1.106  1.6910 -0.4997 -0.8984
 7286TIP3    H221823   3.842   1.725   1.045 -0.3964 -1.1753 -0.7174
 7287TIP3   OH221824   3.396   2.838   2.642 -0.0987 -0.8535  0.6332
 7287TIP3    H121825   3.443   2.877   2.715  0.5051 -1.4874  0.5895
 7287TIP3    H221826   3.303   2.846   2.665 -0.1252  2.0974 -0.1150
 7288TIP3   OH221827   4.503   1.644   2.943  0.0140  0.4875 -0.3236
 7288TIP3    H121828   4.408   1.641   2.948 -0.1478 -0.2442 -2.7803
 7288TIP3    H221829   4.526   1.585   2.872  2.4441 -0.4977  1.1278
 7289TIP3   OH221830   1.256   6.357   1.722 -0.4542  0.4992 -0.3634
 7289TIP3    H121831   1.166   6.333   1.702 -1.0503  1.4019  1.1214
 7289TIP3    H221832   1.280   6.419   1.653 -1.3691  1.1426 -0.1086
 7290TIP3   OH221833   3.863   6.700   0.888 -0.5663 -0.2019  0.4606
 7290TIP3    H121834   3.781   6.686   0.840 -0.6262 -0.1899  0.5591
 7290TIP3    H221835   3.928   6.714   0.820 -0.6647 -0.1158  0.3834
 7291TIP3   OH221836   2.412   1.164   1.382  0.3875 -0.5986 -0.2075
 7291TIP3    H121837   2.322   1.146   1.410 -0.0266  0.4146 -0.8504
 7291TIP3    H221838   2.441   1.083   1.340 -0.6107 -0.5828 -0.9637
 7292TIP3   OH221839   1.295   1.746   4.143  0.1221 -0.3314  0.3196
 7292TIP3    H121840   1.324   1.806   4.212  0.4153 -1.7908  1.5387
 7292TIP3    H221841   1.203   1.731   4.162  0.0002 -0.1047 -0.0997
 7293TIP3   OH221842   1.144   1.505   2.635  0.1536 -0.3905 -0.3535
 7293TIP3    H121843   1.059   1.547   2.651 -0.0987 -1.0126  0.0244
 7293TIP3    H221844   1.152   1.503   2.540 -0.0936  0.0018 -0.3827
 7294TIP3   OH221845   4.660   6.747   1.417  0.0274  0.1327 -1.0686
 7294TIP3    H121846   4.583   6.692   1.435  0.4815 -0.6548 -1.4832
 7294TIP3    H221847   4.623   6.826   1.376 -0.6057  0.0204 -0.7357
 7295TIP3   OH221848   3.831   2.719   1.528  0.2592 -0.5690 -0.1193
 7295TIP3    H121849   3.752   2.694   1.576  0.3830  0.2511  0.5228
 7295TIP3    H221850   3.866   2.636   1.494 -0.5033 -1.0083  0.1619
 7296TIP3   OH221851   3.873   4.304   1.683  0.5754  0.5993 -0.1121
 7296TIP3    H121852   3.838   4.230   1.732 -0.2217  1.2388  0.3212
 7296TIP3    H221853   3.965   4.281   1.667  0.0810 -0.9411 -0.9249
 7297TIP3   OH221854   6.926   0.580   1.106 -0.2486  0.0141  0.8848
 7297TIP3    H121855   7.018   0.596   1.082 -0.3911  0.2821  0.4985
 7297TIP3    H221856   6.929   0.562   1.199  0.2015  0.0189  0.8767
 7298TIP3   OH221857   5.876   0.050   2.026 -0.4992  0.5684 -0.0947
 7298TIP3    H121858   5.928   0.120   2.064 -1.2953  1.2368 -0.2005
 7298TIP3    H221859   5.834   0.089   1.949  0.7286 -0.6318 -1.4336
 7299TIP3   OH221860   2.264   6.018   2.645 -0.4695  0.1821 -0.0977
 7299TIP3    H121861   2.345   6.069   2.637 -0.6312  0.3974 -0.3989
 7299TIP3    H221862   2.205   6.074   2.695 -0.5901  0.2258 -0.2843
 7300TIP3   OH221863   0.584   5.729   5.367  0.8553  0.0771 -0.3238
 7300TIP3    H121864   0.640   5.805   5.353 -0.9411  2.1679  2.6969
 7300TIP3    H221865   0.495   5.762   5.357  0.0275 -1.9706 -0.2194
 7301TIP3   OH221866   3.802   2.223   2.891  0.6458 -0.4979  0.5234
 7301TIP3    H121867   3.810   2.242   2.797 -2.0236  0.0064  0.3346
 7301TIP3    H221868   3.881   2.173   2.911  2.3581  1.1433 -1.4987
 7302TIP3   OH221869   5.253   5.479   2.489 -0.0652  0.0247 -0.4365
 7302TIP3    H121870   5.278   5.435   2.408 -0.0411 -1.3145  0.2701
 7302TIP3    H221871   5.165   5.513   2.471  0.2932  0.5356 -1.3090
 7303TIP3   OH221872   1.956   0.392   4.612  0.4733  0.2633 -0.3480
 7303TIP3    H121873   1.955   0.331   4.685 -2.6424  1.1457  0.5123
 7303TIP3    H221874   1.868   0.385   4.574  0.9159  2.2292 -1.8889
 7304TIP3   OH221875   5.126   2.793   2.479  0.0575  0.3055 -1.3174
 7304TIP3    H121876   5.056   2.856   2.467  0.2289  0.6941 -0.3127
 7304TIP3    H221877   5.141   2.758   2.391 -1.6263 -0.0594 -1.4890
 7305TIP3   OH221878   4.351   4.943   3.419  0.7273 -0.5542 -1.2425
 7305TIP3    H121879   4.431   4.953   3.369  0.3957  0.8232 -1.5558
 7305TIP3    H221880   4.370   4.985   3.503  1.0138 -2.1250 -0.4982
 7306TIP3   OH221881   4.468   6.450   3.556 -0.2389 -0.5201 -0.4071
 7306TIP3    H121882   4.550   6.464   3.509 -0.8325  0.3540 -1.2067
 7306TIP3    H221883   4.487   6.476   3.646  0.2307  0.1098 -0.6860
 7307TIP3   OH221884   2.875   1.996   2.120  0.1621 -0.4846 -0.0244
 7307TIP3    H121885   2.918   1.916   2.149  0.3011 -1.2849 -2.2369
 7307TIP3    H221886   2.948   2.055   2.097  0.1228 -0.9543 -1.4676
 7308TIP3   OH221887   0.425   6.430   0.699  0.2012 -0.1535 -0.0587
 7308TIP3    H121888   0.513   6.457   0.672 -0.1383  0.7590 -0.2977
 7308TIP3    H221889   0.368   6.459   0.628 -0.5868  1.3854  1.1389
 7309TIP3   OH221890   2.603   2.007   0.341  0.3762  1.1025  0.2248
 7309TIP3    H121891   2.682   2.032   0.292  0.2963  1.7485  0.4200
 7309TIP3    H221892   2.531   2.040   0.288  0.2074  0.0626 -0.2119
 7310TIP3   OH221893   5.198   0.879   4.608  0.3108  0.2057  0.1022
 7310TIP3    H121894   5.223   0.795   4.569 -0.5422 -1.4433  2.7856
 7310TIP3    H221895   5.205   0.942   4.537  1.5388 -2.0262 -1.9057
 7311TIP3   OH221896   0.519   4.338   1.717  0.7538  0.3162 -0.2413
 7311TIP3    H121897   0.529   4.370   1.807  0.1573  1.1136 -0.4397
 7311TIP3    H221898   0.602   4.359   1.675  1.2109 -0.4935  0.2448
 7312TIP3   OH221899   0.824   4.776   0.705  0.0392 -0.3637  0.0853
 7312TIP3    H121900   0.858   4.853   0.750 -1.1383  0.6536 -0.6909
 7312TIP3    H221901   0.901   4.728   0.676  0.7865  0.2847  0.9527
 7313TIP3   OH221902   0.662   0.938   2.854 -0.0182  0.2747  0.3991
 7313TIP3    H121903   0.666   1.033   2.865 -0.8152  0.1363  2.2695
 7313TIP3    H221904   0.588   0.923   2.796  1.0865  0.8321 -1.2268
 7314TIP3   OH221905   2.128   6.243   4.150 -0.1242  0.2037  0.5073
 7314TIP3    H121906   2.077   6.193   4.213  1.0268 -1.0466  0.4824
 7314TIP3    H221907   2.173   6.309   4.202 -0.3187  0.1212  0.7804
 7315TIP3   OH221908   3.607   2.826   1.227  0.4929 -0.1426 -0.4686
 7315TIP3    H121909   3.690   2.872   1.239  0.9693 -0.1832 -3.0047
 7315TIP3    H221910   3.608   2.799   1.135 -1.5537 -1.7185 -0.1033
 7316TIP3   OH221911   3.326   5.723   1.409  0.1854 -0.2638  0.1665
 7316TIP3    H121912   3.361   5.752   1.493 -1.4625  0.2873  0.7039
 7316TIP3    H221913   3.234   5.702   1.427 -0.5675  1.0738 -1.7339
 7317TIP3   OH221914   1.356   5.100   0.424  0.5719 -0.2924 -0.0276
 7317TIP3    H121915   1.270   5.116   0.388 -0.3899 -1.2746  1.6916
 7317TIP3    H221916   1.395   5.035   0.366 -0.4498 -0.9641  0.0258
 7318TIP3   OH221917   6.547   2.167   1.453 -0.0164 -0.2885 -0.0615
 7318TIP3    H121918   6.593   2.133   1.376  1.8514  0.0801  0.8457
 7318TIP3    H221919   6.526   2.258   1.431  0.2626 -0.2671 -0.2382
 7319TIP3   OH221920   2.199   4.919   4.951  0.0941  0.1953 -0.0037
 7319TIP3    H121921   2.122   4.863   4.960  0.2887 -0.2286 -0.9052
 7319TIP3    H221922   2.251   4.900   5.029  0.7716 -1.8479 -0.8813
 7320TIP3   OH221923   5.739   1.753   4.100 -0.7204  0.3003 -0.1853
 7320TIP3    H121924   5.664   1.794   4.056 -0.9932 -1.3504 -1.3383
 7320TIP3    H221925   5.745   1.799   4.184 -1.4833  2.1348 -1.0700
 7321TIP3   OH221926   4.208   2.759   0.686 -0.2189 -0.4404 -0.1694
 7321TIP3    H121927   4.269   2.776   0.758 -1.6384 -0.2526  1.0342
 7321TIP3    H221928   4.264   2.732   0.613  1.5111  1.8412  0.1822
 7322TIP3   OH221929   5.641   4.557   1.986  0.2023 -0.1732 -0.7207
 7322TIP3    H121930   5.715   4.517   2.030 -1.0105 -0.6266  1.0003
 7322TIP3    H221931   5.639   4.647   2.019 -0.1899 -0.2523 -0.5265
 7323TIP3   OH221932   1.385   2.004   4.634 -0.3148  0.3626  0.0023
 7323TIP3    H121933   1.479   1.989   4.635 -0.5987 -1.7146 -0.4840
 7323TIP3    H221934   1.362   2.018   4.725  0.4250  0.5992  0.1580
 7324TIP3   OH221935   0.997   6.390   5.515 -0.0690 -0.0701  0.5504
 7324TIP3    H121936   0.931   6.459   5.521 -1.9276 -1.7367  0.5668
 7324TIP3    H221937   1.067   6.420   5.573 -0.3243  2.2389 -0.2222
 7325TIP3   OH221938   2.349   2.770   4.528 -0.2922 -0.0093  0.0068
 7325TIP3    H121939   2.399   2.849   4.507 -0.0044 -0.3319 -0.5621
 7325TIP3    H221940   2.293   2.795   4.601  1.1346  0.1956  1.0788
 7326TIP3   OH221941   3.095   3.056   3.736 -0.0995 -0.0030  0.0797
 7326TIP3    H121942   3.160   3.093   3.677 -0.0824 -0.3490 -0.1205
 7326TIP3    H221943   3.033   3.127   3.752  0.6260  0.5031  0.7168
 7327TIP3   OH221944   0.672   4.384   4.548 -0.8277 -0.0274  0.6531
 7327TIP3    H121945   0.613   4.443   4.501  0.8245  1.7241  0.6857
 7327TIP3    H221946   0.641   4.386   4.639 -1.1637  0.2789  0.5309
 7328TIP3   OH221947   3.556   4.071   2.084  0.5300 -0.2969  0.0039
 7328TIP3    H121948   3.493   4.083   2.014  1.1028 -0.0532 -0.4810
 7328TIP3    H221949   3.508   4.091   2.164 -0.1732 -0.7292 -0.2977
 7329TIP3   OH221950   4.944   6.219   1.783 -0.0124 -0.6489 -0.2752
 7329TIP3    H121951   4.947   6.181   1.871  0.7851  0.2108  0.0820
 7329TIP3    H221952   4.987   6.153   1.728  0.5782 -0.6646  0.1884
 7330TIP3   OH221953   5.622   5.814   5.467  0.2276 -0.5396 -0.0601
 7330TIP3    H121954   5.711   5.778   5.470  0.2063 -0.6061 -0.2190
 7330TIP3    H221955   5.632   5.905   5.494  0.3264 -0.5802  0.0443
 7331TIP3   OH221956   0.713   0.540   2.055 -0.3903  0.1204  0.2377
 7331TIP3    H121957   0.702   0.521   2.148  0.2653 -1.6486 -0.0196
 7331TIP3    H221958   0.803   0.571   2.047  0.4207 -2.1329 -0.1098
 7332TIP3   OH221959   2.746   4.675   2.371  0.0633  0.2460 -0.1770
 7332TIP3    H121960   2.760   4.733   2.296  0.0415 -0.7003 -0.9337
 7332TIP3    H221961   2.813   4.608   2.362  0.1136  0.1597  0.7150
 7333TIP3   OH221962   3.831   4.285   3.208  0.0139 -0.4613  0.3091
 7333TIP3    H121963   3.764   4.227   3.242 -0.1742 -0.3726  0.0872
 7333TIP3    H221964   3.911   4.260   3.256 -0.4696  0.4001  1.6295
 7334TIP3   OH221965   6.836   6.600   3.589 -0.4202 -0.2618 -0.3075
 7334TIP3    H121966   6.879   6.557   3.663 -2.0330 -0.4282  0.5640
 7334TIP3    H221967   6.890   6.577   3.513  0.6360 -1.0097  0.6480
 7335TIP3   OH221968   4.169   5.705   5.698  0.0469 -0.0929 -1.0999
 7335TIP3    H121969   4.232   5.646   5.740  0.0647  0.3194 -0.5424
 7335TIP3    H221970   4.089   5.653   5.692 -0.1039  0.0053 -0.0955
 7336TIP3   OH221971   3.579   4.455   4.816 -0.6581  0.3769 -0.3876
 7336TIP3    H121972   3.497   4.421   4.779 -0.5054 -0.8263  0.3090
 7336TIP3    H221973   3.644   4.388   4.795 -0.3463  0.1979  1.0319
 7337TIP3   OH221974   5.743   3.260   4.051  0.2750  0.1694 -0.5372
 7337TIP3    H121975   5.774   3.193   3.990 -2.0652 -0.4041 -1.1921
 7337TIP3    H221976   5.731   3.213   4.134  2.7052  0.7838  0.2543
 7338TIP3   OH221977   3.913   2.252   0.762  0.0921 -0.1622 -0.3998
 7338TIP3    H121978   3.846   2.212   0.818 -1.3978  2.1169 -0.3793
 7338TIP3    H221979   3.991   2.257   0.818 -0.7621  0.2059  0.8164
 7339TIP3   OH221980   4.528   4.194   1.378  0.6724  0.5917 -0.3569
 7339TIP3    H121981   4.489   4.178   1.464 -0.4182 -3.3459 -1.3983
 7339TIP3    H221982   4.487   4.275   1.347 -3.0951 -0.7353  0.6596
 7340TIP3   OH221983   5.703   1.162   2.313 -0.1179 -0.4259 -0.1207
 7340TIP3    H121984   5.730   1.191   2.227  0.4595 -0.5843  0.0038
 7340TIP3    H221985   5.611   1.139   2.303 -0.1237 -0.1851 -0.6254
 7341TIP3   OH221986   6.197   1.355   0.190 -0.2173  0.4031 -0.1247
 7341TIP3    H121987   6.160   1.436   0.157  0.0065  0.8302  0.6535
 7341TIP3    H221988   6.173   1.289   0.125  1.8882  1.5470 -2.1987
 7342TIP3   OH221989   4.099   0.990   2.625  0.2275 -0.0111 -0.0946
 7342TIP3    H121990   4.121   1.081   2.610  0.9111 -0.0746  0.4399
 7342TIP3    H221991   4.162   0.941   2.572  0.6524 -0.1760  0.5373
 7343TIP3   OH221992   5.681   1.917   1.718 -0.0696  0.2049 -0.0138
 7343TIP3    H121993   5.757   1.883   1.672 -0.4608 -0.7339  0.0032
 7343TIP3    H221994   5.609   1.858   1.692 -0.1375 -0.9370  2.4634
 7344TIP3   OH221995   0.238   1.868   0.054  0.8425 -0.7385 -0.0800
 7344TIP3    H121996   0.167   1.923   0.088  1.5849 -0.0411  0.3726
 7344TIP3    H221997   0.197   1.814  -0.013  0.4031  1.4292 -1.6288
 7345TIP3   OH221998   6.153   0.228   5.001 -0.3871 -0.0476 -0.4336
 7345TIP3    H121999   6.240   0.191   4.989 -0.2167  0.5105 -0.9266
 7345TIP3    H222000   6.094   0.153   4.993  0.0735 -0.5384  0.5206
 7346TIP3   OH222001   3.520   0.721   1.019  0.6314  0.0209 -0.1422
 7346TIP3    H122002   3.485   0.661   1.085 -1.6208  0.7709 -0.5421
 7346TIP3    H222003   3.510   0.674   0.936  0.2817  0.3477 -0.2895
 7347TIP3   OH222004   7.118   1.598   4.200 -0.2180 -0.1542  0.1656
 7347TIP3    H122005   7.209   1.625   4.189  0.2434 -1.2938  1.0566
 7347TIP3    H222006   7.085   1.656   4.269 -0.6480  1.2683 -1.1595
 7348TIP3   OH222007   5.687   5.659   1.439  0.2093  0.0298 -0.1059
 7348TIP3    H122008   5.689   5.748   1.402 -1.2525  0.5032  0.8409
 7348TIP3    H222009   5.758   5.658   1.503 -0.1229  0.7431  0.2934
 7349TIP3   OH222010   2.492   5.048   1.344 -0.5489  0.0498  0.3231
 7349TIP3    H122011   2.489   5.076   1.436 -0.2496 -1.3453  0.7847
 7349TIP3    H222012   2.485   5.129   1.294  1.9413  1.1364  1.5803
 7350TIP3   OH222013   5.397   3.452   1.126 -0.2362 -0.0104  0.2170
 7350TIP3    H122014   5.432   3.530   1.168  0.4474 -0.2918  0.1817
 7350TIP3    H222015   5.306   3.447   1.156 -0.5709  1.3130 -0.5209
 7351TIP3   OH222016   1.253   3.612   4.402  0.3327 -0.3763 -0.1570
 7351TIP3    H122017   1.325   3.666   4.368  1.1810 -1.3517  0.0437
 7351TIP3    H222018   1.284   3.522   4.391  0.5538 -0.7714  2.9356
 7352TIP3   OH222019   5.651   4.840   3.096 -0.3226  0.2863 -0.5486
 7352TIP3    H122020   5.656   4.931   3.125 -0.8649  0.3434 -0.6349
 7352TIP3    H222021   5.645   4.789   3.177 -2.3230  0.4728 -0.5342
 7353TIP3   OH222022   0.144   5.650   3.116 -0.1481  0.1537 -0.0334
 7353TIP3    H122023   0.204   5.576   3.110 -0.1931  0.0549  0.6345
 7353TIP3    H222024   0.059   5.610   3.135 -0.3158  0.3282 -0.4192
 7354TIP3   OH222025   4.033   1.359   0.887  0.5581 -0.0444  0.4995
 7354TIP3    H122026   3.974   1.311   0.945 -1.0207  1.9187  0.6329
 7354TIP3    H222027   4.120   1.326   0.908  0.1643  0.9346  4.4442
 7355TIP3   OH222028   2.421   6.714   2.891  0.1563  0.3164 -0.0257
 7355TIP3    H122029   2.395   6.803   2.916 -0.9195  0.5034 -1.6514
 7355TIP3    H222030   2.338   6.666   2.884  0.6465 -0.5363 -0.1809
 7356TIP3   OH222031   4.913   3.651   2.585 -0.0605 -0.2024 -0.3003
 7356TIP3    H122032   4.956   3.566   2.597  0.1634 -0.0709 -0.1550
 7356TIP3    H222033   4.875   3.646   2.498 -1.5591 -1.1058  0.3719
 7357TIP3   OH222034   2.601   0.795   2.662 -0.3913  0.5026 -0.4334
 7357TIP3    H122035   2.661   0.727   2.691 -0.2889  0.5327 -0.5730
 7357TIP3    H222036   2.545   0.812   2.738  0.2867  1.0392 -0.0440
 7358TIP3   OH222037   1.919   3.826   1.007  0.7346 -0.1081  0.0599
 7358TIP3    H122038   1.874   3.751   0.968  0.0680 -0.0247  0.6519
 7358TIP3    H222039   1.898   3.821   1.100  1.4521  0.2865  0.2447
 7359TIP3   OH222040   3.209   2.431   1.047 -0.4918 -0.2625 -0.1090
 7359TIP3    H122041   3.177   2.507   1.095  0.8531  0.6617 -0.6313
 7359TIP3    H222042   3.212   2.459   0.956 -0.7148 -1.2121 -0.4276
 7360TIP3   OH222043   5.466   4.629   0.165 -0.3605 -0.2654 -0.0046
 7360TIP3    H122044   5.449   4.673   0.081  1.7955 -0.1202 -0.4115
 7360TIP3    H222045   5.381   4.595   0.191 -1.0899 -0.3798 -2.2881
 7361TIP3   OH222046   3.564   2.677   1.575 -0.4286  0.2821 -0.2976
 7361TIP3    H122047   3.520   2.659   1.492 -1.4719 -0.0027  0.2975
 7361TIP3    H222048   3.597   2.593   1.605 -1.1227  0.1564  0.1528
 7362TIP3   OH222049   1.121   0.109   1.499 -0.3109 -0.1545 -0.0996
 7362TIP3    H122050   1.182   0.176   1.530 -0.3303 -0.1816 -0.0013
 7362TIP3    H222051   1.093   0.139   1.413 -0.0769 -0.1942 -0.1893
 7363TIP3   OH222052   0.925   6.318   4.378 -0.1895  0.2197 -0.4161
 7363TIP3    H122053   0.935   6.225   4.398 -2.2613  0.1401  0.4514
 7363TIP3    H222054   0.867   6.320   4.302 -0.4054  0.8113 -0.2409
 7364TIP3   OH222055   5.806   6.476   0.364  0.0121  0.4445  0.2382
 7364TIP3    H122056   5.735   6.509   0.418  3.6774  1.6670  5.0035
 7364TIP3    H222057   5.842   6.553   0.321  0.3989  0.3939  0.4661
 7365TIP3   OH222058   1.692   3.062   1.743  0.4172  0.6703 -0.1858
 7365TIP3    H122059   1.706   3.067   1.838  0.0515 -0.0035 -0.0903
 7365TIP3    H222060   1.608   3.015   1.734  0.5606  0.5367 -0.8431
 7366TIP3   OH222061   6.788   6.507   0.577  0.5471  0.4309 -0.1164
 7366TIP3    H122062   6.810   6.414   0.584 -2.4577 -0.4503 -0.6873
 7366TIP3    H222063   6.777   6.535   0.668  1.8151  0.3630  0.0776
 7367TIP3   OH222064   0.419   0.912   2.722 -0.0045  0.0975  0.4196
 7367TIP3    H122065   0.389   0.821   2.729 -1.5524  0.2937 -2.3997
 7367TIP3    H222066   0.339   0.963   2.711  1.0033  1.3620 -1.6058
 7368TIP3   OH222067   5.896   5.127   3.035  0.1732  0.4908  0.3501
 7368TIP3    H122068   5.831   5.139   2.965  0.6662  1.4298  0.0336
 7368TIP3    H222069   5.865   5.182   3.107  0.9465  1.4883 -0.0499
 7369TIP3   OH222070   0.305   5.203   5.554  0.2192  0.1186  0.2026
 7369TIP3    H122071   0.314   5.115   5.516  0.4871 -0.3347  1.2927
 7369TIP3    H222072   0.324   5.262   5.481 -2.0051 -0.6611 -1.1020
 7370TIP3   OH222073   5.557   4.615   2.928  0.2039 -0.1376  0.0971
 7370TIP3    H122074   5.573   4.521   2.914 -0.6105 -0.1085 -1.2328
 7370TIP3    H222075   5.644   4.651   2.947  0.7731 -0.9515 -0.8006
 7371TIP3   OH222076   5.442   0.325   1.630  0.3618  0.6109  0.5109
 7371TIP3    H122077   5.448   0.416   1.657 -0.1025  1.0264 -0.7240
 7371TIP3    H222078   5.349   0.304   1.635  0.5290  0.0284  1.3206
 7372TIP3   OH222079   2.109   2.024   3.940 -0.3913 -0.1585 -1.1209
 7372TIP3    H122080   2.023   1.998   3.972 -0.0951  1.1435  0.9258
 7372TIP3    H222081   2.091   2.084   3.868 -1.1369 -1.2452 -1.8678
 7373TIP3   OH222082   6.825   1.104   3.548 -0.2541 -0.5594 -0.4610
 7373TIP3    H122083   6.817   1.014   3.516  0.1002 -0.7064 -0.1366
 7373TIP3    H222084   6.894   1.143   3.494  0.1707 -0.7331 -0.0499
 7374TIP3   OH222085   0.569   6.433   0.385  0.4573 -0.8476  0.3336
 7374TIP3    H122086   0.590   6.344   0.358  1.6134 -0.6568  0.5239
 7374TIP3    H222087   0.611   6.442   0.471  1.1761  0.1719 -0.0956
 7375TIP3   OH222088   0.842   5.642   5.881 -0.1975 -0.3233  0.3021
 7375TIP3    H122089   0.813   5.668   5.794 -0.2180 -0.4630  0.2673
 7375TIP3    H222090   0.760   5.625   5.929 -0.1522 -1.4647 -0.0230
 7376TIP3   OH222091   3.322   4.864   3.788 -0.2537 -0.1615 -0.0247
 7376TIP3    H122092   3.346   4.948   3.827 -0.2741 -0.1838  0.0367
 7376TIP3    H222093   3.227   4.871   3.773 -0.6102 -0.8511  1.6861
 7377TIP3   OH222094   5.220   4.825   4.175 -0.2525 -0.0212 -0.3999
 7377TIP3    H122095   5.288   4.892   4.171 -0.6249  0.4920  1.2052
 7377TIP3    H222096   5.139   4.872   4.155 -0.3724 -0.2296 -0.4043
 7378TIP3   OH222097   0.900   5.142   4.157 -0.1529 -0.2169 -0.0224
 7378TIP3    H122098   0.861   5.152   4.243  1.2831 -0.3363  0.6733
 7378TIP3    H222099   0.977   5.200   4.158  0.3776 -0.8692 -0.9022
 7379TIP3   OH222100   5.761   3.471   3.783  0.4053  0.1112 -0.0003
 7379TIP3    H122101   5.854   3.493   3.781  0.1635  1.3148  0.7618
 7379TIP3    H222102   5.747   3.433   3.871  0.3470 -0.9593 -0.4527
 7380TIP3   OH222103   6.997   6.416   4.245 -0.2137 -0.1179 -0.0733
 7380TIP3    H122104   7.025   6.506   4.261  0.4388 -0.3887  0.3380
 7380TIP3    H222105   7.070   6.376   4.198 -0.7629 -0.2598 -0.8180
 7381TIP3   OH222106   2.644   2.952   0.675 -0.1969  0.6176  0.1761
 7381TIP3    H122107   2.659   2.905   0.757 -1.2905  0.1556  0.1331
 7381TIP3    H222108   2.552   2.935   0.655 -0.3020  1.8203 -0.4568
 7382TIP3   OH222109   3.232   4.711   5.119  0.1644  0.0921 -0.8137
 7382TIP3    H122110   3.139   4.695   5.100 -0.2789  1.3633  0.2153
 7382TIP3    H222111   3.243   4.681   5.209  1.1516 -1.4802 -1.4091
 7383TIP3   OH222112   4.667   4.998   1.787 -0.7502 -0.1689  0.1180
 7383TIP3    H122113   4.756   4.965   1.802 -0.3852  1.4518  1.9755
 7383TIP3    H222114   4.610   4.923   1.806  0.1251 -0.3940  2.1905
 7384TIP3   OH222115   2.160   5.349   2.785 -0.0617  0.3119 -0.7321
 7384TIP3    H122116   2.219   5.397   2.843  1.1602 -1.3571 -0.5125
 7384TIP3    H222117   2.218   5.296   2.729 -1.3142 -0.9671 -0.9017
 7385TIP3   OH222118   3.440   0.363   4.284 -0.6546 -0.5035 -0.1486
 7385TIP3    H122119   3.499   0.417   4.231  0.3226  0.4728  1.8445
 7385TIP3    H222120   3.354   0.378   4.246  0.0343 -0.0405 -1.6113
 7386TIP3   OH222121   0.130   0.615   5.393  0.9474 -0.1184  0.4202
 7386TIP3    H122122   0.051   0.577   5.433  1.6337  0.0520  1.9859
 7386TIP3    H222123   0.122   0.592   5.300 -0.4955 -0.8835  0.6944
 7387TIP3   OH222124   2.688   2.186   1.242 -0.1290  0.3326  0.1615
 7387TIP3    H122125   2.606   2.209   1.197 -1.5320 -0.8566  1.9790
 7387TIP3    H222126   2.724   2.270   1.272  0.3219  1.0558 -2.1634
 7388TIP3   OH222127   1.302   4.168   1.415 -0.4852 -0.0668  0.1559
 7388TIP3    H122128   1.389   4.147   1.383 -0.9273 -1.1285 -0.3904
 7388TIP3    H222129   1.260   4.213   1.341  0.9439  4.4263  1.7672
 7389TIP3   OH222130   0.859   6.196   4.939  0.1357  0.2385 -0.4912
 7389TIP3    H122131   0.851   6.141   4.862 -1.3614 -2.3439  1.3561
 7389TIP3    H222132   0.785   6.256   4.934 -0.8448 -0.9324 -0.3598
 7390TIP3   OH222133   3.388   1.402   4.712 -0.1504 -0.4840  0.4396
 7390TIP3    H122134   3.377   1.463   4.785 -0.0033  0.8297 -0.6091
 7390TIP3    H222135   3.444   1.448   4.650 -0.7396 -1.3444 -0.7740
 7391TIP3   OH222136   7.131   1.321   4.159  0.0188 -0.0343 -0.0809
 7391TIP3    H122137   7.064   1.302   4.093 -1.6151  1.5453  1.0312
 7391TIP3    H222138   7.128   1.416   4.170  2.5226  0.0991 -0.0058
 7392TIP3   OH222139   4.615   5.229   1.934 -0.5864  0.9656 -0.5284
 7392TIP3    H122140   4.571   5.283   1.868 -1.1137  0.0366 -0.9460
 7392TIP3    H222141   4.629   5.145   1.891 -0.9513  0.3416  0.5484
 7393TIP3   OH222142   4.452   5.983   0.042 -0.4914 -1.0887  0.0508
 7393TIP3    H122143   4.452   6.067   0.088 -1.6727 -1.0743  0.0739
 7393TIP3    H222144   4.512   5.928   0.092 -0.8947 -0.7318  0.9649
 7394TIP3   OH222145   1.821   2.526   0.030  0.2781  0.2390 -0.3057
 7394TIP3    H122146   1.779   2.461  -0.027  1.3787  0.1971 -1.0939
 7394TIP3    H222147   1.772   2.520   0.112 -1.2498  0.1987 -1.1698
 7395TIP3   OH222148   3.815   3.345   1.967 -0.4501  0.0296  0.5890
 7395TIP3    H122149   3.815   3.427   1.918 -0.8629 -0.1203  0.3382
 7395TIP3    H222150   3.898   3.347   2.015 -0.7342  0.8832  1.0735
 7396TIP3   OH222151   6.051   3.801   0.272  0.1523  0.2825 -0.4556
 7396TIP3    H122152   6.034   3.714   0.310  1.3520  0.3566  0.3057
 7396TIP3    H222153   6.133   3.791   0.224  0.3894  1.0282 -0.2244
 7397TIP3   OH222154   1.281   1.915   2.665  0.0362  0.1170 -0.5565
 7397TIP3    H122155   1.348   1.872   2.612 -0.4776  0.5236 -1.5632
 7397TIP3    H222156   1.306   2.007   2.665 -0.3505  0.2253 -0.6908
 7398TIP3   OH222157   0.847   5.829   1.939 -0.4963 -0.2576  0.0829
 7398TIP3    H122158   0.800   5.807   2.020  0.0329  1.7477  0.9836
 7398TIP3    H222159   0.925   5.774   1.941  1.1808  1.9575  2.6552
 7399TIP3   OH222160   1.607   0.506   5.368  0.0153 -0.0708  0.6261
 7399TIP3    H122161   1.582   0.442   5.435 -1.0510 -0.7724 -0.4041
 7399TIP3    H222162   1.538   0.572   5.371  1.7567  1.8068  2.5666
 7400TIP3   OH222163   2.356   4.008   1.493 -0.3541  0.0935  0.2968
 7400TIP3    H122164   2.415   3.935   1.510 -1.6723 -0.6779  1.9617
 7400TIP3    H222165   2.297   4.008   1.569 -1.3411  1.9418 -0.4187
 7401TIP3   OH222166   6.715   5.963   1.244  0.3939  0.2057 -0.0609
 7401TIP3    H122167   6.715   5.871   1.271 -0.5357  0.0946 -0.4311
 7401TIP3    H222168   6.747   5.962   1.154  0.1625  0.2227 -0.1433
 7402TIP3   OH222169   6.378   3.041   3.375  0.5423  0.1341  0.3046
 7402TIP3    H122170   6.398   3.081   3.290  0.6129  0.1729  0.3393
 7402TIP3    H222171   6.448   3.071   3.433  2.5494 -2.6802 -0.4358
 7403TIP3   OH222172   3.392   0.568   4.566 -0.1732 -0.3286 -0.1668
 7403TIP3    H122173   3.352   0.540   4.483 -0.7980  1.0738 -0.3686
 7403TIP3    H222174   3.317   0.592   4.621  0.1833 -2.0644  1.1434
 7404TIP3   OH222175   5.882   5.252   0.230 -0.4288  0.1138  0.4310
 7404TIP3    H122176   5.923   5.338   0.220 -0.8269  0.1957 -0.6777
 7404TIP3    H222177   5.935   5.207   0.296  0.0460  1.0426  0.7038
 7405TIP3   OH222178   4.030   6.135   2.606 -0.2390  0.5224 -0.8776
 7405TIP3    H122179   3.995   6.116   2.693 -1.7209  1.0580 -1.3352
 7405TIP3    H222180   4.089   6.209   2.620  1.9305 -1.2876  0.1352
 7406TIP3   OH222181   1.182   4.282   4.536 -0.3360 -0.4220 -0.4874
 7406TIP3    H122182   1.122   4.322   4.599  0.0053  1.1819 -1.1447
 7406TIP3    H222183   1.162   4.188   4.541 -1.1426 -0.2057  1.1214
 7407TIP3   OH222184   2.139   3.445   4.385  0.2126 -0.4619 -0.2014
 7407TIP3    H122185   2.137   3.429   4.479 -1.8076 -0.4954 -0.2240
 7407TIP3    H222186   2.106   3.364   4.346  0.4748 -0.2321 -0.9142
 7408TIP3   OH222187   5.196   3.823   5.645  0.0302 -0.3062 -0.2858
 7408TIP3    H122188   5.141   3.832   5.722  0.9817  0.4250  0.3250
 7408TIP3    H222189   5.281   3.856   5.672 -0.0923  1.7956 -2.1743
 7409TIP3   OH222190   4.035   4.705   5.871  0.8155 -0.1200 -0.5305
 7409TIP3    H122191   4.034   4.791   5.828  1.2665  0.4543  0.5698
 7409TIP3    H222192   4.102   4.656   5.824 -0.0561 -0.1919 -1.7401
 7410TIP3   OH222193   0.524   3.169   4.933 -0.0035  0.2307 -0.3823
 7410TIP3    H122194   0.597   3.231   4.943 -1.2173  1.5940  0.5329
 7410TIP3    H222195   0.480   3.197   4.853 -0.3859  0.3856 -0.1229
 7411TIP3   OH222196   0.878   3.192   1.704  0.0205 -0.1039  0.0227
 7411TIP3    H122197   0.895   3.110   1.749  0.0963  0.2969  0.7313
 7411TIP3    H222198   0.940   3.254   1.742 -0.5655  0.4720  0.0544
 7412TIP3   OH222199   2.437   5.311   0.344  0.3780 -0.4442  0.5968
 7412TIP3    H122200   2.529   5.321   0.321 -0.0819  2.0581 -0.4695
 7412TIP3    H222201   2.390   5.361   0.278 -1.6614 -0.4684  1.9257
 7413TIP3   OH222202   6.090   3.923   1.332  0.2761  0.1927  0.2357
 7413TIP3    H122203   6.003   3.918   1.294  0.3868 -1.0790  0.0827
 7413TIP3    H222204   6.089   4.001   1.387 -0.5260  0.9370 -0.7983
 7414TIP3   OH222205   1.289   1.368   1.116 -0.2426 -0.1597  0.0518
 7414TIP3    H122206   1.358   1.415   1.163 -0.7817  0.6594  0.0438
 7414TIP3    H222207   1.272   1.290   1.170 -1.0874  0.9268  1.4283
 7415TIP3   OH222208   7.187   4.146   2.124 -0.2361  0.6920 -0.5420
 7415TIP3    H122209   7.194   4.204   2.200  0.7383 -0.5835  0.3900
 7415TIP3    H222210   7.104   4.099   2.137 -0.3574  0.8889 -0.5897
 7416TIP3   OH222211   6.208   0.828   4.006  0.1069 -0.1575 -0.0746
 7416TIP3    H122212   6.227   0.902   4.063 -1.4440 -0.6507  1.1379
 7416TIP3    H222213   6.124   0.794   4.037  0.2352 -1.7373 -1.3183
 7417TIP3   OH222214   2.098   0.338   3.765 -0.2218  0.1424  0.3961
 7417TIP3    H122215   2.087   0.345   3.671 -0.5192  0.1257  0.4304
 7417TIP3    H222216   2.009   0.337   3.800 -0.1577  3.6369  0.9588
 7418TIP3   OH222217   7.033   0.445   1.645 -0.3775 -0.2922 -0.0864
 7418TIP3    H122218   7.078   0.512   1.594 -0.5941 -1.7090 -2.2739
 7418TIP3    H222219   7.102   0.405   1.698 -0.1307  1.1729  0.7510
 7419TIP3   OH222220   7.113   2.434   1.797 -0.1689 -0.3851  0.0886
 7419TIP3    H122221   7.038   2.384   1.764 -0.4798  0.5802 -0.7308
 7419TIP3    H222222   7.189   2.385   1.765 -0.4656  0.0591 -1.3739
 7420TIP3   OH222223   3.926   6.565   3.263 -0.1424  0.3808  0.0668
 7420TIP3    H122224   4.017   6.586   3.243  1.0264 -3.0274  1.0315
 7420TIP3    H222225   3.927   6.542   3.356 -1.1506 -2.8730 -0.5835
 7421TIP3   OH222226   4.590   1.195   3.429 -0.3792 -0.4305  0.2413
 7421TIP3    H122227   4.675   1.165   3.398 -0.0112  0.1142  0.6849
 7421TIP3    H222228   4.529   1.173   3.359  0.0853 -1.0622  0.0344
 7422TIP3   OH222229   3.395   4.739   4.023  0.2700 -0.0261 -0.3010
 7422TIP3    H122230   3.356   4.738   3.936  1.3958 -1.8551 -0.8546
 7422TIP3    H222231   3.485   4.707   4.009  0.5300 -0.1986  1.5025
 7423TIP3   OH222232   1.113   4.354   5.799 -0.4582 -0.2833  0.4004
 7423TIP3    H122233   1.103   4.355   5.704  0.8257  1.3172  0.2392
 7423TIP3    H222234   1.024   4.350   5.833 -0.9166 -1.4541 -0.8483
 7424TIP3   OH222235   4.071   0.771   3.993 -0.6896 -0.3464  0.5083
 7424TIP3    H122236   4.019   0.787   4.071 -0.2190  1.3660  0.5158
 7424TIP3    H222237   4.162   0.783   4.021 -0.5181  0.3250 -0.2815
 7425TIP3   OH222238   2.184   1.004   1.441  0.2590 -0.0490  0.3904
 7425TIP3    H122239   2.130   1.082   1.459  1.5107  0.8764  0.2875
 7425TIP3    H222240   2.214   0.976   1.527  0.7988  0.3314  0.3313
 7426TIP3   OH222241   5.264   1.925   1.533  0.1240  0.2066  0.4131
 7426TIP3    H122242   5.296   2.015   1.528  2.0844 -0.4824 -0.6271
 7426TIP3    H222243   5.189   1.929   1.591 -0.6047  2.7199 -0.5781
 7427TIP3   OH222244   7.220   2.713   0.805  0.0577  0.2507  0.6417
 7427TIP3    H122245   7.143   2.674   0.762  0.5323 -2.1772  1.7915
 7427TIP3    H222246   7.212   2.807   0.788 -3.1402  0.1068  0.6885
 7428TIP3   OH222247   4.537   0.313   5.236  0.6272  0.0032  0.0162
 7428TIP3    H122248   4.505   0.344   5.321  1.3561 -0.1000  0.3347
 7428TIP3    H222249   4.547   0.393   5.184  0.9411  0.1442  0.2917
 7429TIP3   OH222250   4.845   2.011   0.623 -0.1894  0.5957  0.1967
 7429TIP3    H122251   4.845   2.034   0.530  1.4733  0.4211  0.1228
 7429TIP3    H222252   4.812   2.090   0.666  0.7462  1.3648 -0.4329
 7430TIP3   OH222253   3.775   0.180   5.509 -0.5584  0.0152  0.5416
 7430TIP3    H122254   3.745   0.090   5.525 -0.5607  0.2070  1.7141
 7430TIP3    H222255   3.761   0.194   5.415 -0.1427 -1.3585  0.2555
 7431TIP3   OH222256   4.348   0.066   3.186 -0.6609 -0.3308  0.0063
 7431TIP3    H122257   4.375  -0.015   3.142 -0.2888  0.2983 -0.9543
 7431TIP3    H222258   4.388   0.061   3.273  1.0130 -0.2917 -0.7290
 7432TIP3   OH222259   5.025   1.174   5.717  0.2386 -0.0104 -0.1556
 7432TIP3    H122260   5.099   1.174   5.656  0.5440  0.6443  0.2069
 7432TIP3    H222261   5.064   1.185   5.803 -0.1547 -1.4477  0.2407
 7433TIP3   OH222262   0.066   6.620   0.344  0.1301 -0.3061 -0.4122
 7433TIP3    H122263  -0.005   6.586   0.398  1.0853  0.0240  1.1122
 7433TIP3    H222264   0.090   6.546   0.287  1.2506 -1.8205  1.8800
 7434TIP3   OH222265   4.527   0.235   0.371 -0.2013 -0.2163 -0.2554
 7434TIP3    H122266   4.452   0.206   0.422 -0.2449 -1.1188 -0.8130
 7434TIP3    H222267   4.603   0.214   0.426 -0.3468  0.8903  0.3999
 7435TIP3   OH222268   6.366   2.557   3.986 -0.1313  0.0736 -0.2073
 7435TIP3    H122269   6.400   2.618   3.921 -0.6225  0.3178 -0.2427
 7435TIP3    H222270   6.403   2.588   4.069 -3.5664  3.0561  0.4801
 7436TIP3   OH222271   6.690   0.379   4.357  0.3264  0.2094 -0.4384
 7436TIP3    H122272   6.728   0.465   4.377  0.1587  0.0011  0.9298
 7436TIP3    H222273   6.609   0.377   4.408 -0.4257 -0.2000 -1.6125
 7437TIP3   OH222274   2.417   0.202   2.346  0.1563  0.2933 -0.3015
 7437TIP3    H122275   2.431   0.248   2.430 -1.9678  1.5417 -0.5585
 7437TIP3    H222276   2.406   0.111   2.371  0.0493  0.5676  0.7376
 7438TIP3   OH222277   4.403   6.300   2.002  0.6849 -0.3004  0.4238
 7438TIP3    H122278   4.398   6.250   2.084 -0.5504  0.7879  1.0572
 7438TIP3    H222279   4.474   6.259   1.953  0.7558 -1.6544  1.5875
 7439TIP3   OH222280   1.131   1.998   2.244  0.2679 -0.3110 -0.0737
 7439TIP3    H122281   1.208   1.958   2.285  0.8385  1.0498  0.2301
 7439TIP3    H222282   1.150   1.998   2.151  0.3427 -0.5953 -0.0584
 7440TIP3   OH222283   0.188   6.605   2.962 -0.2902  0.3193 -0.1002
 7440TIP3    H122284   0.270   6.561   2.986  0.3021  0.2875 -2.0529
 7440TIP3    H222285   0.203   6.697   2.985  0.0472  0.2156  0.1082
 7441TIP3   OH222286   5.506   6.222   4.425  0.1836  0.4249  0.4429
 7441TIP3    H122287   5.438   6.156   4.438  1.6796 -1.4435 -0.6011
 7441TIP3    H222288   5.460   6.297   4.386 -1.1188 -1.2851 -1.5367
 7442TIP3   OH222289   2.648   0.019   4.457  0.3242 -0.3787 -0.8889
 7442TIP3    H122290   2.612   0.027   4.368  0.5744  0.5029 -0.9235
 7442TIP3    H222291   2.577  -0.018   4.509  0.1557 -0.8487 -1.4475
 7443TIP3   OH222292   5.818   5.273   2.192 -0.0630  0.0005 -0.1272
 7443TIP3    H122293   5.739   5.248   2.239  0.3218 -1.3655 -0.1674
 7443TIP3    H222294   5.794   5.354   2.147 -1.4071 -0.3247 -0.0450
 7444TIP3   OH222295   3.026   5.371   5.151 -0.5183  0.2351  0.8472
 7444TIP3    H122296   3.098   5.343   5.207  0.5935 -0.7054 -0.9556
 7444TIP3    H222297   2.955   5.310   5.171 -0.2636  0.1279  1.4498
 7445TIP3   OH222298   4.198   4.074   3.796 -0.3720 -0.3558  0.1426
 7445TIP3    H122299   4.113   4.111   3.771 -0.0500 -0.7845 -1.6948
 7445TIP3    H222300   4.260   4.114   3.736  0.9921  0.9029  2.2449
 7446TIP3   OH222301   2.650   4.609   5.335  0.0933 -0.0043  0.1095
 7446TIP3    H122302   2.651   4.569   5.422 -2.8705  0.0475  0.2686
 7446TIP3    H222303   2.690   4.543   5.278  2.3369  0.0680  1.4583
 7447TIP3   OH222304   1.071   5.871   0.467 -0.3016  0.0144 -0.0573
 7447TIP3    H122305   0.985   5.843   0.437 -0.1310 -1.7766  0.9669
 7447TIP3    H222306   1.132   5.810   0.425  0.1961 -0.4996  1.3496
 7448TIP3   OH222307   5.973   1.614   3.984 -0.0590 -0.4242 -0.0423
 7448TIP3    H122308   6.061   1.594   4.017  0.2673 -0.5991 -0.9882
 7448TIP3    H222309   5.973   1.709   3.973 -0.8451 -0.0931  2.2965
 7449TIP3   OH222310   2.484   4.049   3.914  0.1012 -0.4621 -0.2797
 7449TIP3    H122311   2.430   4.106   3.968  0.2056 -0.1674 -0.4869
 7449TIP3    H222312   2.551   4.016   3.975  0.0660 -0.3323 -0.1691
 7450TIP3   OH222313   0.317   0.267   4.327  0.1599  0.1449  0.4642
 7450TIP3    H122314   0.370   0.334   4.284  1.5697 -0.1765  1.6259
 7450TIP3    H222315   0.371   0.237   4.400 -0.3325 -2.4394 -0.1501
 7451TIP3   OH222316   0.451   2.883   2.789 -0.2330  0.0400  0.3930
 7451TIP3    H122317   0.489   2.841   2.712 -2.3187  0.1091 -0.7514
 7451TIP3    H222318   0.494   2.841   2.863  1.3708 -0.4878 -0.7910
 7452TIP3   OH222319   3.965   0.161   1.240 -0.4321 -0.2528  0.5854
 7452TIP3    H122320   3.989   0.199   1.325  0.2638  0.7124 -0.0259
 7452TIP3    H222321   3.915   0.230   1.196  0.4469 -0.2027 -0.3589
 7453TIP3   OH222322   7.075   1.869   1.490  0.3292  0.5223  0.2561
 7453TIP3    H122323   6.979   1.864   1.496  0.2801  0.8280 -0.2013
 7453TIP3    H222324   7.101   1.922   1.565  0.0514  1.2849 -0.1811
 7454TIP3   OH222325   6.450   3.354   2.933  0.1821  0.4111 -0.1201
 7454TIP3    H122326   6.381   3.406   2.974  1.0180  1.2868  0.2109
 7454TIP3    H222327   6.421   3.343   2.842  0.7778  2.9736 -0.7080
 7455TIP3   OH222328   6.157   2.468   5.667  0.1750 -0.1817  0.1773
 7455TIP3    H122329   6.155   2.543   5.608 -0.6709 -0.4016 -0.0927
 7455TIP3    H222330   6.236   2.480   5.719  2.2667 -1.1948 -2.5392
 7456TIP3   OH222331   7.001   1.183   3.937 -0.8264  0.0449  0.1541
 7456TIP3    H122332   6.908   1.178   3.911 -0.4976 -0.3295 -1.0030
 7456TIP3    H222333   7.046   1.211   3.857  0.1772 -0.6604  0.4610
 7457TIP3   OH222334   1.067   4.482   0.948  0.6304  0.2892  0.2239
 7457TIP3    H122335   1.141   4.500   1.006  0.4537 -0.2017  0.6060
 7457TIP3    H222336   1.075   4.389   0.926  0.5096  0.3938 -0.2760
 7458TIP3   OH222337   4.758   1.294   4.321 -0.1700 -0.3103 -0.5761
 7458TIP3    H122338   4.802   1.316   4.239  0.5598  0.2248 -0.0484
 7458TIP3    H222339   4.785   1.203   4.338  0.9436  0.0785 -0.1446
 7459TIP3   OH222340   1.314   2.247   0.490  0.2961  0.2096  0.5174
 7459TIP3    H122341   1.258   2.273   0.417 -0.0260 -1.1844  0.2362
 7459TIP3    H222342   1.386   2.311   0.489 -0.1594  0.7287 -0.4655
 7460TIP3   OH222343   4.880   4.963   3.541  0.7365 -0.2124 -0.3906
 7460TIP3    H122344   4.892   5.048   3.498  0.7922  1.2799  2.3427
 7460TIP3    H222345   4.964   4.918   3.530  1.9416  1.5738  1.0609
 7461TIP3   OH222346   4.585   6.098   4.941  0.3141 -0.4232 -0.1746
 7461TIP3    H122347   4.616   6.178   4.898  0.0809  0.2678  0.8975
 7461TIP3    H222348   4.491   6.096   4.923  0.3741 -0.6259 -0.4654
 7462TIP3   OH222349   4.032   5.365   5.190 -0.3709  0.9381 -0.7047
 7462TIP3    H122350   4.116   5.325   5.167  0.0377  1.7539 -0.6812
 7462TIP3    H222351   4.012   5.422   5.116  0.4772  2.8536  0.4489
 7463TIP3   OH222352   4.453   5.199   0.362  0.4531 -0.3062  0.2264
 7463TIP3    H122353   4.537   5.240   0.384  0.5807  0.5135 -1.6527
 7463TIP3    H222354   4.462   5.173   0.271 -1.2330 -0.5229  0.0906
 7464TIP3   OH222355   4.286   6.721   3.972  0.1201  0.4197  0.2023
 7464TIP3    H122356   4.307   6.808   4.007 -1.9283  0.3524  1.7802
 7464TIP3    H222357   4.208   6.735   3.918 -0.0759 -0.4141  0.2599
 7465TIP3   OH222358   1.022   2.679   5.827 -0.2661  0.0859 -0.7606
 7465TIP3    H122359   1.088   2.632   5.878 -0.6202 -0.4746 -0.8214
 7465TIP3    H222360   1.069   2.756   5.794  0.2204 -0.0394 -0.3821
 7466TIP3   OH222361   1.282   6.272   1.104 -0.1927  0.8603 -0.2384
 7466TIP3    H122362   1.368   6.312   1.114 -0.5073  1.3493  0.6568
 7466TIP3    H222363   1.285   6.194   1.158 -0.2025  0.6858 -0.4859
 7467TIP3   OH222364   2.255   1.445   1.294 -0.5866 -0.5442  0.0840
 7467TIP3    H122365   2.236   1.475   1.205 -2.2382  0.2998  0.6866
 7467TIP3    H222366   2.308   1.366   1.282 -2.4273 -1.5832 -1.6824
 7468TIP3   OH222367   2.473   4.475   2.631  0.4685 -0.2573 -0.3583
 7468TIP3    H122368   2.476   4.380   2.641  0.3761 -0.2913 -0.6368
 7468TIP3    H222369   2.397   4.503   2.683  0.4139 -0.3513 -0.3879
 7469TIP3   OH222370   5.988   6.683   4.896  0.2816  0.4677 -0.8703
 7469TIP3    H122371   6.002   6.716   4.807  0.7017 -1.0405 -1.3914
 7469TIP3    H222372   5.894   6.666   4.900 -0.0346  2.0715 -0.4296
 7470TIP3   OH222373   1.821   4.135   1.591 -0.1983 -0.1496  0.2726
 7470TIP3    H122374   1.825   4.214   1.538  2.5247  0.3330  1.0366
 7470TIP3    H222375   1.810   4.167   1.681 -1.6423 -0.7967  0.3490
 7471TIP3   OH222376   1.348   5.919   5.461 -0.1299 -0.4567 -0.2317
 7471TIP3    H122377   1.436   5.895   5.433 -0.8490 -2.1905 -1.0906
 7471TIP3    H222378   1.290   5.856   5.418 -1.5940 -0.9470  2.2657
 7472TIP3   OH222379   3.824   1.215   1.145  0.2177  0.0117 -0.2014
 7472TIP3    H122380   3.775   1.170   1.076  0.0988 -0.4361  0.1681
 7472TIP3    H222381   3.902   1.161   1.159 -0.3545 -0.5802  0.8510
 7473TIP3   OH222382   7.074   5.634   0.857 -0.3482 -0.2679  0.4663
 7473TIP3    H122383   7.059   5.717   0.900  1.7595  0.0345  0.7249
 7473TIP3    H222384   7.136   5.587   0.914 -0.1158 -1.2521 -0.5373
 7474TIP3   OH222385   0.530   3.191   5.790 -0.0163 -0.3045  0.3245
 7474TIP3    H122386   0.529   3.274   5.743  3.0599  0.2875  1.0958
 7474TIP3    H222387   0.460   3.139   5.750 -0.8994  2.0247 -1.3191
 7475TIP3   OH222388   4.148   4.520   3.312  0.0888 -0.7534  0.0067
 7475TIP3    H122389   4.207   4.595   3.304  0.0984 -0.8258 -0.6440
 7475TIP3    H222390   4.196   4.459   3.368 -0.1098 -0.0987  0.9196
 7476TIP3   OH222391   5.104   6.371   5.052  0.0989  0.1050 -0.6319
 7476TIP3    H122392   5.084   6.349   5.143  0.8239  0.8565 -0.2778
 7476TIP3    H222393   5.200   6.376   5.050  0.0596  0.6611 -1.2992
 7477TIP3   OH222394   1.328   6.752   5.824  0.2599 -0.2099 -0.4011
 7477TIP3    H122395   1.313   6.690   5.895 -0.0572  0.7251  0.3597
 7477TIP3    H222396   1.244   6.795   5.811  0.6405  0.5225 -0.4803
 7478TIP3   OH222397   2.660   4.283   2.382 -0.1202  0.1788 -0.2718
 7478TIP3    H122398   2.745   4.239   2.382  0.4081  1.0945 -2.1103
 7478TIP3    H222399   2.633   4.281   2.474  2.3777  0.7500  0.5745
 7479TIP3   OH222400   3.658   5.730   5.206 -0.3856  0.1107 -0.0616
 7479TIP3    H122401   3.692   5.780   5.132  1.4187 -0.3948  0.3823
 7479TIP3    H222402   3.703   5.646   5.202 -0.7165 -0.1606  1.2512
 7480TIP3   OH222403   1.918   1.125   3.571  0.3756 -0.6384  0.2666
 7480TIP3    H122404   1.844   1.168   3.528  1.5676  0.6579 -0.5826
 7480TIP3    H222405   1.988   1.127   3.505  1.5273 -0.7835  1.4426
 7481TIP3   OH222406   5.715   4.662   3.757 -0.4640  0.5487 -0.4774
 7481TIP3    H122407   5.670   4.578   3.747  0.6772 -0.2054  0.4993
 7481TIP3    H222408   5.744   4.684   3.668 -0.4130 -0.3088 -0.6829
 7482TIP3   OH222409   6.337   5.598   3.562  0.2042  0.3324  0.1707
 7482TIP3    H122410   6.418   5.648   3.555  1.4496 -1.5651  0.0839
 7482TIP3    H222411   6.355   5.535   3.632 -2.4975  2.0819  2.6164
 7483TIP3   OH222412   4.258   1.973   2.773 -0.3481 -0.1046 -0.1873
 7483TIP3    H122413   4.266   1.958   2.679  1.1302 -3.7584  0.3691
 7483TIP3    H222414   4.311   2.052   2.789  2.5899 -1.5186 -2.0169
 7484TIP3   OH222415   2.741   0.581   4.409  0.1598 -1.0581  0.2901
 7484TIP3    H122416   2.702   0.528   4.339  0.1730  0.0435 -0.5773
 7484TIP3    H222417   2.670   0.639   4.437  0.9932  0.7022 -1.0367
 7485TIP3   OH222418   1.732   3.071   3.773  0.2195  0.6287  0.0947
 7485TIP3    H122419   1.660   3.081   3.835 -1.3921  0.3581 -1.6261
 7485TIP3    H222420   1.715   3.136   3.705 -1.2055 -2.4874 -2.8117
 7486TIP3   OH222421   5.313   3.147   5.329 -0.2657 -0.4780 -0.4737
 7486TIP3    H122422   5.275   3.060   5.334  0.0648 -0.6326 -0.6200
 7486TIP3    H222423   5.247   3.205   5.368 -0.0478 -0.9193  0.5804
 7487TIP3   OH222424   0.293   6.265   3.943 -0.4929  0.3595  0.0794
 7487TIP3    H122425   0.315   6.218   4.023  2.7223  0.4439 -0.6047
 7487TIP3    H222426   0.300   6.199   3.874 -0.0538  0.9467 -0.4498
 7488TIP3   OH222427   1.542   1.711   1.606 -0.2507 -0.1160  0.0344
 7488TIP3    H122428   1.559   1.741   1.516 -1.4586 -0.2516 -0.2605
 7488TIP3    H222429   1.534   1.616   1.598  0.4117 -0.2132  0.4322
 7489TIP3   OH222430   2.698   2.480   5.056  0.5099  0.1440  0.4651
 7489TIP3    H122431   2.663   2.410   5.112  1.2477 -1.9270 -1.4906
 7489TIP3    H222432   2.622   2.508   5.004 -0.0420  1.6575  2.0104
 7490TIP3   OH222433   0.369   4.721   4.686 -0.1630 -0.3821  0.6228
 7490TIP3    H122434   0.316   4.692   4.760  1.0330 -0.3098  1.5301
 7490TIP3    H222435   0.438   4.774   4.725  2.1677 -2.5909 -0.1788
 7491TIP3   OH222436   3.763   4.587   2.940  0.4783 -0.5007  0.1502
 7491TIP3    H122437   3.771   4.514   2.877  0.9228  0.1197 -0.5291
 7491TIP3    H222438   3.828   4.651   2.910 -1.7757  1.4286 -0.9678
 7492TIP3   OH222439   2.086   1.390   0.351 -0.4338 -0.7171 -0.0469
 7492TIP3    H122440   2.163   1.345   0.386 -1.2966 -0.9433  1.6239
 7492TIP3    H222441   2.031   1.320   0.317 -0.7067 -0.7238  0.4009
 7493TIP3   OH222442   2.549   1.810   5.806  0.2153  0.2780  0.2246
 7493TIP3    H122443   2.474   1.768   5.764  1.0890 -0.6483 -0.4423
 7493TIP3    H222444   2.544   1.782   5.898  0.3717 -0.6916 -0.0542
 7494TIP3   OH222445   1.505   3.303   2.749 -0.1212 -0.6217 -0.0336
 7494TIP3    H122446   1.515   3.249   2.828  0.3333 -1.8718 -0.9177
 7494TIP3    H222447   1.594   3.315   2.717 -0.3536 -0.5831 -0.6615
 7495TIP3   OH222448   6.938   0.783   1.359 -0.3270 -0.1482 -0.3202
 7495TIP3    H122449   6.865   0.722   1.349  0.5886 -1.2497 -0.4539
 7495TIP3    H222450   6.901   0.868   1.336 -1.5139 -0.7156 -0.5960
 7496TIP3   OH222451   4.625   2.088   0.933  0.1811 -0.8698  0.0743
 7496TIP3    H122452   4.542   2.132   0.950 -0.2162 -1.3128 -0.6538
 7496TIP3    H222453   4.602   1.995   0.927  0.6392 -0.9417 -0.6467
 7497TIP3   OH222454   6.082   5.645   5.706 -0.5846  0.0454 -0.4134
 7497TIP3    H122455   6.130   5.715   5.662 -0.8623  0.1623 -0.5316
 7497TIP3    H222456   6.104   5.566   5.657 -2.3913  0.4421 -1.9829
 7498TIP3   OH222457   3.083   3.370   5.368  0.2053 -0.3345 -0.2263
 7498TIP3    H122458   3.176   3.356   5.353  1.1048  3.8361  0.0717
 7498TIP3    H222459   3.068   3.461   5.341 -3.3837 -0.2653  1.4064
 7499TIP3   OH222460   6.400   6.647   4.600 -0.9046  0.7243 -0.0127
 7499TIP3    H122461   6.480   6.699   4.589 -0.5911  0.1194 -0.6793
 7499TIP3    H222462   6.405   6.581   4.532 -0.9947 -0.5669  1.1931
 7500TIP3   OH222463   6.893   0.804   2.447  0.0200  0.0843  0.2320
 7500TIP3    H122464   6.896   0.732   2.384 -1.4342  0.8167 -0.7075
 7500TIP3    H222465   6.805   0.800   2.485 -0.7419  2.3492 -1.0779
 7501TIP3   OH222466   2.305   4.713   2.889 -0.3649  0.2798 -0.0281
 7501TIP3    H122467   2.240   4.649   2.859 -0.1307 -0.4557  0.9473
 7501TIP3    H222468   2.279   4.795   2.849 -1.4452 -0.1689 -0.2822
 7502TIP3   OH222469   2.869   6.197   0.601 -0.1551  0.1645  0.0492
 7502TIP3    H122470   2.887   6.160   0.515  2.5466 -0.0080  0.6017
 7502TIP3    H222471   2.862   6.121   0.659  3.4537  0.2485  0.8358
 7503TIP3   OH222472   0.820   4.767   1.700 -0.5247 -0.0610  0.6793
 7503TIP3    H122473   0.728   4.744   1.710 -0.4280  0.0613  1.9587
 7503TIP3    H222474   0.859   4.691   1.655 -1.1252 -0.3527  0.6394
 7504TIP3   OH222475   2.687   5.952   5.267 -0.0710 -0.1718  0.5992
 7504TIP3    H122476   2.609   5.994   5.230 -0.1451 -1.3823 -0.6899
 7504TIP3    H222477   2.755   5.964   5.201  0.1334 -1.3305  0.5730
 7505TIP3   OH222478   1.394   4.133   1.017 -0.1473 -0.1853  0.0760
 7505TIP3    H122479   1.388   4.116   1.112  0.3331  0.9222  0.3126
 7505TIP3    H222480   1.475   4.183   1.007  1.6658 -3.0983 -1.3497
 7506TIP3   OH222481   2.462   3.196   1.542  0.0307 -0.5308 -0.0637
 7506TIP3    H122482   2.515   3.222   1.617 -1.0436  1.0712  0.1969
 7506TIP3    H222483   2.435   3.279   1.502 -0.6592 -1.3329 -1.3277
 7507TIP3   OH222484   4.958   1.215   2.471 -0.4622  0.0459 -0.5865
 7507TIP3    H122485   4.877   1.218   2.521 -1.9189 -1.2187 -2.7261
 7507TIP3    H222486   4.945   1.278   2.400  1.7451  2.1460  0.6953
 7508TIP3   OH222487   0.506   2.007   5.805  0.9830 -0.3273 -0.4277
 7508TIP3    H122488   0.507   2.096   5.841 -0.4089 -0.2826 -0.4456
 7508TIP3    H222489   0.599   1.987   5.787  1.4918  0.4323  1.1974
 7509TIP3   OH222490   5.996   0.561   1.107 -0.7624 -0.0171 -0.1879
 7509TIP3    H122491   6.038   0.497   1.165  0.9067  1.5285  0.4108
 7509TIP3    H222492   6.001   0.521   1.020  0.6498 -0.5203  0.0939
 7510TIP3   OH222493   6.420   0.122   0.491 -0.2005 -0.1980 -0.4788
 7510TIP3    H122494   6.334   0.093   0.460 -0.3070 -0.4925  0.0842
 7510TIP3    H222495   6.423   0.215   0.469  0.3627 -0.7021 -2.7849
 7511TIP3   OH222496   0.893   6.064   2.164  0.1593  0.1935 -0.2038
 7511TIP3    H122497   0.974   6.014   2.159 -0.1556 -0.2803 -0.7269
 7511TIP3    H222498   0.917   6.146   2.207  1.1883  0.6380 -1.5518
 7512TIP3   OH222499   6.147   3.941   1.730 -0.1986 -0.4964 -0.1273
 7512TIP3    H122500   6.119   4.007   1.666  1.2636  0.7865  0.5005
 7512TIP3    H222501   6.210   3.887   1.683  0.4265  0.0723  0.0555
 7513TIP3   OH222502   1.371   1.289   3.507  0.1915  0.0726 -0.4063
 7513TIP3    H122503   1.376   1.371   3.556  0.4918  0.6778 -1.4248
 7513TIP3    H222504   1.313   1.233   3.559 -1.8142  1.6928 -0.7608
 7514TIP3   OH222505   3.937   6.737   1.861  0.2450 -0.3546  0.0163
 7514TIP3    H122506   3.914   6.789   1.938  1.1044  0.3304 -0.1646
 7514TIP3    H222507   3.914   6.647   1.884  0.5083 -0.1573  1.0815
 7515TIP3   OH222508   6.072   0.515   0.741 -0.0531 -0.2246 -0.5128
 7515TIP3    H122509   6.139   0.449   0.724  0.5925  0.1075  0.6230
 7515TIP3    H222510   6.080   0.576   0.668  0.8454 -0.2273 -0.4305
 7516TIP3   OH222511   1.402   3.810   4.325 -0.4521 -0.3052  0.7833
 7516TIP3    H122512   1.408   3.872   4.397  1.8797 -0.2954  0.6372
 7516TIP3    H222513   1.368   3.862   4.252  0.1223  0.4674  1.0487
 7517TIP3   OH222514   6.378   6.121   1.067  0.9496  0.5613  0.1024
 7517TIP3    H122515   6.336   6.047   1.024 -0.2555 -0.0198  2.1749
 7517TIP3    H222516   6.305   6.176   1.097  1.7809  1.5161  0.4491
 7518TIP3   OH222517   0.672   3.310   5.329  0.0790  0.3054 -0.0566
 7518TIP3    H122518   0.724   3.376   5.284 -0.3061 -1.3976 -3.3277
 7518TIP3    H222519   0.727   3.232   5.329 -0.7012 -0.2754  0.7799
 7519TIP3   OH222520   6.921   1.139   5.720  0.4061 -0.0566  0.2137
 7519TIP3    H122521   6.917   1.046   5.745  0.2739  0.0451  0.5793
 7519TIP3    H222522   6.870   1.184   5.787  1.3185  0.4001  0.6153
 7520TIP3   OH222523   3.640   6.585   1.949 -0.0360  0.5029  0.7665
 7520TIP3    H122524   3.584   6.647   1.997 -0.1237 -0.4763  2.0015
 7520TIP3    H222525   3.580   6.516   1.921  0.2433  0.4171  0.3758
 7521TIP3   OH222526   5.120   1.243   1.800  0.1349  0.2620 -0.2437
 7521TIP3    H122527   5.134   1.245   1.706 -0.0703 -1.5156 -0.3398
 7521TIP3    H222528   5.205   1.216   1.836 -0.0388  0.0371  0.0014
 7522TIP3   OH222529   0.345   5.612   4.666 -0.1008  0.3125 -0.0885
 7522TIP3    H122530   0.301   5.697   4.677 -2.7938 -0.6794 -2.0743
 7522TIP3    H222531   0.392   5.620   4.583 -0.7231 -0.2628 -0.4994
 7523TIP3   OH222532   0.614   2.325   1.776 -0.2260 -0.3888 -0.5908
 7523TIP3    H122533   0.529   2.369   1.783  0.1112  0.6816 -2.5858
 7523TIP3    H222534   0.603   2.262   1.705  0.4492 -0.7612 -0.3715
 7524TIP3   OH222535   2.963   1.541   2.437  0.1597  0.4231  0.2815
 7524TIP3    H122536   2.960   1.580   2.525 -0.1758  0.4045  0.2824
 7524TIP3    H222537   3.052   1.555   2.407 -0.2713  2.3930 -0.2567
 7525TIP3   OH222538   5.063   0.314   4.863 -0.0236 -0.2821  0.4491
 7525TIP3    H122539   5.097   0.360   4.787 -1.5456  0.6910  0.3025
 7525TIP3    H222540   4.995   0.256   4.828  1.9671 -2.9181  0.5995
 7526TIP3   OH222541   2.128   4.948   1.625 -0.2960 -0.0185 -0.2271
 7526TIP3    H122542   2.164   5.011   1.563  0.3683 -1.0258 -0.8991
 7526TIP3    H222543   2.148   4.985   1.711  0.4794  0.4678 -0.6026
 7527TIP3   OH222544   0.999   0.822   3.942  0.0045  0.4167 -0.0429
 7527TIP3    H122545   1.088   0.804   3.973 -0.5021 -0.2180  1.1237
 7527TIP3    H222546   1.011   0.880   3.867  1.4189  0.0528 -0.1362
 7528TIP3   OH222547   5.905   6.793   5.581  0.3300 -0.3683  0.0991
 7528TIP3    H122548   5.828   6.747   5.615  0.0061 -0.8189 -1.1978
 7528TIP3    H222549   5.980   6.742   5.614  0.1470  0.4505  1.9288
 7529TIP3   OH222550   2.289   3.634   3.051  0.3109  0.2229 -0.0338
 7529TIP3    H122551   2.207   3.585   3.061  0.7064 -0.7729 -1.3533
 7529TIP3    H222552   2.271   3.719   3.091 -1.7574  0.4634 -1.3151
 7530TIP3   OH222553   0.054   2.275   1.584 -0.7040 -0.4892  0.0634
 7530TIP3    H122554  -0.010   2.229   1.529 -0.0237 -1.2105 -0.1467
 7530TIP3    H222555   0.105   2.328   1.523 -0.6279 -0.4821  0.1323
 7531TIP3   OH222556   4.014   1.824   3.693 -0.2142  0.4680 -0.0081
 7531TIP3    H122557   4.087   1.792   3.640  0.0291  0.5666  0.2622
 7531TIP3    H222558   3.983   1.902   3.647 -1.4536 -0.6774 -1.2125
 7532TIP3   OH222559   3.505   4.427   1.472  0.6711 -0.0074 -0.1324
 7532TIP3    H122560   3.519   4.411   1.378  0.5127  0.0047 -0.1588
 7532TIP3    H222561   3.412   4.407   1.486  0.7495 -0.2200  0.0683
 7533TIP3   OH222562   0.785   5.596   2.092  0.0405 -0.2516  0.3350
 7533TIP3    H122563   0.742   5.513   2.071 -1.1900  0.7045 -1.1826
 7533TIP3    H222564   0.716   5.650   2.129  0.1741  0.9119 -1.0314
 7534TIP3   OH222565   4.476   0.527   5.045  0.3828  0.4357 -0.3568
 7534TIP3    H122566   4.533   0.577   4.986 -0.4845  0.2933 -1.3467
 7534TIP3    H222567   4.417   0.593   5.082 -0.7259  0.2244 -1.6211
 7535TIP3   OH222568   6.844   5.928   0.635 -0.5451  0.3670 -0.1017
 7535TIP3    H122569   6.889   6.011   0.651 -0.4262  0.7556 -2.1376
 7535TIP3    H222570   6.914   5.863   0.629 -0.4721  0.4743 -0.4406
 7536TIP3   OH222571   0.429   5.272   2.498 -0.1812  0.4284 -0.1319
 7536TIP3    H122572   0.486   5.343   2.528 -0.7749  0.8394  0.0412
 7536TIP3    H222573   0.398   5.301   2.412 -0.0163  0.1341 -0.2945
 7537TIP3   OH222574   4.379   6.812   2.687  0.0165 -0.4153 -0.4469
 7537TIP3    H122575   4.368   6.719   2.706 -3.3616 -0.1914 -0.6464
 7537TIP3    H222576   4.409   6.851   2.769 -3.0715 -1.1133  1.1676
 7538TIP3   OH222577   6.074   4.360   1.495 -1.0291  0.1691 -0.3773
 7538TIP3    H122578   6.025   4.362   1.577 -1.7193 -0.7187 -0.7580
 7538TIP3    H222579   6.163   4.335   1.521 -1.0484  0.6773  0.1880
 7539TIP3   OH222580   3.386   2.634   0.435 -0.3438 -0.0862 -0.4466
 7539TIP3    H122581   3.346   2.710   0.480  0.2491 -0.6076  1.0238
 7539TIP3    H222582   3.311   2.585   0.401 -0.7220  1.4836 -2.0426
 7540TIP3   OH222583   1.801   1.624   0.090 -0.0742 -0.3217  0.3486
 7540TIP3    H122584   1.755   1.601   0.010  1.4149  1.4124 -1.1208
 7540TIP3    H222585   1.743   1.686   0.134 -0.9648 -1.3903  0.7098
 7541TIP3   OH222586   2.894   3.871   5.633 -0.5924  0.3332 -0.1281
 7541TIP3    H122587   2.934   3.883   5.719 -0.9056 -2.4690  0.4839
 7541TIP3    H222588   2.968   3.870   5.572 -0.3665  2.2935  0.0318
 7542TIP3   OH222589   0.480   5.703   4.455  0.5660 -0.0772  0.3984
 7542TIP3    H122590   0.532   5.783   4.455 -0.1780  0.4281  0.1309
 7542TIP3    H222591   0.427   5.709   4.375  0.3513 -0.7354  0.4830
 7543TIP3   OH222592   6.621   0.637   0.335  0.1699 -0.4033  0.3839
 7543TIP3    H122593   6.564   0.596   0.269  0.4613 -1.4472  0.7602
 7543TIP3    H222594   6.698   0.665   0.286 -0.7496  1.3041 -0.1910
 7544TIP3   OH222595   5.922   4.866   4.041 -0.4586 -0.4184 -0.1344
 7544TIP3    H122596   5.884   4.804   3.979  1.5285 -0.5190 -1.3241
 7544TIP3    H222597   5.919   4.950   3.994  0.6245 -0.4103 -0.2175
 7545TIP3   OH222598   1.114   4.975   1.463 -0.6310  0.3186 -0.3919
 7545TIP3    H122599   1.120   4.905   1.529  1.4792 -0.3102 -1.1610
 7545TIP3    H222600   1.117   5.055   1.515  1.0316 -0.1626  0.3513
 7546TIP3   OH222601   3.712   1.376   3.534  0.1726  0.3352  0.1444
 7546TIP3    H122602   3.776   1.330   3.589  0.1354  0.9062  0.6708
 7546TIP3    H222603   3.688   1.311   3.468 -1.2446 -1.0945  1.9202
 7547TIP3   OH222604   2.834   5.547   3.470 -0.1489 -0.4316 -0.0101
 7547TIP3    H122605   2.825   5.615   3.536  1.2886 -1.0930  0.9020
 7547TIP3    H222606   2.793   5.470   3.509  1.0225 -0.9229  0.3021
 7548TIP3   OH222607   4.416   1.438   5.234  0.5256 -0.3552 -0.4201
 7548TIP3    H122608   4.510   1.433   5.248  0.5910  0.0153 -0.7019
 7548TIP3    H222609   4.399   1.378   5.162  0.3440 -1.4459  0.5015
 7549TIP3   OH222610   2.773   2.450   1.322  0.1472  0.2367  0.0972
 7549TIP3    H122611   2.837   2.499   1.270 -0.0997  0.5190  0.0565
 7549TIP3    H222612   2.826   2.391   1.376  0.4451  0.4983  0.0955
 7550TIP3   OH222613   0.448   0.690   2.395  0.1577  0.2321 -0.5363
 7550TIP3    H122614   0.476   0.635   2.468 -1.0874  0.5637  0.2242
 7550TIP3    H222615   0.514   0.759   2.389  0.5004 -0.0474 -0.0050
 7551TIP3   OH222616   3.650   5.293   5.751 -0.5437 -0.3110 -0.2376
 7551TIP3    H122617   3.648   5.266   5.659 -0.8343 -0.6700 -0.1244
 7551TIP3    H222618   3.678   5.215   5.799  1.8542  0.4515 -0.2289
 7552TIP3   OH222619   1.958   0.717   5.792 -0.5238  0.0684 -0.0956
 7552TIP3    H122620   2.013   0.732   5.716 -0.5209 -0.5230 -0.2139
 7552TIP3    H222621   1.872   0.750   5.767 -0.1867  1.1970  0.1674
 7553TIP3   OH222622   2.656   1.136   0.415  0.2621  0.1373 -0.1998
 7553TIP3    H122623   2.722   1.067   0.424 -1.3860 -1.2234  3.4297
 7553TIP3    H222624   2.611   1.115   0.333  2.3165 -0.6853 -1.1995
 7554TIP3   OH222625   4.602   2.426   1.412  0.6203  0.2367  0.2608
 7554TIP3    H122626   4.572   2.488   1.478  0.8873  0.9530 -0.2804
 7554TIP3    H222627   4.527   2.414   1.354  0.9104  0.9101 -0.2631
 7555TIP3   OH222628   2.103   4.892   0.460  0.0326 -0.4199  0.5391
 7555TIP3    H122629   2.141   4.811   0.424 -0.4929 -0.5363  0.2200
 7555TIP3    H222630   2.132   4.960   0.400 -0.6494 -0.5811  0.0015
 7556TIP3   OH222631   5.098   0.584   5.304  0.0063 -0.0301  0.2299
 7556TIP3    H122632   5.038   0.515   5.277 -0.6835  0.1499  1.2434
 7556TIP3    H222633   5.185   0.544   5.299 -0.4075 -1.1159  1.1593
 7557TIP3   OH222634   1.870   6.717   4.524 -0.6397  0.7574  0.2281
 7557TIP3    H122635   1.896   6.690   4.436 -1.2391  0.9695 -0.0163
 7557TIP3    H222636   1.866   6.635   4.574 -0.0521  0.6618  0.1319
 7558TIP3   OH222637   5.411   3.556   0.118  0.7265 -0.1414 -0.5514
 7558TIP3    H122638   5.440   3.508   0.041 -0.9555  0.8810 -1.9024
 7558TIP3    H222639   5.471   3.631   0.123  1.9852 -1.1590  0.2740
 7559TIP3   OH222640   5.504   2.799   0.228  0.0961 -0.3008  0.4265
 7559TIP3    H122641   5.419   2.796   0.273 -0.0312 -0.2196  0.1920
 7559TIP3    H222642   5.526   2.892   0.224 -0.9061 -0.1102 -1.5644
 7560TIP3   OH222643   3.654   6.487   3.818  0.3650 -0.3134 -0.3445
 7560TIP3    H122644   3.744   6.518   3.805  0.8124 -0.7331  1.5382
 7560TIP3    H222645   3.661   6.391   3.814 -0.2819 -0.3342 -1.6983
 7561TIP3   OH222646   6.796   3.944   1.084  0.5193 -0.0605  0.6705
 7561TIP3    H122647   6.885   3.969   1.107  0.9550 -0.1792 -0.7851
 7561TIP3    H222648   6.761   4.020   1.038 -0.7130  0.5958  2.5872
 7562TIP3   OH222649   4.189   4.654   1.457 -0.2138  0.0936 -0.1671
 7562TIP3    H122650   4.249   4.710   1.506 -1.2354  0.7267  0.3842
 7562TIP3    H222651   4.173   4.703   1.375 -0.6775  0.3559  0.0775
 7563TIP3   OH222652   3.987   0.015   2.404  0.4666  0.2013 -0.0868
 7563TIP3    H122653   4.068  -0.030   2.380  1.6413  1.2827  1.6503
 7563TIP3    H222654   4.015   0.103   2.430 -1.4336  1.0319 -0.7077
 7564TIP3   OH222655   3.588   3.103   0.883  0.7209 -0.0256 -0.5814
 7564TIP3    H122656   3.615   3.181   0.933  0.7897  0.4473 -1.3376
 7564TIP3    H222657   3.628   3.030   0.930  1.7055  0.5029 -0.5727
 7565TIP3   OH222658   1.880   6.365   2.308  0.3895  0.4970 -0.2987
 7565TIP3    H122659   1.901   6.406   2.391  1.2733  1.2545 -0.8736
 7565TIP3    H222660   1.948   6.396   2.248  0.3561 -0.8166 -1.0614
 7566TIP3   OH222661   0.262   5.974   5.196  0.2688  0.3292  0.3218
 7566TIP3    H122662   0.174   5.941   5.178  0.7564 -0.0569 -1.6397
 7566TIP3    H222663   0.249   6.054   5.245 -1.3747  1.9581 -2.5117
 7567TIP3   OH222664   1.359   1.988   3.121 -0.0947  0.1829 -0.1695
 7567TIP3    H122665   1.281   2.026   3.080 -0.3559 -0.1595  0.0008
 7567TIP3    H222666   1.417   2.063   3.135  0.5884  0.1306 -2.4089
 7568TIP3   OH222667   0.600   1.863   4.128  0.8260  0.0671  0.0292
 7568TIP3    H122668   0.680   1.913   4.147  0.9375  0.3069 -1.0129
 7568TIP3    H222669   0.551   1.864   4.210  1.2135  1.1830  0.2663
 7569TIP3   OH222670   2.354   6.679   2.303  0.1458 -0.1177  0.4377
 7569TIP3    H122671   2.420   6.667   2.372  0.1248  0.7638  0.6233
 7569TIP3    H222672   2.352   6.774   2.288  1.2926 -0.3916 -1.9105
 7570TIP3   OH222673   6.208   6.009   4.197 -0.0168  0.3355  0.3476
 7570TIP3    H122674   6.202   5.947   4.125 -1.2038  0.3926  0.3875
 7570TIP3    H222675   6.121   6.010   4.236 -0.2595  2.5708 -0.1048
 7571TIP3   OH222676   3.541   1.332   4.282 -0.3129  0.1256  0.6101
 7571TIP3    H122677   3.603   1.261   4.297  1.8846  2.0163  0.9811
 7571TIP3    H222678   3.519   1.325   4.189 -0.1365 -1.0114  0.6392
 7572TIP3   OH222679   4.257   0.444   3.126 -0.8705 -0.2398  0.3919
 7572TIP3    H122680   4.269   0.355   3.093  0.0766  0.2635 -0.7129
 7572TIP3    H222681   4.162   0.457   3.126 -1.0122 -1.1804  0.3966
 7573TIP3   OH222682   4.775   0.516   3.314  0.0019  0.6515  0.1167
 7573TIP3    H122683   4.705   0.518   3.250 -0.4730  0.2235  0.6053
 7573TIP3    H222684   4.782   0.424   3.340 -0.3947  0.9295  1.2876
 7574TIP3   OH222685   0.481   4.244   5.052 -0.3970 -0.0890 -0.6873
 7574TIP3    H122686   0.458   4.182   4.983 -0.8238 -1.4172  0.5846
 7574TIP3    H222687   0.544   4.197   5.106  0.4171  1.1639 -0.5175
 7575TIP3   OH222688   4.096   5.419   2.658  0.1918 -0.1522 -0.0360
 7575TIP3    H122689   4.058   5.478   2.592  0.1430  1.9397  1.7408
 7575TIP3    H222690   4.182   5.397   2.623  0.5342  1.6475 -0.4609
 7576TIP3   OH222691   2.131   4.505   0.703  0.2837  0.3912 -0.1522
 7576TIP3    H122692   2.104   4.483   0.614  0.8050  0.1408 -0.2534
 7576TIP3    H222693   2.206   4.449   0.720 -0.6837 -0.6152  0.9822
 7577TIP3   OH222694   0.288   2.721   0.240 -0.0385 -0.1568 -0.2496
 7577TIP3    H122695   0.252   2.777   0.171  0.2470  1.3886  0.8025
 7577TIP3    H222696   0.359   2.772   0.278 -0.3528 -0.8476  1.3535
 7578TIP3   OH222697   2.306   0.103   5.609  0.2969  0.0400 -0.1014
 7578TIP3    H122698   2.223   0.142   5.638 -0.6506 -1.3663 -0.7696
 7578TIP3    H222699   2.320   0.139   5.522  1.0499  1.2063  0.4804
 7579TIP3   OH222700   0.457   0.041   2.085  0.4982 -0.3098 -0.0963
 7579TIP3    H122701   0.406   0.112   2.124 -0.4753 -0.4640 -1.0238
 7579TIP3    H222702   0.397  -0.001   2.024  1.1433 -1.7705  0.2186
 7580TIP3   OH222703   3.091   6.021   3.789  0.1626  0.4484 -0.3034
 7580TIP3    H122704   3.038   5.985   3.717  0.9790  1.9016 -1.6911
 7580TIP3    H222705   3.104   5.946   3.847  0.7598 -1.2300 -2.4368
 7581TIP3   OH222706   0.802   0.630   2.526  0.3673  0.1421 -0.3836
 7581TIP3    H122707   0.869   0.690   2.496  0.4581 -0.2264 -0.9374
 7581TIP3    H222708   0.783   0.575   2.449  0.1969 -0.4450  0.0699
 7582TIP3   OH222709   0.376   3.357   1.623  0.1694  0.1640 -0.4613
 7582TIP3    H122710   0.394   3.448   1.599  1.8191 -0.6229 -2.5297
 7582TIP3    H222711   0.331   3.321   1.547  2.5409 -1.5739 -1.1538
 7583TIP3   OH222712   1.972   3.427   1.279  0.2320 -0.4338 -0.5713
 7583TIP3    H122713   2.019   3.509   1.267 -1.6422  1.1828  2.0453
 7583TIP3    H222714   2.012   3.388   1.357 -0.3819 -0.8603 -0.4637
 7584TIP3   OH222715   1.008   2.628   0.470  0.4421  0.0259 -0.0860
 7584TIP3    H122716   1.076   2.585   0.521  0.8937  0.8806  0.0555
 7584TIP3    H222717   0.938   2.563   0.463  1.3942 -0.9760 -0.5059
 7585TIP3   OH222718   1.919   0.955   1.643  0.2642  0.2236  0.6953
 7585TIP3    H122719   1.947   1.032   1.692  1.7311  0.5143 -0.5121
 7585TIP3    H222720   1.995   0.896   1.645 -0.1385 -0.3388 -0.0499
 7586TIP3   OH222721   4.222   4.913   4.554 -0.2196 -0.7781  0.3430
 7586TIP3    H122722   4.254   4.843   4.612  0.1879 -0.4696  0.4964
 7586TIP3    H222723   4.271   4.901   4.473  0.5444 -0.1095  0.6869
 7587TIP3   OH222724   3.594   2.428   5.647 -0.3645 -0.1324  0.8087
 7587TIP3    H122725   3.683   2.413   5.616 -1.2852  0.3557 -2.4919
 7587TIP3    H222726   3.602   2.493   5.717  1.7200  1.8899 -1.1515
 7588TIP3   OH222727   3.324   4.078   1.340 -0.3343 -0.0565  0.3464
 7588TIP3    H122728   3.274   3.997   1.326  0.8804 -0.3490 -3.2931
 7588TIP3    H222729   3.414   4.048   1.353  0.1411  0.6441 -1.1035
 7589TIP3   OH222730   5.059   2.557   2.668  0.5533  0.2428  0.4006
 7589TIP3    H122731   4.968   2.557   2.639  0.4916 -0.9913  0.5504
 7589TIP3    H222732   5.092   2.642   2.641 -0.4591  0.4563 -0.2376
 7590TIP3   OH222733   3.702   4.954   0.704  0.1144 -0.1113  0.0879
 7590TIP3    H122734   3.786   4.993   0.726  0.1247 -0.5695  0.9481
 7590TIP3    H222735   3.652   5.024   0.662  0.5082  0.5047  0.6343
 7591TIP3   OH222736   3.182   5.806   5.818 -0.2496  0.6045  0.4428
 7591TIP3    H122737   3.116   5.844   5.875 -0.9674  1.4634 -0.8891
 7591TIP3    H222738   3.167   5.712   5.823 -0.6971  0.7051  1.1779
 7592TIP3   OH222739   7.062   2.819   5.568  0.0785  0.3903  0.2261
 7592TIP3    H122740   7.154   2.802   5.590 -0.4641 -0.3778  2.1072
 7592TIP3    H222741   7.062   2.832   5.473  1.9607 -0.7551  0.0216
 7593TIP3   OH222742   2.817   1.809   5.689 -0.4906 -0.1860  0.1967
 7593TIP3    H122743   2.722   1.797   5.702 -0.2229 -0.5998  2.1420
 7593TIP3    H222744   2.849   1.834   5.775  1.2827 -0.7274 -0.2790
 7594TIP3   OH222745   0.215   2.902   1.582 -0.0570 -0.0731 -0.1987
 7594TIP3    H122746   0.181   2.947   1.506 -1.5003 -0.9050 -0.0799
 7594TIP3    H222747   0.185   2.812   1.572 -0.5210 -0.1369  1.4742
 7595TIP3   OH222748   6.463   4.624   5.220 -0.0101  0.0140  0.1323
 7595TIP3    H122749   6.471   4.673   5.138 -0.5232  1.3084  0.8303
 7595TIP3    H222750   6.417   4.543   5.195 -1.3957  0.9917 -0.6564
 7596TIP3   OH222751   1.045   0.904   4.930 -0.2393 -0.2685  0.6503
 7596TIP3    H122752   1.086   0.820   4.948 -1.5743 -0.8585  1.1206
 7596TIP3    H222753   1.031   0.903   4.835 -0.3808 -0.6586  0.6699
 7597TIP3   OH222754   1.387   6.768   0.657  0.1828 -0.4935  0.4328
 7597TIP3    H122755   1.372   6.808   0.743  1.3400  1.2379 -0.1304
 7597TIP3    H222756   1.441   6.692   0.675  0.1416 -0.3339  1.2707
 7598TIP3   OH222757   3.023   6.800   0.192 -0.5169 -0.0944  0.3574
 7598TIP3    H122758   2.956   6.733   0.179  0.2696 -0.7128 -0.7154
 7598TIP3    H222759   3.030   6.808   0.287 -2.2150  0.1183  0.4923
 7599TIP3   OH222760   0.878   6.265   4.085 -0.1958 -0.1937 -0.7502
 7599TIP3    H122761   0.822   6.239   4.159  1.1858  1.8280  1.0975
 7599TIP3    H222762   0.926   6.185   4.063 -1.5158 -1.1502 -0.3145
 7600TIP3   OH222763   1.193   0.293   3.245 -0.1129 -0.2350 -0.4516
 7600TIP3    H122764   1.145   0.373   3.263 -0.0642  0.0175 -1.4125
 7600TIP3    H222765   1.127   0.231   3.215  0.1169  0.0597 -1.6100
 7601TIP3   OH222766   3.798   2.022   1.193  0.1169 -0.2701 -0.1673
 7601TIP3    H122767   3.768   1.974   1.270 -1.2055 -0.0797 -0.5499
 7601TIP3    H222768   3.760   1.976   1.119 -1.0435  1.2132 -0.5507
 7602TIP3   OH222769   1.381   4.629   2.521 -0.5659  0.2736  0.3205
 7602TIP3    H122770   1.400   4.621   2.428  0.4460 -0.0895  0.5454
 7602TIP3    H222771   1.392   4.541   2.556 -0.0482  0.5670  0.9310
 7603TIP3   OH222772   2.137   1.705   3.393 -0.2076  0.7704 -0.0775
 7603TIP3    H122773   2.179   1.703   3.479 -1.2482 -0.0894  0.4254
 7603TIP3    H222774   2.151   1.794   3.362  0.8138  0.8861  0.6512
 7604TIP3   OH222775   4.711   1.730   1.648 -0.2667 -0.3742 -0.4537
 7604TIP3    H122776   4.799   1.767   1.637 -0.4057  0.0843 -0.0529
 7604TIP3    H222777   4.707   1.706   1.740 -1.4461  1.9500  0.1671
 7605TIP3   OH222778   3.741   1.561   2.164 -0.1366 -0.0586  0.2319
 7605TIP3    H122779   3.795   1.496   2.209 -0.2345 -0.0705  0.3309
 7605TIP3    H222780   3.661   1.514   2.142 -0.9831  0.5324  1.9395
 7606TIP3   OH222781   2.387   0.428   1.970  0.1040  0.0604 -0.1310
 7606TIP3    H122782   2.300   0.428   1.929  0.7020  0.4757 -1.4565
 7606TIP3    H222783   2.431   0.353   1.931  0.7322  0.5368 -0.3459
 7607TIP3   OH222784   4.559   3.691   3.817  0.6216 -0.1113  0.1214
 7607TIP3    H122785   4.537   3.688   3.724 -0.0880  1.0637  0.2304
 7607TIP3    H222786   4.632   3.630   3.826  0.4801 -0.5019 -1.1407
 7608TIP3   OH222787   3.509   5.565   1.811 -0.0616 -0.1694 -0.0132
 7608TIP3    H122788   3.597   5.597   1.827 -0.7230  1.3281  0.8575
 7608TIP3    H222789   3.520   5.473   1.790  1.6457 -0.1442  0.6507
 7609TIP3   OH222790   6.370   5.746   1.833 -0.2423  0.9950 -0.0389
 7609TIP3    H122791   6.457   5.787   1.839 -1.0141  2.4995  2.1752
 7609TIP3    H222792   6.381   5.663   1.880  0.4225  0.3007 -1.3734
 7610TIP3   OH222793   4.016   0.047   2.715  0.3272 -0.2921 -0.0333
 7610TIP3    H122794   4.024  -0.035   2.666 -2.6865 -1.2811  0.8822
 7610TIP3    H222795   4.027   0.021   2.806  3.0847  1.0673  0.1439
 7611TIP3   OH222796   2.010   5.849   4.066 -0.1258 -0.1767  0.2167
 7611TIP3    H122797   2.093   5.896   4.073  1.4888 -2.8522  0.1760
 7611TIP3    H222798   2.005   5.823   3.974 -0.5898 -0.7690  0.4048
 7612TIP3   OH222799   5.830   0.686   3.060  0.4412  0.5711  0.1901
 7612TIP3    H122800   5.823   0.771   3.017  0.2762  0.1204 -0.7073
 7612TIP3    H222801   5.866   0.628   2.993 -0.7341 -0.3744  0.3375
 7613TIP3   OH222802   1.247   2.739   4.549  0.0043  0.1431  0.1033
 7613TIP3    H122803   1.226   2.703   4.636  0.1641  0.3330  0.2233
 7613TIP3    H222804   1.172   2.716   4.494 -0.4612  0.6991  0.4873
 7614TIP3   OH222805   2.775   1.921   2.413  0.7971 -0.1948 -0.3000
 7614TIP3    H122806   2.742   1.831   2.421  0.2068  0.1999  2.5282
 7614TIP3    H222807   2.808   1.943   2.500 -0.2128  2.7591 -0.5485
 7615TIP3   OH222808   0.816   6.429   1.455  0.2955  0.1102 -0.2293
 7615TIP3    H122809   0.895   6.375   1.445  0.7056  0.5488  0.5453
 7615TIP3    H222810   0.754   6.371   1.498  0.3218 -0.1215 -0.5008
 7616TIP3   OH222811   6.604   1.380   4.528  0.2864  0.0781  0.0843
 7616TIP3    H122812   6.584   1.439   4.455 -0.4353  0.5588  0.6574
 7616TIP3    H222813   6.562   1.298   4.504  0.5101  0.0648 -0.2849
 7617TIP3   OH222814   1.983   1.868   4.206  0.0580 -0.1185  0.7268
 7617TIP3    H122815   1.907   1.870   4.147  1.3441  0.0054 -1.0324
 7617TIP3    H222816   2.024   1.783   4.188 -0.2696 -0.6898  2.5141
 7618TIP3   OH222817   5.785   0.223   2.351  0.2970  0.3451 -0.1583
 7618TIP3    H122818   5.809   0.291   2.414 -0.9263  1.2550 -0.6366
 7618TIP3    H222819   5.824   0.252   2.269 -2.7632  2.2200 -1.1200
 7619TIP3   OH222820   7.061   4.482   1.523 -0.9110 -0.0781  0.3187
 7619TIP3    H122821   7.116   4.404   1.516 -1.7754 -0.6285 -0.8631
 7619TIP3    H222822   7.115   4.546   1.568  0.1652 -1.0539  0.4687
 7620TIP3   OH222823   1.944   0.016   2.793 -0.3855 -0.2584 -0.2210
 7620TIP3    H122824   2.014  -0.012   2.735  0.5618  0.3820  0.5831
 7620TIP3    H222825   1.908   0.094   2.752  0.1103  0.0405 -0.1036
 7621TIP3   OH222826   5.251   1.694   4.569 -0.5024 -0.5741  0.2629
 7621TIP3    H122827   5.281   1.663   4.484 -0.4591  0.0027  0.0650
 7621TIP3    H222828   5.320   1.666   4.630  0.8145  1.3263 -0.2860
 7622TIP3   OH222829   0.444   0.282   4.003  0.0580  0.0857  0.0755
 7622TIP3    H122830   0.389   0.291   3.926  1.2508 -0.9833 -0.9389
 7622TIP3    H222831   0.431   0.364   4.051 -1.4217  0.3786 -0.7602
 7623TIP3   OH222832   1.824   3.759   2.010 -0.1237 -0.5284 -0.1259
 7623TIP3    H122833   1.867   3.828   1.959 -1.4939 -0.4898 -1.3019
 7623TIP3    H222834   1.736   3.794   2.027  0.0439 -0.8765  1.6386
 7624TIP3   OH222835   2.430   1.837   1.836  0.4295  0.3675  0.1818
 7624TIP3    H122836   2.508   1.847   1.891  0.7788 -1.3823  0.0678
 7624TIP3    H222837   2.359   1.876   1.888  0.8850 -0.5778  1.5676
 7625TIP3   OH222838   0.676   5.540   1.550 -0.5087 -0.5514 -0.9196
 7625TIP3    H122839   0.601   5.494   1.512 -1.6350 -1.0909  1.7240
 7625TIP3    H222840   0.701   5.487   1.625  1.5463  0.4798 -0.8146
 7626TIP3   OH222841   4.180   5.521   5.426 -0.1649  0.3144 -0.1589
 7626TIP3    H122842   4.231   5.482   5.498  0.7198  1.7168  0.0134
 7626TIP3    H222843   4.230   5.500   5.347  0.3934  1.1757 -0.0507
 7627TIP3   OH222844   3.139   2.536   2.608  0.4856 -0.3879 -0.0069
 7627TIP3    H122845   3.048   2.518   2.586  0.2761 -0.1953  0.6716
 7627TIP3    H222846   3.141   2.630   2.625  0.8040 -0.3991  0.0263
 7628TIP3   OH222847   3.577   5.307   1.758  0.4036 -0.5445 -0.2880
 7628TIP3    H122848   3.563   5.251   1.682  0.0507 -1.2443  0.2842
 7628TIP3    H222849   3.642   5.261   1.810 -0.4222 -0.7907  0.5457
 7629TIP3   OH222850   3.495   0.153   4.022  0.3863 -0.2404 -0.1862
 7629TIP3    H122851   3.434   0.109   4.080  0.9160 -0.3403  0.3037
 7629TIP3    H222852   3.565   0.089   4.008  0.6450  0.0644 -0.3031
 7630TIP3   OH222853   0.484   2.965   4.170 -0.1410  0.1750  0.1102
 7630TIP3    H122854   0.572   3.002   4.180 -0.0181 -0.3581  1.0398
 7630TIP3    H222855   0.442   2.978   4.254 -1.1569  0.8966 -0.4859
 7631TIP3   OH222856   6.124   2.491   0.347 -0.1050  0.0559 -0.2278
 7631TIP3    H122857   6.064   2.463   0.278  0.0327  3.3716 -1.8712
 7631TIP3    H222858   6.205   2.513   0.302  1.2061 -0.9592  1.5141
 7632TIP3   OH222859   1.622   4.846   4.298  1.1829 -0.3495  0.6400
 7632TIP3    H122860   1.530   4.824   4.315  1.2471 -1.1408  0.0021
 7632TIP3    H222861   1.618   4.932   4.256  0.7771 -0.1228  1.1246
 7633TIP3   OH222862   7.063   0.470   3.496 -0.6894  0.7632  0.1624
 7633TIP3    H122863   7.046   0.548   3.443 -1.2232 -0.6183 -1.8298
 7633TIP3    H222864   6.977   0.430   3.506 -0.4282  0.4422  1.2158
 7634TIP3   OH222865   3.528   0.159   5.815  0.0901 -0.2721  0.4223
 7634TIP3    H122866   3.546   0.242   5.772  0.3830 -1.1246 -1.1531
 7634TIP3    H222867   3.474   0.111   5.753 -1.2106 -0.7651  1.8716
 7635TIP3   OH222868   0.129   1.111   1.710  0.2171  0.1965 -0.2416
 7635TIP3    H122869   0.113   1.016   1.713  1.9401 -0.1289 -0.4408
 7635TIP3    H222870   0.174   1.130   1.792  0.2296  0.7693 -0.3794
 7636TIP3   OH222871   6.895   3.500   0.725 -0.2192  0.0287 -0.1428
 7636TIP3    H122872   6.913   3.463   0.811  1.6466 -0.7745 -0.8491
 7636TIP3    H222873   6.948   3.580   0.721  1.4358 -1.0567 -1.3040
 7637TIP3   OH222874   1.543   6.347   1.201  0.1492  0.2540  0.9251
 7637TIP3    H122875   1.567   6.295   1.278 -1.2889 -0.9861  0.5988
 7637TIP3    H222876   1.602   6.317   1.132 -1.3655 -1.8510  0.4496
 7638TIP3   OH222877   6.240   0.234   4.730 -0.0766  0.0041 -0.1214
 7638TIP3    H122878   6.290   0.187   4.796  1.8277  0.7243 -0.9931
 7638TIP3    H222879   6.264   0.326   4.742 -2.5718  0.6456  0.5733
 7639TIP3   OH222880   1.036   1.048   5.664 -0.8468 -0.2543  0.0751
 7639TIP3    H122881   1.114   1.034   5.718 -1.0392  1.3833  0.8299
 7639TIP3    H222882   1.060   1.015   5.578  0.1841 -1.0520  0.6462
 7640TIP3   OH222883   5.720   4.372   0.031  0.7476  0.2096  0.0655
 7640TIP3    H122884   5.667   4.343   0.105  1.3971  1.4414  1.0428
 7640TIP3    H222885   5.782   4.434   0.068  0.5425  1.5293 -1.6424
 7641TIP3   OH222886   0.222   5.151   3.309  0.3216 -0.2204 -0.2692
 7641TIP3    H122887   0.307   5.192   3.300  1.0998 -1.7404 -0.2335
 7641TIP3    H222888   0.166   5.219   3.345  1.3020  1.0478 -1.0516
 7642TIP3   OH222889   3.067   4.980   1.029 -0.0239 -0.7241  0.0974
 7642TIP3    H122890   3.119   4.959   0.952 -1.4628 -0.9386 -0.8530
 7642TIP3    H222891   3.006   4.907   1.038  0.0052 -0.6145  1.3429
 7643TIP3   OH222892   7.000   6.808   4.597 -0.2357 -0.0704  0.5471
 7643TIP3    H122893   7.003   6.787   4.503  1.2813 -0.2994  0.6255
 7643TIP3    H222894   7.036   6.730   4.640  0.5635  0.6415  1.2009
 7644TIP3   OH222895   2.325   0.212   4.209 -0.2672  0.0142 -0.4916
 7644TIP3    H122896   2.267   0.263   4.152 -0.0147  1.1257  0.2077
 7644TIP3    H222897   2.328   0.262   4.291  1.3635 -0.2090 -0.3744
 7645TIP3   OH222898   6.009   3.300   5.571  0.1187  0.0682 -0.5719
 7645TIP3    H122899   5.943   3.262   5.629  0.9986  1.0486  1.1733
 7645TIP3    H222900   5.962   3.369   5.523 -0.4093 -0.0870 -0.2863
 7646TIP3   OH222901   3.058   0.720   2.173 -0.1452  0.4976  0.0266
 7646TIP3    H122902   3.057   0.751   2.083  1.2787 -1.1604 -0.6118
 7646TIP3    H222903   3.098   0.792   2.222  1.8006  0.3072 -1.1740
 7647TIP3   OH222904   6.310   3.161   5.463 -0.3630  0.0924  0.0707
 7647TIP3    H122905   6.299   3.071   5.430  0.2860 -0.0531  0.2382
 7647TIP3    H222906   6.312   3.151   5.558  0.9181  0.1227  0.0696
 7648TIP3   OH222907   3.096   5.518   5.786  0.6029 -0.0082 -0.7751
 7648TIP3    H122908   3.111   5.476   5.702 -0.8639  0.7042 -1.4324
 7648TIP3    H222909   3.000   5.521   5.794  0.6857  1.9311 -0.1178
 7649TIP3   OH222910   6.839   3.885   4.655 -0.6839  0.2691 -0.6043
 7649TIP3    H122911   6.901   3.813   4.648 -0.2533  0.6095 -0.3464
 7649TIP3    H222912   6.761   3.847   4.696  0.4708  0.4960  1.9656
 7650TIP3   OH222913   7.059   2.692   2.424  0.2697 -0.1586  0.1668
 7650TIP3    H122914   7.128   2.711   2.360  0.2436  1.2509  0.5270
 7650TIP3    H222915   7.010   2.774   2.432 -0.0139 -0.4425  1.6401
 7651TIP3   OH222916   0.193   4.015   3.845  0.1439  0.5482  0.1593
 7651TIP3    H122917   0.110   4.053   3.874  0.4985  1.2463  0.2821
 7651TIP3    H222918   0.222   3.963   3.920 -1.2314 -1.5096 -0.6490
 7652TIP3   OH222919   5.208   3.396   4.496 -0.0513 -0.2240  0.1692
 7652TIP3    H122920   5.262   3.450   4.439 -0.6811 -0.0974 -0.3064
 7652TIP3    H222921   5.132   3.449   4.517 -0.8857 -1.0626 -0.6433
 7653TIP3   OH222922   1.082   5.709   1.903 -0.0405  0.1759 -0.1978
 7653TIP3    H122923   1.129   5.681   1.982 -0.7867  0.0052  0.1924
 7653TIP3    H222924   1.146   5.700   1.833  0.8805  1.0715  0.4999
 7654TIP3   OH222925   2.680   3.324   2.218  0.1241  0.5643  0.6093
 7654TIP3    H122926   2.713   3.412   2.237 -1.5071  2.1608 -2.9849
 7654TIP3    H222927   2.735   3.292   2.147 -1.1093 -0.0591 -0.0946
 7655TIP3   OH222928   5.769   2.892   1.002  0.3240  0.3791 -0.5422
 7655TIP3    H122929   5.789   2.798   1.003  0.2092  0.3066  1.7782
 7655TIP3    H222930   5.679   2.897   1.036  0.3944  1.3300 -0.4750
 7656TIP3   OH222931   2.903   2.652   5.640 -0.1912  0.3114  0.8380
 7656TIP3    H122932   2.880   2.736   5.680  0.9151  0.8020  0.4968
 7656TIP3    H222933   2.894   2.666   5.546 -2.6343 -0.7976  0.8581
 7657TIP3   OH222934   4.130   5.484   1.972  0.0567  0.5147 -0.2948
 7657TIP3    H122935   4.199   5.425   2.000 -0.5791  0.4417  1.2357
 7657TIP3    H222936   4.175   5.554   1.924  1.2712  0.7657  1.1354
 7658TIP3   OH222937   3.162   0.852   3.306 -0.5386 -0.0666  0.1162
 7658TIP3    H122938   3.201   0.850   3.394  0.1900  1.0085 -0.1643
 7658TIP3    H222939   3.190   0.769   3.267  1.4691  0.6263 -0.0383
 7659TIP3   OH222940   1.773   4.617   1.759 -0.2037 -0.0766  0.3913
 7659TIP3    H122941   1.759   4.679   1.687 -0.7739 -0.2955  0.3055
 7659TIP3    H222942   1.812   4.669   1.829 -2.4411  0.8380  1.0330
 7660TIP3   OH222943   5.397   3.775   3.021 -1.2828 -0.5589  0.4337
 7660TIP3    H122944   5.349   3.737   2.947 -1.0431 -1.9150  0.9366
 7660TIP3    H222945   5.375   3.718   3.095 -0.9204  0.3250  1.2365
 7661TIP3   OH222946   2.342   1.666   3.072 -0.0110  0.5167 -0.6418
 7661TIP3    H122947   2.412   1.614   3.112 -0.1072  0.6859 -0.2527
 7661TIP3    H222948   2.359   1.756   3.100 -0.1501  0.6187 -0.8802
 7662TIP3   OH222949   2.734   5.894   4.415  0.0237 -0.6119 -0.0598
 7662TIP3    H122950   2.717   5.847   4.334  1.4717 -0.9556 -0.1938
 7662TIP3    H222951   2.780   5.831   4.471  2.0793  0.5936 -0.2785
 7663TIP3   OH222952   0.893   2.710   4.785 -0.2270 -0.0502  0.1323
 7663TIP3    H122953   0.867   2.640   4.725 -1.4010  0.9870 -0.6339
 7663TIP3    H222954   0.941   2.772   4.730  0.1462  0.1090  0.6321
 7664TIP3   OH222955   0.314   4.671   4.946 -0.2009 -0.0052 -0.5514
 7664TIP3    H122956   0.398   4.685   4.990 -0.1912 -0.3024 -0.4723
 7664TIP3    H222957   0.278   4.592   4.988  0.0704 -0.6310 -1.4843
 7665TIP3   OH222958   5.029   6.494   0.023 -0.2089  0.0793  0.4734
 7665TIP3    H122959   5.063   6.482   0.111  1.1971  0.3782 -0.0032
 7665TIP3    H222960   5.103   6.527  -0.028 -1.2698  0.9440 -0.5872
 7666TIP3   OH222961   5.124   0.252   4.224  0.5045  0.3092  0.3299
 7666TIP3    H122962   5.088   0.192   4.290 -1.7588  0.3540 -0.7885
 7666TIP3    H222963   5.096   0.339   4.253  1.3208  0.5517  0.4114
 7667TIP3   OH222964   2.245   4.453   3.799 -0.2867  0.1264  1.0188
 7667TIP3    H122965   2.220   4.453   3.891  1.1226  2.5363  1.4988
 7667TIP3    H222966   2.230   4.543   3.771  3.5795  0.6661  0.2216
 7668TIP3   OH222967   5.185   3.385   5.492 -0.0805 -0.2831  0.1818
 7668TIP3    H122968   5.106   3.419   5.534 -1.9482 -0.7231 -2.6820
 7668TIP3    H222969   5.221   3.460   5.445 -0.2689 -0.6428 -0.5558
 7669TIP3   OH222970   1.106   4.143   1.885  0.4713  0.0765 -0.0807
 7669TIP3    H122971   1.033   4.097   1.927  0.3142 -1.0236 -1.5085
 7669TIP3    H222972   1.104   4.114   1.794  2.8072 -0.1207 -0.1274
 7670TIP3   OH222973   3.003   5.220   1.116  0.5549  0.1199  0.0639
 7670TIP3    H122974   2.913   5.208   1.148  0.7668  1.4917  1.2753
 7670TIP3    H222975   3.025   5.136   1.075 -1.2363 -0.2792 -0.1852
 7671TIP3   OH222976   5.637   1.194   5.696  0.3900 -0.3272  0.1846
 7671TIP3    H122977   5.631   1.099   5.694 -0.3540 -0.2888  0.6156
 7671TIP3    H222978   5.658   1.218   5.605  0.3014 -0.8768  0.0153
 7672TIP3   OH222979   4.305   5.264   3.044 -0.0265 -0.4212 -0.0965
 7672TIP3    H122980   4.356   5.326   3.095 -0.9069  0.2330  0.0025
 7672TIP3    H222981   4.253   5.216   3.108 -1.6023  0.8288 -0.3834
 7673TIP3   OH222982   1.775   4.668   4.181  0.0301  0.3912  0.2550
 7673TIP3    H122983   1.706   4.716   4.225  0.7949  1.6759  0.0840
 7673TIP3    H222984   1.762   4.687   4.088  1.0065  1.1842  0.2717
 7674TIP3   OH222985   0.195   2.424   3.128  0.2549  0.2222 -0.5006
 7674TIP3    H122986   0.287   2.439   3.109  0.8001 -2.6595 -0.5984
 7674TIP3    H222987   0.174   2.342   3.083 -1.6832 -0.4787  1.5046
 7675TIP3   OH222988   6.634   4.381   1.978  0.9691  0.0344  0.0936
 7675TIP3    H122989   6.595   4.422   2.055  2.4261 -1.7139  1.8564
 7675TIP3    H222990   6.590   4.297   1.970 -0.3183  0.8251 -2.0551
 7676TIP3   OH222991   6.813   0.951   1.125  0.4867  0.0660 -0.6008
 7676TIP3    H122992   6.893   0.997   1.152 -0.3340  0.9132  0.4548
 7676TIP3    H222993   6.763   0.940   1.205 -0.3875 -0.6118 -1.2247
 7677TIP3   OH222994   2.048   5.015   2.868  0.3638  0.1611  0.2788
 7677TIP3    H122995   2.014   5.093   2.911  1.0463  0.2827  0.6079
 7677TIP3    H222996   2.073   5.045   2.780  1.3833  0.5092  0.6764
 7678TIP3   OH222997   3.159   0.825   1.401  0.6099  0.4046  0.2105
 7678TIP3    H122998   3.158   0.897   1.464 -0.8761  0.4109  0.2155
 7678TIP3    H222999   3.129   0.749   1.451 -0.0143  0.2806 -0.3437
 7679TIP3   OH223000   5.753   6.183   4.649 -0.1162  0.6141 -0.2437
 7679TIP3    H123001   5.739   6.125   4.724  1.8091 -0.4228 -0.6141
 7679TIP3    H223002   5.675   6.172   4.595 -0.3929 -0.6072  0.3733
 7680TIP3   OH223003   0.993   2.311   5.526 -0.1970 -0.3276 -0.7309
 7680TIP3    H123004   1.020   2.260   5.602  0.3944 -0.1570 -0.8206
 7680TIP3    H223005   0.960   2.393   5.563  1.5281  0.3939 -0.7145
 7681TIP3   OH223006   5.847   2.559   5.342  0.2789 -0.1231 -0.2943
 7681TIP3    H123007   5.924   2.604   5.308  0.5641  2.1801  2.8971
 7681TIP3    H223008   5.778   2.575   5.278  1.2627  2.0282 -0.8897
 7682TIP3   OH223009   4.632   0.903   0.517  0.7044 -0.2392  0.1574
 7682TIP3    H123010   4.544   0.919   0.483  1.1996  0.0217 -1.0417
 7682TIP3    H223011   4.652   0.982   0.568  0.8529  0.4278 -0.8954
 7683TIP3   OH223012   5.617   4.359   4.283 -0.3430  0.3842  0.5231
 7683TIP3    H123013   5.677   4.327   4.351  2.6841  0.7715 -1.7487
 7683TIP3    H223014   5.623   4.454   4.289  0.1176  0.4196 -0.3929
 7684TIP3   OH223015   4.139   5.898   0.677 -0.1687  0.4781 -0.2196
 7684TIP3    H123016   4.225   5.889   0.718  0.1795  1.6064 -0.6499
 7684TIP3    H223017   4.126   5.815   0.630  0.2991 -0.0373  0.5469
 7685TIP3   OH223018   7.145   5.735   4.397 -0.7388  0.0524  0.2958
 7685TIP3    H123019   7.109   5.807   4.449 -0.0286  0.1724  0.6310
 7685TIP3    H223020   7.199   5.685   4.459  0.8028  0.6765 -0.4831
 7686TIP3   OH223021   2.678   4.831   4.015  0.3967  0.2368  0.0609
 7686TIP3    H123022   2.657   4.865   4.102  0.1454  0.5087 -0.1024
 7686TIP3    H223023   2.749   4.887   3.984  0.4676  0.1579  0.0809
 7687TIP3   OH223024   1.128   0.712   1.665  0.2223  0.0359  0.1498
 7687TIP3    H123025   1.039   0.676   1.660 -0.4675  1.2880  2.0806
 7687TIP3    H223026   1.148   0.738   1.575 -1.2442 -0.5417 -0.3806
 7688TIP3   OH223027   6.962   6.710   1.545 -0.0454 -0.0556  0.1825
 7688TIP3    H123028   6.883   6.667   1.511  1.0606 -1.6916 -0.4583
 7688TIP3    H223029   7.020   6.637   1.569  0.7550  1.0991  1.9055
 7689TIP3   OH223030   3.900   4.521   3.392 -0.1231 -0.2037 -0.1328
 7689TIP3    H123031   3.992   4.526   3.365  0.9169  1.1248  3.0846
 7689TIP3    H223032   3.903   4.479   3.478 -2.4647  0.3538  0.2772
 7690TIP3   OH223033   6.163   5.347   0.302  0.0627  0.0033 -0.1911
 7690TIP3    H123034   6.127   5.340   0.390  0.5648  1.1767  0.1343
 7690TIP3    H223035   6.255   5.322   0.311 -0.1813 -1.0978 -0.6385
 7691TIP3   OH223036   6.943   5.324   0.563  0.4705 -0.7611 -0.2907
 7691TIP3    H123037   7.027   5.325   0.608  0.8028 -2.7778 -0.8006
 7691TIP3    H223038   6.887   5.270   0.618 -0.5690  0.6431  0.0944
 7692TIP3   OH223039   4.925   4.560   4.077  0.0114  0.0236  0.1155
 7692TIP3    H123040   4.869   4.493   4.115  0.4697  0.7409  2.2110
 7692TIP3    H223041   4.865   4.631   4.053 -0.2418 -0.2459 -0.0498
 7693TIP3   OH223042   4.406   3.378   3.629 -0.4195  0.2075 -0.1607
 7693TIP3    H123043   4.351   3.445   3.590 -1.6890 -0.2166  0.8429
 7693TIP3    H223044   4.484   3.425   3.659 -1.6307  1.4292  1.2731
 7694TIP3   OH223045   5.465   5.256   0.970 -0.1593 -0.4753 -0.4751
 7694TIP3    H123046   5.530   5.317   0.934 -0.3859 -0.3927 -0.7449
 7694TIP3    H223047   5.478   5.175   0.919  0.1686 -0.6691 -0.0911
 7695TIP3   OH223048   5.780   0.663   3.761  0.4337  0.5703 -0.0754
 7695TIP3    H123049   5.780   0.720   3.684  0.0522 -2.9015 -2.9299
 7695TIP3    H223050   5.872   0.657   3.786  0.7784  0.6644 -1.2363
 7696TIP3   OH223051   4.720   1.955   3.756 -0.0109  0.4746  0.4019
 7696TIP3    H123052   4.709   1.861   3.746  0.2594  0.5537 -0.7932
 7696TIP3    H223053   4.632   1.991   3.744 -0.2592  0.3437  1.6366
 7697TIP3   OH223054   0.720   5.529   0.377 -0.1380 -0.0807  0.0419
 7697TIP3    H123055   0.656   5.597   0.356 -0.2701 -0.2178 -0.0012
 7697TIP3    H223056   0.677   5.475   0.444  0.1527  0.1630  0.4316
 7698TIP3   OH223057   3.902   5.967   5.564 -0.4761  0.0187  0.3516
 7698TIP3    H123058   3.961   5.893   5.577 -1.2783 -1.2183 -2.2674
 7698TIP3    H223059   3.819   5.927   5.538 -1.6587  1.7967  1.2277
 7699TIP3   OH223060   4.710   0.089   3.836 -0.2514  0.0834  0.0754
 7699TIP3    H123061   4.700   0.104   3.930 -2.5643 -2.8981  0.4556
 7699TIP3    H223062   4.664   0.163   3.795  0.6172  1.3116  1.2192
 7700TIP3   OH223063   1.570   1.898   0.495 -0.3389 -0.2405 -0.3014
 7700TIP3    H123064   1.557   1.867   0.585  0.1838 -0.7604 -0.3993
 7700TIP3    H223065   1.662   1.928   0.494 -1.3769  3.5796  0.4697
 7701TIP3   OH223066   2.130   0.414   3.500 -0.0703  0.4771  0.0199
 7701TIP3    H123067   2.104   0.351   3.433 -0.5835  1.8877 -1.1719
 7701TIP3    H223068   2.225   0.417   3.494 -0.0279 -0.2936  0.2029
 7702TIP3   OH223069   6.353   1.719   5.196  0.7816 -0.0434 -0.1024
 7702TIP3    H123070   6.375   1.666   5.119  0.4031 -0.7582  0.2631
 7702TIP3    H223071   6.300   1.660   5.250 -0.2001  0.9323  0.0195
 7703TIP3   OH223072   3.826   1.375   5.797 -0.1626 -0.0063  0.1786
 7703TIP3    H123073   3.762   1.443   5.776 -0.5847  0.2174  2.0284
 7703TIP3    H223074   3.860   1.400   5.883  0.2367 -1.7238  0.5540
 7704TIP3   OH223075   0.085   0.703   3.646 -0.3968 -0.1479 -0.2167
 7704TIP3    H123076   0.015   0.767   3.658  0.4865  0.8245 -0.1132
 7704TIP3    H223077   0.048   0.638   3.586 -1.3664  0.3653 -0.1952
 7705TIP3   OH223078   4.601   6.613   5.217  0.0018  0.6913  0.1419
 7705TIP3    H123079   4.655   6.588   5.142 -1.8828  0.6499 -1.2490
 7705TIP3    H223080   4.607   6.538   5.277  0.7463  0.3106 -0.3894
 7706TIP3   OH223081   6.182   6.432   3.442  0.1204 -0.2610  0.1112
 7706TIP3    H123082   6.088   6.418   3.426  0.0491  0.7331 -0.4320
 7706TIP3    H223083   6.202   6.513   3.395  1.1017 -0.0786  0.8175
 7707TIP3   OH223084   2.116   4.239   1.817  0.1927  0.7166  0.0388
 7707TIP3    H123085   2.094   4.284   1.899 -0.0713 -2.0249  1.5885
 7707TIP3    H223086   2.201   4.274   1.792  0.3799  1.4477  1.5875
 7708TIP3   OH223087   3.374   0.273   1.756  0.6395 -0.4112  0.0575
 7708TIP3    H123088   3.438   0.205   1.774  0.6700 -0.5284 -0.4714
 7708TIP3    H223089   3.290   0.235   1.784  1.1623  1.0952  4.2861
 7709TIP3   OH223090   2.578   5.881   2.473  0.1135 -0.8191  0.0482
 7709TIP3    H123091   2.666   5.864   2.441  0.7822  2.0834  0.1382
 7709TIP3    H223092   2.589   5.902   2.566 -0.4221  0.9352 -0.2415
 7710TIP3   OH223093   6.707   6.068   2.794 -0.2310 -0.3841 -0.1246
 7710TIP3    H123094   6.698   6.163   2.794 -2.5919 -0.5251 -1.2975
 7710TIP3    H223095   6.717   6.045   2.886  0.6289  0.9850  0.1543
 7711TIP3   OH223096   5.745   3.894   3.278 -0.2075  0.4488 -0.9776
 7711TIP3    H123097   5.730   3.987   3.264 -0.0967  0.4707 -0.9547
 7711TIP3    H223098   5.695   3.874   3.358 -1.8957  0.0368 -2.0896
 7712TIP3   OH223099   7.201   2.795   2.221 -0.3842 -0.3609  0.7784
 7712TIP3    H123100   7.209   2.889   2.203  1.9589 -0.9505 -1.9497
 7712TIP3    H223101   7.122   2.768   2.173 -0.2756 -0.0243  0.4077
 7713TIP3   OH223102   0.844   6.081   3.836 -0.7095  0.0946  0.1207
 7713TIP3    H123103   0.838   6.127   3.753 -0.1220 -1.6689 -0.9452
 7713TIP3    H223104   0.910   6.014   3.822  0.4329  0.6070  2.4555
 7714TIP3   OH223105   6.451   3.959   5.537 -0.2881  0.0413 -0.0570
 7714TIP3    H123106   6.502   3.879   5.538  0.9682  0.8196  1.3829
 7714TIP3    H223107   6.435   3.976   5.444  1.5396 -0.5661 -0.5204
 7715TIP3   OH223108   4.417   5.476   5.264 -0.2394 -0.2159 -0.1272
 7715TIP3    H123109   4.403   5.467   5.170 -0.4129  0.5135 -0.1742
 7715TIP3    H223110   4.460   5.394   5.290 -2.2388 -1.4247 -0.4293
 7716TIP3   OH223111   7.136   3.953   5.130 -0.4315 -0.4811 -0.6977
 7716TIP3    H123112   7.130   3.923   5.039 -0.1417  1.3798 -1.3621
 7716TIP3    H223113   7.047   3.981   5.151  0.1742  2.5210 -1.7038
 7717TIP3   OH223114   2.443   0.858   1.056  0.4764 -0.2924 -0.8088
 7717TIP3    H123115   2.431   0.891   0.967  0.5874 -1.6394 -1.3557
 7717TIP3    H223116   2.521   0.803   1.050  0.0497 -0.9975 -0.0531
 7718TIP3   OH223117   2.356   3.454   2.327 -0.0208  0.0623 -0.2086
 7718TIP3    H123118   2.356   3.427   2.419  1.5074  1.0981  0.1300
 7718TIP3    H223119   2.312   3.539   2.328  1.4638  0.8609 -0.1434
 7719TIP3   OH223120   5.343   5.599   3.579  0.2390  0.4027 -0.4322
 7719TIP3    H123121   5.313   5.607   3.488 -0.3642  0.1770 -0.2603
 7719TIP3    H223122   5.262   5.594   3.630  0.5691  1.1625  0.1806
 7720TIP3   OH223123   2.979   2.868   5.018 -0.3672 -0.7558  0.1419
 7720TIP3    H123124   2.890   2.895   5.038  0.1403  0.5179  0.8096
 7720TIP3    H223125   3.033   2.913   5.083  1.0358  0.7614 -1.9333
 7721TIP3   OH223126   4.924   1.197   3.625 -0.1833 -0.0325 -0.1372
 7721TIP3    H123127   4.978   1.270   3.595 -0.9179 -0.3056 -2.2890
 7721TIP3    H223128   4.860   1.238   3.683  1.5551  0.4516  1.5564
 7722TIP3   OH223129   1.832   1.287   5.099 -0.3489 -0.4116 -0.1391
 7722TIP3    H123130   1.828   1.337   5.180 -0.7709  1.1891 -1.1069
 7722TIP3    H223131   1.740   1.271   5.077 -0.3000  0.5327 -1.0926
 7723TIP3   OH223132   3.156   6.543   1.306 -0.5967  0.1042 -0.0672
 7723TIP3    H123133   3.170   6.603   1.233 -0.6388 -0.2112 -0.3340
 7723TIP3    H223134   3.193   6.460   1.277 -1.5732 -0.3173 -0.1560
 7724TIP3   OH223135   5.089   2.137   1.411 -0.6198  0.2210  0.2352
 7724TIP3    H123136   5.151   2.211   1.407 -0.0181  0.1175  3.8308
 7724TIP3    H223137   5.005   2.176   1.388  0.2554  1.0735 -1.7673
 7725TIP3   OH223138   1.972   0.712   3.823  0.5029 -0.4697 -0.3193
 7725TIP3    H123139   1.949   0.739   3.735  1.5638 -1.3438 -0.8913
 7725TIP3    H223140   1.889   0.684   3.863  0.2467 -1.7497 -1.6524
 7726TIP3   OH223141   1.836   1.854   3.908 -0.3698 -0.0639 -0.0189
 7726TIP3    H123142   1.791   1.934   3.881  1.0782  1.2069  1.1578
 7726TIP3    H223143   1.778   1.814   3.972 -1.1329 -0.0215 -0.6648
 7727TIP3   OH223144   3.385   6.698   2.841 -0.7369 -0.7990  0.0516
 7727TIP3    H123145   3.451   6.641   2.803 -0.2829  0.4172 -1.0721
 7727TIP3    H223146   3.419   6.720   2.928  0.7854  0.4141 -0.7852
 7728TIP3   OH223147   2.070   4.686   4.701  0.2567 -0.0582  0.0431
 7728TIP3    H123148   2.066   4.598   4.664 -0.2805 -0.0269  0.0176
 7728TIP3    H223149   2.163   4.709   4.698  0.7146 -1.4143  1.9107
 7729TIP3   OH223150   2.359   2.320   0.936 -0.0974  0.1209  0.3003
 7729TIP3    H123151   2.335   2.230   0.961 -0.4296  0.2671  0.5235
 7729TIP3    H223152   2.282   2.353   0.890 -1.1785  1.2557  2.7081
 7730TIP3   OH223153   3.431   2.351   0.547 -0.1454 -0.3025  0.5563
 7730TIP3    H123154   3.381   2.429   0.571 -1.7021 -0.0844 -2.8921
 7730TIP3    H223155   3.416   2.340   0.454  4.1456 -1.8621 -0.1822
 7731TIP3   OH223156   1.529   5.734   3.545 -0.3725  0.1475 -0.1745
 7731TIP3    H123157   1.442   5.725   3.506 -1.0024  0.8863  0.9781
 7731TIP3    H223158   1.545   5.829   3.544  1.1533 -0.0907 -1.8657
 7732TIP3   OH223159   3.080   6.308   0.397  0.0348 -0.4383  0.2073
 7732TIP3    H123160   2.991   6.306   0.362 -0.8036 -0.4550  2.2103
 7732TIP3    H223161   3.115   6.392   0.369 -0.1639 -0.8967 -1.5522
 7733TIP3   OH223162   5.127   0.985   2.769  0.0767  0.3747  0.3498
 7733TIP3    H123163   5.207   0.992   2.717 -0.3347 -0.1009 -0.3494
 7733TIP3    H223164   5.156   0.941   2.850  0.6509  0.8297  0.4027
 7734TIP3   OH223165   4.870   4.373   0.096 -0.1413 -0.5207  0.5215
 7734TIP3    H123166   4.782   4.350   0.125 -0.0758 -0.1902  0.9996
 7734TIP3    H223167   4.862   4.382   0.001 -0.8651  0.5172  0.6620
 7735TIP3   OH223168   4.777   0.363   4.482  0.4763 -0.7245 -0.5512
 7735TIP3    H123169   4.685   0.365   4.506  0.5858  0.9305 -0.1563
 7735TIP3    H223170   4.782   0.300   4.409 -0.8235 -1.3639 -0.1095
 7736TIP3   OH223171   6.283   2.977   0.823  0.4417 -0.7002 -0.0681
 7736TIP3    H123172   6.322   3.061   0.846 -0.2859 -1.1034  3.0938
 7736TIP3    H223173   6.189   2.992   0.831  0.2911 -1.7246  0.1134
 7737TIP3   OH223174   1.395   3.534   0.636 -0.2506  0.5440  0.5225
 7737TIP3    H123175   1.350   3.450   0.645  2.2189 -0.9379 -0.0303
 7737TIP3    H223176   1.380   3.559   0.545  0.4205 -0.1989  0.1976
 7738TIP3   OH223177   5.483   5.442   5.639  0.3143 -0.0851 -0.1331
 7738TIP3    H123178   5.496   5.350   5.617  1.3502 -0.0050  0.1155
 7738TIP3    H223179   5.570   5.474   5.664  0.2619  1.3330 -1.6031
 7739TIP3   OH223180   1.222   0.492   4.632  0.1618 -0.3175 -0.6094
 7739TIP3    H123181   1.240   0.398   4.623 -1.3389 -0.6330 -0.6631
 7739TIP3    H223182   1.254   0.530   4.550  0.2473 -0.8727 -0.8401
 7740TIP3   OH223183   2.577   5.176   4.992 -0.1680 -0.3948 -0.0827
 7740TIP3    H123184   2.621   5.183   4.908  2.7270  0.3926  1.3546
 7740TIP3    H223185   2.575   5.082   5.011 -2.1910 -0.7066 -1.6171
 7741TIP3   OH223186   2.074   0.926   3.967  0.1949 -0.0910 -0.1797
 7741TIP3    H123187   2.042   0.845   3.928  0.7062  0.5532 -2.0999
 7741TIP3    H223188   2.008   0.992   3.943  0.4236  0.2921  0.2276
 7742TIP3   OH223189   3.798   3.591   0.861 -0.3009  0.6193 -1.0975
 7742TIP3    H123190   3.785   3.590   0.766 -0.6592  0.9323 -1.0532
 7742TIP3    H223191   3.747   3.666   0.891 -2.8265 -1.2878 -0.2691
 7743TIP3   OH223192   5.692   1.468   4.209  0.0968 -0.1539  0.2476
 7743TIP3    H123193   5.664   1.489   4.298  0.2319 -0.3688  0.3419
 7743TIP3    H223194   5.707   1.553   4.168  2.0233 -0.0446  1.0499
 7744TIP3   OH223195   0.827   3.425   0.331 -0.4030  0.4499  0.0879
 7744TIP3    H123196   0.821   3.501   0.390  0.0028  0.0464  0.6648
 7744TIP3    H223197   0.743   3.424   0.286 -0.1277  1.6912 -0.4972
 7745TIP3   OH223198   4.801   2.055   0.361  0.0452  0.4877 -0.4435
 7745TIP3    H123199   4.855   1.982   0.331 -0.6827 -0.0854 -0.3693
 7745TIP3    H223200   4.849   2.133   0.331  2.0373  0.0976  1.4522
 7746TIP3   OH223201   6.967   0.103   0.790  0.2697 -0.4326 -0.0983
 7746TIP3    H123202   6.956   0.167   0.859  1.0696  0.1323 -0.4703
 7746TIP3    H223203   6.895   0.120   0.729  0.3010 -0.0864 -0.0403
 7747TIP3   OH223204   2.714   0.065   0.909  0.0099 -0.5391  0.4814
 7747TIP3    H123205   2.717   0.056   0.814 -0.8471  1.6438  0.1934
 7747TIP3    H223206   2.644   0.129   0.925 -0.5487 -1.5977  2.6540
 7748TIP3   OH223207   5.539   6.398   3.996  0.5354 -0.0456 -0.0807
 7748TIP3    H123208   5.571   6.488   3.987  1.0816 -0.3228 -0.9551
 7748TIP3    H223209   5.577   6.368   4.079 -1.9099  1.4322  1.7312
 7749TIP3   OH223210   0.338   6.534   3.901 -0.5790  0.1819  0.0054
 7749TIP3    H123211   0.359   6.525   3.808  0.5834 -0.2919  0.2921
 7749TIP3    H223212   0.321   6.444   3.930 -0.5682  0.2845  0.3327
 7750TIP3   OH223213   6.810   5.126   0.691  0.1784 -0.1471 -0.0914
 7750TIP3    H123214   6.719   5.143   0.712 -0.0866  0.8909 -1.8826
 7750TIP3    H223215   6.819   5.031   0.696 -0.5945 -0.1723  1.4761
 7751TIP3   OH223216   5.631   3.356   2.548 -0.0359  0.8506  0.0917
 7751TIP3    H123217   5.654   3.343   2.456  0.1586 -0.3663  0.2978
 7751TIP3    H223218   5.535   3.365   2.547  0.0688  2.2741 -0.3596
 7752TIP3   OH223219   0.966   1.169   1.610 -0.3949  0.0380 -0.3407
 7752TIP3    H123220   1.030   1.098   1.599 -0.2729  0.1765 -0.5422
 7752TIP3    H223221   0.988   1.208   1.694 -0.0730  0.2218 -0.5047
 7753TIP3   OH223222   1.450   4.810   1.612 -0.5599  0.0329 -0.7782
 7753TIP3    H123223   1.370   4.851   1.645 -0.1500  1.0317 -0.9692
 7753TIP3    H223224   1.421   4.762   1.534 -1.1877 -0.7039 -0.1085
 7754TIP3   OH223225   6.991   0.280   5.062 -0.2000  0.1841 -0.0321
 7754TIP3    H123226   6.980   0.196   5.107  0.6948 -2.2595 -3.9050
 7754TIP3    H223227   6.904   0.300   5.028 -0.0439 -0.1763 -0.6537
 7755TIP3   OH223228   0.552   3.241   3.035 -0.3177 -0.8476 -0.3149
 7755TIP3    H123229   0.481   3.265   3.095 -0.0030 -2.7558  0.9045
 7755TIP3    H223230   0.630   3.239   3.090  0.1011 -1.9740 -0.9218
 7756TIP3   OH223231   4.920   2.442   4.354  0.0384  0.8706  0.0119
 7756TIP3    H123232   5.011   2.434   4.325 -0.1283  0.7048 -0.4850
 7756TIP3    H223233   4.905   2.363   4.406  0.5174  1.4571  1.0709
 7757TIP3   OH223234   2.917   2.610   1.135 -0.0724  0.2288 -0.1772
 7757TIP3    H123235   2.867   2.577   1.061  0.4886  0.9297 -0.8919
 7757TIP3    H223236   2.974   2.676   1.097 -1.3689  2.2664  1.2302
 7758TIP3   OH223237   3.987   0.056   1.817  0.6716 -0.7167 -0.1778
 7758TIP3    H123238   3.987   0.006   1.899 -0.7930 -0.1378  0.2019
 7758TIP3    H223239   3.901   0.040   1.779  0.7386  0.3280 -0.8027
 7759TIP3   OH223240   0.359   4.375   1.506  0.0089  0.1645 -0.4593
 7759TIP3    H123241   0.447   4.345   1.528  0.2397  0.9364 -0.3122
 7759TIP3    H223242   0.301   4.326   1.565  0.5146  1.2466  0.9924
 7760TIP3   OH223243   6.470   2.168   2.212  0.1767  0.7942  0.4125
 7760TIP3    H123244   6.496   2.228   2.282  0.9132 -0.7474  1.5071
 7760TIP3    H223245   6.404   2.111   2.252  0.7832 -0.2684 -0.0497
 7761TIP3   OH223246   1.945   5.234   0.947 -0.2291 -0.5215 -0.7526
 7761TIP3    H123247   1.931   5.292   0.873  0.5578  0.0284 -0.4887
 7761TIP3    H223248   1.914   5.148   0.917 -0.6891 -0.1310 -1.4136
 7762TIP3   OH223249   1.259   4.279   5.482 -0.3930 -0.1378 -0.0770
 7762TIP3    H123250   1.353   4.265   5.478 -0.4173 -0.2578 -0.2393
 7762TIP3    H223251   1.248   4.355   5.539 -0.2528 -0.6999  0.7050
 7763TIP3   OH223252   3.462   1.558   2.108 -0.5673  0.6244 -0.0034
 7763TIP3    H123253   3.437   1.621   2.175  0.4321  1.7325 -0.6413
 7763TIP3    H223254   3.471   1.609   2.028  0.5208 -0.2553 -0.4845
 7764TIP3   OH223255   0.418   2.333   5.853  0.2174  0.2467 -0.1025
 7764TIP3    H123256   0.510   2.312   5.863  0.0623  0.2060  1.3967
 7764TIP3    H223257   0.378   2.310   5.937 -0.5973  3.0854  0.4107
 7765TIP3   OH223258   1.674   3.664   0.438  0.3888  0.1938 -0.0307
 7765TIP3    H123259   1.607   3.704   0.493  0.5120 -0.7696  0.8759
 7765TIP3    H223260   1.757   3.687   0.481  0.5129 -0.1928 -0.0544
 7766TIP3   OH223261   3.781   5.398   4.392  0.3813  0.0866 -0.2592
 7766TIP3    H123262   3.849   5.464   4.404 -0.0676  0.1956  2.0073
 7766TIP3    H223263   3.701   5.449   4.378  0.6507 -0.0416 -2.6963
 7767TIP3   OH223264   4.671   6.261   3.003  0.0512  0.4677 -0.1648
 7767TIP3    H123265   4.611   6.298   3.067  0.1593 -2.7976  2.1205
 7767TIP3    H223266   4.617   6.246   2.925 -1.5200 -0.0651  0.9590
 7768TIP3   OH223267   5.455   5.043   2.449  0.2212 -0.6980  0.1662
 7768TIP3    H123268   5.405   5.113   2.493 -0.1877  0.1045 -1.4608
 7768TIP3    H223269   5.411   4.962   2.475  1.2105 -0.4888  2.7661
 7769TIP3   OH223270   5.785   1.444   3.219  0.1071  0.4811 -0.0763
 7769TIP3    H123271   5.736   1.375   3.175  1.6243 -0.4019 -0.4253
 7769TIP3    H223272   5.717   1.501   3.257 -1.2347 -2.3210  2.0973
 7770TIP3   OH223273   3.340   0.143   3.776 -0.1798 -0.2809  0.2525
 7770TIP3    H123274   3.362   0.137   3.869 -1.3959  0.8107  0.6496
 7770TIP3    H223275   3.324   0.052   3.750  0.8732 -0.6761  0.9171
 7771TIP3   OH223276   1.443   1.240   3.763  0.0892 -0.0204  0.1414
 7771TIP3    H123277   1.507   1.202   3.823  0.7459  1.9881  0.7805
 7771TIP3    H223278   1.368   1.261   3.818 -0.4572 -0.8069 -0.2913
 7772TIP3   OH223279   6.692   3.763   2.825  0.6104 -0.0122  0.6472
 7772TIP3    H123280   6.671   3.670   2.835 -0.1623  0.2470  1.6396
 7772TIP3    H223281   6.759   3.779   2.892 -0.6161  0.5441  1.7666
 7773TIP3   OH223282   2.954   4.217   0.893  0.1987  0.1306  0.0664
 7773TIP3    H123283   2.951   4.311   0.909 -0.4509  0.2468 -0.6633
 7773TIP3    H223284   3.027   4.206   0.832  1.0762 -0.0080  1.1070
 7774TIP3   OH223285   5.715   0.413   3.829  0.3756  0.5056  0.0782
 7774TIP3    H123286   5.724   0.502   3.794  0.0386 -0.1417 -1.7275
 7774TIP3    H223287   5.804   0.377   3.827  0.3176  0.3865 -0.3391
 7775TIP3   OH223288   6.735   0.613   1.435 -0.0627  0.2443  0.4512
 7775TIP3    H123289   6.729   0.585   1.527  0.8616  0.6128  0.6331
 7775TIP3    H223290   6.644   0.621   1.406 -0.3780  0.8301  1.5554
 7776TIP3   OH223291   3.610   3.622   2.633  0.2949 -0.1966 -0.3607
 7776TIP3    H123292   3.562   3.693   2.675 -0.7000 -1.3701  0.5726
 7776TIP3    H223293   3.686   3.664   2.593 -1.5444  1.7429 -2.0037
 7777TIP3   OH223294   6.870   5.564   2.429  0.1879  0.1944 -0.4515
 7777TIP3    H123295   6.794   5.616   2.454 -0.3939 -0.7024 -0.3461
 7777TIP3    H223296   6.856   5.543   2.337  0.3858  0.1493 -0.4729
 7778TIP3   OH223297   7.193   6.188   4.184  0.2055  0.1770 -0.5130
 7778TIP3    H123298   7.144   6.107   4.197 -0.2677  0.3642 -1.0979
 7778TIP3    H223299   7.230   6.208   4.271 -0.8506  0.1012 -0.0331
 7779TIP3   OH223300   3.061   0.404   1.683  0.2093  0.7590 -0.2708
 7779TIP3    H123301   3.081   0.443   1.769 -2.8501 -0.4249  1.1412
 7779TIP3    H223302   3.083   0.311   1.693 -0.2832  0.5906 -0.7381
 7780TIP3   OH223303   3.616   3.775   0.891 -0.1432  0.5516  0.0571
 7780TIP3    H123304   3.576   3.731   0.816 -0.8927 -1.7249  1.6671
 7780TIP3    H223305   3.544   3.824   0.931 -0.5648 -0.8434  1.0646
 7781TIP3   OH223306   3.424   2.449   2.667 -0.3381 -0.3182 -0.5059
 7781TIP3    H123307   3.426   2.408   2.753  0.3919  0.3939 -0.1763
 7781TIP3    H223308   3.337   2.487   2.660  0.0079  0.6613  0.4162
 7782TIP3   OH223309   4.680   3.718   5.123 -0.1971 -0.5939  0.5457
 7782TIP3    H123310   4.626   3.786   5.085  0.2351 -1.2228 -1.3172
 7782TIP3    H223311   4.736   3.688   5.051 -0.0143 -2.5513  1.4135
 7783TIP3   OH223312   6.091   5.802   3.358  0.4090  0.3910 -0.0090
 7783TIP3    H123313   6.069   5.832   3.447 -1.3182  2.6240 -1.0696
 7783TIP3    H223314   6.163   5.860   3.331  1.2632 -0.6080  0.0663
 7784TIP3   OH223315   5.793   4.565   4.022  0.0333  0.0939 -0.0224
 7784TIP3    H123316   5.883   4.548   3.996  0.0187 -1.1397  0.6298
 7784TIP3    H223317   5.749   4.592   3.942  1.0601  1.0735 -0.2714
 7785TIP3   OH223318   1.582   1.477   3.668  0.1863  0.8330  0.3480
 7785TIP3    H123319   1.615   1.530   3.741 -0.6679 -0.2370  1.5654
 7785TIP3    H223320   1.548   1.397   3.709 -1.8488  0.8981 -1.0172
 7786TIP3   OH223321   6.189   3.954   4.474  0.0791  0.6001 -0.0299
 7786TIP3    H123322   6.272   4.000   4.478  0.7554 -0.5393 -0.3115
 7786TIP3    H223323   6.129   4.015   4.431  1.0609  1.0412 -0.8281
 7787TIP3   OH223324   2.143   1.623   4.110 -0.1360 -0.4398 -0.6419
 7787TIP3    H123325   2.226   1.576   4.104 -0.1635 -0.7750  1.0085
 7787TIP3    H223326   2.077   1.555   4.122 -0.6245 -0.1606 -1.6591
 7788TIP3   OH223327   3.886   2.091   4.865  0.9090 -0.0383  0.3499
 7788TIP3    H123328   3.975   2.070   4.838  1.3080  0.2301  1.4056
 7788TIP3    H223329   3.866   2.027   4.934  0.7187  0.6294  0.9245
 7789TIP3   OH223330   1.032   0.041   1.791  0.1886  0.0996  0.6824
 7789TIP3    H123331   1.039   0.037   1.695  0.2512  2.7345  0.4972
 7789TIP3    H223332   0.958   0.100   1.807  0.9746  0.7404  2.2111
 7790TIP3   OH223333   4.266   3.992   4.818 -0.1620  0.0420 -0.6444
 7790TIP3    H123334   4.345   3.963   4.772  0.4797  1.3204 -0.3809
 7790TIP3    H223335   4.296   4.060   4.878 -1.2439 -0.4460  0.5037
 7791TIP3   OH223336   1.123   0.885   2.311  0.0093  0.3752  0.0592
 7791TIP3    H123337   1.092   0.794   2.301 -1.0207  0.7313 -0.1445
 7791TIP3    H223338   1.186   0.897   2.240  1.3867 -0.6694  1.0506
 7792TIP3   OH223339   5.480   1.333   3.495  0.3229 -0.1067 -0.4872
 7792TIP3    H123340   5.442   1.410   3.452 -0.2222  0.5836  1.1412
 7792TIP3    H223341   5.487   1.358   3.587  3.5087 -0.6919 -0.4340
 7793TIP3   OH223342   3.664   5.957   0.927 -0.3544  0.5763 -0.0055
 7793TIP3    H123343   3.595   6.023   0.929 -1.0836 -0.1427 -0.7543
 7793TIP3    H223344   3.637   5.896   0.859 -0.5654 -1.4082  1.7471
 7794TIP3   OH223345   6.515   4.866   3.464  0.4089 -0.3828 -0.3898
 7794TIP3    H123346   6.505   4.907   3.550  0.1455  0.1290 -0.6677
 7794TIP3    H223347   6.442   4.804   3.458 -0.6341  0.8604 -0.9766
 7795TIP3   OH223348   5.918   0.769   4.978 -0.0337  0.0650  0.5129
 7795TIP3    H123349   5.948   0.857   4.955 -0.9708  0.2227 -0.1738
 7795TIP3    H223350   5.948   0.756   5.068  1.7116  0.3593  0.0110
 7796TIP3   OH223351   4.537   2.242   4.400 -0.2693 -0.0054 -0.5527
 7796TIP3    H123352   4.583   2.279   4.325 -0.6693  1.3405 -0.1543
 7796TIP3    H223353   4.444   2.254   4.380 -0.3721  1.2568  0.5616
 7797TIP3   OH223354   2.828   5.588   2.202 -0.3424  0.2373 -0.0366
 7797TIP3    H123355   2.843   5.682   2.191 -0.0364  0.1809 -0.1275
 7797TIP3    H223356   2.733   5.578   2.201 -0.6036  0.9930  3.5620
 7798TIP3   OH223357   3.821   3.481   3.277 -0.5391  0.1930  0.2699
 7798TIP3    H123358   3.874   3.561   3.278 -2.7324  1.7383  0.5976
 7798TIP3    H223359   3.790   3.475   3.187  1.0506 -1.3917 -0.2376
 7799TIP3   OH223360   6.258   6.023   1.493  0.0783  0.1655  0.2395
 7799TIP3    H123361   6.339   6.022   1.441 -0.6801  2.4067 -1.1357
 7799TIP3    H223362   6.255   6.111   1.530 -1.4457 -0.0798  0.7358
 7800TIP3   OH223363   1.451   4.592   2.210 -0.0860 -0.5763  0.6653
 7800TIP3    H123364   1.441   4.683   2.182  0.1130 -1.0153 -0.9005
 7800TIP3    H223365   1.371   4.549   2.179  0.0084 -1.0230  1.0452
 7801TIP3   OH223366   5.232   5.053   1.946  0.3733 -0.0331 -0.0500
 7801TIP3    H123367   5.322   5.083   1.938  0.3526  0.0650  0.0773
 7801TIP3    H223368   5.237   4.974   2.000  0.0371  1.9000  3.1034
 7802TIP3   OH223369   4.976   6.600   4.748  0.1225  0.0594  0.3211
 7802TIP3    H123370   4.986   6.514   4.789  0.8082 -0.4025 -0.7664
 7802TIP3    H223371   5.021   6.592   4.664  1.8055  2.0286  0.9589
 7803TIP3   OH223372   3.593   6.099   0.206 -0.0457  0.0855 -0.1816
 7803TIP3    H123373   3.586   6.079   0.300 -3.4656 -0.8662 -0.5182
 7803TIP3    H223374   3.629   6.019   0.167  2.1200  0.7465  0.3044
 7804TIP3   OH223375   3.714   0.015   2.375  0.0305  0.0742 -0.2540
 7804TIP3    H123376   3.718   0.066   2.294  2.3299  0.0100 -0.2473
 7804TIP3    H223377   3.804  -0.013   2.390 -0.0826  0.9411  2.8592
 7805TIP3   OH223378   3.503   0.134   0.121  0.2568 -0.0532  0.0688
 7805TIP3    H123379   3.435   0.143   0.188 -0.4220 -1.4137 -0.3991
 7805TIP3    H223380   3.511   0.040   0.107 -0.5341  0.2025 -2.6916
 7806TIP3   OH223381   3.904   3.596   4.445 -0.0923  0.5526 -0.8199
 7806TIP3    H123382   3.957   3.563   4.373 -2.2560 -1.1410 -1.7653
 7806TIP3    H223383   3.813   3.586   4.415 -1.0264  3.3335  0.6850
 7807TIP3   OH223384   1.317   3.265   4.091 -0.1137 -0.5223  0.5556
 7807TIP3    H123385   1.387   3.318   4.128 -0.6697  0.2139  0.5701
 7807TIP3    H223386   1.313   3.188   4.148  1.0445 -0.8531  0.2287
 7808TIP3   OH223387   0.410   3.447   2.743 -0.3305 -0.5657  0.3741
 7808TIP3    H123388   0.357   3.426   2.821 -1.4646 -2.9753 -0.9294
 7808TIP3    H223389   0.347   3.482   2.680 -0.1966 -2.1942 -0.7245
 7809TIP3   OH223390   6.782   1.893   1.487  0.0538  0.0273 -0.5332
 7809TIP3    H123391   6.744   1.810   1.516 -0.1875 -0.4375 -2.0880
 7809TIP3    H223392   6.746   1.958   1.548  0.1704 -0.9767  0.6534
 7810TIP3   OH223393   2.854   0.001   3.368 -0.1497  0.3095  0.5537
 7810TIP3    H123394   2.940  -0.027   3.398  0.1686 -0.7404 -1.1832
 7810TIP3    H223395   2.854   0.096   3.380  0.5246  0.1329  2.2535
 7811TIP3   OH223396   5.428   3.614   3.242  0.2857 -0.8458  0.3079
 7811TIP3    H123397   5.499   3.550   3.231  1.0863  0.3489 -2.1532
 7811TIP3    H223398   5.463   3.677   3.306  0.3101 -1.7077  1.1683
 7812TIP3   OH223399   5.560   0.658   3.958  0.0281  0.3077  0.3350
 7812TIP3    H123400   5.630   0.664   4.023  0.3137  2.4132 -0.0748
 7812TIP3    H223401   5.606   0.660   3.874 -0.4632  3.6382  0.0022
 7813TIP3   OH223402   1.199   5.254   0.630 -0.4067  0.7220 -0.4273
 7813TIP3    H123403   1.149   5.174   0.645 -1.4508  1.6313  1.2628
 7813TIP3    H223404   1.200   5.264   0.534 -2.2887 -0.0607 -0.5679
 7814TIP3   OH223405   1.321   4.290   3.875 -0.3045  0.2255  0.1471
 7814TIP3    H123406   1.288   4.242   3.951  1.4147  0.0800  0.8280
 7814TIP3    H223407   1.378   4.228   3.830 -0.3180  0.7168 -0.5679
 7815TIP3   OH223408   4.481   1.483   3.896 -0.4610 -0.0363 -0.0661
 7815TIP3    H123409   4.576   1.496   3.899 -0.2075 -1.6458 -0.1101
 7815TIP3    H223410   4.468   1.419   3.826 -1.6183  0.3897 -0.2637
 7816TIP3   OH223411   1.846   2.294   2.615  0.2975  0.2351  0.1284
 7816TIP3    H123412   1.856   2.235   2.690  0.0437  2.3493  1.9379
 7816TIP3    H223413   1.929   2.287   2.567 -0.5686 -3.3055 -1.1694
 7817TIP3   OH223414   2.997   1.251   0.695  0.1948  0.3116  0.0050
 7817TIP3    H123415   2.973   1.249   0.788  1.7408 -0.8588  0.4271
 7817TIP3    H223416   2.914   1.268   0.649 -0.6089  0.8602  1.5853
 7818TIP3   OH223417   1.986   5.643   0.924 -0.0265 -0.4561  0.2147
 7818TIP3    H123418   1.990   5.728   0.969  0.6381 -0.8352  0.8865
 7818TIP3    H223419   1.894   5.635   0.898  0.3400  1.6032 -2.0957
 7819TIP3   OH223420   1.470   2.640   2.063 -0.4191  0.2948 -0.3242
 7819TIP3    H123421   1.406   2.574   2.037 -1.0526  0.2773  1.1625
 7819TIP3    H223422   1.517   2.600   2.137 -0.9507  1.5453  0.7358
 7820TIP3   OH223423   0.345   5.152   2.111 -0.2925  0.1117 -0.6690
 7820TIP3    H123424   0.312   5.181   2.026 -0.9269 -0.0547 -0.4856
 7820TIP3    H223425   0.297   5.206   2.174 -1.0147 -0.8784 -0.3532
 7821TIP3   OH223426   5.711   2.819   0.718 -0.3609  0.3873  0.0723
 7821TIP3    H123427   5.748   2.865   0.793 -0.7446  2.1973 -0.8084
 7821TIP3    H223428   5.762   2.738   0.713  2.9761  2.3161 -0.5294
 7822TIP3   OH223429   2.106   6.534   5.022 -0.2284  0.5373 -0.5787
 7822TIP3    H123430   2.077   6.463   5.079 -0.5732  1.1593  0.0345
 7822TIP3    H223431   2.053   6.610   5.049  1.0699  1.3719 -0.2910
 7823TIP3   OH223432   1.723   5.433   5.014  0.2003  0.1216  0.6094
 7823TIP3    H123433   1.656   5.467   4.955  0.6993 -0.0517 -0.0736
 7823TIP3    H223434   1.676   5.414   5.096 -0.3752  0.9575  0.4833
 7824TIP3   OH223435   5.988   2.402   3.343  0.2712 -0.2566  0.0027
 7824TIP3    H123436   6.002   2.414   3.249 -0.3136 -1.0426 -0.1913
 7824TIP3    H223437   5.893   2.393   3.352  0.2709  0.4392  0.7498
 7825TIP3   OH223438   4.195   0.812   0.147 -0.4405 -0.2149 -0.3258
 7825TIP3    H123439   4.226   0.721   0.148 -1.6798 -0.6677  1.0495
 7825TIP3    H223440   4.136   0.817   0.072 -0.8771 -0.7404 -0.0219
 7826TIP3   OH223441   4.360   2.193   3.258 -0.3721  0.3047 -0.0459
 7826TIP3    H123442   4.394   2.106   3.281 -0.6745  0.3198  0.4711
 7826TIP3    H223443   4.342   2.234   3.342  0.4235  1.1344 -0.2627
 7827TIP3   OH223444   2.783   4.924   1.406  0.7166  0.2488  0.3976
 7827TIP3    H123445   2.722   4.850   1.412  0.3222  0.7068  3.0470
 7827TIP3    H223446   2.862   4.885   1.369 -0.5366 -0.7432 -1.4065
 7828TIP3   OH223447   2.077   1.031   5.828  0.2352  0.1912  0.7239
 7828TIP3    H123448   2.064   0.977   5.750  0.8269 -0.4520  1.0509
 7828TIP3    H223449   2.116   0.971   5.891  1.7691  1.2201  0.8000
 7829TIP3   OH223450   2.055   2.969   1.449 -0.1052 -0.1441  0.1000
 7829TIP3    H123451   2.012   2.990   1.366 -0.4324 -0.2632  0.2365
 7829TIP3    H223452   1.989   2.920   1.498 -0.5651  1.4532  1.1471
 7830TIP3   OH223453   6.263   2.319   2.109  0.0302  0.7468  1.0118
 7830TIP3    H123454   6.210   2.240   2.105 -0.4132  1.0309  1.2433
 7830TIP3    H223455   6.349   2.288   2.139 -0.5457  0.5358  2.5479
 7831TIP3   OH223456   0.227   6.317   3.639  0.3918  0.0372  0.1591
 7831TIP3    H123457   0.305   6.262   3.636  1.1123  1.0583 -1.2902
 7831TIP3    H223458   0.259   6.406   3.624 -0.9057  0.6808  0.9422
 7832TIP3   OH223459   0.822   1.112   5.429 -0.1630  0.2742  0.3965
 7832TIP3    H123460   0.828   1.029   5.382  0.4832  0.1630  0.6566
 7832TIP3    H223461   0.825   1.087   5.522  2.3191  0.6858  0.5076
 7833TIP3   OH223462   6.862   4.698   4.612  0.1112 -0.1592 -0.4195
 7833TIP3    H123463   6.815   4.619   4.640 -0.8012  1.3704  2.9474
 7833TIP3    H223464   6.802   4.740   4.550 -1.6602  0.1805  1.4170
 7834TIP3   OH223465   4.536   6.412   3.204  0.4968 -0.2565 -0.0488
 7834TIP3    H123466   4.614   6.403   3.259 -0.1974 -0.1983  0.9762
 7834TIP3    H223467   4.559   6.481   3.142  1.5251 -0.7581 -0.2519
 7835TIP3   OH223468   7.044   3.567   4.193 -0.0535 -0.4788  0.0212
 7835TIP3    H123469   6.992   3.550   4.273  1.4897 -0.0101  1.1681
 7835TIP3    H223470   7.040   3.662   4.182  1.1026 -0.3571  0.5264
 7836TIP3   OH223471   3.038   5.569   0.797  0.9067 -0.2484  0.2649
 7836TIP3    H123472   3.101   5.576   0.869 -0.1666  0.8823  1.1228
 7836TIP3    H223473   2.977   5.500   0.825 -0.2056  0.9972  1.0327
 7837TIP3   OH223474   6.134   3.662   3.995 -0.0637  0.0720 -0.2375
 7837TIP3    H123475   6.202   3.656   4.063 -0.2541 -1.5181 -0.1401
 7837TIP3    H223476   6.125   3.572   3.963 -3.4616 -0.1984  1.0998
 7838TIP3   OH223477   4.758   0.730   5.114 -0.2254 -0.6667 -0.0689
 7838TIP3    H123478   4.709   0.715   5.195  1.1325  0.2523  0.9729
 7838TIP3    H223479   4.811   0.650   5.103 -0.2263 -0.6904  0.0940
 7839TIP3   OH223480   1.610   4.491   4.003 -0.0139 -0.6682 -0.6644
 7839TIP3    H123481   1.601   4.562   3.940  0.0566  0.4867  0.5676
 7839TIP3    H223482   1.647   4.418   3.953 -2.0068 -0.5454 -2.4298
 7840TIP3   OH223483   6.703   3.797   1.290  0.7761 -0.2255  0.1141
 7840TIP3    H123484   6.729   3.856   1.220  1.4488  1.0728  1.3879
 7840TIP3    H223485   6.747   3.715   1.270  0.6591  0.0063 -1.1599
 7841TIP3   OH223486   1.439   1.401   5.281  0.4368 -0.4538 -0.4123
 7841TIP3    H123487   1.502   1.376   5.350  2.4090  0.2339 -1.8773
 7841TIP3    H223488   1.417   1.318   5.238  0.1142 -0.7320  0.2620
 7842TIP3   OH223489   6.545   0.489   2.651 -0.8178  0.4311  0.0069
 7842TIP3    H123490   6.594   0.496   2.569 -0.4831  0.1084  0.1751
 7842TIP3    H223491   6.486   0.415   2.637 -0.0223 -0.2947  0.4275
 7843TIP3   OH223492   7.012   5.969   1.191 -0.1502  0.3778 -0.0718
 7843TIP3    H123493   7.089   5.930   1.232  0.3609  1.5055  0.0681
 7843TIP3    H223494   6.938   5.934   1.240  0.1192 -1.9106 -1.1364
 7844TIP3   OH223495   3.996   0.282   2.542 -0.3529 -0.1774 -0.2430
 7844TIP3    H123496   4.003   0.200   2.591 -1.7635 -0.0038  0.3067
 7844TIP3    H223497   3.973   0.348   2.609 -0.5438  0.4077 -0.8735
 7845TIP3   OH223498   5.172   1.624   0.419 -0.1814 -0.3546  0.3023
 7845TIP3    H123499   5.183   1.649   0.511  1.2964 -2.2047  0.6881
 7845TIP3    H223500   5.120   1.544   0.423  0.4807 -0.8314 -0.4035
 7846TIP3   OH223501   1.398   2.189   0.153 -0.5129 -0.8232 -0.2886
 7846TIP3    H123502   1.339   2.251   0.196 -0.2625 -0.4301 -0.5039
 7846TIP3    H223503   1.400   2.113   0.212  0.0888 -0.1621  0.5784
 7847TIP3   OH223504   4.186   2.453   0.380  0.0138 -0.1643 -0.1237
 7847TIP3    H123505   4.250   2.398   0.334  0.5414  1.0357 -0.8643
 7847TIP3    H223506   4.227   2.471   0.464 -0.0191 -0.6249 -0.0039
 7848TIP3   OH223507   0.462   5.425   2.763  0.6583 -0.5801 -0.0026
 7848TIP3    H123508   0.476   5.332   2.782 -1.7733 -0.6325  2.0578
 7848TIP3    H223509   0.532   5.469   2.810  0.1051 -1.2701  1.5467
 7849TIP3   OH223510   6.753   4.675   1.035  0.4906 -0.7891 -0.1569
 7849TIP3    H123511   6.723   4.602   1.089  0.3897 -0.1345  0.7113
 7849TIP3    H223512   6.753   4.750   1.095  1.0094 -0.1673 -0.9117
 7850TIP3   OH223513   0.982   6.712   4.347 -0.3041 -0.7628  0.3859
 7850TIP3    H123514   1.066   6.668   4.332  1.1852  1.8104  0.6363
 7850TIP3    H223515   1.001   6.777   4.415 -2.3536  0.3112 -0.0107
 7851TIP3   OH223516   1.474   6.796   2.061 -0.1955 -0.4314 -0.6025
 7851TIP3    H123517   1.490   6.803   2.155  1.9919  0.5245 -0.9920
 7851TIP3    H223518   1.484   6.703   2.042 -0.7108 -0.6405  0.1093
 7852TIP3   OH223519   5.314   5.226   2.585 -0.4108 -0.0172 -0.1388
 7852TIP3    H123520   5.305   5.321   2.575  2.0229  0.3955  0.7337
 7852TIP3    H223521   5.309   5.212   2.680 -0.7862 -0.7568 -0.2660
 7853TIP3   OH223522   7.070   6.479   1.572  0.2634  0.3339  0.1573
 7853TIP3    H123523   7.133   6.463   1.501 -2.9989 -1.1398 -2.7107
 7853TIP3    H223524   7.065   6.396   1.619  1.5591  0.9529  1.4595
 7854TIP3   OH223525   6.727   0.146   0.664  0.0465  0.1484 -0.5131
 7854TIP3    H123526   6.714   0.053   0.645  0.0374 -0.4452  2.0407
 7854TIP3    H223527   6.697   0.191   0.585 -0.9425 -1.9552 -1.4209
 7855TIP3   OH223528   3.066   1.922   4.268 -0.0716  0.2926 -0.1487
 7855TIP3    H123529   3.010   1.856   4.227  1.2136 -0.1426 -1.2665
 7855TIP3    H223530   3.104   1.877   4.344 -1.9736  0.9105  1.2548
 7856TIP3   OH223531   0.827   4.722   1.209 -0.7021  0.3749 -0.4361
 7856TIP3    H123532   0.779   4.791   1.163 -1.7740 -0.0512  0.0094
 7856TIP3    H223533   0.765   4.690   1.275  0.1761 -0.2530  0.0965
 7857TIP3   OH223534   2.083   2.997   5.543 -0.5285  0.4777 -0.3235
 7857TIP3    H123535   2.067   2.904   5.559  1.1718 -0.0915 -1.5954
 7857TIP3    H223536   2.136   3.025   5.617 -0.0575  0.1221 -0.5231
 7858TIP3   OH223537   5.192   1.394   0.209 -0.0232  0.2924  0.5658
 7858TIP3    H123538   5.115   1.430   0.254 -1.0396 -0.2281 -0.6817
 7858TIP3    H223539   5.173   1.407   0.116  1.9963  1.3174  0.2301
 7859TIP3   OH223540   5.448   2.951   1.500  0.4635  0.2816  0.0823
 7859TIP3    H123541   5.512   3.022   1.510 -0.3043  1.2118 -1.2797
 7859TIP3    H223542   5.384   2.967   1.570  0.2051  1.0442 -0.3222
 7860TIP3   OH223543   1.971   5.278   2.967 -0.2625 -0.1960  0.5674
 7860TIP3    H123544   2.026   5.305   2.893 -2.2865  0.6637 -0.6970
 7860TIP3    H223545   1.978   5.350   3.030 -0.2908  0.1257  0.2064
 7861TIP3   OH223546   1.672   2.386   3.716  0.0196  0.2285  0.1299
 7861TIP3    H123547   1.610   2.319   3.687  0.3346 -0.0934  0.2008
 7861TIP3    H223548   1.674   2.377   3.811 -0.1281  0.5096  0.1616
 7862TIP3   OH223549   2.336   6.044   3.293  0.5982 -0.0046  0.1073
 7862TIP3    H123550   2.353   5.996   3.212  0.3706  0.8301 -0.4537
 7862TIP3    H223551   2.303   6.129   3.264  0.8031  0.4220  1.0750
 7863TIP3   OH223552   6.651   2.033   5.467  0.8045 -0.8923 -0.1696
 7863TIP3    H123553   6.681   1.984   5.543 -0.0789 -2.0674 -0.5567
 7863TIP3    H223554   6.614   1.967   5.408 -1.7377  0.3516 -0.1028
 7864TIP3   OH223555   0.303   4.849   1.693 -0.2359  0.1960 -0.1089
 7864TIP3    H123556   0.231   4.864   1.631  0.3923  1.5543 -0.5605
 7864TIP3    H223557   0.265   4.868   1.778 -0.2465  1.6771 -0.4151
 7865TIP3   OH223558   0.991   0.879   0.623 -0.0858  0.0065 -0.2443
 7865TIP3    H123559   0.947   0.807   0.577 -1.0275  1.0769 -1.0856
 7865TIP3    H223560   0.953   0.878   0.711 -1.6499  0.7109 -0.8625
 7866TIP3   OH223561   4.985   4.274   5.387 -0.2168  0.0575  0.0305
 7866TIP3    H123562   5.034   4.192   5.384 -1.9905 -1.0198 -2.0958
 7866TIP3    H223563   5.035   4.334   5.332 -0.5014 -0.5670 -0.9182
 7867TIP3   OH223564   3.915   2.717   3.196  0.1177 -0.5392 -0.3150
 7867TIP3    H123565   3.986   2.709   3.132 -0.0719  0.0416 -0.5963
 7867TIP3    H223566   3.884   2.627   3.207 -0.9373 -0.4758 -2.2760
 7868TIP3   OH223567   6.229   3.214   4.029  0.1741 -0.2865  0.0645
 7868TIP3    H123568   6.273   3.293   4.061 -0.7469  0.8046 -1.2676
 7868TIP3    H223569   6.301   3.154   4.005  0.8766 -0.0323  1.4370
 7869TIP3   OH223570   2.283   1.490   0.153  0.3199 -0.0201  0.2789
 7869TIP3    H123571   2.252   1.483   0.243  0.5931  0.7046  0.4326
 7869TIP3    H223572   2.206   1.519   0.104 -0.0097 -1.0602  0.1517
 7870TIP3   OH223573   3.253   1.379   1.625 -0.3644  0.0930 -0.5039
 7870TIP3    H123574   3.339   1.338   1.617  0.1156  1.1460 -0.9634
 7870TIP3    H223575   3.267   1.470   1.598 -1.8903 -0.0242 -1.8341
 7871TIP3   OH223576   6.181   0.212   1.903  0.0716  0.0820  0.0182
 7871TIP3    H123577   6.104   0.263   1.929  0.0162 -0.1285  0.2579
 7871TIP3    H223578   6.188   0.142   1.968  0.6066  0.2422  0.1406
 7872TIP3   OH223579   1.246   1.027   0.668 -0.2160 -0.1584 -0.5914
 7872TIP3    H123580   1.157   0.999   0.649  0.2637 -2.5409  0.2685
 7872TIP3    H223581   1.277   1.068   0.587 -1.3760 -1.2590 -1.6198
 7873TIP3   OH223582   5.865   4.451   2.098 -0.2989 -0.6602  0.1715
 7873TIP3    H123583   5.933   4.432   2.033  0.8948 -2.7847  1.8951
 7873TIP3    H223584   5.913   4.487   2.172 -1.4245  0.2085  0.5026
 7874TIP3   OH223585   5.886   2.128   1.094  0.1291  0.4926  0.1043
 7874TIP3    H123586   5.980   2.120   1.078 -0.0383 -2.5797 -0.0050
 7874TIP3    H223587   5.845   2.101   1.012 -0.8212 -0.2079  0.7857
 7875TIP3   OH223588   4.615   0.084   4.611 -0.1443 -0.5034  0.4172
 7875TIP3    H123589   4.535   0.034   4.628  0.8695 -3.4138 -2.2934
 7875TIP3    H223590   4.589   0.151   4.548 -0.5623 -1.4100 -0.4159
 7876TIP3   OH223591   5.413   4.036   1.647 -0.0552 -0.2064  0.5649
 7876TIP3    H123592   5.506   4.023   1.628 -0.6321 -1.0059 -2.2971
 7876TIP3    H223593   5.399   4.130   1.633  0.2998 -0.1073  0.8622
 7877TIP3   OH223594   3.825   1.762   1.560  0.0307 -0.0728 -0.0950
 7877TIP3    H123595   3.789   1.680   1.527 -1.3193 -0.1326  1.4043
 7877TIP3    H223596   3.888   1.737   1.627 -0.4693  0.0903  0.4492
 7878TIP3   OH223597   2.051   6.168   2.764  0.0070 -0.0649 -0.7743
 7878TIP3    H123598   2.063   6.162   2.858 -0.4068 -0.7330 -0.7587
 7878TIP3    H223599   1.962   6.199   2.753  0.7329  2.1186 -0.9303
 7879TIP3   OH223600   2.680   4.352   1.708 -0.6978  0.9492 -0.4045
 7879TIP3    H123601   2.672   4.315   1.795 -1.2384 -0.7778 -1.1481
 7879TIP3    H223602   2.665   4.446   1.720  3.9900  1.6811  2.1037
 7880TIP3   OH223603   2.264   1.653   0.511 -0.6714  0.6346  0.1631
 7880TIP3    H123604   2.355   1.656   0.541 -0.8486  2.0936  0.6225
 7880TIP3    H223605   2.248   1.561   0.492  0.5536  0.1915  1.1610
 7881TIP3   OH223606   6.682   4.721   5.811  0.0946  0.2224 -0.1110
 7881TIP3    H123607   6.674   4.629   5.785  0.4446 -0.1798  1.1203
 7881TIP3    H223608   6.717   4.765   5.734 -0.5912 -0.5741 -0.8957
 7882TIP3   OH223609   3.042   2.026   1.631 -0.1769 -0.2018  0.2079
 7882TIP3    H123610   3.000   1.986   1.708  0.5435 -1.5512 -0.0592
 7882TIP3    H223611   2.996   1.988   1.556  2.5927 -3.3147 -0.1876
 7883TIP3   OH223612   4.360   6.259   4.280  0.2880  0.3884 -0.1122
 7883TIP3    H123613   4.379   6.342   4.325 -0.3486  0.7583 -0.5153
 7883TIP3    H223614   4.282   6.277   4.228  0.7035 -0.1864 -0.9625
 7884TIP3   OH223615   0.768   5.587   0.784 -0.7328  0.1549  0.0294
 7884TIP3    H123616   0.790   5.660   0.842 -2.1088  1.2210 -0.7346
 7884TIP3    H223617   0.703   5.536   0.833 -0.5823  0.0560  0.1269
 7885TIP3   OH223618   4.807   4.686   3.802  0.0357  0.2087  0.2110
 7885TIP3    H123619   4.745   4.724   3.740 -0.5617 -0.1326  0.5809
 7885TIP3    H223620   4.757   4.617   3.846  0.2813  0.7667  1.4248
 7886TIP3   OH223621   7.196   1.232   1.280  0.1304  0.2887 -0.3261
 7886TIP3    H123622   7.243   1.267   1.204  0.3081 -1.3047 -0.9979
 7886TIP3    H223623   7.145   1.306   1.313  1.0160  1.3465 -1.2295
 7887TIP3   OH223624   5.999   2.869   1.750  0.2638  0.0238  0.4207
 7887TIP3    H123625   6.070   2.852   1.811 -0.0123  0.8867  0.9989
 7887TIP3    H223626   5.941   2.929   1.797 -1.4559 -1.5626  0.4239
 7888TIP3   OH223627   5.794   0.311   4.095 -0.0960  0.0088 -0.0099
 7888TIP3    H123628   5.765   0.356   4.016 -0.7390 -1.4374 -0.6256
 7888TIP3    H223629   5.861   0.250   4.065 -2.6250 -2.9485 -0.0879
 7889TIP3   OH223630   4.595   4.106   3.464 -0.0161  0.0710 -0.1471
 7889TIP3    H123631   4.577   4.193   3.430 -0.8822 -0.8656 -2.2713
 7889TIP3    H223632   4.680   4.082   3.428 -0.2559 -0.3578 -0.4400
 7890TIP3   OH223633   2.088   3.417   3.109 -0.1275 -0.1476  0.0936
 7890TIP3    H123634   1.999   3.421   3.076  0.2149 -2.1494 -1.2590
 7890TIP3    H223635   2.088   3.345   3.172  0.6557 -0.5796 -0.3875
 7891TIP3   OH223636   5.605   4.025   2.575  0.7041  0.3007  0.4400
 7891TIP3    H123637   5.643   3.982   2.651  2.9254  1.4059  0.0559
 7891TIP3    H223638   5.578   4.111   2.607  2.6784  1.2106 -0.1590
 7892TIP3   OH223639   1.534   5.443   4.247 -0.0364 -0.0386 -0.4899
 7892TIP3    H123640   1.556   5.500   4.173 -0.0303  0.8726  0.2043
 7892TIP3    H223641   1.532   5.355   4.209  0.3161  0.3740 -1.5016
 7893TIP3   OH223642   2.286   6.006   1.082 -0.2432  0.2412 -0.3126
 7893TIP3    H123643   2.244   6.079   1.037  0.5244  0.5021 -0.6210
 7893TIP3    H223644   2.352   6.047   1.138  0.3147 -0.2124 -0.6215
 7894TIP3   OH223645   6.578   3.374   5.787 -0.1922  0.1467 -0.3182
 7894TIP3    H123646   6.557   3.447   5.845  1.8246  1.3837 -1.0248
 7894TIP3    H223647   6.649   3.328   5.832  0.2531  0.1457 -0.9964
 7895TIP3   OH223648   0.471   6.222   2.395 -0.1120 -0.3980 -0.0377
 7895TIP3    H123649   0.460   6.147   2.336 -0.8202  0.0222 -0.4511
 7895TIP3    H223650   0.555   6.260   2.370 -0.7518  0.2303 -1.3123
 7896TIP3   OH223651   1.089   5.238   0.931 -0.5337 -0.3480 -0.1501
 7896TIP3    H123652   1.039   5.286   0.865 -0.7206 -1.9123 -1.1991
 7896TIP3    H223653   1.162   5.200   0.882 -0.5824 -1.3975  0.5715
 7897TIP3   OH223654   4.833   2.900   4.389 -0.7853 -0.1898  0.2058
 7897TIP3    H123655   4.874   2.942   4.313  0.9561 -0.9655  0.6700
 7897TIP3    H223656   4.836   2.968   4.457  0.6055 -0.5380  0.5053
 7898TIP3   OH223657   3.370   6.614   5.277  0.2553  0.0216  0.5772
 7898TIP3    H123658   3.299   6.649   5.331 -0.7199 -0.4939 -0.3317
 7898TIP3    H223659   3.365   6.519   5.289  2.1502  0.0544  2.1279
 7899TIP3   OH223660   1.720   0.596   1.615 -0.0614  0.2265  0.2442
 7899TIP3    H123661   1.786   0.584   1.683  1.3968  0.2954 -1.1035
 7899TIP3    H223662   1.716   0.511   1.570 -0.7735  0.2754  0.1986
 7900TIP3   OH223663   4.462   3.103   4.146 -0.7555 -0.0505  0.3634
 7900TIP3    H123664   4.533   3.066   4.093  0.1657  0.2062  1.3981
 7900TIP3    H223665   4.452   3.042   4.219 -1.4921  0.0035  0.3147
 7901TIP3   OH223666   5.320   3.502   5.800 -0.2598 -0.4784  0.2577
 7901TIP3    H123667   5.345   3.563   5.730 -1.9926 -0.0334 -0.0281
 7901TIP3    H223668   5.401   3.455   5.820  0.8534  1.0572 -0.3617
 7902TIP3   OH223669   1.222   3.668   0.056 -0.0126 -0.1911 -0.4211
 7902TIP3    H123670   1.306   3.712   0.070 -0.1081 -0.5031  1.4479
 7902TIP3    H223671   1.244   3.575   0.055 -0.2918 -0.2573 -0.3810
 7903TIP3   OH223672   2.562   2.078   5.847 -0.5052 -0.0888 -0.3728
 7903TIP3    H123673   2.535   1.990   5.817 -0.3837 -0.5802  0.9023
 7903TIP3    H223674   2.563   2.131   5.767 -0.6410 -1.2336 -1.1613
 7904TIP3   OH223675   1.079   3.425   4.122 -0.0475 -0.7902 -0.2604
 7904TIP3    H123676   1.025   3.369   4.066  0.5989 -1.2199 -0.4692
 7904TIP3    H223677   1.168   3.388   4.114  0.3890  0.2555 -0.3819
 7905TIP3   OH223678   4.734   1.655   0.058  0.2331  0.1543 -0.0708
 7905TIP3    H123679   4.667   1.701   0.107 -0.0101 -1.0725  0.8041
 7905TIP3    H223680   4.817   1.689   0.092  0.0802 -1.1296  1.7153
 7906TIP3   OH223681   2.913   4.499   1.478 -0.5759  0.5090 -0.0261
 7906TIP3    H123682   2.822   4.528   1.484 -0.4485  1.2927 -1.4387
 7906TIP3    H223683   2.916   4.417   1.528 -1.5993  1.4557  1.6768
 7907TIP3   OH223684   5.317   5.495   1.748 -0.4229 -0.0497 -0.1946
 7907TIP3    H123685   5.239   5.551   1.747 -0.3300  0.0870  0.1186
 7907TIP3    H223686   5.379   5.540   1.691  0.2449  1.0377  1.3066
 7908TIP3   OH223687   4.863   5.097   5.347 -0.1538 -0.1771 -0.0172
 7908TIP3    H123688   4.790   5.037   5.362 -1.8988  2.0957  1.1304
 7908TIP3    H223689   4.874   5.099   5.252 -0.8574 -1.3582 -0.1378
 7909TIP3   OH223690   2.581   5.326   2.088  0.0106 -0.3052 -0.2404
 7909TIP3    H123691   2.668   5.291   2.068 -0.1489 -0.1858 -1.1897
 7909TIP3    H223692   2.545   5.350   2.002  0.0990  2.1364  0.3193
 7910TIP3   OH223693   0.628   3.915   5.461 -0.1015  0.2775  0.1731
 7910TIP3    H123694   0.659   3.826   5.478 -1.8463 -0.2665  0.7231
 7910TIP3    H223695   0.681   3.971   5.518  2.1138 -0.1617 -1.3176
 7911TIP3   OH223696   5.615   6.529   0.106  0.0602 -0.0713  0.3906
 7911TIP3    H123697   5.615   6.601   0.169 -0.4637 -0.5716  0.9807
 7911TIP3    H223698   5.547   6.469   0.138 -1.8679  0.7409 -1.8813
 7912TIP3   OH223699   1.974   1.810   4.932  0.2983 -0.3619  0.1169
 7912TIP3    H123700   1.955   1.797   4.839  2.6948  1.0476 -0.6729
 7912TIP3    H223701   1.962   1.724   4.971  1.5894 -1.5867 -1.9987
 7913TIP3   OH223702   1.278   4.374   4.927  0.2233  0.0805  0.2405
 7913TIP3    H123703   1.205   4.387   4.866  1.6407 -1.7158 -1.9956
 7913TIP3    H223704   1.356   4.401   4.877  1.3413 -0.3410  1.6925
 7914TIP3   OH223705   5.041   5.496   4.570 -0.2640 -0.2767  0.3111
 7914TIP3    H123706   5.095   5.420   4.591  2.2124  1.0342 -0.9126
 7914TIP3    H223707   5.041   5.501   4.475  0.2767  1.6523  0.3702
 7915TIP3   OH223708   6.502   6.336   3.936 -0.3710 -0.3378  0.1746
 7915TIP3    H123709   6.586   6.372   3.966 -0.9681  0.2284  1.2442
 7915TIP3    H223710   6.486   6.262   3.996 -0.1325 -1.1305 -0.7139
 7916TIP3   OH223711   5.573   2.600   1.212  0.2096  0.0299  0.2678
 7916TIP3    H123712   5.589   2.693   1.203 -2.7195  0.6128 -0.0288
 7916TIP3    H223713   5.575   2.584   1.307  2.0770  0.0630  0.2576
 7917TIP3   OH223714   2.823   5.916   1.875 -0.2562 -0.4053  0.1349
 7917TIP3    H123715   2.889   5.984   1.891  0.6007 -1.3781  0.8378
 7917TIP3    H223716   2.758   5.929   1.943  0.1227 -0.5441  0.5288
 7918TIP3   OH223717   3.310   5.506   2.025 -0.6195 -0.2705  0.0647
 7918TIP3    H123718   3.314   5.453   1.945 -1.5051 -0.7004  0.2942
 7918TIP3    H223719   3.306   5.596   1.994 -1.1600 -0.4477 -0.3847
 7919TIP3   OH223720   0.908   0.613   2.776  0.3165 -0.1714  0.0975
 7919TIP3    H123721   0.892   0.627   2.683  0.5330  0.9066  0.2134
 7919TIP3    H223722   0.887   0.521   2.790 -0.8902 -0.0475 -0.7658
 7920TIP3   OH223723   5.849   0.800   3.531 -0.5343  0.0899  0.0470
 7920TIP3    H123724   5.880   0.758   3.450  0.9174  0.0464  0.5886
 7920TIP3    H223725   5.762   0.832   3.510  0.0857  0.7111 -1.7852
 7921TIP3   OH223726   4.376   3.326   5.135  0.0187  0.2598  0.2766
 7921TIP3    H123727   4.362   3.329   5.229 -2.8864  0.5476 -0.0798
 7921TIP3    H223728   4.427   3.405   5.116  0.1336  0.5049  1.5280
 7922TIP3   OH223729   0.592   1.078   4.768 -0.2367 -0.1652 -0.2836
 7922TIP3    H123730   0.662   1.020   4.737 -0.0149 -0.0475 -0.0073
 7922TIP3    H223731   0.633   1.131   4.837 -0.7522 -0.5104  0.3020
 7923TIP3   OH223732   1.872   1.388   2.456 -0.0467  0.2248 -0.4541
 7923TIP3    H123733   1.878   1.469   2.507 -0.3194  0.9367 -1.5169
 7923TIP3    H223734   1.781   1.360   2.464 -0.5161  1.2368 -1.8380
 7924TIP3   OH223735   0.070   4.361   4.175  0.1949 -0.1399 -0.6760
 7924TIP3    H123736   0.121   4.308   4.114 -0.6247 -0.8153 -0.7860
 7924TIP3    H223737   0.024   4.297   4.230 -0.3368  0.4589 -0.4097
 7925TIP3   OH223738   7.232   3.686   0.413 -0.0042 -0.3085  0.2592
 7925TIP3    H123739   7.199   3.649   0.494  0.1848 -0.6335  0.1896
 7925TIP3    H223740   7.169   3.660   0.346 -0.1180 -0.1080  0.2875
 7926TIP3   OH223741   3.377   0.914   2.650 -0.0517 -0.4498 -0.0384
 7926TIP3    H123742   3.372   0.930   2.555 -0.8667 -0.4106  0.0023
 7926TIP3    H223743   3.363   0.820   2.659 -0.9727 -0.3109  0.0984
 7927TIP3   OH223744   2.132   0.410   0.949 -0.3249 -0.0739 -0.5560
 7927TIP3    H123745   2.170   0.368   1.027 -0.2800 -1.2640 -1.1841
 7927TIP3    H223746   2.070   0.345   0.916 -0.7483  0.6529 -1.1992
 7928TIP3   OH223747   5.020   5.105   3.334  0.5221 -0.0101  0.2541
 7928TIP3    H123748   4.956   5.169   3.304 -1.5212 -1.0472  2.1658
 7928TIP3    H223749   5.103   5.154   3.337 -0.5532  1.9395 -0.3507
 7929TIP3   OH223750   6.468   6.730   0.632  0.0069 -0.4104  0.2758
 7929TIP3    H123751   6.446   6.823   0.626 -1.1317 -0.6022  1.2985
 7929TIP3    H223752   6.399   6.685   0.583  1.2329 -0.6688 -1.3049
 7930TIP3   OH223753   0.180   3.241   3.045 -0.0418  0.1429 -0.1428
 7930TIP3    H123754   0.212   3.307   3.106 -2.1767  1.6810 -0.5718
 7930TIP3    H223755   0.243   3.169   3.052  2.2329  2.0589  0.5801
 7931TIP3   OH223756   2.241   4.354   5.578  0.8458 -0.1445 -0.0784
 7931TIP3    H123757   2.278   4.311   5.500  0.3407  0.4885 -0.6762
 7931TIP3    H223758   2.316   4.365   5.636  1.2813 -0.4020 -0.5771
 7932TIP3   OH223759   3.846   2.202   2.613  0.3269 -0.3849  0.1563
 7932TIP3    H123760   3.796   2.122   2.630  0.0707 -0.2265  0.1549
 7932TIP3    H223761   3.877   2.192   2.523 -1.8134  0.6256 -0.7500
 7933TIP3   OH223762   1.621   5.469   5.307 -0.5445 -0.4607  0.6265
 7933TIP3    H123763   1.526   5.461   5.298 -0.6650 -0.2898  1.6285
 7933TIP3    H223764   1.638   5.448   5.399  0.5452 -1.8378  0.1381
 7934TIP3   OH223765   0.676   5.465   5.152  0.1664 -0.2473 -0.1238
 7934TIP3    H123766   0.585   5.488   5.133 -0.1312 -1.7486 -0.6852
 7934TIP3    H223767   0.724   5.547   5.143 -1.1759  0.6469  0.5706
 7935TIP3   OH223768   6.798   3.782   5.662  0.0105 -0.6020 -0.5712
 7935TIP3    H123769   6.756   3.847   5.719 -0.1487 -0.4435 -0.8669
 7935TIP3    H223770   6.875   3.827   5.626  0.6250 -1.0010  0.2282
 7936TIP3   OH223771   5.216   4.200   1.304 -0.1436 -0.4672 -0.2977
 7936TIP3    H123772   5.273   4.133   1.265  1.3135  0.9842 -0.7825
 7936TIP3    H223773   5.236   4.280   1.255  2.6215  1.7946  3.8641
 7937TIP3   OH223774   5.999   6.718   4.026 -0.1772  0.4418 -0.1641
 7937TIP3    H123775   5.908   6.744   4.016 -0.2947  0.1744  0.1834
 7937TIP3    H223776   6.041   6.745   3.945 -0.6863  0.0881 -0.5546
 7938TIP3   OH223777   4.185   2.262   4.629 -0.8587  0.0864 -0.1667
 7938TIP3    H123778   4.178   2.173   4.665 -2.8335 -0.2374 -1.1791
 7938TIP3    H223779   4.125   2.314   4.682 -0.2945  0.6547 -0.0781
 7939TIP3   OH223780   5.057   1.012   4.213  0.4246 -0.9478 -0.5797
 7939TIP3    H123781   4.989   1.018   4.280  0.4236 -1.4651 -0.5297
 7939TIP3    H223782   5.138   1.002   4.263  0.9177  2.1947 -0.5243
 7940TIP3   OH223783   7.037   3.196   0.344 -0.3320  0.0609  0.3163
 7940TIP3    H123784   7.048   3.282   0.387 -1.2797  0.0928  0.5089
 7940TIP3    H223785   6.943   3.184   0.338 -0.2171 -1.1859  0.7084
 7941TIP3   OH223786   4.875   0.020   1.982  0.1129  0.4803 -0.4217
 7941TIP3    H123787   4.785   0.002   2.009  0.2462  2.3356  1.4840
 7941TIP3    H223788   4.867   0.088   1.916  0.1084  0.1910 -0.7244
 7942TIP3   OH223789   0.456   1.759   3.166 -0.3179  0.0626 -0.4332
 7942TIP3    H123790   0.434   1.677   3.210  0.7740  0.0113  0.0538
 7942TIP3    H223791   0.394   1.765   3.094 -0.7379 -0.9433 -0.1689
 7943TIP3   OH223792   3.680   1.848   1.017 -0.0263 -0.0919  0.0950
 7943TIP3    H123793   3.735   1.852   0.939  0.4216  1.8900  0.4596
 7943TIP3    H223794   3.596   1.883   0.988 -0.3616 -0.8586  0.1264
 7944TIP3   OH223795   7.140   0.072   1.703 -0.0140  0.3984 -0.0123
 7944TIP3    H123796   7.230   0.042   1.694 -0.6996 -1.7671 -0.3494
 7944TIP3    H223797   7.111   0.088   1.614 -0.3415 -0.1717 -0.0126
 7945TIP3   OH223798   5.196   0.815   2.466  0.0039  0.2296  0.5852
 7945TIP3    H123799   5.176   0.906   2.488 -0.4346 -0.0039  1.1709
 7945TIP3    H223800   5.115   0.782   2.426  0.5366  0.4227 -0.7012
 7946TIP3   OH223801   5.911   3.232   0.414 -0.1149 -0.0707 -0.5010
 7946TIP3    H123802   5.985   3.190   0.456 -1.5709  0.2746  2.6654
 7946TIP3    H223803   5.856   3.160   0.384  0.9077 -0.3186 -1.8644
 7947TIP3   OH223804   6.567   0.814   2.360 -0.3346 -0.1544  0.2067
 7947TIP3    H123805   6.481   0.771   2.362  0.0063 -1.0117 -1.4641
 7947TIP3    H223806   6.607   0.783   2.279  0.5190  2.2532 -0.3759
 7948TIP3   OH223807   6.459   1.325   4.777  0.9262 -0.4705  0.0856
 7948TIP3    H123808   6.399   1.278   4.719  0.3667 -1.6418  1.5691
 7948TIP3    H223809   6.518   1.372   4.717 -0.3447 -0.7097 -1.4114
 7949TIP3   OH223810   5.881   4.265   2.339  0.0980 -0.2509 -0.9005
 7949TIP3    H123811   5.831   4.318   2.277 -2.2787 -0.8075  0.4152
 7949TIP3    H223812   5.861   4.303   2.425 -0.2035 -2.1139 -0.0985
 7950TIP3   OH223813   0.163   4.517   2.618  0.9724 -0.3482 -0.3380
 7950TIP3    H123814   0.232   4.579   2.642  0.8906 -0.6110  0.6015
 7950TIP3    H223815   0.111   4.564   2.552  0.2815  1.0272  1.1182
 7951TIP3   OH223816   2.117   0.785   4.888 -1.0144  0.3982 -0.1739
 7951TIP3    H123817   2.149   0.771   4.977 -1.3317 -0.0979 -0.1367
 7951TIP3    H223818   2.111   0.880   4.879 -0.6685  0.4600  0.2205
 7952TIP3   OH223819   4.074   3.110   1.348  0.0570  0.0654 -0.0344
 7952TIP3    H123820   4.114   3.087   1.432  1.0795  2.2183  0.1280
 7952TIP3    H223821   3.981   3.122   1.368 -0.3695 -2.6598  0.0545
 7953TIP3   OH223822   0.611   0.471   5.879 -0.0276  0.1335  0.4989
 7953TIP3    H123823   0.625   0.469   5.784 -1.5536  0.4919  0.2380
 7953TIP3    H223824   0.629   0.561   5.904 -0.9364  0.3795  0.3065
 7954TIP3   OH223825   6.362   6.587   0.433  0.0652  0.7526  0.2253
 7954TIP3    H123826   6.277   6.593   0.476  0.7964  1.9435  1.5823
 7954TIP3    H223827   6.403   6.510   0.473 -0.5996 -0.2533 -0.9397
 7955TIP3   OH223828   6.011   0.577   3.919  0.5029  0.3725 -0.1684
 7955TIP3    H123829   6.041   0.563   4.009  2.1073 -0.7469 -0.8241
 7955TIP3    H223830   6.092   0.588   3.869 -0.3045 -0.1021 -1.6390
 7956TIP3   OH223831   0.786   3.197   3.692 -0.1614  0.6593 -0.9257
 7956TIP3    H123832   0.833   3.119   3.662  0.2232 -0.6130  2.5363
 7956TIP3    H223833   0.699   3.165   3.716  0.0955  1.1631  0.8273
 7957TIP3   OH223834   3.830   0.569   2.702 -0.1437  0.1507  0.3400
 7957TIP3    H123835   3.855   0.540   2.790  0.0463 -0.2179  0.1646
 7957TIP3    H223836   3.907   0.551   2.648 -1.6260 -3.7347 -0.8513
 7958TIP3   OH223837   4.793   0.582   4.016  0.1491 -0.2288 -0.5810
 7958TIP3    H123838   4.710   0.555   3.976 -0.1403  0.4695 -0.4614
 7958TIP3    H223839   4.781   0.675   4.035  0.7265 -0.2736  0.0245
 7959TIP3   OH223840   3.061   2.728   0.550  0.5356  0.2353  0.2702
 7959TIP3    H123841   3.078   2.669   0.477 -1.5954  0.2737 -0.3223
 7959TIP3    H223842   3.100   2.684   0.626  1.3208 -0.6101 -0.5843
 7960TIP3   OH223843   6.040   4.426   0.530 -0.4058 -0.8045 -0.3106
 7960TIP3    H123844   5.980   4.390   0.595  1.5668 -0.5092  1.7763
 7960TIP3    H223845   6.075   4.505   0.571  1.5897 -1.1047 -1.3328
 7961TIP3   OH223846   0.178   1.223   0.422  0.5790 -0.8219 -0.1327
 7961TIP3    H123847   0.216   1.273   0.349 -0.5968 -0.4047 -0.4771
 7961TIP3    H223848   0.114   1.282   0.461  1.3118 -0.9835  1.3663
 7962TIP3   OH223849   1.561   1.762   1.306 -0.4299 -0.3534  0.2335
 7962TIP3    H123850   1.558   1.856   1.289 -0.3325 -0.6454 -1.5170
 7962TIP3    H223851   1.650   1.736   1.285 -0.7165 -1.0033 -0.2021
 7963TIP3   OH223852   6.816   6.590   5.029 -0.2069 -0.5794  0.1086
 7963TIP3    H123853   6.770   6.547   5.100 -0.2125  0.0396  0.4891
 7963TIP3    H223854   6.870   6.656   5.072 -0.7368  0.2760 -0.5028
 7964TIP3   OH223855   7.005   3.468   0.449 -0.0482  0.7130  0.2168
 7964TIP3    H123856   6.939   3.517   0.497 -1.3773 -0.3443 -0.4717
 7964TIP3    H223857   7.014   3.514   0.366 -1.3655 -0.2205 -0.4680
 7965TIP3   OH223858   0.598   6.015   0.558  0.1810  0.3480  0.4400
 7965TIP3    H123859   0.693   6.024   0.558  0.1748  0.5053 -0.4194
 7965TIP3    H223860   0.575   6.004   0.466 -0.5628 -0.5150  0.7149
 7966TIP3   OH223861   0.259   1.627   1.966  0.3300  0.1161 -0.3693
 7966TIP3    H123862   0.204   1.601   2.039 -0.6578  1.7634 -0.4715
 7966TIP3    H223863   0.205   1.614   1.889  1.6300 -2.3676 -0.9749
 7967TIP3   OH223864   4.974   2.268   2.081  0.0371  0.0142 -0.1865
 7967TIP3    H123865   4.959   2.186   2.128  3.5451  0.1928  1.5749
 7967TIP3    H223866   4.921   2.333   2.128 -1.2311 -0.8727 -0.3587
 7968TIP3   OH223867   5.228   4.403   4.791 -0.0442  0.1211 -0.1604
 7968TIP3    H123868   5.224   4.344   4.867 -1.5640  0.5512  0.1281
 7968TIP3    H223869   5.237   4.490   4.828 -0.9100  0.3457 -0.4467
 7969TIP3   OH223870   3.192   2.883   2.138  0.5162 -0.6505 -0.5383
 7969TIP3    H123871   3.241   2.905   2.217 -0.6616  0.3233 -0.0535
 7969TIP3    H223872   3.246   2.916   2.066  1.6614 -1.6600 -0.1866
 7970TIP3   OH223873   5.893   3.424   2.987  0.7591  0.1788 -0.2840
 7970TIP3    H123874   5.911   3.405   2.895 -0.1774 -1.5522 -0.1537
 7970TIP3    H223875   5.822   3.365   3.010  0.2125  1.3706  1.2672
 7971TIP3   OH223876   3.976   5.376   0.730  0.5308  0.4184 -0.2315
 7971TIP3    H123877   3.943   5.367   0.641  0.8451  1.1416 -0.4343
 7971TIP3    H223878   3.915   5.436   0.772  0.7999  0.6706 -0.1922
 7972TIP3   OH223879   6.654   2.869   0.470 -0.5068 -0.1251  0.4178
 7972TIP3    H123880   6.644   2.915   0.553 -0.1615  0.2746  0.2369
 7972TIP3    H223881   6.616   2.783   0.486 -1.4440  0.3222  0.6662
 7973TIP3   OH223882   1.536   5.290   0.147  0.3041  0.0401  0.1417
 7973TIP3    H123883   1.605   5.339   0.190  0.6565 -0.4466  0.1359
 7973TIP3    H223884   1.564   5.285   0.055 -0.1520  0.5596 -0.0355
 7974TIP3   OH223885   7.092   1.150   2.277  0.3341  0.3028 -0.3950
 7974TIP3    H123886   7.157   1.138   2.207  1.3989  0.1931  0.5718
 7974TIP3    H223887   7.012   1.174   2.232  0.5624 -1.3552 -1.7561
 7975TIP3   OH223888   2.552   4.272   5.257  0.0301 -0.4185 -0.1251
 7975TIP3    H123889   2.592   4.227   5.183  1.1534 -1.4568  1.0591
 7975TIP3    H223890   2.600   4.355   5.263 -0.1263 -0.2895 -0.5939
 7976TIP3   OH223891   4.926   5.032   4.435 -0.6126  0.1781  0.0590
 7976TIP3    H123892   4.843   5.077   4.420  0.6580  3.0765  0.9371
 7976TIP3    H223893   4.952   5.060   4.523  1.2741 -0.6910 -0.1767
 7977TIP3   OH223894   4.925   5.212   1.421 -0.1403 -0.3943 -0.6528
 7977TIP3    H123895   4.923   5.274   1.348 -0.7140 -0.5037 -0.7417
 7977TIP3    H223896   4.886   5.260   1.494 -1.5797 -0.9699 -1.0015
 7978TIP3   OH223897   7.157   5.163   5.665 -0.0629 -0.9579 -0.4323
 7978TIP3    H123898   7.159   5.129   5.755 -3.0943 -0.7779 -0.2074
 7978TIP3    H223899   7.168   5.257   5.674  2.6106 -1.1670 -0.5934
 7979TIP3   OH223900   5.903   2.035   4.304  0.3555  0.8194 -0.3692
 7979TIP3    H123901   5.812   2.060   4.286  0.1157  0.0606 -0.2103
 7979TIP3    H223902   5.897   1.959   4.361  1.0889  0.5664 -0.6136
 7980TIP3   OH223903   2.691   2.856   5.209  0.1452  0.2915  0.2620
 7980TIP3    H123904   2.650   2.942   5.211  1.0646  0.7805 -0.7762
 7980TIP3    H223905   2.694   2.833   5.117  0.1970 -0.7226  0.5043
 7981TIP3   OH223906   1.280   5.800   4.330  0.3122 -0.2302  0.0950
 7981TIP3    H123907   1.257   5.889   4.306 -0.0657 -0.0961  0.9111
 7981TIP3    H223908   1.252   5.792   4.422  2.4834 -0.4277  0.7917
 7982TIP3   OH223909   6.330   5.132   4.663  0.1525 -0.1591  0.2175
 7982TIP3    H123910   6.322   5.182   4.743 -3.8460 -0.7607  0.3887
 7982TIP3    H223911   6.418   5.153   4.630  1.9609  0.1755  4.5838
 7983TIP3   OH223912   3.045   3.000   0.451 -0.5754 -0.0694  0.5965
 7983TIP3    H123913   3.048   3.068   0.518  1.0291 -0.1300  0.6155
 7983TIP3    H223914   3.070   2.920   0.497  1.0523 -0.0173 -0.1606
 7984TIP3   OH223915   4.543   0.246   1.855 -0.2839 -0.5555  0.1064
 7984TIP3    H123916   4.542   0.279   1.765  1.1955 -0.3392  0.1362
 7984TIP3    H223917   4.496   0.163   1.851  1.3713 -1.5106 -1.3094
 7985TIP3   OH223918   3.487   2.963   0.438 -0.1430  0.3089 -0.4828
 7985TIP3    H123919   3.448   2.995   0.519 -0.1148 -1.1840  0.1668
 7985TIP3    H223920   3.571   2.926   0.466 -0.7167 -1.4425 -0.9281
 7986TIP3   OH223921   2.294   5.134   5.504 -0.4339  0.2782  0.0757
 7986TIP3    H123922   2.263   5.223   5.517  0.2387  0.3886  1.0429
 7986TIP3    H223923   2.231   5.095   5.443 -0.6781  1.4325 -0.4352
 7987TIP3   OH223924   2.384   2.858   2.864  0.0597 -0.8317  0.5747
 7987TIP3    H123925   2.301   2.863   2.816  0.4991 -0.1081 -0.1385
 7987TIP3    H223926   2.436   2.794   2.816 -0.4298 -2.0562  1.6086
 7988TIP3   OH223927   2.811   3.580   2.625  0.5861 -0.2476  0.0204
 7988TIP3    H123928   2.758   3.511   2.585  0.9003 -0.8307  0.5811
 7988TIP3    H223929   2.798   3.569   2.719  1.2579 -0.0470  0.1460
 7989TIP3   OH223930   3.811   2.624   4.840  0.2821 -0.3945  0.3461
 7989TIP3    H123931   3.745   2.673   4.889  0.8465 -2.4674  3.4257
 7989TIP3    H223932   3.776   2.535   4.835  0.3016 -0.3461 -3.1279
 7990TIP3   OH223933   4.696   6.759   2.570 -0.5869  0.1875 -0.4105
 7990TIP3    H123934   4.767   6.780   2.509 -0.4577  0.5945 -0.1226
 7990TIP3    H223935   4.616   6.771   2.519 -0.4479 -0.4602 -0.7936
 7991TIP3   OH223936   2.081   3.617   1.541  0.4195  0.0282  0.0923
 7991TIP3    H123937   2.000   3.625   1.592  0.2675 -0.7421 -0.0189
 7991TIP3    H223938   2.081   3.695   1.485 -0.5137 -0.2224 -0.2789
 7992TIP3   OH223939   2.951   4.010   5.000 -0.3089 -0.0841  0.0468
 7992TIP3    H123940   2.979   3.953   4.929 -0.2302 -2.4950  1.8838
 7992TIP3    H223941   3.027   4.065   5.019 -0.1310  0.1476 -1.2827
 7993TIP3   OH223942   3.549   3.028   2.770  0.4598  0.4181  0.1614
 7993TIP3    H123943   3.544   3.090   2.842  1.0134  0.5507  0.0903
 7993TIP3    H223944   3.588   3.077   2.698  3.0510 -0.5773  0.7808
 7994TIP3   OH223945   1.421   5.102   4.723 -0.0416 -0.8623  0.3877
 7994TIP3    H123946   1.399   5.117   4.631 -4.6973  0.2564  1.4391
 7994TIP3    H223947   1.469   5.181   4.749 -1.7621  0.5191 -0.3730
 7995TIP3   OH223948   7.106   4.813   3.667 -0.0392  0.5705  0.4487
 7995TIP3    H123949   7.075   4.775   3.584  0.1089  1.5860 -0.0882
 7995TIP3    H223950   7.125   4.737   3.722  0.4437 -0.1491 -0.6612
 7996TIP3   OH223951   4.898   6.118   0.119 -0.3610  0.0505 -0.1524
 7996TIP3    H123952   4.842   6.081   0.186 -1.0180  0.4456 -0.4694
 7996TIP3    H223953   4.967   6.164   0.167 -0.1211 -0.6996  0.2380
 7997TIP3   OH223954   6.914   6.617   5.689  0.2478 -0.4041  0.1205
 7997TIP3    H123955   6.835   6.670   5.695  0.0807 -0.5397 -0.7823
 7997TIP3    H223956   6.887   6.530   5.716 -0.0900 -0.6136 -0.8462
 7998TIP3   OH223957   4.220   1.194   5.051 -0.0450 -0.0288 -0.1139
 7998TIP3    H123958   4.213   1.113   5.102 -0.2690  0.7371  1.0937
 7998TIP3    H223959   4.163   1.256   5.095 -0.4401  0.5980 -1.4533
 7999TIP3   OH223960   6.408   3.415   3.997  0.2610  0.4312 -0.1835
 7999TIP3    H123961   6.449   3.459   3.923  2.0603  0.6818  0.8808
 7999TIP3    H223962   6.391   3.485   4.061 -0.2708  0.0800  0.0701
 8000TIP3   OH223963   4.918   2.045   2.262 -0.8803  0.1975  0.4276
 8000TIP3    H123964   4.964   1.966   2.290  0.4591  1.1443  0.9830
 8000TIP3    H223965   4.838   2.046   2.314 -0.4891 -0.3396  1.0616
 8001TIP3   OH223966   0.708   1.895   0.363 -0.1568 -0.0527 -0.4935
 8001TIP3    H123967   0.615   1.878   0.351 -0.0058 -0.9073 -0.4855
 8001TIP3    H223968   0.741   1.913   0.275 -0.1855 -0.5022 -0.5983
 8002TIP3   OH223969   4.420   1.043   2.469 -0.6678  0.2090  0.1464
 8002TIP3    H123970   4.387   1.126   2.434  2.1015  1.6799  0.8112
 8002TIP3    H223971   4.423   1.056   2.564  1.3843  0.0165  0.1379
 8003TIP3   OH223972   4.985   1.644   0.871 -0.2230  0.0294 -0.7139
 8003TIP3    H123973   5.000   1.714   0.934 -1.1431 -0.7122  0.3667
 8003TIP3    H223974   5.072   1.609   0.851  0.1763  1.0194 -0.7523
 8004TIP3   OH223975   2.649   4.358   4.011  0.1195  0.2065  0.3500
 8004TIP3    H123976   2.584   4.317   3.954 -1.3482  1.3974  1.0960
 8004TIP3    H223977   2.726   4.301   4.005 -0.5589 -0.5733 -1.5150
 8005TIP3   OH223978   6.043   6.302   1.952 -0.1618  0.6414  0.4489
 8005TIP3    H123979   6.125   6.331   1.991  0.4306 -0.1989 -0.1349
 8005TIP3    H223980   6.058   6.211   1.927 -0.7273  0.9234 -1.0928
 8006TIP3   OH223981   1.397   6.251   3.869  1.0350 -0.7240  0.3584
 8006TIP3    H123982   1.492   6.254   3.879  1.1514  2.6761 -0.3453
 8006TIP3    H223983   1.364   6.220   3.953  2.7047 -3.8777  0.0134
 8007TIP3   OH223984   6.081   6.451   0.215  0.0557 -0.2420 -0.2435
 8007TIP3    H123985   6.102   6.398   0.291 -0.2431 -0.6005 -0.4057
 8007TIP3    H223986   6.048   6.389   0.150  2.1127 -0.2252 -1.3745
 8008TIP3   OH223987   5.045   4.650   3.134 -0.5642 -0.4799  0.1699
 8008TIP3    H123988   5.130   4.608   3.124 -0.3229 -0.2624  1.2143
 8008TIP3    H223989   5.064   4.744   3.129 -0.7455 -0.4310  0.3995
 8009TIP3   OH223990   2.122   6.277   4.911  0.1863  0.1072  0.4415
 8009TIP3    H123991   2.085   6.362   4.935  3.2299  1.3196  1.2106
 8009TIP3    H223992   2.074   6.214   4.965 -1.0768  1.4651  0.9669
 8010TIP3   OH223993   0.758   3.476   3.631  0.0516 -0.0725  0.0766
 8010TIP3    H123994   0.761   3.383   3.653  0.0084  0.1150  0.9278
 8010TIP3    H223995   0.721   3.479   3.543  0.5620 -0.8880 -0.1733
 8011TIP3   OH223996   4.705   2.439   1.140  0.0044 -0.5056  0.2736
 8011TIP3    H123997   4.682   2.531   1.149 -0.0266 -0.5690  0.8694
 8011TIP3    H223998   4.643   2.393   1.196 -0.4565 -0.9621 -0.5974
 8012TIP3   OH223999   1.180   2.318   0.236 -0.6717 -0.3236 -0.1514
 8012TIP3    H124000   1.145   2.407   0.224 -0.3718 -0.4038 -1.7774
 8012TIP3    H224001   1.107   2.261   0.213 -0.7283 -0.5141  0.4789
 8013TIP3   OH224002   5.788   1.227   3.913  0.8129  0.7600  0.4560
 8013TIP3    H124003   5.818   1.145   3.873  3.5465 -0.3963  4.3160
 8013TIP3    H224004   5.715   1.201   3.969  0.2747  1.4180  0.0741
 8014TIP3   OH224005   2.053   3.269   1.498  0.4989  0.1292 -0.1878
 8014TIP3    H124006   2.102   3.192   1.467 -0.5213 -0.2498 -0.9090
 8014TIP3    H224007   2.068   3.271   1.592 -1.8637 -2.7850  0.3971
 8015TIP3   OH224008   5.846   5.988   3.255  0.1737  0.5178  0.0017
 8015TIP3    H124009   5.831   6.047   3.181  0.2882  0.1742 -0.2984
 8015TIP3    H224010   5.868   6.046   3.328 -0.1260  0.8696 -0.1863
 8016TIP3   OH224011   6.974   0.510   5.554 -0.2007 -0.0190 -0.1585
 8016TIP3    H124012   6.922   0.430   5.551 -0.5302  0.1312  0.9859
 8016TIP3    H224013   6.979   0.531   5.648 -0.3508  1.4370 -0.4580
 8017TIP3   OH224014   2.944   0.982   1.779 -0.6587  0.1195  0.3214
 8017TIP3    H124015   2.861   0.981   1.827  0.7467  1.0617  2.9810
 8017TIP3    H224016   2.965   0.890   1.765 -1.4709 -0.1655  0.8953
 8018TIP3   OH224017   4.869   2.064   5.051 -0.1300 -0.1539 -0.5942
 8018TIP3    H124018   4.828   2.015   4.979 -0.2458  0.4062 -0.9151
 8018TIP3    H224019   4.796   2.101   5.100 -0.0262  0.6579 -1.0335
 8019TIP3   OH224020   0.865   1.033   3.068 -0.2336  0.1205  0.6011
 8019TIP3    H124021   0.800   1.064   3.131  1.4853 -0.0180  2.5614
 8019TIP3    H224022   0.855   0.938   3.067 -0.8844  0.1889 -0.0832
 8020TIP3   OH224023   2.201   1.912   0.068 -0.0790  0.2277 -0.4036
 8020TIP3    H124024   2.243   1.954  -0.007 -1.0552  0.4841 -0.8284
 8020TIP3    H224025   2.273   1.871   0.116  0.4663 -0.9794 -2.1166
 8021TIP3   OH224026   4.665   2.651   0.625  0.1904  0.6420  0.3296
 8021TIP3    H124027   4.722   2.681   0.696 -1.2698  1.5634  1.1705
 8021TIP3    H224028   4.725   2.622   0.557  1.6575  1.2785  1.2943
 8022TIP3   OH224029   4.269   6.487   1.866  0.1578  0.1412 -0.2166
 8022TIP3    H124030   4.246   6.437   1.787  0.7599 -0.6413  0.0975
 8022TIP3    H224031   4.307   6.422   1.925 -1.0363  0.5601  1.0551
 8023TIP3   OH224032   0.853   4.461   2.621 -0.1011  0.2061  0.2372
 8023TIP3    H124033   0.812   4.544   2.598  0.2908  0.4203  0.3090
 8023TIP3    H224034   0.939   4.485   2.657 -0.9456 -0.0391  2.6463
 8024TIP3   OH224035   3.772   2.082   3.311  0.3192 -0.9381 -0.0940
 8024TIP3    H124036   3.830   2.006   3.314  1.3218 -0.1567  1.6609
 8024TIP3    H224037   3.820   2.146   3.259 -0.1166 -1.1527 -0.7783
 8025TIP3   OH224038   6.838   5.646   4.999 -0.0472  0.3211 -0.2212
 8025TIP3    H124039   6.868   5.638   4.908 -0.7838  2.9164 -0.7608
 8025TIP3    H224040   6.915   5.624   5.051  0.9466  0.6481 -1.5036
 8026TIP3   OH224041   4.664   6.090   5.204  0.8825  0.4944  0.2694
 8026TIP3    H124042   4.757   6.103   5.187  0.5106  1.2455 -1.3522
 8026TIP3    H224043   4.621   6.103   5.119 -0.8831  2.0728  1.3106
 8027TIP3   OH224044   6.903   5.789   1.417  0.4073  0.4084  0.0500
 8027TIP3    H124045   6.927   5.697   1.428  0.2196  0.2757 -0.5931
 8027TIP3    H224046   6.959   5.836   1.479  0.9536 -0.0788 -0.0610
 8028TIP3   OH224047   2.390   1.072   4.508 -0.5323 -0.1324 -0.2322
 8028TIP3    H124048   2.429   1.108   4.429 -2.1805 -1.6857 -1.8427
 8028TIP3    H224049   2.458   1.015   4.545 -0.1261 -0.2300 -1.1225
 8029TIP3   OH224050   1.576   2.579   2.319  0.3665  0.0456 -0.0757
 8029TIP3    H124051   1.580   2.658   2.374 -0.7599  0.0757 -0.0142
 8029TIP3    H224052   1.510   2.525   2.361 -0.7235  0.1851 -1.5595
 8030TIP3   OH224053   1.924   0.661   1.791  0.4061  0.3455 -0.4192
 8030TIP3    H124054   1.995   0.681   1.729  0.7913 -0.6414 -0.3099
 8030TIP3    H224055   1.907   0.744   1.836  1.7596  0.5103 -0.1740
 8031TIP3   OH224056   2.565   4.393   5.522 -0.4867 -0.4696  0.2149
 8031TIP3    H124057   2.582   4.316   5.467 -0.5191 -0.0742 -0.3461
 8031TIP3    H224058   2.548   4.356   5.609 -0.0777 -1.0741  0.0443
 8032TIP3   OH224059   6.842   3.637   3.054  0.1461 -0.2287 -0.1418
 8032TIP3    H124060   6.856   3.572   2.985  1.3791 -0.6478  0.4750
 8032TIP3    H224061   6.912   3.700   3.042  0.5162 -0.4275  0.8453
 8033TIP3   OH224062   0.450   6.639   0.265  0.0614  0.6211 -0.0867
 8033TIP3    H124063   0.492   6.557   0.290  0.5326  1.1822  1.0431
 8033TIP3    H224064   0.430   6.629   0.172 -0.6811 -1.1054  0.2131
 8034TIP3   OH224065   0.888   5.250   2.485 -0.3026 -0.1521 -0.5624
 8034TIP3    H124066   0.912   5.324   2.431  1.3471 -1.2317 -1.3967
 8034TIP3    H224067   0.889   5.175   2.425 -0.0502 -1.1243  0.6083
 8035TIP3   OH224068   2.251   0.334   1.175 -0.2026 -0.3968  0.7665
 8035TIP3    H124069   2.304   0.409   1.202 -0.2485 -0.5020  1.1525
 8035TIP3    H224070   2.291   0.259   1.220 -0.7702 -0.4544  1.1793
 8036TIP3   OH224071   6.899   3.247   3.808 -0.3428  0.1354 -0.6052
 8036TIP3    H124072   6.942   3.327   3.776 -0.6265  0.1975 -0.8396
 8036TIP3    H224073   6.968   3.197   3.850 -0.5930  1.6482  1.8108
 8037TIP3   OH224074   4.903   0.812   0.980 -0.1687 -0.8724 -0.0543
 8037TIP3    H124075   4.915   0.843   1.069 -2.4177 -0.0598  0.0304
 8037TIP3    H224076   4.870   0.723   0.990  1.0068 -1.3351 -0.1471
 8038TIP3   OH224077   5.678   5.599   3.155 -0.6301  0.0782 -0.2507
 8038TIP3    H124078   5.685   5.627   3.246  0.7516  0.8851 -0.5776
 8038TIP3    H224079   5.766   5.614   3.119 -0.5726 -2.1170 -1.1845
 8039TIP3   OH224080   0.603   2.213   1.521 -0.5373  0.0179 -0.0604
 8039TIP3    H124081   0.678   2.247   1.473  0.0904  0.7977  1.3985
 8039TIP3    H224082   0.581   2.131   1.476  0.1517  0.5795 -1.4932
 8040TIP3   OH224083   5.444   1.047   3.406 -0.1569 -0.1382  0.0080
 8040TIP3    H124084   5.466   1.137   3.429  0.4983 -0.0363 -0.9497
 8040TIP3    H224085   5.379   1.056   3.337 -0.2373 -0.4046  0.0491
 8041TIP3   OH224086   6.878   2.385   1.656  0.2278  0.1940 -0.8031
 8041TIP3    H124087   6.802   2.443   1.662 -1.1835 -1.6944  0.7532
 8041TIP3    H224088   6.841   2.297   1.658  2.4578 -0.7879  0.3015
 8042TIP3   OH224089   2.170   5.159   3.776  0.2145 -0.2003 -0.2254
 8042TIP3    H124090   2.232   5.196   3.839  1.5061  1.4946 -2.3348
 8042TIP3    H224091   2.103   5.227   3.767  0.6442  0.0770 -1.4532
 8043TIP3   OH224092   5.825   0.031   1.736  0.6674  0.1342  0.2167
 8043TIP3    H124093   5.824  -0.036   1.668 -0.7386 -0.7967  1.1012
 8043TIP3    H224094   5.918   0.044   1.756  1.0844  0.2394 -1.6653
 8044TIP3   OH224095   1.877   0.699   5.239 -0.0374 -0.6873 -0.9279
 8044TIP3    H124096   1.936   0.774   5.231 -1.3354  0.4628 -0.2416
 8044TIP3    H224097   1.903   0.657   5.321 -1.2383  0.8571  0.3068
 8045TIP3   OH224098   3.453   5.167   1.056 -0.0303  0.2008 -0.3877
 8045TIP3    H124099   3.489   5.145   1.142 -0.4152 -1.7139 -0.6670
 8045TIP3    H224100   3.530   5.170   0.999  0.0615 -0.2486 -0.2957
 8046TIP3   OH224101   4.435   0.782   4.844 -0.2337  0.0381  0.0961
 8046TIP3    H124102   4.404   0.787   4.935 -1.7508 -2.5883 -0.1844
 8046TIP3    H224103   4.455   0.873   4.821  0.6884  0.7497  3.1808
 8047TIP3   OH224104   5.898   3.687   4.168 -0.0682 -0.1513  0.3327
 8047TIP3    H124105   5.915   3.729   4.253  2.9734  0.4571 -0.4542
 8047TIP3    H224106   5.981   3.694   4.121 -1.9001  0.4417 -3.1286
 8048TIP3   OH224107   6.665   5.072   2.974 -0.0188  0.8895  0.3459
 8048TIP3    H124108   6.604   5.072   2.900 -1.1328  0.0800  1.2380
 8048TIP3    H224109   6.615   5.038   3.047  1.1756  1.3177  1.4096
 8049TIP3   OH224110   4.879   3.624   4.914  0.4155 -0.4624  0.3348
 8049TIP3    H124111   4.905   3.716   4.919 -1.3267  0.0577  0.3013
 8049TIP3    H224112   4.878   3.604   4.820 -1.4495  0.1946  0.1788
 8050TIP3   OH224113   4.865   3.683   3.621 -0.4018  0.5032  0.0950
 8050TIP3    H124114   4.817   3.617   3.571 -1.7701  0.7184  1.0732
 8050TIP3    H224115   4.808   3.760   3.620  0.1135  0.9047  0.9215
 8051TIP3   OH224116   1.542   0.087   5.718 -0.1120  0.4865 -0.2285
 8051TIP3    H124117   1.485   0.012   5.700  0.1493  0.4393 -0.8852
 8051TIP3    H224118   1.489   0.144   5.775 -1.3073  1.0336 -1.8158
 8052TIP3   OH224119   5.127   3.417   1.215 -0.3327 -0.6322 -0.0921
 8052TIP3    H124120   5.044   3.381   1.184 -1.3642  0.2840  1.4942
 8052TIP3    H224121   5.142   3.373   1.299  0.5416 -0.4348 -0.1370
 8053TIP3   OH224122   4.478   3.531   0.447  0.4742  0.1655  0.8095
 8053TIP3    H124123   4.488   3.475   0.524  1.4201 -1.9484 -0.7139
 8053TIP3    H224124   4.568   3.545   0.416  0.2158  2.2061  0.8769
 8054TIP3   OH224125   2.377   3.056   3.429  0.0517 -0.0257 -0.6289
 8054TIP3    H124126   2.454   3.090   3.383 -1.1751  0.5031 -2.4137
 8054TIP3    H224127   2.377   3.102   3.513  1.5877  0.0558 -0.6443
 8055TIP3   OH224128   5.106   6.362   0.676 -0.5316  0.0190 -0.8887
 8055TIP3    H124129   5.035   6.299   0.691 -0.1172 -0.1389  0.6032
 8055TIP3    H224130   5.062   6.446   0.665 -0.9464  0.1119  1.1297
 8056TIP3   OH224131   1.025   4.083   4.448 -0.0731 -0.1167  0.8831
 8056TIP3    H124132   0.932   4.102   4.436  0.0039  0.7859  1.5983
 8056TIP3    H224133   1.037   3.997   4.409 -1.2507 -0.3309  0.9532
 8057TIP3   OH224134   4.157   1.679   4.497 -0.0354 -0.1781  0.2350
 8057TIP3    H124135   4.224   1.615   4.520  0.4254  0.3000  0.2420
 8057TIP3    H224136   4.119   1.647   4.415  1.1757  0.2820 -0.5266
 8058TIP3   OH224137   3.484   0.632   5.648  0.0329  0.5748 -0.1366
 8058TIP3    H124138   3.519   0.587   5.571  1.7323  0.1228  0.8449
 8058TIP3    H224139   3.390   0.637   5.633  0.1670 -0.7717 -1.5888
 8059TIP3   OH224140   4.016   3.619   2.669 -0.0361 -0.7695 -0.6582
 8059TIP3    H124141   3.981   3.709   2.669  2.6906  0.4933 -3.9219
 8059TIP3    H224142   3.973   3.577   2.594 -0.4402 -1.8945  0.1723
 8060TIP3   OH224143   6.263   5.211   5.703  0.2779  0.0306  0.0547
 8060TIP3    H124144   6.273   5.305   5.684  1.7236 -0.3616 -1.3604
 8060TIP3    H224145   6.242   5.172   5.618 -0.4609 -0.9316  0.6578
 8061TIP3   OH224146   3.211   4.716   4.262 -0.6714 -0.2256  0.2066
 8061TIP3    H124147   3.178   4.806   4.260  0.0991  0.0786  0.7192
 8061TIP3    H224148   3.258   4.706   4.180  2.4483  1.1323  1.6479
 8062TIP3   OH224149   1.884   4.947   5.635  0.1403  0.2546 -0.5194
 8062TIP3    H124150   1.853   4.917   5.721  0.5345  1.4421  0.0704
 8062TIP3    H224151   1.829   5.023   5.615  0.3139  0.2205 -1.1419
 8063TIP3   OH224152   5.794   2.619   1.787 -0.1094 -0.6567 -0.4108
 8063TIP3    H124153   5.825   2.604   1.876 -0.1833 -0.2079 -0.3060
 8063TIP3    H224154   5.787   2.714   1.780 -0.6947 -0.7155 -0.6923
 8064TIP3   OH224155   4.720   5.335   5.389  0.5682  0.1701 -0.5769
 8064TIP3    H124156   4.760   5.386   5.459 -0.6641  0.8467 -0.3423
 8064TIP3    H224157   4.776   5.258   5.380  1.6422  0.8660  0.0439
 8065TIP3   OH224158   5.232   3.591   3.518 -0.0279  0.1781 -0.4138
 8065TIP3    H124159   5.269   3.612   3.603  0.9189 -1.0268 -0.5054
 8065TIP3    H224160   5.234   3.674   3.470  2.1625  0.2622 -0.2533
 8066TIP3   OH224161   2.129   6.565   0.490 -0.0032  0.1458 -0.9358
 8066TIP3    H124162   2.087   6.484   0.519 -1.0502  0.3974 -1.6884
 8066TIP3    H224163   2.120   6.563   0.394 -0.1253  1.1993 -0.9494
 8067TIP3   OH224164   1.191   3.111   1.352  0.0751  0.1838 -0.1716
 8067TIP3    H124165   1.177   3.019   1.373 -0.7303  0.3221 -0.0636
 8067TIP3    H224166   1.249   3.143   1.421  0.0654 -0.1539 -0.0050
 8068TIP3   OH224167   6.727   1.899   5.183  0.2785 -0.0082  0.0691
 8068TIP3    H124168   6.706   1.848   5.105 -0.9460 -0.9859  0.9837
 8068TIP3    H224169   6.643   1.935   5.212  0.7494  0.5384  0.7834
 8069TIP3   OH224170   2.463   5.559   2.510  0.4789 -0.0718 -0.0800
 8069TIP3    H124171   2.462   5.599   2.424 -0.4139 -0.5159 -0.2887
 8069TIP3    H224172   2.387   5.597   2.555  0.7812 -0.0431  0.4119
 8070TIP3   OH224173   4.038   1.666   0.797  0.1181  0.8466  0.2950
 8070TIP3    H124174   3.989   1.657   0.879  0.9803  2.7258  1.0922
 8070TIP3    H224175   4.092   1.587   0.793 -2.3026 -0.8829 -0.2115
 8071TIP3   OH224176   5.615   0.838   4.963  0.4457 -0.4195 -0.6009
 8071TIP3    H124177   5.704   0.806   4.949  1.4256  1.2823  1.1883
 8071TIP3    H224178   5.626   0.926   5.000 -1.9654 -0.3123  0.0756
 8072TIP3   OH224179   0.465   6.292   5.823  0.7604 -0.5442 -0.1853
 8072TIP3    H124180   0.450   6.370   5.876 -0.4636 -0.6480 -0.3484
 8072TIP3    H224181   0.470   6.324   5.733  2.8565 -0.3658 -0.0552
 8073TIP3   OH224182   4.621   4.080   4.356 -0.1320 -0.6967  0.7314
 8073TIP3    H124183   4.618   4.134   4.434 -1.2089  0.4441 -0.0551
 8073TIP3    H224184   4.542   4.026   4.361 -0.7014  0.0444 -0.0012
 8074TIP3   OH224185   7.143   3.597   5.691 -0.3324 -1.0060 -0.1958
 8074TIP3    H124186   7.088   3.523   5.668  0.5309 -1.6004 -0.3880
 8074TIP3    H224187   7.140   3.654   5.614 -2.2618 -0.0195  0.5254
 8075TIP3   OH224188   7.189   2.437   3.343  0.4969  0.0737  0.3275
 8075TIP3    H124189   7.196   2.525   3.381  0.4679  0.6194 -0.8701
 8075TIP3    H224190   7.261   2.432   3.280  0.4621 -0.7491  0.3416
 8076TIP3   OH224191   3.850   3.832   4.615 -0.3050 -0.0650 -0.2529
 8076TIP3    H124192   3.877   3.766   4.552  1.5687  0.0646  0.3471
 8076TIP3    H224193   3.920   3.832   4.681 -1.1486  1.2765  0.6920
 8077TIP3   OH224194   6.950   1.464   3.927  0.2746  0.8209  0.7036
 8077TIP3    H124195   7.022   1.403   3.912  0.4821  0.5646  2.5532
 8077TIP3    H224196   6.987   1.550   3.906  0.0803  0.4291 -1.5879
 8078TIP3   OH224197   4.041   3.991   2.117  0.2235 -0.0799  0.3146
 8078TIP3    H124198   4.087   4.070   2.088 -0.7804  0.2887 -0.3054
 8078TIP3    H224199   4.008   3.951   2.036  1.8955 -1.9165  0.4555
 8079TIP3   OH224200   4.370   3.523   2.950 -0.6787 -0.1060 -0.0157
 8079TIP3    H124201   4.360   3.482   2.864 -0.4575  0.4741 -0.3277
 8079TIP3    H224202   4.435   3.470   2.995  0.1195  0.2856 -0.6690
 8080TIP3   OH224203   1.981   1.146   2.420  0.5504 -0.6730  0.0195
 8080TIP3    H124204   1.944   1.232   2.441  1.6980 -0.1733  0.0678
 8080TIP3    H224205   2.050   1.165   2.357 -0.6168 -1.8043 -1.6869
 8081TIP3   OH224206   1.132   1.634   2.105  1.2984  0.4362 -1.1478
 8081TIP3    H124207   1.115   1.712   2.052  0.9805 -0.6690 -2.7515
 8081TIP3    H224208   1.051   1.584   2.102  1.1075  0.5523  0.8356
 8082TIP3   OH224209   5.722   4.434   5.224 -0.0817 -0.2157  0.0393
 8082TIP3    H124210   5.733   4.410   5.316  0.2280 -1.0500 -0.2080
 8082TIP3    H224211   5.810   4.433   5.187 -0.1158  0.8461 -0.1036
 8083TIP3   OH224212   6.439   5.708   0.218 -0.1399  0.4741 -0.0214
 8083TIP3    H124213   6.476   5.625   0.249 -1.9868 -0.9417 -1.3212
 8083TIP3    H224214   6.514   5.755   0.181  1.0356 -0.3920  1.1424
 8084TIP3   OH224215   5.451   4.683   5.533 -0.0242 -0.3178  0.3085
 8084TIP3    H124216   5.546   4.677   5.525 -0.1267 -0.6998 -0.7394
 8084TIP3    H224217   5.419   4.687   5.443 -0.9679  0.3938  0.6570
 8085TIP3   OH224218   7.028   5.546   3.990  0.1756 -0.3801  0.1989
 8085TIP3    H124219   7.064   5.489   4.058  0.1360 -0.3375  0.2554
 8085TIP3    H224220   7.042   5.635   4.022  2.2523 -0.2613 -0.8882
 8086TIP3   OH224221   0.469   2.355   2.807 -0.7455  0.1402  0.0922
 8086TIP3    H124222   0.448   2.361   2.900 -1.1247 -1.0697  0.0902
 8086TIP3    H224223   0.534   2.285   2.801 -0.3805  0.5163 -0.5087
 8087TIP3   OH224224   3.865   4.379   2.394  0.5158  0.2052  0.0358
 8087TIP3    H124225   3.864   4.335   2.309  0.3859 -0.0039  0.1441
 8087TIP3    H224226   3.890   4.311   2.456  1.3022  0.5268  0.0767
 8088TIP3   OH224227   0.533   2.796   5.058  0.5984  0.6853  0.1268
 8088TIP3    H124228   0.499   2.710   5.085 -0.0143 -0.0784 -2.7015
 8088TIP3    H224229   0.455   2.851   5.054  0.5809  0.6111 -0.6203
 8089TIP3   OH224230   4.415   2.068   4.011  0.2239 -0.4706  0.2340
 8089TIP3    H124231   4.447   2.158   4.020 -0.1312 -0.0286 -2.2054
 8089TIP3    H224232   4.395   2.059   3.917 -0.4639 -2.8585  0.5472
 8090TIP3   OH224233   7.189   2.050   4.794  0.0290  0.2253 -0.2260
 8090TIP3    H124234   7.235   2.007   4.866 -2.3509 -3.8627 -0.8847
 8090TIP3    H224235   7.098   2.057   4.824 -0.7061 -0.1406 -2.2285
 8091TIP3   OH224236   2.697   1.141   4.378  0.0993 -0.0796  0.2573
 8091TIP3    H124237   2.623   1.172   4.325 -0.6375 -1.7000  0.2879
 8091TIP3    H224238   2.737   1.072   4.325  0.4724 -0.4694  1.0354
 8092TIP3   OH224239   0.006   5.016   3.259 -1.1458  0.4541 -0.2539
 8092TIP3    H124240  -0.030   4.986   3.342 -1.8554 -0.3919 -0.8465
 8092TIP3    H224241   0.083   5.068   3.283 -0.2142 -1.3493  0.8361
 8093TIP3   OH224242   4.892   6.623   1.414 -0.2119 -0.0925  0.5195
 8093TIP3    H124243   4.813   6.677   1.409  0.1046  0.3287 -0.0252
 8093TIP3    H224244   4.867   6.540   1.376  0.0571  0.5961 -1.2625
 8094TIP3   OH224245   4.363   3.994   1.207  0.0791  0.0121 -0.2353
 8094TIP3    H124246   4.269   4.003   1.194  0.4674  2.1772 -2.2341
 8094TIP3    H224247   4.382   4.042   1.287 -0.3132  1.4350 -0.9568
 8095TIP3   OH224248   2.333   3.833   4.495  0.3521  0.4264 -0.3652
 8095TIP3    H124249   2.304   3.875   4.577  1.1610 -1.7075  1.1153
 8095TIP3    H224250   2.416   3.875   4.474  0.5944  0.3806  0.4558
 8096TIP3   OH224251   4.631   1.111   1.549  0.3032  0.3064 -1.0822
 8096TIP3    H124252   4.710   1.060   1.567  1.3518  1.8347 -1.0951
 8096TIP3    H224253   4.665   1.196   1.518 -1.2738  1.9511  1.3904
 8097TIP3   OH224254   2.877   4.058   2.812 -0.4352 -0.3300  0.3962
 8097TIP3    H124255   2.888   4.143   2.855  1.0964 -0.2337 -0.1540
 8097TIP3    H224256   2.789   4.062   2.773  0.3613  1.8118 -1.3718
 8098TIP3   OH224257   0.171   3.621   2.585 -0.2300  0.4163  0.2957
 8098TIP3    H124258   0.122   3.567   2.648  0.6820  0.6212  1.2126
 8098TIP3    H224259   0.197   3.698   2.635 -1.9424  2.0074 -1.1259
 8099TIP3   OH224260   6.570   3.800   2.114  0.0821 -0.2466 -0.0458
 8099TIP3    H124261   6.655   3.764   2.090 -0.2723 -1.6172  0.6382
 8099TIP3    H224262   6.543   3.852   2.038  0.5385 -1.6024 -1.1712
 8100TIP3   OH224263   5.442   5.947   0.500  0.0667 -0.2576 -0.3309
 8100TIP3    H124264   5.384   5.914   0.431  1.1906 -1.3406 -0.7826
 8100TIP3    H224265   5.401   6.029   0.528 -2.0051 -1.2545 -0.2349
 8101TIP3   OH224266   2.840   5.913   5.478 -0.4636  0.1378  0.3455
 8101TIP3    H124267   2.820   5.993   5.528  0.9809  0.8013 -0.0815
 8101TIP3    H224268   2.779   5.914   5.405 -1.4723  0.0386  1.1616
 8102TIP3   OH224269   6.903   1.702   0.409 -0.1246 -0.3385 -0.2075
 8102TIP3    H124270   6.820   1.662   0.383  0.2148 -0.1901 -1.6109
 8102TIP3    H224271   6.963   1.628   0.422 -0.0041 -0.3778 -0.9528
 8103TIP3   OH224272   1.258   1.783   5.390 -0.0252  0.0533  0.5165
 8103TIP3    H124273   1.313   1.834   5.330  1.1544  0.3536  1.8070
 8103TIP3    H224274   1.218   1.849   5.447 -1.5693 -0.1846 -0.2608
 8104TIP3   OH224275   6.821   2.989   2.609  0.0159 -0.3543 -0.5262
 8104TIP3    H124276   6.763   2.914   2.615  1.7399 -1.7378 -0.3199
 8104TIP3    H224277   6.849   2.991   2.517 -2.1379  1.7736 -1.2269
 8105TIP3   OH224278   2.373   5.281   5.205  0.1424  0.0054 -0.6568
 8105TIP3    H124279   2.403   5.192   5.226 -0.5443 -0.5229 -1.8623
 8105TIP3    H224280   2.434   5.338   5.253  0.2903 -1.1060  0.5341
 8106TIP3   OH224281   1.403   0.863   5.709  0.1029  0.0961  0.7998
 8106TIP3    H124282   1.403   0.773   5.741  0.5416  0.0313  0.6256
 8106TIP3    H224283   1.473   0.865   5.644  0.4328  0.6899  1.1599
 8107TIP3   OH224284   4.469   0.771   3.055  0.1451  0.4908  0.0777
 8107TIP3    H124285   4.552   0.801   3.091  1.2979 -0.0780 -1.9186
 8107TIP3    H224286   4.454   0.829   2.980  0.0935 -1.0295 -1.1273
 8108TIP3   OH224287   2.372   3.345   2.598 -0.0586 -0.3321 -0.2326
 8108TIP3    H124288   2.350   3.256   2.625  1.1197 -0.2190  1.1903
 8108TIP3    H224289   2.301   3.399   2.634 -0.2841 -0.5740 -0.3060
 8109TIP3   OH224290   4.042   5.828   0.946 -0.4733 -0.0825  0.0455
 8109TIP3    H124291   4.107   5.764   0.975 -0.5026 -1.2196 -2.1247
 8109TIP3    H224292   4.061   5.840   0.853 -2.0318  1.2210 -0.1455
 8110TIP3   OH224293   2.610   6.186   3.394  0.2056  0.1455  0.1103
 8110TIP3    H124294   2.554   6.118   3.358  0.6053 -0.0665 -0.1295
 8110TIP3    H224295   2.591   6.263   3.341  0.4806 -0.0520 -0.2803
 8111TIP3   OH224296   1.270   0.267   3.520 -0.1348  0.0366  0.1845
 8111TIP3    H124297   1.345   0.207   3.515 -2.5304 -3.2657  0.2863
 8111TIP3    H224298   1.242   0.278   3.429 -0.8356 -0.6646  0.2992
 8112TIP3   OH224299   1.906   1.306   1.001 -0.0526 -0.2767  0.5216
 8112TIP3    H124300   1.871   1.290   1.089  0.3492 -0.5612  0.6316
 8112TIP3    H224301   1.893   1.223   0.956  0.0428 -0.2341  0.4159
 8113TIP3   OH224302   2.513   6.363   5.513 -0.6240 -0.3734  0.4525
 8113TIP3    H124303   2.489   6.385   5.603  0.1649  1.0077  0.3575
 8113TIP3    H224304   2.503   6.446   5.465  0.2268 -0.7777 -0.4460
 8114TIP3   OH224305   0.432   5.962   3.025 -0.4508 -0.3296  0.3154
 8114TIP3    H124306   0.359   5.943   3.084 -1.3539  1.8573 -0.0040
 8114TIP3    H224307   0.403   5.931   2.939 -1.8977  2.1763 -0.1971
 8115TIP3   OH224308   4.623   1.223   3.796 -0.4152  0.7158 -0.0980
 8115TIP3    H124309   4.546   1.258   3.751 -0.6768  0.4937  0.1641
 8115TIP3    H224310   4.626   1.131   3.769 -0.9705  0.4017  0.8408
 8116TIP3   OH224311   1.218   5.457   3.792  0.1890  0.1029  0.7200
 8116TIP3    H124312   1.134   5.439   3.836 -1.6173 -0.1243 -2.4594
 8116TIP3    H224313   1.265   5.374   3.797 -1.6608 -1.1656 -0.9649
 8117TIP3   OH224314   5.555   4.309   0.258  0.2553  0.0621 -0.4116
 8117TIP3    H124315   5.607   4.316   0.338 -0.5725 -2.5091  0.4597
 8117TIP3    H224316   5.502   4.389   0.256  1.2903  0.8080  0.8635
 8118TIP3   OH224317   4.748   4.916   2.098 -0.7466  0.0901  0.0183
 8118TIP3    H124318   4.776   5.008   2.097 -1.3083  0.2936  1.2200
 8118TIP3    H224319   4.684   4.912   2.169 -0.6883 -1.2453  0.0086
 8119TIP3   OH224320   0.229   4.169   5.685 -0.4143 -0.3735  0.0536
 8119TIP3    H124321   0.268   4.140   5.603  0.1121 -0.9699  0.4995
 8119TIP3    H224322   0.164   4.102   5.705  0.1955 -0.7975  0.6491
 8120TIP3   OH224323   3.802   5.556   0.817  0.5208 -0.4390 -0.0800
 8120TIP3    H124324   3.795   5.624   0.884  0.2254  1.4106 -1.8899
 8120TIP3    H224325   3.713   5.547   0.782  1.3653  2.1767 -3.4243
 8121TIP3   OH224326   6.723   0.358   4.747  0.4179  0.0495  0.1511
 8121TIP3    H124327   6.680   0.322   4.669  1.5813 -1.9003  0.3514
 8121TIP3    H224328   6.710   0.452   4.739 -2.3302 -0.2867 -0.6857
 8122TIP3   OH224329   0.027   1.229   5.287  0.5308 -0.1538 -1.1676
 8122TIP3    H124330   0.015   1.313   5.243 -0.2927  0.6254  0.4882
 8122TIP3    H224331   0.032   1.165   5.215 -1.1017  1.0296 -2.4003
 8123TIP3   OH224332   0.617   5.450   1.000 -0.1740  0.0820 -0.0782
 8123TIP3    H124333   0.664   5.408   1.072  1.3423  1.4865 -0.1958
 8123TIP3    H224334   0.630   5.391   0.926 -0.3681 -0.5657  0.3925
 8124TIP3   OH224335   3.196   0.037   1.180 -0.3093 -0.3614  0.1318
 8124TIP3    H124336   3.119   0.058   1.127 -1.0025 -2.1928  0.3148
 8124TIP3    H224337   3.167  -0.037   1.234  1.3147 -0.5015  0.8424
 8125TIP3   OH224338   0.078   0.141   4.153  0.3160 -0.0143 -0.5161
 8125TIP3    H124339   0.169   0.170   4.141  0.6240 -1.5181 -2.2044
 8125TIP3    H224340   0.026   0.217   4.128  1.1030  0.6826 -0.0962
 8126TIP3   OH224341   1.661   0.186   1.768  0.1013 -0.1944 -0.3957
 8126TIP3    H124342   1.621   0.099   1.773  1.2461 -0.7219  0.1186
 8126TIP3    H224343   1.755   0.168   1.758  0.4271  0.9774  0.3366
 8127TIP3   OH224344   4.758   5.682   1.052  0.9255  0.7573  0.1668
 8127TIP3    H124345   4.767   5.630   0.973  2.2697  2.7376 -1.0734
 8127TIP3    H224346   4.803   5.632   1.120  2.0593  0.2358 -0.9354
 8128TIP3   OH224347   4.544   4.715   1.274  0.5200 -0.2711 -0.1953
 8128TIP3    H124348   4.619   4.725   1.332 -1.1080 -2.7985  2.6243
 8128TIP3    H224349   4.479   4.778   1.306 -0.5552 -1.9906  1.1587
 8129TIP3   OH224350   3.593   4.372   1.870  0.1762  0.7675  0.4402
 8129TIP3    H124351   3.633   4.409   1.791  1.6855 -1.3327  0.1489
 8129TIP3    H224352   3.501   4.359   1.846  0.1810  1.8834 -0.2894
 8130TIP3   OH224353   5.014   0.082   5.370 -0.1835  0.2409 -0.1950
 8130TIP3    H124354   4.999   0.021   5.442  0.7628  0.0117 -0.1894
 8130TIP3    H224355   4.933   0.077   5.318 -1.0671  0.7483  1.0713
 8131TIP3   OH224356   0.828   2.291   3.756 -0.3910  0.4237  0.4246
 8131TIP3    H124357   0.786   2.266   3.838  0.7849 -0.3079  0.8250
 8131TIP3    H224358   0.781   2.242   3.689  0.4811 -1.2317  0.9822
 8132TIP3   OH224359   7.031   4.388   1.846 -0.5504 -0.2539 -0.0503
 8132TIP3    H124360   7.004   4.298   1.826  0.8928 -1.0171  1.1810
 8132TIP3    H224361   7.098   4.408   1.781 -0.0838 -0.5201  0.3316
 8133TIP3   OH224362   6.745   1.854   3.490  0.3613  0.2115 -0.6663
 8133TIP3    H124363   6.756   1.928   3.429  0.9916  1.4961  0.9140
 8133TIP3    H224364   6.704   1.893   3.567  0.6004 -1.1246  0.1690
 8134TIP3   OH224365   6.209   3.690   3.343 -0.6314 -0.4637 -0.1499
 8134TIP3    H124366   6.289   3.702   3.394 -0.9673 -0.1348  0.3018
 8134TIP3    H224367   6.195   3.775   3.300 -0.1967 -0.8192 -1.0212
 8135TIP3   OH224368   4.942   0.463   1.478  0.7725  0.3260  0.5021
 8135TIP3    H124369   4.904   0.408   1.409  0.8511  1.2685 -0.3167
 8135TIP3    H224370   5.036   0.443   1.475  0.4800 -1.5151  2.0814
 8136TIP3   OH224371   6.874   1.245   0.221  0.3986 -0.4614 -0.1517
 8136TIP3    H124372   6.884   1.159   0.263 -0.3934 -1.9893 -2.8399
 8136TIP3    H224373   6.812   1.229   0.149 -0.3231  2.5550 -0.3266
 8137TIP3   OH224374   2.005   5.718   4.962 -0.2125 -0.0316 -0.2814
 8137TIP3    H124375   2.025   5.648   5.024  1.0711 -0.5360 -1.2256
 8137TIP3    H224376   1.944   5.775   5.009 -1.7067 -2.0313  0.3454
 8138TIP3   OH224377   5.127   6.495   1.170  0.1520 -0.4678 -0.0481
 8138TIP3    H124378   5.059   6.537   1.117  1.1509  1.9879  0.4783
 8138TIP3    H224379   5.145   6.557   1.240  4.4164  0.1137 -1.3348
 8139TIP3   OH224380   2.290   4.842   2.315  0.8056  0.2634 -0.2275
 8139TIP3    H124381   2.339   4.925   2.314  1.5439 -0.1372 -1.9521
 8139TIP3    H224382   2.358   4.775   2.311  0.2349 -0.2967 -3.8063
 8140TIP3   OH224383   1.434   4.190   4.705 -0.3888 -0.0863  0.0438
 8140TIP3    H124384   1.474   4.260   4.654  0.9517 -0.4437  0.5559
 8140TIP3    H224385   1.443   4.219   4.796 -0.7303 -0.4680  0.2004
 8141TIP3   OH224386   4.969   4.668   0.647 -0.5849 -0.2241  0.1191
 8141TIP3    H124387   4.878   4.696   0.646 -0.2719  0.8237 -0.7619
 8141TIP3    H224388   5.008   4.710   0.570  0.0116 -2.7673 -1.0781
 8142TIP3   OH224389   3.202   3.766   2.782 -0.0151 -0.0046  0.5082
 8142TIP3    H124390   3.209   3.676   2.751  0.6362  1.1121 -3.0438
 8142TIP3    H224391   3.120   3.798   2.744  0.8288  1.4913 -0.1484
 8143TIP3   OH224392   0.386   5.524   2.107 -0.6604  0.1942  0.0414
 8143TIP3    H124393   0.443   5.561   2.040 -0.8943  0.8500  0.1946
 8143TIP3    H224394   0.299   5.528   2.069 -0.6973 -0.1356  0.0896
 8144TIP3   OH224395   4.588   2.156   0.517  0.5784  0.3408 -0.0424
 8144TIP3    H124396   4.655   2.140   0.451 -0.2956 -0.4302 -0.7793
 8144TIP3    H224397   4.636   2.191   0.592  1.4977  2.0095 -1.3467
 8145TIP3   OH224398   2.254   4.695   0.834  0.1613  0.3736  0.2881
 8145TIP3    H124399   2.211   4.638   0.771 -0.1899  1.2822 -0.3170
 8145TIP3    H224400   2.251   4.647   0.916 -0.8349 -0.1380 -0.0343
 8146TIP3   OH224401   2.364   4.610   1.129 -0.2060 -0.0252  0.3290
 8146TIP3    H124402   2.372   4.577   1.219 -0.8152  0.8010  0.7018
 8146TIP3    H224403   2.417   4.689   1.128  0.4559 -0.4657 -0.2817
 8147TIP3   OH224404   2.751   2.108   2.935  0.8588 -0.3587  0.3107
 8147TIP3    H124405   2.845   2.090   2.934  1.4795  2.4379 -0.2852
 8147TIP3    H224406   2.735   2.147   3.021  0.5487  0.4128 -0.0864
 8148TIP3   OH224407   6.885   5.680   1.980  0.1576  0.2598  0.2865
 8148TIP3    H124408   6.872   5.764   2.023 -1.8892  0.4489 -0.5974
 8148TIP3    H224409   6.915   5.703   1.892 -0.7543  0.0968 -0.0737
 8149TIP3   OH224410   6.991   3.453   3.387  0.2217 -0.3232  0.3377
 8149TIP3    H124411   7.011   3.537   3.428 -0.7876 -0.1392  0.4574
 8149TIP3    H224412   6.985   3.474   3.293 -0.4213 -0.1881  0.4089
 8150TIP3   OH224413   1.210   1.291   1.484 -0.1719 -0.0954 -0.8499
 8150TIP3    H124414   1.124   1.266   1.517 -0.0874 -1.1751 -1.3835
 8150TIP3    H224415   1.233   1.221   1.423  0.5455  0.8135 -1.6519
 8151TIP3   OH224416   3.551   5.467   1.365  0.2501  0.0801 -0.4969
 8151TIP3    H124417   3.529   5.550   1.322 -0.8298  0.1103  0.0839
 8151TIP3    H224418   3.620   5.490   1.427 -1.3123  0.9579  1.0042
 8152TIP3   OH224419   0.218   2.381   2.727  0.0571  0.0208 -0.3534
 8152TIP3    H124420   0.312   2.364   2.733  0.0071  0.1740  1.6646
 8152TIP3    H224421   0.209   2.475   2.741 -0.3182  0.2724 -2.1001
 8153TIP3   OH224422   5.625   5.533   0.030 -0.6544 -0.0110 -0.0510
 8153TIP3    H124423   5.566   5.555  -0.042 -1.7272 -0.9712  0.4988
 8153TIP3    H224424   5.639   5.438   0.021 -0.9887 -0.1869  1.1139
 8154TIP3   OH224425   4.514   0.007   2.387  0.5313 -0.1589 -0.0739
 8154TIP3    H124426   4.588   0.049   2.430  0.1142  2.3040 -1.5180
 8154TIP3    H224427   4.442   0.016   2.450  1.2703 -2.0632  1.1032
 8155TIP3   OH224428   5.487   3.109   5.770 -0.0762 -0.2793  0.1100
 8155TIP3    H124429   5.500   3.052   5.846 -0.5760 -0.9114 -0.2663
 8155TIP3    H224430   5.548   3.075   5.704  0.2543  0.1787  0.1788
 8156TIP3   OH224431   0.838   0.382   3.881  0.6770 -0.3350  0.3116
 8156TIP3    H124432   0.830   0.476   3.871  0.7718 -0.4102 -0.5566
 8156TIP3    H224433   0.763   0.346   3.833  0.6073 -0.6964  0.6896
 8157TIP3   OH224434   1.011   3.423   0.065 -0.2869 -0.2052  0.3027
 8157TIP3    H124435   1.022   3.517   0.078 -1.1993 -0.1596  0.8237
 8157TIP3    H224436   0.940   3.399   0.124 -0.0724 -1.2222  0.1630
 8158TIP3   OH224437   4.460   4.998   2.554 -0.2984  0.3613 -0.3709
 8158TIP3    H124438   4.477   5.066   2.619  0.8945  0.1887 -0.4862
 8158TIP3    H224439   4.502   5.030   2.474 -0.2616 -0.2191 -0.5895
 8159TIP3   OH224440   2.913   1.819   0.513 -0.3325  0.2588  0.1268
 8159TIP3    H124441   2.925   1.895   0.569 -3.9826 -0.4640  2.2478
 8159TIP3    H224442   2.950   1.746   0.562 -2.7490 -0.2320  1.4066
 8160TIP3   OH224443   1.294   0.485   3.691 -0.5792 -0.2177  0.1345
 8160TIP3    H124444   1.389   0.484   3.680 -0.6828 -2.7539 -1.2852
 8160TIP3    H224445   1.262   0.417   3.631 -2.9579 -1.8961  2.9881
 8161TIP3   OH224446   6.268   1.600   1.689 -0.5608 -0.1777  0.1371
 8161TIP3    H124447   6.309   1.515   1.705  0.3649 -0.1289 -1.7170
 8161TIP3    H224448   6.183   1.578   1.650 -0.8740 -0.2440  0.8394
 8162TIP3   OH224449   4.960   4.833   1.810 -0.4831  0.3565  0.2700
 8162TIP3    H124450   4.934   4.741   1.806  1.8549 -0.3787  0.0763
 8162TIP3    H224451   5.001   4.842   1.897 -0.5380  1.1575  0.2160
 8163TIP3   OH224452   0.144   4.107   5.031  0.3563 -0.5810  0.1317
 8163TIP3    H124453   0.105   4.170   4.970 -0.3334 -1.5215 -0.4171
 8163TIP3    H224454   0.074   4.044   5.050  1.3296 -1.7986 -0.1666
 8164TIP3   OH224455   2.895   0.432   0.833 -0.5387 -0.0035  0.2143
 8164TIP3    H124456   2.894   0.521   0.797 -0.6428  0.4090  1.2139
 8164TIP3    H224457   2.930   0.378   0.762 -0.0715  0.8996 -0.2557
 8165TIP3   OH224458   4.083   2.056   1.138 -0.8862  0.2541 -0.2342
 8165TIP3    H124459   4.005   2.011   1.169 -1.3246  0.4286 -1.0482
 8165TIP3    H224460   4.149   1.987   1.130 -0.3192  0.4106  2.3753
 8166TIP3   OH224461   0.652   3.146   3.386  0.1313  0.5067  0.2619
 8166TIP3    H124462   0.715   3.144   3.458  1.4488  1.6240 -0.7995
 8166TIP3    H224463   0.648   3.238   3.360 -1.8307  0.4351  0.1669
 8167TIP3   OH224464   1.512   3.397   5.830  0.8953  0.0244 -0.1328
 8167TIP3    H124465   1.554   3.422   5.912  1.3801  1.0407 -0.6640
 8167TIP3    H224466   1.514   3.477   5.777 -3.1244  0.6266  0.3511
 8168TIP3   OH224467   3.325   3.540   4.959  0.1666 -0.2661 -0.1981
 8168TIP3    H124468   3.303   3.633   4.956  0.9778  0.0388  1.7695
 8168TIP3    H224469   3.352   3.519   4.870 -0.7412  1.1836 -0.8555
 8169TIP3   OH224470   6.157   0.208   0.388  0.1802  0.0954 -0.6527
 8169TIP3    H124471   6.085   0.228   0.328 -0.2980 -1.1491 -0.5169
 8169TIP3    H224472   6.114   0.201   0.474  0.7601  1.1943 -0.2459
 8170TIP3   OH224473   2.137   5.944   2.409 -0.3709 -0.1500 -0.1147
 8170TIP3    H124474   2.045   5.932   2.434 -0.3821  0.3196  0.0628
 8170TIP3    H224475   2.185   5.943   2.492  0.1530 -3.3811 -0.3206
 8171TIP3   OH224476   6.929   0.565   2.302 -0.0936  0.1646 -0.1568
 8171TIP3    H124477   7.015   0.569   2.345  0.1910  0.2959 -0.7288
 8171TIP3    H224478   6.949   0.558   2.208 -0.7093  0.6078 -0.3260
 8172TIP3   OH224479   2.696   1.469   0.054 -0.3928 -0.2400 -0.1537
 8172TIP3    H124480   2.617   1.506   0.015  0.6077  0.9715 -1.1010
 8172TIP3    H224481   2.695   1.377   0.026 -0.7013  0.1319 -1.4247
 8173TIP3   OH224482   1.399   1.345   3.141 -0.0038 -0.3680 -0.7112
 8173TIP3    H124483   1.399   1.313   3.051 -1.6523 -0.0736 -0.8467
 8173TIP3    H224484   1.487   1.380   3.154  0.7198 -1.6960 -1.7236
 8174TIP3   OH224485   0.227   4.322   0.591 -0.7480  0.3597 -0.0667
 8174TIP3    H124486   0.238   4.345   0.499  1.7751  0.7618  0.2606
 8174TIP3    H224487   0.311   4.344   0.631 -1.8554  0.4227  2.4000
 8175TIP3   OH224488   6.457   4.651   1.571 -0.0356 -0.0511 -0.6111
 8175TIP3    H124489   6.484   4.723   1.627  0.2395  1.0207 -2.0607
 8175TIP3    H224490   6.480   4.680   1.483 -0.8262 -1.5011 -1.3209
 8176TIP3   OH224491   4.483   5.212   2.729 -0.1801  0.0035  0.1329
 8176TIP3    H124492   4.495   5.301   2.695  1.1608  0.5739  1.9094
 8176TIP3    H224493   4.439   5.225   2.813  0.3112 -0.9849  0.5560
 8177TIP3   OH224494   1.279   3.440   3.639  0.1043 -0.3449  0.4303
 8177TIP3    H124495   1.240   3.523   3.666  1.1691  0.7029 -1.0549
 8177TIP3    H224496   1.247   3.376   3.703  0.5767  1.4853  2.6275
 8178TIP3   OH224497   2.044   2.029   1.111 -0.1166 -0.5310  0.2113
 8178TIP3    H124498   1.986   2.030   1.034 -1.7276  0.8940  1.3619
 8178TIP3    H224499   2.007   1.961   1.167  0.9026 -1.3866 -0.1265
 8179TIP3   OH224500   1.621   1.771   5.220  0.3187 -0.3428  0.0447
 8179TIP3    H124501   1.656   1.832   5.156  1.2903 -0.1918  0.6994
 8179TIP3    H224502   1.530   1.798   5.232  0.2181 -0.1660 -1.0015
 8180TIP3   OH224503   0.850   3.096   3.004  0.8229 -0.3874  0.1215
 8180TIP3    H124504   0.785   3.063   3.066  1.0860 -0.6496  0.2603
 8180TIP3    H224505   0.857   3.190   3.024  0.7612 -0.4315  0.3537
 8181TIP3   OH224506   0.157   4.299   3.378 -0.0417 -0.1247 -0.2367
 8181TIP3    H124507   0.233   4.339   3.335 -0.3635  0.6004 -0.1453
 8181TIP3    H224508   0.192   4.263   3.459 -0.1278  1.9760  0.7859
 8182TIP3   OH224509   0.105   5.054   0.176 -0.7162 -0.7039  0.0678
 8182TIP3    H124510   0.141   4.989   0.116  0.5884 -0.5325  0.6280
 8182TIP3    H224511   0.181   5.105   0.204 -1.3754 -0.4346  1.4437
 8183TIP3   OH224512   5.642   4.255   0.829 -0.0285  0.0743  0.2815
 8183TIP3    H124513   5.624   4.162   0.827  0.5097 -0.0171 -0.6840
 8183TIP3    H224514   5.565   4.294   0.871 -2.3004 -0.3268 -3.1324
 8184TIP3   OH224515   6.119   3.213   0.148  0.0270  0.4484  0.0821
 8184TIP3    H124516   6.037   3.262   0.150 -0.1630  0.2163 -1.2581
 8184TIP3    H224517   6.143   3.203   0.240 -3.1519 -2.3479  0.7977
 8185TIP3   OH224518   3.453   5.636   4.170 -0.4102 -0.0804 -0.2909
 8185TIP3    H124519   3.449   5.681   4.086 -1.2439  0.6117  0.1081
 8185TIP3    H224520   3.528   5.676   4.214 -2.2286  2.3687  0.8246
 8186TIP3   OH224521   6.137   3.580   4.887  0.3317  0.4051  0.0712
 8186TIP3    H124522   6.149   3.575   4.982  1.5969 -0.2501 -0.1018
 8186TIP3    H224523   6.188   3.657   4.860  1.0295 -0.1471 -0.2172
 8187TIP3   OH224524   4.016   2.623   5.134 -0.2641  0.1828 -0.0457
 8187TIP3    H124525   4.072   2.594   5.062 -0.5099  0.4237 -0.3354
 8187TIP3    H224526   4.071   2.683   5.184 -0.0641 -0.0510  0.0175
 8188TIP3   OH224527   2.621   5.392   3.982  0.1185 -0.5539 -0.8022
 8188TIP3    H124528   2.531   5.419   3.966 -0.6343 -1.4422  1.5300
 8188TIP3    H224529   2.674   5.461   3.941 -1.5983  0.0964 -2.0250
 8189TIP3   OH224530   2.826   6.280   2.214  0.2957 -0.1134 -0.4169
 8189TIP3    H124531   2.855   6.348   2.275 -1.0200  0.1045 -0.0131
 8189TIP3    H224532   2.735   6.262   2.238 -0.8574  1.1599 -3.3035
 8190TIP3   OH224533   3.003   6.755   3.703  0.0551 -0.3036 -0.0813
 8190TIP3    H124534   2.933   6.763   3.768  0.3723 -0.4006  0.2767
 8190TIP3    H224535   2.982   6.675   3.655  0.3534 -0.7632  0.5504
 8191TIP3   OH224536   2.195   0.162   2.692 -0.5772  0.1299 -0.3538
 8191TIP3    H124537   2.164   0.186   2.779 -0.7316 -0.9731 -0.0932
 8191TIP3    H224538   2.290   0.164   2.698 -0.5748  1.4245 -0.5625
 8192TIP3   OH224539   5.952   5.746   2.390  0.0926  0.1974 -0.4623
 8192TIP3    H124540   5.985   5.656   2.376  1.4448  0.8202 -1.5652
 8192TIP3    H224541   6.000   5.776   2.467 -0.6904 -0.1604  0.1771
 8193TIP3   OH224542   3.357   1.291   5.857  0.7572 -0.1359  0.0693
 8193TIP3    H124543   3.439   1.257   5.822 -0.0856 -2.4924  0.1792
 8193TIP3    H224544   3.356   1.261   5.948 -1.4980 -2.8788 -0.7144
 8194TIP3   OH224545   7.153   1.780   3.285 -0.4848 -0.5704 -0.1510
 8194TIP3    H124546   7.168   1.858   3.231  0.8389 -0.2217  0.6721
 8194TIP3    H224547   7.086   1.808   3.348 -1.9801 -0.9588 -1.5240
 8195TIP3   OH224548   3.802   1.711   5.488 -0.6874 -0.5520  0.1151
 8195TIP3    H124549   3.869   1.645   5.472 -2.1208 -1.9689 -0.1961
 8195TIP3    H224550   3.732   1.665   5.534 -1.2833  0.9903  0.8291
 8196TIP3   OH224551   3.981   2.814   1.867 -0.2109  0.3230  0.3214
 8196TIP3    H124552   4.040   2.746   1.836 -0.1629 -0.0371  1.1780
 8196TIP3    H224553   3.896   2.771   1.874 -0.4871  0.7179 -0.4524
 8197TIP3   OH224554   6.259   0.763   5.418 -0.6239  0.7892  0.2131
 8197TIP3    H124555   6.305   0.793   5.496  1.2552 -1.8600  0.2487
 8197TIP3    H224556   6.199   0.695   5.449 -0.0526 -0.1037 -0.5889
 8198TIP3   OH224557   1.064   3.723   0.751  0.1791  0.6880 -0.3195
 8198TIP3    H124558   1.102   3.639   0.724 -0.8375 -0.8271  2.5695
 8198TIP3    H224559   1.124   3.755   0.819 -0.3168  1.5001 -0.2575
 8199TIP3   OH224560   5.002   2.996   1.414  0.5934 -0.1467 -0.1662
 8199TIP3    H124561   4.965   2.912   1.443  1.0165 -0.5631 -0.8090
 8199TIP3    H224562   4.956   3.017   1.333  0.2773  0.3990  0.1505
 8200TIP3   OH224563   3.798   2.554   3.462 -0.3933 -0.7836  0.0355
 8200TIP3    H124564   3.706   2.580   3.452 -0.2174  0.6091  1.5573
 8200TIP3    H224565   3.796   2.458   3.464 -2.0039 -0.7570  1.4280
 8201TIP3   OH224566   6.425   3.365   4.372  0.2476 -0.2166  0.2240
 8201TIP3    H124567   6.444   3.442   4.319 -1.0197  0.1303  0.2610
 8201TIP3    H224568   6.340   3.335   4.342  0.5590 -1.4035  0.4571
 8202TIP3   OH224569   3.176   1.096   0.070 -0.8084 -0.2842  0.4430
 8202TIP3    H124570   3.215   1.034   0.132  0.1621  0.7239  0.8858
 8202TIP3    H224571   3.226   1.084  -0.011 -1.4307 -0.9249  0.1518
 8203TIP3   OH224572   5.958   5.094   1.068 -0.4380 -0.0549  0.5359
 8203TIP3    H124573   6.017   5.150   1.120 -0.3830  0.0582  0.3534
 8203TIP3    H224574   5.878   5.089   1.120 -1.3898  2.2347 -0.5455
 8204TIP3   OH224575   6.944   4.418   3.085 -0.0245  0.2194  0.2979
 8204TIP3    H124576   7.010   4.470   3.130 -0.1629 -0.6449  1.5267
 8204TIP3    H224577   6.927   4.343   3.142 -2.6953  0.8270  0.4515
 8205TIP3   OH224578   2.894   1.508   2.067 -0.0782  0.3788 -0.2991
 8205TIP3    H124579   2.927   1.427   2.106 -0.1534 -0.2824 -1.5422
 8205TIP3    H224580   2.947   1.577   2.107  0.8731 -0.4015 -0.1624
 8206TIP3   OH224581   5.147   3.768   4.714 -0.4077  0.0757  0.3620
 8206TIP3    H124582   5.105   3.706   4.653  0.4233  1.0422 -1.2714
 8206TIP3    H224583   5.074   3.809   4.761 -0.9987 -1.7129  1.0834
 8207TIP3   OH224584   5.345   1.580   0.842  0.3516  0.4123 -0.3879
 8207TIP3    H124585   5.287   1.572   0.918  0.9502  1.0004  0.1382
 8207TIP3    H224586   5.300   1.532   0.773  1.2774 -3.0022  1.1662
 8208TIP3   OH224587   0.414   1.305   2.860 -0.2286  0.1992 -0.3841
 8208TIP3    H124588   0.371   1.252   2.927  0.5598 -1.3082 -1.0173
 8208TIP3    H224589   0.351   1.308   2.788 -0.8445  1.3426  0.1759
 8209TIP3   OH224590   4.873   5.403   1.616 -0.5426 -0.1133 -0.0864
 8209TIP3    H124591   4.937   5.452   1.565  1.1150 -2.4676 -0.4162
 8209TIP3    H224592   4.924   5.359   1.684 -1.7155 -2.3037 -0.5301
 8210TIP3   OH224593   3.078   1.631   0.131 -0.2968  0.0915  0.3723
 8210TIP3    H124594   2.988   1.635   0.163 -0.0368  1.5045  0.9631
 8210TIP3    H224595   3.102   1.538   0.140 -1.2546 -0.0727  1.4174
 8211TIP3   OH224596   6.685   3.497   2.303  0.4509 -0.4508  0.4539
 8211TIP3    H124597   6.738   3.427   2.341  0.1418 -0.3980  0.9840
 8211TIP3    H224598   6.658   3.464   2.218  0.4225 -0.9181  0.6458
 8212TIP3   OH224599   5.302   2.060   0.872  0.0215 -0.3858  0.2907
 8212TIP3    H124600   5.379   2.072   0.816  1.3908 -1.5185  1.8226
 8212TIP3    H224601   5.251   1.992   0.830 -1.8341  2.4108 -2.3627
 8213TIP3   OH224602   5.183   6.392   2.241  0.1508 -0.0530  0.0909
 8213TIP3    H124603   5.274   6.376   2.269  0.0851  0.0087  0.3433
 8213TIP3    H224604   5.130   6.356   2.312 -0.0106  0.6413  0.3349
 8214TIP3   OH224605   4.939   3.766   0.495  0.1719 -0.0762 -0.1902
 8214TIP3    H124606   4.969   3.701   0.432  1.4291 -0.6677  0.9672
 8214TIP3    H224607   4.993   3.843   0.478 -1.1256  0.6137 -1.3754
 8215TIP3   OH224608   4.100   2.356   1.711  0.2346 -0.1561 -0.1544
 8215TIP3    H124609   4.078   2.412   1.637 -0.5511 -1.3613 -0.8571
 8215TIP3    H224610   4.073   2.268   1.684  1.7879 -0.9616  0.7561
 8216TIP3   OH224611   4.822   2.115   1.137  0.3410  0.4004 -0.1644
 8216TIP3    H124612   4.859   2.188   1.187  0.0751  1.1022 -0.9730
 8216TIP3    H224613   4.743   2.151   1.096 -1.0734 -0.9687  1.2241
 8217TIP3   OH224614   4.606   0.142   1.473  0.4854  0.9148 -0.1934
 8217TIP3    H124615   4.684   0.088   1.457  1.5191  1.8812  1.2543
 8217TIP3    H224616   4.606   0.156   1.568 -1.5877  0.7918 -0.1379
 8218TIP3   OH224617   0.089   0.738   2.913  0.1693  0.3507 -0.2213
 8218TIP3    H124618   0.172   0.716   2.873 -0.2962 -0.1301 -0.9498
 8218TIP3    H224619   0.039   0.782   2.844 -1.0815 -1.5079 -0.5933
 8219TIP3   OH224620   6.367   4.417   1.761 -0.1961 -0.3426  0.3796
 8219TIP3    H124621   6.407   4.503   1.750 -0.9122  0.2939  2.2669
 8219TIP3    H224622   6.352   4.385   1.672  2.6470  0.2130 -0.3899
 8220TIP3   OH224623   4.023   0.550   5.024  0.0182  0.4758 -0.4168
 8220TIP3    H124624   4.048   0.548   5.117 -0.0061  0.4287 -0.4110
 8220TIP3    H224625   3.982   0.636   5.013 -2.2185 -0.4374  0.2139
 8221TIP3   OH224626   7.153   1.288   4.974  0.0040 -0.0081 -0.6723
 8221TIP3    H124627   7.207   1.209   4.980 -0.6959 -0.5945 -1.7903
 8221TIP3    H224628   7.066   1.259   5.001  0.1108  0.8051  0.5969
 8222TIP3   OH224629   6.251   1.072   3.539  0.0075 -0.8325  0.2278
 8222TIP3    H124630   6.173   1.086   3.485  0.8797 -1.1323 -1.1841
 8222TIP3    H224631   6.226   1.003   3.600 -0.8477 -0.9014 -0.1876
 8223TIP3   OH224632   2.387   1.245   3.276  0.2941  0.2808 -0.4173
 8223TIP3    H124633   2.459   1.278   3.330 -0.0323  0.5412 -0.1352
 8223TIP3    H224634   2.307   1.272   3.323  0.0124 -0.5035 -0.4306
 8224TIP3   OH224635   1.061   2.816   2.667  0.6851  0.0776  0.0218
 8224TIP3    H124636   1.012   2.750   2.716 -2.0064  0.2946 -2.1114
 8224TIP3    H224637   1.019   2.899   2.690  2.1019  0.7128  0.4337
 8225TIP3   OH224638   5.483   4.906   2.873  0.3168 -1.2602 -0.2224
 8225TIP3    H124639   5.464   4.821   2.834 -0.3685 -1.0441 -0.3799
 8225TIP3    H224640   5.522   4.886   2.958 -3.5569 -1.8245  1.6541
 8226TIP3   OH224641   4.195   6.766   1.149  0.6301 -0.2232 -0.4276
 8226TIP3    H124642   4.206   6.834   1.083 -0.2652 -0.1437 -0.5102
 8226TIP3    H224643   4.163   6.690   1.101  0.9788 -0.4956 -0.2351
 8227TIP3   OH224644   5.618   3.236   2.795 -0.4578  0.8468  0.2302
 8227TIP3    H124645   5.664   3.153   2.803  0.9311  1.6632  1.1075
 8227TIP3    H224646   5.640   3.267   2.707 -0.7405  0.4287  0.0111
 8228TIP3   OH224647   6.461   5.484   2.686  0.4402  0.0736  0.1831
 8228TIP3    H124648   6.508   5.559   2.722  0.6707 -0.2516  0.5613
 8228TIP3    H224649   6.395   5.464   2.752 -0.1154  0.4123 -0.2612
 8229TIP3   OH224650   5.319   0.820   0.249  0.0475 -0.3858 -0.7280
 8229TIP3    H124651   5.231   0.858   0.247  0.2502  0.0984 -0.4229
 8229TIP3    H224652   5.378   0.894   0.233  0.4889 -0.4239  0.6238
 8230TIP3   OH224653   0.363   1.725   4.969 -0.5083  0.1011 -0.4099
 8230TIP3    H124654   0.335   1.643   5.009  2.5374 -0.0253  1.7947
 8230TIP3    H224655   0.319   1.793   5.021  1.8566 -0.1202  2.1269
 8231TIP3   OH224656   0.507   1.318   0.448  0.1582  0.0838  0.2464
 8231TIP3    H124657   0.561   1.306   0.526  0.3008  0.3700  0.1925
 8231TIP3    H224658   0.567   1.354   0.383  0.3741 -1.3790 -0.4151
 8232TIP3   OH224659   6.583   5.517   0.364  0.1290  0.3735 -0.4395
 8232TIP3    H124660   6.531   5.440   0.343 -0.1189  0.1819  0.7549
 8232TIP3    H224661   6.559   5.537   0.455  1.1639  1.0763 -0.3078
 8233TIP3   OH224662   0.153   2.285   4.833 -0.1057  0.3110  0.0931
 8233TIP3    H124663   0.153   2.194   4.862  0.9822  0.5596  0.9183
 8233TIP3    H224664   0.243   2.315   4.844  0.1010  0.8385 -2.3077
 8234TIP3   OH224665   1.401   4.953   0.727 -0.0506  0.0148 -0.1482
 8234TIP3    H124666   1.496   4.954   0.744  0.4472  0.3631 -2.5302
 8234TIP3    H224667   1.369   5.036   0.762  0.6260  0.1226  0.2275
 8235TIP3   OH224668   5.943   3.495   2.727 -0.4232  0.2110  0.9372
 8235TIP3    H124669   5.850   3.516   2.730 -0.2438  0.9839  1.4731
 8235TIP3    H224670   5.969   3.509   2.637 -1.7689 -4.4413 -0.4847
 8236TIP3   OH224671   4.851   2.295   1.357 -0.0089  0.4311  0.5675
 8236TIP3    H124672   4.767   2.325   1.393 -0.7002  0.0370 -0.6366
 8236TIP3    H224673   4.904   2.375   1.350 -0.9082  0.9774 -0.2456
 8237TIP3   OH224674   2.707   2.939   5.482  0.2995 -0.2607 -0.3485
 8237TIP3    H124675   2.735   2.872   5.419 -0.6997 -1.0575  0.0360
 8237TIP3    H224676   2.614   2.923   5.495  0.3362  0.3326  0.7958
 8238TIP3   OH224677   4.580   6.229   2.523 -0.1598  0.3759 -0.0064
 8238TIP3    H124678   4.571   6.314   2.479 -0.6403  0.3395  0.0179
 8238TIP3    H224679   4.652   6.242   2.585 -1.6951  1.4977  1.6575
 8239TIP3   OH224680   6.989   6.247   4.587  1.0403 -0.4705 -0.4482
 8239TIP3    H124681   6.918   6.183   4.589 -1.0901  1.7413  1.2977
 8239TIP3    H224682   6.960   6.314   4.526  0.4087  1.6326  2.0163
 8240TIP3   OH224683   6.669   5.217   0.109 -0.2664  0.1499  0.3733
 8240TIP3    H124684   6.646   5.124   0.106  0.9335 -0.1594 -1.5399
 8240TIP3    H224685   6.743   5.221   0.170 -0.5883 -0.0759  0.7817
 8241TIP3   OH224686   2.594   0.306   1.210  0.2517 -0.1960 -0.1541
 8241TIP3    H124687   2.539   0.294   1.132  1.2439 -0.0476 -0.9006
 8241TIP3    H224688   2.680   0.328   1.175  0.8541 -0.6587  0.9901
 8242TIP3   OH224689   1.365   1.987   0.341 -0.2997 -0.5349  0.1286
 8242TIP3    H124690   1.329   2.047   0.406  1.3976  0.3543  0.3185
 8242TIP3    H224691   1.447   1.956   0.381  1.4544  1.0185 -2.0141
 8243TIP3   OH224692   2.322   1.743   0.967 -0.3512  0.1358 -0.2772
 8243TIP3    H124693   2.331   1.821   0.913  1.6357  1.7274  2.1479
 8243TIP3    H224694   2.407   1.699   0.959  0.5788  1.2064  2.5325
 8244TIP3   OH224695   3.704   4.616   1.308  0.4838  0.4932  0.0236
 8244TIP3    H124696   3.628   4.562   1.284 -0.0636  0.9637  0.6441
 8244TIP3    H224697   3.770   4.552   1.335  0.1078  0.0909  0.0178
 8245TIP3   OH224698   0.709   4.124   3.163  0.0263 -0.1536  0.2201
 8245TIP3    H124699   0.773   4.144   3.095 -0.0758  2.4854  0.8176
 8245TIP3    H224700   0.761   4.090   3.235  0.8008  1.8208  0.6457
 8246TIP3   OH224701   4.954   0.556   5.012  0.0568 -0.3847 -0.6065
 8246TIP3    H124702   4.958   0.473   5.060 -2.4478 -1.4085 -2.0226
 8246TIP3    H224703   4.998   0.538   4.929  1.1261  0.3142 -0.2251
 8247TIP3   OH224704   1.433   0.131   1.068  0.0527  0.0595 -0.2645
 8247TIP3    H124705   1.401   0.117   0.979 -0.0695  1.2464 -0.4167
 8247TIP3    H224706   1.473   0.047   1.092  0.5215 -0.1269 -1.6130
 8248TIP3   OH224707   6.927   0.222   1.514  0.5938  0.2930 -0.3035
 8248TIP3    H124708   6.854   0.258   1.463  0.3266 -0.3791 -0.4114
 8248TIP3    H224709   6.980   0.298   1.536  0.5866  0.6316 -1.3783
 8249TIP3   OH224710   7.043   2.728   0.569 -0.0396  0.2270 -0.2217
 8249TIP3    H124711   7.134   2.737   0.543 -0.0751 -0.2753 -0.5426
 8249TIP3    H224712   6.996   2.792   0.515  0.0432  0.0289 -0.5299
 8250TIP3   OH224713   5.777   4.221   1.963  0.0791 -0.2603 -0.4234
 8250TIP3    H124714   5.822   4.150   2.009 -0.3272 -0.3434 -0.1498
 8250TIP3    H224715   5.802   4.300   2.011  0.7626 -0.1744 -0.9010
 8251TIP3   OH224716   2.876   4.607   2.000 -0.1705  0.9056  0.0031
 8251TIP3    H124717   2.782   4.613   1.982 -0.0745  0.7664 -0.5603
 8251TIP3    H224718   2.901   4.695   2.029 -0.6302  0.7347  0.9407
 8252TIP3   OH224719   4.852   2.065   5.450  0.1533  0.3224 -0.4215
 8252TIP3    H124720   4.798   2.005   5.399  0.3141 -0.1748 -0.0020
 8252TIP3    H224721   4.812   2.151   5.433 -0.7921 -0.0341 -0.0906
 8253TIP3   OH224722   0.125   1.254   4.339  0.7366 -0.4678 -0.3004
 8253TIP3    H124723   0.181   1.320   4.381 -0.9062 -0.0310  1.3486
 8253TIP3    H224724   0.069   1.305   4.280  0.0118 -0.4772  0.3710
 8254TIP3   OH224725   1.173   2.217   1.752  0.0559  0.1385  0.5917
 8254TIP3    H124726   1.139   2.232   1.840  0.9071  2.1226  0.6288
 8254TIP3    H224727   1.098   2.231   1.694 -0.0675  0.7516  0.8913
 8255TIP3   OH224728   1.588   5.705   1.551  0.0612 -0.2395 -0.3829
 8255TIP3    H124729   1.529   5.764   1.503  0.2559 -0.1250 -0.4865
 8255TIP3    H224730   1.554   5.705   1.640 -0.8580 -1.1800 -0.7133
 8256TIP3   OH224731   3.461   1.025   0.765  0.3021  0.8490  0.7365
 8256TIP3    H124732   3.544   1.071   0.776  1.7348 -1.4507 -0.0724
 8256TIP3    H224733   3.400   1.075   0.821  2.2444  2.4097  1.6032
 8257TIP3   OH224734   0.869   2.306   2.526  0.1938  0.2667 -0.2665
 8257TIP3    H124735   0.801   2.368   2.554  1.3932  1.0006  1.1834
 8257TIP3    H224736   0.825   2.221   2.524 -0.2798  0.3141  2.9733
 8258TIP3   OH224737   3.064   2.016   5.200 -0.1585  0.0505 -0.3021
 8258TIP3    H124738   3.130   1.998   5.267  0.0564 -1.1182 -0.7960
 8258TIP3    H224739   2.999   1.946   5.211 -0.7126  0.5054 -0.5874
 8259TIP3   OH224740   6.183   1.158   2.565  0.0564 -0.5723  0.7885
 8259TIP3    H124741   6.194   1.248   2.593 -0.8255 -0.8115  1.9972
 8259TIP3    H224742   6.158   1.164   2.472  1.0558  0.3513  0.5725
 8260TIP3   OH224743   3.821   0.582   0.645  0.6222 -0.6529 -0.3453
 8260TIP3    H124744   3.847   0.526   0.573  1.2838  0.8013 -1.2901
 8260TIP3    H224745   3.751   0.534   0.689 -0.7903 -1.0065 -2.7805
 8261TIP3   OH224746   6.731   6.403   4.856 -0.1887 -0.3215 -0.1883
 8261TIP3    H124747   6.757   6.476   4.911  0.7811 -0.9717  0.2375
 8261TIP3    H224748   6.775   6.327   4.893 -1.0203 -1.1044 -0.7369
 8262TIP3   OH224749   2.398   2.427   4.847  0.4034  0.1749 -0.2403
 8262TIP3    H124750   2.430   2.439   4.758  0.7360  0.0146 -0.1437
 8262TIP3    H224751   2.361   2.512   4.871  2.0306  0.8077  0.1510
 8263TIP3   OH224752   0.606   4.000   2.708  0.0865  0.2751 -0.0285
 8263TIP3    H124753   0.608   4.088   2.673  0.6878  0.2079 -0.1730
 8263TIP3    H224754   0.698   3.974   2.714 -0.0598 -0.1418  0.5120
 8264TIP3   OH224755   4.057   4.149   5.536  0.3732 -0.3248  0.8515
 8264TIP3    H124756   4.011   4.076   5.577  0.0070  0.1667  1.3253
 8264TIP3    H224757   4.014   4.227   5.570 -0.3346  0.1048 -0.9287
 8265TIP3   OH224758   1.719   6.057   0.026  0.2660 -0.6052 -0.1945
 8265TIP3    H124759   1.717   6.130  -0.036 -0.4453 -0.0376  0.4921
 8265TIP3    H224760   1.812   6.034   0.032  0.4616  0.0242 -0.6683
 8266TIP3   OH224761   4.348   6.416   0.882 -0.1943 -0.6959 -0.4354
 8266TIP3    H124762   4.335   6.391   0.791  0.0450 -1.1705 -0.3395
 8266TIP3    H224763   4.357   6.511   0.880  1.6035 -0.8502 -1.1219
 8267TIP3   OH224764   1.034   4.407   4.721 -0.3434 -0.4316 -0.7824
 8267TIP3    H124765   0.948   4.385   4.756 -0.1382 -0.3975 -0.2430
 8267TIP3    H224766   1.023   4.494   4.682 -0.3608 -0.0614  0.0173
 8268TIP3   OH224767   4.473   0.986   2.077  0.4576  0.0242 -0.7820
 8268TIP3    H124768   4.488   0.952   1.989 -0.3295  0.7033 -1.1945
 8268TIP3    H224769   4.380   0.970   2.093  0.4380  0.5401 -0.3533
 8269TIP3   OH224770   2.279   0.017   0.417 -0.5428  0.1491  0.0552
 8269TIP3    H124771   2.257   0.021   0.324  0.1378  1.1213 -0.0774
 8269TIP3    H224772   2.195  -0.002   0.460 -0.9146 -0.0269 -0.7229
 8270TIP3   OH224773   4.393   6.720   3.471 -0.2523 -0.4162 -0.9004
 8270TIP3    H124774   4.302   6.740   3.489  0.0696 -1.5830  3.0885
 8270TIP3    H224775   4.397   6.624   3.467  1.0123 -0.5806  1.7013
 8271TIP3   OH224776   5.700   3.365   2.242 -0.3247  0.1062  0.0927
 8271TIP3    H124777   5.742   3.446   2.213  1.6128 -1.3109 -1.3619
 8271TIP3    H224778   5.618   3.361   2.194  0.6966  0.0679 -1.7271
 8272TIP3   OH224779   4.627   5.426   2.197  0.3233  0.1553  0.9107
 8272TIP3    H124780   4.637   5.494   2.263  0.5979 -1.3098  2.4397
 8272TIP3    H224781   4.629   5.473   2.113 -1.8102  2.2724  1.9365
 8273TIP3   OH224782   3.332   6.223   2.558  0.2781  0.5060  0.2282
 8273TIP3    H124783   3.263   6.262   2.611  1.5855  1.2129  1.4862
 8273TIP3    H224784   3.400   6.199   2.621  0.2365 -2.3778 -0.6701
 8274TIP3   OH224785   0.533   3.105   3.736  0.4855 -0.2892  0.3701
 8274TIP3    H124786   0.457   3.138   3.688  2.1408  0.3107 -2.0181
 8274TIP3    H224787   0.496   3.049   3.804 -2.0547 -0.7962 -1.2957
 8275TIP3   OH224788   5.370   3.225   0.355 -0.8929  0.0359  0.5867
 8275TIP3    H124789   5.443   3.176   0.317 -0.5749  1.7128 -1.1275
 8275TIP3    H224790   5.376   3.208   0.449  0.5721 -1.3341  0.2951
 8276TIP3   OH224791   7.061   1.668   0.078  0.0451 -0.1100  0.0359
 8276TIP3    H124792   7.107   1.598   0.031 -1.1649 -0.4263 -0.7148
 8276TIP3    H224793   7.090   1.748   0.035 -1.4051 -0.4244 -1.6379
 8277TIP3   OH224794   3.171   6.101   0.063 -0.1733  0.9058 -0.3807
 8277TIP3    H124795   3.141   6.034   0.124 -0.8035 -0.7343 -2.3735
 8277TIP3    H224796   3.258   6.071   0.037 -0.6352  0.5824 -1.6144
 8278TIP3   OH224797   3.663   3.798   0.148  0.0318 -0.2887  0.5632
 8278TIP3    H124798   3.697   3.870   0.200 -0.1416 -0.2233  0.5870
 8278TIP3    H224799   3.621   3.840   0.073  1.9708 -0.4401 -0.6727
 8279TIP3   OH224800   1.437   2.058   5.521 -0.0780  0.2389 -0.3811
 8279TIP3    H124801   1.353   2.013   5.526 -0.8271  1.4845 -1.3589
 8279TIP3    H224802   1.459   2.077   5.613 -0.9320  0.0460 -0.1284
 8280TIP3   OH224803   2.543   5.184   2.777  0.0183 -1.3223  0.4813
 8280TIP3    H124804   2.593   5.266   2.781  0.4586 -1.5544 -0.0302
 8280TIP3    H224805   2.528   5.161   2.869 -1.5129  0.1506  0.6418
 8281TIP3   OH224806   2.267   1.216   4.724 -0.2261 -0.0704 -0.0114
 8281TIP3    H124807   2.331   1.277   4.760  0.5329 -0.3750 -0.8207
 8281TIP3    H224808   2.303   1.190   4.640 -3.2433  2.8360 -2.5035
 8282TIP3   OH224809   6.603   0.397   2.105  0.2578 -0.2685 -0.9998
 8282TIP3    H124810   6.619   0.304   2.088  1.8704  0.0897 -1.6888
 8282TIP3    H224811   6.527   0.419   2.052 -0.3191 -1.2567 -0.5970
 8283TIP3   OH224812   3.267   4.719   2.347 -0.1908 -0.1561 -0.7138
 8283TIP3    H124813   3.237   4.743   2.434 -1.1826  0.5134 -1.2133
 8283TIP3    H224814   3.265   4.801   2.297  0.0686 -0.5789 -1.4360
 8284TIP3   OH224815   7.136   6.435   2.152 -0.4102 -0.2997  0.3517
 8284TIP3    H124816   7.088   6.473   2.227  0.4656 -1.5034  1.5722
 8284TIP3    H224817   7.216   6.487   2.147 -1.0280  0.6071 -0.6059
 8285TIP3   OH224818   2.684   2.500   5.625 -0.0639  0.3943 -0.6392
 8285TIP3    H124819   2.768   2.544   5.643  0.3932  0.0382 -1.8210
 8285TIP3    H224820   2.644   2.490   5.711  1.5959 -0.4161  0.0833
 8286TIP3   OH224821   1.382   3.007   0.361 -0.0630 -0.3505 -0.2245
 8286TIP3    H124822   1.331   2.941   0.315 -1.1537 -0.3663  0.9509
 8286TIP3    H224823   1.455   3.026   0.302  0.7704 -3.2045 -0.2391
 8287TIP3   OH224824   6.717   4.156   0.933  0.0919  0.2096  0.0977
 8287TIP3    H124825   6.760   4.203   0.861 -0.0733  2.0017  1.1091
 8287TIP3    H224826   6.728   4.214   1.008 -0.5078 -1.2229  1.3177
 8288TIP3   OH224827   3.858   6.284   4.420  0.6612  0.0134  0.2088
 8288TIP3    H124828   3.909   6.230   4.481  0.3263  0.2676  0.7263
 8288TIP3    H224829   3.890   6.260   4.333  1.5205  0.0331  0.5164
 8289TIP3   OH224830   6.388   2.898   5.356 -0.1631  0.2639 -0.4115
 8289TIP3    H124831   6.438   2.824   5.391  0.2641 -0.8040 -3.0609
 8289TIP3    H224832   6.452   2.969   5.350  0.0642  0.0762 -0.2458
 8290TIP3   OH224833   6.813   6.403   3.015  0.0134  0.0407  0.1367
 8290TIP3    H124834   6.738   6.381   2.960 -1.6352  0.7577  1.9856
 8290TIP3    H224835   6.831   6.323   3.065 -0.5929  0.3316  0.8446
 8291TIP3   OH224836   5.399   0.573   1.747 -0.3510 -0.0934  0.1402
 8291TIP3    H124837   5.386   0.570   1.842  1.6157 -2.6958  0.4135
 8291TIP3    H224838   5.324   0.625   1.715 -0.4546  1.8914  3.1495
 8292TIP3   OH224839   6.365   2.571   2.850  0.4863  0.2178  0.3563
 8292TIP3    H124840   6.375   2.575   2.755  0.6621 -1.1865  0.2951
 8292TIP3    H224841   6.274   2.546   2.864  0.6690 -0.3607  0.5318
 8293TIP3   OH224842   1.209   3.423   5.585  0.2051 -0.1551 -0.1258
 8293TIP3    H124843   1.236   3.491   5.523 -2.3923  0.3544 -0.8031
 8293TIP3    H224844   1.197   3.468   5.668  3.3013 -0.7708  0.7896
 8294TIP3   OH224845   6.434   3.503   0.972  0.0767  0.3962  0.4221
 8294TIP3    H124846   6.505   3.439   0.968 -2.0968 -2.1271 -1.0203
 8294TIP3    H224847   6.357   3.451   0.993 -2.4767  1.7934 -4.1227
 8295TIP3   OH224848   1.151   1.318   3.254  0.3604  0.0623  0.0481
 8295TIP3    H124849   1.098   1.383   3.301  0.7589 -0.3766  1.1223
 8295TIP3    H224850   1.128   1.332   3.162  0.4584  1.7474  0.2430
 8296TIP3   OH224851   2.629   0.804   5.277  0.5609  0.3923  0.5229
 8296TIP3    H124852   2.552   0.749   5.283  1.1351 -0.4934 -0.0099
 8296TIP3    H224853   2.673   0.793   5.361 -1.3942  3.2859  2.1039
 8297TIP3   OH224854   3.852   0.692   3.799 -0.2910  0.2655  0.0140
 8297TIP3    H124855   3.886   0.760   3.740  0.0280  0.1150  0.0231
 8297TIP3    H224856   3.903   0.702   3.879  0.5199 -0.6695 -0.3517
 8298TIP3   OH224857   4.626   6.528   2.707  0.0021 -0.5862 -0.3119
 8298TIP3    H124858   4.675   6.610   2.700 -0.5462 -0.0523  1.5935
 8298TIP3    H224859   4.581   6.521   2.623  1.7559 -0.0924 -1.3647
 8299TIP3   OH224860   3.920   5.110   0.730 -0.1698  0.1025 -0.4292
 8299TIP3    H124861   4.012   5.084   0.731 -0.1816 -0.0169 -1.6586
 8299TIP3    H224862   3.923   5.206   0.723 -0.1397  0.0947 -0.5248
 8300TIP3   OH224863   3.426   6.187   4.455 -0.6499 -0.4340  0.2777
 8300TIP3    H124864   3.391   6.149   4.374 -3.1318  1.7272  0.2247
 8300TIP3    H224865   3.385   6.137   4.525 -0.4822 -0.6563  0.2197
 8301TIP3   OH224866   4.373   5.343   0.034 -0.3664 -0.0818  0.7431
 8301TIP3    H124867   4.295   5.338   0.088  0.5282 -3.0659  1.9372
 8301TIP3    H224868   4.344   5.315  -0.053 -0.5444 -1.9137  1.3585
 8302TIP3   OH224869   0.805   0.308   0.719 -0.1988 -0.0473 -0.3530
 8302TIP3    H124870   0.816   0.338   0.809 -3.6037  2.1850 -0.5025
 8302TIP3    H224871   0.884   0.340   0.673  0.6702  0.4659  1.4232
 8303TIP3   OH224872   5.942   2.571   2.298  0.2320 -0.0195  0.2012
 8303TIP3    H124873   6.026   2.553   2.257  0.0962 -1.2256  0.4231
 8303TIP3    H224874   5.955   2.653   2.346  1.1729 -0.0145 -0.0536
 8304TIP3   OH224875   4.053   2.036   3.211  0.3375  0.4813  0.4589
 8304TIP3    H124876   4.059   2.080   3.126  0.6443 -0.8929 -0.2514
 8304TIP3    H224877   4.080   1.946   3.193 -0.3673 -0.0248  1.8586
 8305TIP3   OH224878   0.341   4.235   3.968  0.2041  0.3615  0.1063
 8305TIP3    H124879   0.421   4.225   4.018  1.0514 -0.6983 -1.3850
 8305TIP3    H224880   0.312   4.146   3.950 -0.9106  0.7307 -0.0115
 8306TIP3   OH224881   0.093   1.431   5.504 -0.2656 -0.1152 -0.6888
 8306TIP3    H124882   0.054   1.398   5.422  0.0145 -1.5107 -0.2895
 8306TIP3    H224883   0.143   1.357   5.537 -1.9554 -0.2546  1.7765
 8307TIP3   OH224884   1.030   5.302   4.657 -0.0154 -0.4174 -0.3139
 8307TIP3    H124885   1.029   5.360   4.581  1.8632  1.0512  0.6910
 8307TIP3    H224886   0.992   5.355   4.727 -0.0820 -1.1106  0.1735
 8308TIP3   OH224887   0.941   2.099   1.925  0.0077  0.1149  0.2038
 8308TIP3    H124888   0.928   2.108   1.831  0.1910 -0.1525  0.1494
 8308TIP3    H224889   0.859   2.128   1.964 -0.8528 -1.7169 -0.1268
 8309TIP3   OH224890   6.122   5.546   2.610 -0.1127 -0.4114  0.0633
 8309TIP3    H124891   6.094   5.502   2.530  0.1979 -1.9773  0.7703
 8309TIP3    H224892   6.041   5.565   2.656 -0.2337 -1.1086  0.1608
 8310TIP3   OH224893   6.124   4.686   0.970  0.0269  0.1450 -0.4673
 8310TIP3    H124894   6.121   4.776   0.937  0.4781  0.2086 -0.3367
 8310TIP3    H224895   6.212   4.676   1.006  0.0263 -0.3998 -0.6121
 8311TIP3   OH224896   3.550   4.848   1.274  0.6397  0.4412  0.1606
 8311TIP3    H124897   3.618   4.795   1.315  1.8538  0.8100 -1.2771
 8311TIP3    H224898   3.563   4.834   1.180 -1.2670  0.5528 -0.1616
 8312TIP3   OH224899   3.192   4.788   5.582  0.3833  0.2069  0.4653
 8312TIP3    H124900   3.203   4.878   5.614  1.4723  0.8277 -1.4291
 8312TIP3    H224901   3.281   4.753   5.580  0.0916 -0.5250  0.1733
 8313TIP3   OH224902   0.316   3.452   0.904  0.4745 -0.0835  0.3184
 8313TIP3    H124903   0.322   3.432   0.811  0.6022 -0.4966  0.4171
 8313TIP3    H224904   0.387   3.402   0.945  0.2398 -0.1314  0.6736
 8314TIP3   OH224905   7.182   1.473   4.685 -0.3129  0.2060  0.2833
 8314TIP3    H124906   7.159   1.486   4.594  0.0897 -0.4636  0.0768
 8314TIP3    H224907   7.109   1.510   4.734 -1.1110 -0.5260 -0.3311
 8315TIP3   OH224908   6.829   1.286   1.502 -0.2325  0.1119  0.2798
 8315TIP3    H124909   6.843   1.364   1.555 -1.0600  0.6107 -0.2207
 8315TIP3    H224910   6.734   1.272   1.506 -0.2552 -0.0684 -0.7618
 8316TIP3   OH224911   4.439   2.356   5.684 -0.0297  0.0173  0.3147
 8316TIP3    H124912   4.523   2.349   5.638 -0.3361 -0.6946 -0.1456
 8316TIP3    H224913   4.420   2.266   5.712 -0.8267  0.1175  0.0970
 8317TIP3   OH224914   5.052   3.612   1.590  0.5593  0.6369 -0.4018
 8317TIP3    H124915   5.017   3.588   1.675  0.6585  0.2695 -0.4588
 8317TIP3    H224916   5.133   3.561   1.582  0.2343  0.1940 -0.9693
 8318TIP3   OH224917   5.453   2.671   4.522  0.2078  0.0824  0.3508
 8318TIP3    H124918   5.379   2.725   4.551 -0.3304 -0.0104 -0.7813
 8318TIP3    H224919   5.432   2.649   4.431 -0.1722 -2.9605  1.0704
 8319TIP3   OH224920   0.023   6.377   1.376 -0.8643  0.0139  0.3824
 8319TIP3    H124921   0.035   6.287   1.348 -2.5320 -0.4960  1.1842
 8319TIP3    H224922   0.111   6.406   1.401  0.1134 -0.5638 -2.0730
 8320TIP3   OH224923   2.492   5.807   2.066  0.2289  0.3568 -0.0370
 8320TIP3    H124924   2.500   5.901   2.081  0.5548  0.3512 -0.1656
 8320TIP3    H224925   2.485   5.769   2.154  0.2355  0.4905  0.0203
 8321TIP3   OH224926   6.076   5.981   0.515  0.0237 -0.1799  0.5996
 8321TIP3    H124927   6.061   6.026   0.432  1.7106  1.7275  1.2442
 8321TIP3    H224928   6.156   5.930   0.501  0.7246  0.7114  1.2139
 8322TIP3   OH224929   4.491   4.740   5.280  0.1712 -0.1597  0.0497
 8322TIP3    H124930   4.420   4.792   5.241  0.1932  0.2478  0.5466
 8322TIP3    H224931   4.446   4.668   5.324  0.0160  0.3355  0.7351
 8323TIP3   OH224932   1.695   4.127   0.017  0.4886 -0.1442 -0.0773
 8323TIP3    H124933   1.645   4.198   0.058  1.3206  1.3452 -1.5615
 8323TIP3    H224934   1.630   4.080  -0.036 -0.3368 -1.3481  1.8833
 8324TIP3   OH224935   0.489   5.852   1.325 -0.3637 -0.1361  0.2157
 8324TIP3    H124936   0.450   5.828   1.409 -2.7058 -0.4785 -0.8948
 8324TIP3    H224937   0.537   5.773   1.297 -1.2266 -0.7115  0.3304
 8325TIP3   OH224938   1.583   2.291   2.660  0.3829 -0.0528  0.5390
 8325TIP3    H124939   1.588   2.218   2.597 -0.1159  0.3085  0.0638
 8325TIP3    H224940   1.665   2.338   2.648  0.3947 -0.1235  0.3235
 8326TIP3   OH224941   2.931   2.855   4.552 -0.5436 -0.3595 -0.1603
 8326TIP3    H124942   2.842   2.844   4.520 -0.2135 -2.2533 -0.5942
 8326TIP3    H224943   2.943   2.783   4.615  0.9311 -0.7070 -0.7856
 8327TIP3   OH224944   1.888   4.065   3.834  0.2393  0.1824 -0.5371
 8327TIP3    H124945   1.879   4.147   3.786 -2.6895 -0.7371 -1.7846
 8327TIP3    H224946   1.916   4.001   3.768 -0.6834 -0.4451 -0.3446
 8328TIP3   OH224947   3.216   5.922   1.165 -0.5710 -0.2582  0.1228
 8328TIP3    H124948   3.307   5.905   1.187 -0.8642 -1.5116  0.4510
 8328TIP3    H224949   3.220   5.973   1.084  0.4315  0.8424  0.8416
 8329TIP3   OH224950   1.825   2.168   5.475  0.3865  0.3245 -0.3363
 8329TIP3    H124951   1.774   2.236   5.430 -0.2210  0.0301 -0.1007
 8329TIP3    H224952   1.830   2.096   5.412  0.8069  0.4825 -0.4871
 8330TIP3   OH224953   3.468   0.093   1.091 -0.0912  1.4422 -0.4957
 8330TIP3    H124954   3.543   0.051   1.132 -1.1571 -0.5002 -0.4066
 8330TIP3    H224955   3.394   0.072   1.148 -1.2064  0.7303 -2.1090
 8331TIP3   OH224956   4.604   4.418   5.030 -0.3915 -0.4607 -0.0279
 8331TIP3    H124957   4.693   4.448   5.009 -0.8813  0.7846 -0.3947
 8331TIP3    H224958   4.547   4.485   4.993 -1.4289  0.1684  2.5601
 8332TIP3   OH224959   3.859   0.987   0.138 -0.4715  0.3087  0.1722
 8332TIP3    H124960   3.954   0.990   0.124 -0.3699 -1.2169  0.4113
 8332TIP3    H224961   3.844   1.042   0.215  0.0026  1.8543 -0.7966
 8333TIP3   OH224962   5.890   0.318   5.625 -0.5735  0.0990 -0.5699
 8333TIP3    H124963   5.923   0.396   5.671 -1.7192  0.2537  0.0272
 8333TIP3    H224964   5.798   0.338   5.607 -0.7433 -0.9161 -0.8668
 8334TIP3   OH224965   4.090   1.585   4.846  0.0722 -0.2033 -0.0206
 8334TIP3    H124966   4.045   1.533   4.779  0.5948  0.9667 -1.3430
 8334TIP3    H224967   4.182   1.560   4.838  0.0846 -0.3435  0.5381
 8335TIP3   OH224968   3.336   4.506   2.169  0.1474  0.2815  0.3080
 8335TIP3    H124969   3.317   4.528   2.078 -2.0021 -1.5191  0.2415
 8335TIP3    H224970   3.298   4.578   2.220 -0.2412  0.4126 -0.1638
 8336TIP3   OH224971   1.440   3.942   2.407  0.2585 -0.3227 -0.3331
 8336TIP3    H124972   1.416   3.961   2.317  0.2205  0.6561 -0.1261
 8336TIP3    H224973   1.406   3.854   2.424  2.0393 -1.3888 -1.9136
 8337TIP3   OH224974   0.612   1.739   1.471 -0.1085 -0.2567  0.5691
 8337TIP3    H124975   0.581   1.734   1.381 -0.5756 -1.5924  0.7723
 8337TIP3    H224976   0.601   1.831   1.496 -1.6850 -0.2213 -0.1541
 8338TIP3   OH224977   4.086   2.322   2.884 -0.0758 -0.0964 -0.8305
 8338TIP3    H124978   4.081   2.370   2.967  0.2457  0.1810 -0.9684
 8338TIP3    H224979   4.176   2.289   2.881 -0.3636 -0.9301 -0.6193
 8339TIP3   OH224980   6.731   5.163   4.615 -0.4497 -0.1111  0.0237
 8339TIP3    H124981   6.793   5.125   4.554 -1.3920 -0.2812 -0.8592
 8339TIP3    H224982   6.653   5.181   4.563 -1.4889 -0.7687  1.2721
 8340TIP3   OH224983   5.951   6.784   1.132 -0.5292  0.0409  0.0070
 8340TIP3    H124984   6.010   6.753   1.200 -0.1205 -1.0524 -0.8212
 8340TIP3    H224985   6.006   6.797   1.055 -0.9193  1.5959 -0.0564
 8341TIP3   OH224986   5.768   2.933   4.202 -0.4463 -0.6102 -0.4250
 8341TIP3    H124987   5.729   3.015   4.235 -1.9721 -1.1976 -0.6623
 8341TIP3    H224988   5.840   2.961   4.147  0.6607  0.4923  1.4572
 8342TIP3   OH224989   3.731   1.463   5.102  0.3226 -0.8588 -0.0283
 8342TIP3    H124990   3.796   1.529   5.075  1.3022 -1.3747  0.9963
 8342TIP3    H224991   3.694   1.431   5.020  0.9558 -0.1389 -0.6071
 8343TIP3   OH224992   4.154   5.084   3.728 -0.1353 -0.6607  0.2906
 8343TIP3    H124993   4.240   5.095   3.688 -0.4696 -0.8131 -0.4864
 8343TIP3    H224994   4.167   5.107   3.820  0.3535  1.0494 -0.1703
 8344TIP3   OH224995   2.558   4.322   0.881 -0.1765  0.1010 -0.1015
 8344TIP3    H124996   2.612   4.245   0.903 -0.1614  0.3155  0.6444
 8344TIP3    H224997   2.551   4.370   0.964  0.1786  1.1344 -0.6561
 8345TIP3   OH224998   0.847   4.895   1.981 -0.0411 -0.2798  0.5302
 8345TIP3    H124999   0.859   4.804   1.953 -0.8245 -0.5328  0.9943
 8345TIP3    H225000   0.795   4.934   1.911 -0.2871 -0.3778  0.6553
 8346TIP3   OH225001   6.610   3.465   2.658 -0.4315  0.0796  0.4428
 8346TIP3    H125002   6.631   3.393   2.717  0.1169 -1.1155 -1.1447
 8346TIP3    H225003   6.686   3.524   2.663 -1.4430  1.3196  2.7482
 8347TIP3   OH225004   0.893   3.941   3.608  0.5441 -0.0436 -0.0943
 8347TIP3    H125005   0.842   4.021   3.611 -0.3871 -0.5870 -0.8829
 8347TIP3    H225006   0.877   3.900   3.693  0.8075  0.4725  0.2069
 8348TIP3   OH225007   2.596   2.401   0.439 -0.0305 -0.6595 -0.2738
 8348TIP3    H125008   2.528   2.348   0.480  0.4561 -1.2740 -0.2542
 8348TIP3    H225009   2.652   2.429   0.511  0.1879 -0.8167 -0.3794
 8349TIP3   OH225010   3.408   3.948   2.679 -0.3738  0.1607  0.1468
 8349TIP3    H125011   3.422   3.958   2.773 -2.6666  1.5943  0.4209
 8349TIP3    H225012   3.377   4.034   2.650 -0.1500 -0.3750 -1.8585
 8350TIP3   OH225013   1.562   0.449   1.905  1.0543  0.0585  0.3764
 8350TIP3    H125014   1.616   0.391   1.851  1.0463 -1.0442  1.5086
 8350TIP3    H225015   1.539   0.396   1.981 -0.0288  1.1491  0.8360
 8351TIP3   OH225016   2.718   1.077   3.119  0.3511  0.0254  0.2411
 8351TIP3    H125017   2.754   1.154   3.163  0.0875  0.3764 -0.1428
 8351TIP3    H225018   2.685   1.022   3.190  0.0028  0.5442  0.4924
 8352TIP3   OH225019   5.254   3.708   0.811  0.4415 -0.1751 -0.1559
 8352TIP3    H125020   5.183   3.770   0.827  1.0752  0.3825  0.5742
 8352TIP3    H225021   5.215   3.640   0.756 -0.8525 -0.2679  0.8262
 8353TIP3   OH225022   5.457   1.598   0.128  0.6768 -0.5224 -0.2117
 8353TIP3    H125023   5.512   1.522   0.108 -2.2580 -3.2631  1.2275
 8353TIP3    H225024   5.451   1.598   0.223 -1.6840 -0.3293 -0.3094
 8354TIP3   OH225025   4.230   0.506   2.160  0.3558 -0.3335 -0.2249
 8354TIP3    H125026   4.161   0.480   2.221  1.0755  1.8915  1.7102
 8354TIP3    H225027   4.290   0.431   2.158 -0.8363 -1.3153  0.0273
 8355TIP3   OH225028   6.430   4.489   2.953  0.4401  1.1818  0.7801
 8355TIP3    H125029   6.499   4.429   2.980 -1.2999 -0.3299  2.2474
 8355TIP3    H225030   6.439   4.564   3.012  0.3775  0.6221  1.5235
 8356TIP3   OH225031   1.601   3.441   1.424 -0.3134  0.1422 -0.3713
 8356TIP3    H125032   1.654   3.380   1.475 -0.1121  0.4412 -0.2252
 8356TIP3    H225033   1.518   3.446   1.471  0.1411  1.0209  0.3718
 8357TIP3   OH225034   2.312   1.878   5.428  0.5480 -0.4825  0.1356
 8357TIP3    H125035   2.335   1.961   5.388  0.1742 -0.8133 -0.7996
 8357TIP3    H225036   2.343   1.812   5.366  0.3793 -1.0220  0.6130
 8358TIP3   OH225037   3.871   5.391   1.040 -0.3542  0.7860 -0.0972
 8358TIP3    H125038   3.906   5.437   1.116  1.2173 -1.4225  0.6515
 8358TIP3    H225039   3.910   5.436   0.965 -0.5218  1.9185  0.4752
 8359TIP3   OH225040   5.317   2.243   3.092 -0.1390 -0.0187 -0.1393
 8359TIP3    H125041   5.387   2.253   3.157  0.1138 -0.8677 -0.2683
 8359TIP3    H225042   5.326   2.153   3.061  0.2769  0.6004 -1.9509
 8360TIP3   OH225043   2.630   4.417   0.039 -0.5883 -0.4330  0.3832
 8360TIP3    H125044   2.671   4.359  -0.025 -0.6013 -0.1762  0.1375
 8360TIP3    H225045   2.557   4.458  -0.009  0.6215  1.2959 -0.0832
 8361TIP3   OH225046   3.019   6.607   1.520  0.4200 -0.1355 -0.6169
 8361TIP3    H125047   3.025   6.703   1.515  0.3053 -0.1661 -1.4643
 8361TIP3    H225048   3.066   6.576   1.443 -0.9031 -0.7108 -1.2146
 8362TIP3   OH225049   4.711   4.303   3.081 -0.1142 -0.1148  0.2186
 8362TIP3    H125050   4.740   4.365   3.148  0.0279  1.8741 -1.5753
 8362TIP3    H225051   4.793   4.269   3.044 -0.1701 -0.0248  0.0135
 8363TIP3   OH225052   1.320   0.476   2.137 -0.0641  0.2631  0.4793
 8363TIP3    H125053   1.311   0.548   2.075 -0.9167  0.4032  0.7573
 8363TIP3    H225054   1.235   0.433   2.137  0.2699 -0.4167  0.7260
 8364TIP3   OH225055   1.820   3.077   2.780  0.2364  0.1051 -0.1603
 8364TIP3    H125056   1.769   3.001   2.753  2.4649 -1.7870  0.6319
 8364TIP3    H225057   1.813   3.078   2.875  2.4507 -0.8501  0.0566
 8365TIP3   OH225058   1.884   2.223   3.961  0.1957 -0.1038  0.1701
 8365TIP3    H125059   1.810   2.227   4.022  0.2072 -0.3956  0.2065
 8365TIP3    H225060   1.891   2.311   3.926 -0.3891 -0.1602 -0.0937
 8366TIP3   OH225061   4.275   1.510   0.787 -0.4710 -0.4200 -0.0185
 8366TIP3    H125062   4.273   1.448   0.860 -1.6428 -1.4042 -0.8535
 8366TIP3    H225063   4.343   1.478   0.729 -0.2228 -0.1971  0.1429
 8367TIP3   OH225064   0.768   1.536   2.793 -0.1126 -0.0468 -0.0383
 8367TIP3    H125065   0.843   1.553   2.736 -0.9229  0.2340 -1.0261
 8367TIP3    H225066   0.702   1.599   2.766 -0.8898 -0.6107  0.5167
 8368TIP3   OH225067   3.144   5.389   1.352  0.4326 -0.6406 -0.3417
 8368TIP3    H125068   3.095   5.471   1.341  2.0545  0.3550 -0.3802
 8368TIP3    H225069   3.109   5.332   1.283 -0.6826  0.0206 -0.3590
 8369TIP3   OH225070   2.040   5.540   2.008  0.3022 -0.5980  0.0228
 8369TIP3    H125071   2.065   5.460   1.963 -1.4746 -2.1668  1.6637
 8369TIP3    H225072   1.965   5.573   1.959  0.7167 -0.2022 -0.3526
 8370TIP3   OH225073   3.454   6.333   2.830 -0.1208  0.1973  0.4256
 8370TIP3    H125074   3.498   6.405   2.783  1.8711 -0.2845  1.4267
 8370TIP3    H225075   3.497   6.254   2.797 -0.6876 -0.3546  1.0031
 8371TIP3   OH225076   5.395   3.239   1.681  0.6858 -0.0998  0.0658
 8371TIP3    H125077   5.346   3.158   1.694 -0.1870  0.5218  0.7979
 8371TIP3    H225078   5.405   3.276   1.769 -0.2711  1.3356 -0.3917
 8372TIP3   OH225079   2.961   1.270   1.253 -0.4671  0.5114 -0.2118
 8372TIP3    H125080   2.900   1.225   1.312 -1.6978  0.8049 -1.2206
 8372TIP3    H225081   3.018   1.320   1.312 -1.6070  0.7478  0.7379
 8373TIP3   OH225082   6.503   0.642   2.855 -0.1284 -0.2032 -0.4409
 8373TIP3    H125083   6.520   0.584   2.929 -1.0938 -0.8209 -0.6789
 8373TIP3    H225084   6.497   0.583   2.780 -0.6773  0.2580 -0.7628
 8374TIP3   OH225085   7.138   4.421   2.316  0.1595  0.1529  0.0381
 8374TIP3    H125086   7.060   4.445   2.267  0.6775  0.0061 -0.8662
 8374TIP3    H225087   7.150   4.492   2.379 -1.3602 -0.3868  0.9899
 8375TIP3   OH225088   7.161   0.908   2.768  0.0188 -0.0919  0.0355
 8375TIP3    H125089   7.081   0.910   2.821 -0.5003  1.9600 -0.7346
 8375TIP3    H225090   7.132   0.933   2.680  1.3952  0.0610 -0.3934
 8376TIP3   OH225091   6.426   5.884   3.600  0.8896 -0.4505 -0.2920
 8376TIP3    H125092   6.380   5.896   3.516  0.3208  0.2467  0.1078
 8376TIP3    H225093   6.432   5.972   3.636  1.0272 -0.7660  0.4591
 8377TIP3   OH225094   4.051   2.184   0.178  0.4223  0.0796 -0.1029
 8377TIP3    H125095   3.980   2.122   0.164  0.4120  0.5269 -2.5180
 8377TIP3    H225096   4.012   2.255   0.229 -0.5809 -0.1994 -0.4558
 8378TIP3   OH225097   4.898   4.377   3.488  0.0661  0.3294 -0.0841
 8378TIP3    H125098   4.950   4.426   3.552  0.2821  0.5979 -0.4685
 8378TIP3    H225099   4.954   4.304   3.463 -0.6135 -0.6936  1.2099
 8379TIP3   OH225100   3.109   1.368   0.198  0.3336  0.0143 -0.0624
 8379TIP3    H125101   3.078   1.351   0.287 -0.4825 -0.5505 -0.4377
 8379TIP3    H225102   3.111   1.281   0.156 -2.4205  0.5476 -1.5626
 8380TIP3   OH225103   4.318   0.818   5.771  0.3917  0.4495  0.0197
 8380TIP3    H125104   4.235   0.831   5.725  0.8814  1.0072 -0.7324
 8380TIP3    H225105   4.311   0.872   5.850  0.0772  0.5792 -0.0972
 8381TIP3   OH225106   7.046   0.816   3.924  0.4741 -0.5793  0.4744
 8381TIP3    H125107   7.070   0.854   3.840  0.8028 -2.4165 -0.2973
 8381TIP3    H225108   7.090   0.871   3.989  2.5534 -0.7914 -0.6740
 8382TIP3   OH225109   5.862   6.359   3.695  0.0490 -0.4157 -0.2105
 8382TIP3    H125110   5.946   6.391   3.728 -0.1422  0.0677 -0.1764
 8382TIP3    H225111   5.829   6.430   3.640 -0.6290 -0.3217  0.2903
 8383TIP3   OH225112   3.155   6.776   2.140 -0.0524 -0.5328 -0.1262
 8383TIP3    H125113   3.161   6.858   2.190 -0.0289 -0.1158 -0.7870
 8383TIP3    H225114   3.087   6.726   2.185  0.1305 -0.2691  0.4557
 8384TIP3   OH225115   4.052   5.812   5.185 -0.2627  0.0360 -0.3836
 8384TIP3    H125116   4.020   5.902   5.186  0.0642  0.1908  1.9372
 8384TIP3    H225117   4.117   5.809   5.255  0.6091 -1.7172 -1.2114
 8385TIP3   OH225118   2.881   0.788   0.988 -0.1974 -0.3568 -0.5721
 8385TIP3    H125119   2.881   0.722   1.058  0.1562 -0.0012 -0.2311
 8385TIP3    H225120   2.815   0.852   1.016 -0.3004 -0.3929 -0.7342
 8386TIP3   OH225121   2.854   1.041   5.737 -0.0594 -0.5383 -0.0079
 8386TIP3    H125122   2.941   1.009   5.713  0.4955  0.8405  0.0739
 8386TIP3    H225123   2.850   1.032   5.832  0.7180  1.0024  0.2145
 8387TIP3   OH225124   3.749   1.924   4.534 -0.1879 -0.2269 -0.1799
 8387TIP3    H125125   3.741   1.998   4.475  0.2597  0.3850  0.5159
 8387TIP3    H225126   3.843   1.917   4.552 -0.0975 -1.5484 -0.9566
 8388TIP3   OH225127   5.165   3.318   3.528  0.0750 -0.0897 -0.8408
 8388TIP3    H125128   5.205   3.403   3.511 -0.0819  0.4567  1.2459
 8388TIP3    H225129   5.113   3.299   3.450  0.0111  1.7935 -1.2859
 8389TIP3   OH225130   4.615   6.066   3.581 -0.0272 -0.1464  0.1127
 8389TIP3    H125131   4.682   6.113   3.530 -0.2295 -0.7241 -0.6959
 8389TIP3    H225132   4.601   5.985   3.533  0.2505 -1.0144  1.4554
 8390TIP3   OH225133   5.553   2.238   1.107 -0.2601 -0.0136  0.6077
 8390TIP3    H125134   5.645   2.266   1.104 -0.2775  0.0748  0.8989
 8390TIP3    H225135   5.503   2.314   1.077 -0.1842 -0.3441 -0.4025
 8391TIP3   OH225136   1.256   4.553   3.860  0.0299  0.7449 -0.2611
 8391TIP3    H125137   1.270   4.577   3.952  1.9491 -0.2160 -0.2429
 8391TIP3    H225138   1.256   4.457   3.861 -1.9050  0.7066 -1.0317
 8392TIP3   OH225139   6.602   0.358   5.835  0.0212 -0.3660 -0.0736
 8392TIP3    H125140   6.579   0.414   5.761  0.0388 -1.0141 -0.5771
 8392TIP3    H225141   6.557   0.397   5.910  0.7310  0.8159 -0.2506
 8393TIP3   OH225142   3.672   2.218   3.808  0.0890  0.2851  0.4453
 8393TIP3    H125143   3.733   2.167   3.861 -0.4272 -0.3051  0.4800
 8393TIP3    H225144   3.586   2.184   3.831 -0.0648 -1.2410 -2.0547
 8394TIP3   OH225145   1.217   3.270   3.412  0.2872 -0.6585  0.3649
 8394TIP3    H125146   1.249   3.311   3.492  1.4607 -1.0622  0.1270
 8394TIP3    H225147   1.288   3.284   3.348 -0.8017  0.0314 -0.7310
 8395TIP3   OH225148   6.332   6.390   5.455  0.0674  0.5415  0.1341
 8395TIP3    H125149   6.331   6.473   5.502  1.3767  0.7675 -0.2130
 8395TIP3    H225150   6.303   6.413   5.366  0.2686  0.5914  0.0822
 8396TIP3   OH225151   3.587   6.294   5.041  0.0684 -0.5263  0.3615
 8396TIP3    H125152   3.639   6.253   4.972  0.2225  1.8525 -1.0151
 8396TIP3    H225153   3.512   6.332   4.996 -0.5320 -0.0465  1.6991
 8397TIP3   OH225154   2.227   6.328   2.028  0.0744  0.5452  0.2771
 8397TIP3    H125155   2.246   6.321   2.121  1.6082  1.1284  0.0376
 8397TIP3    H225156   2.156   6.392   2.022  0.8405  1.4947  0.9841
 8398TIP3   OH225157   2.844   5.507   3.842  0.2958 -0.2364 -0.0658
 8398TIP3    H125158   2.876   5.594   3.866 -0.9423  0.6293 -1.3029
 8398TIP3    H225159   2.906   5.446   3.881  1.0500  1.1929  1.0685
 8399TIP3   OH225160   4.738   5.340   5.704  0.2779  0.6571 -0.0604
 8399TIP3    H125161   4.698   5.256   5.726  0.9058  1.1940  3.6500
 8399TIP3    H225162   4.803   5.318   5.637 -0.2697 -1.5982  0.0481
 8400TIP3   OH225163   0.234   5.944   2.595  0.4483  0.1493  0.6328
 8400TIP3    H125164   0.305   5.937   2.531  0.6975 -0.0270  0.9267
 8400TIP3    H225165   0.154   5.942   2.543  0.5361 -2.4356  0.4798
 8401TIP3   OH225166   0.212   5.025   4.256  0.2949 -0.3439 -0.3050
 8401TIP3    H125167   0.205   5.119   4.275  0.4577 -0.1179 -1.2874
 8401TIP3    H225168   0.168   4.982   4.329 -0.1513  0.5189 -0.0567
 8402TIP3   OH225169   1.954   1.571   2.224  0.5055  0.0664  0.5247
 8402TIP3    H125170   2.033   1.558   2.171  1.3294 -0.6013  1.8639
 8402TIP3    H225171   1.939   1.487   2.267 -0.7966  0.2626  0.4957
 8403TIP3   OH225172   1.732   6.293   0.940 -0.0343 -0.1668  0.2157
 8403TIP3    H125173   1.672   6.333   0.877  0.5465 -0.2379 -0.3935
 8403TIP3    H225174   1.775   6.367   0.984 -2.2447 -0.0396  2.3696
 8404TIP3   OH225175   3.086   6.817   5.282 -0.0524  0.2118  0.6951
 8404TIP3    H125176   3.109   6.750   5.346 -0.4313 -0.8971 -0.2834
 8404TIP3    H225177   3.015   6.777   5.230  1.3987  0.3549 -1.5308
 8405TIP3   OH225178   1.634   5.230   1.779 -0.3615  0.2878  0.0345
 8405TIP3    H125179   1.630   5.150   1.833  2.4604 -1.1653 -1.7017
 8405TIP3    H225180   1.558   5.223   1.721  0.4338 -1.8249 -0.8635
 8406TIP3   OH225181   4.574   3.351   1.397 -0.1492 -0.5829  0.0448
 8406TIP3    H125182   4.657   3.372   1.440 -0.6821 -0.4179  1.0337
 8406TIP3    H225183   4.581   3.391   1.310  0.3332  0.4526  0.5484
 8407TIP3   OH225184   5.767   3.087   1.286  0.2424 -0.1363  0.7760
 8407TIP3    H125185   5.831   3.122   1.224  0.6569  0.3447  1.4611
 8407TIP3    H225186   5.817   3.074   1.367 -0.2743 -0.8225  0.9852
 8408TIP3   OH225187   3.205   6.159   2.879 -0.0627  0.2079  0.7453
 8408TIP3    H125188   3.250   6.074   2.874  1.0970  0.8381  0.2438
 8408TIP3    H225189   3.274   6.224   2.864 -0.9867  1.2395  0.8576
 8409TIP3   OH225190   4.505   3.838   4.760 -0.0789  0.4420 -0.2233
 8409TIP3    H125191   4.472   3.769   4.704 -0.9639  0.5833  0.1087
 8409TIP3    H225192   4.595   3.853   4.730 -0.2802 -0.0166 -1.0767
 8410TIP3   OH225193   4.180   3.102   5.324 -0.3922 -0.4336 -0.3478
 8410TIP3    H125194   4.234   3.165   5.372 -0.8359  0.4166 -0.9408
 8410TIP3    H225195   4.238   3.070   5.255 -0.1206 -0.7979  0.0418
 8411TIP3   OH225196   7.093   6.342   5.099 -0.0906 -0.4368  0.2648
 8411TIP3    H125197   7.088   6.289   5.020 -1.2285 -1.2769  0.8668
 8411TIP3    H225198   7.063   6.429   5.072  0.0131 -0.5815 -0.3244
 8412TIP3   OH225199   3.705   5.904   1.216  0.5096  0.1480  0.3538
 8412TIP3    H125200   3.694   5.994   1.246  0.9981  0.6530 -0.9065
 8412TIP3    H225201   3.665   5.903   1.129  1.5273 -0.5550 -0.1154
 8413TIP3   OH225202   4.458   4.199   4.966 -0.3941 -0.1758  0.1191
 8413TIP3    H125203   4.521   4.271   4.967 -0.4733 -0.1088  0.2467
 8413TIP3    H225204   4.376   4.238   4.994 -0.6453 -0.1286 -0.6473
 8414TIP3   OH225205   2.255   3.089   1.744 -0.6131  0.5654 -0.1760
 8414TIP3    H125206   2.328   3.103   1.684 -1.0122 -0.4004 -0.9214
 8414TIP3    H225207   2.289   3.112   1.830 -0.3506  3.0471 -0.8817
 8415TIP3   OH225208   2.327   4.818   4.352  0.0832  0.6307 -0.3610
 8415TIP3    H125209   2.346   4.765   4.430  4.0414  2.2403  0.0188
 8415TIP3    H225210   2.247   4.866   4.375  0.0035 -0.4417  1.8756
 8416TIP3   OH225211   6.413   4.031   4.797  0.2523  0.0726  0.0419
 8416TIP3    H125212   6.407   4.103   4.734  0.6984  2.0053  2.0870
 8416TIP3    H225213   6.500   3.994   4.783  0.1401  0.1264 -0.8377
 8417TIP3   OH225214   5.354   0.968   1.791  0.6224 -0.5908  0.0152
 8417TIP3    H125215   5.424   0.916   1.831  1.0830 -1.1013 -1.3601
 8417TIP3    H225216   5.277   0.912   1.797  1.0189 -1.2967 -1.0635
 8418TIP3   OH225217   5.668   5.985   3.989  0.1669 -0.0306 -0.0405
 8418TIP3    H125218   5.582   5.957   4.022  0.9729 -2.0623  0.5094
 8418TIP3    H225219   5.649   6.062   3.936 -1.8156  0.4463  1.2104
 8419TIP3   OH225220   4.810   6.174   3.783  0.8990 -0.3420  0.0489
 8419TIP3    H125221   4.826   6.214   3.697  1.4960 -2.7454 -1.0323
 8419TIP3    H225222   4.720   6.198   3.803 -0.8700 -3.1358 -3.3517
 8420TIP3   OH225223   0.492   3.890   5.231  0.5104  0.0293 -0.5819
 8420TIP3    H125224   0.559   3.949   5.197  0.7178 -0.9424 -1.9587
 8420TIP3    H225225   0.530   3.853   5.311  0.4052  1.6646  0.2472
 8421TIP3   OH225226   0.414   3.685   0.542 -0.1882  0.3104 -0.4324
 8421TIP3    H125227   0.397   3.596   0.574 -1.1552  0.8446  0.6012
 8421TIP3    H225228   0.401   3.679   0.447  0.4488 -0.7873 -0.4794
 8422TIP3   OH225229   3.003   3.644   0.370 -0.2222 -0.1241 -0.0238
 8422TIP3    H125230   2.961   3.652   0.284  1.2275  1.7002 -0.6288
 8422TIP3    H225231   2.955   3.705   0.426  2.0461  2.8326 -0.9960
 8423TIP3   OH225232   4.594   6.036   1.741 -0.0695  0.4907 -0.5428
 8423TIP3    H125233   4.633   6.121   1.719 -0.6987  1.2550  1.0727
 8423TIP3    H225234   4.500   6.055   1.748 -0.0739  0.0021  1.1475
 8424TIP3   OH225235   3.095   3.795   4.283 -0.0340  0.4009  0.0029
 8424TIP3    H125236   3.030   3.729   4.260  0.3048 -0.1755  0.6716
 8424TIP3    H225237   3.144   3.811   4.202 -1.2146  1.0982 -0.6009
 8425TIP3   OH225238   3.859   4.175   5.060  0.1934 -0.0283  0.6369
 8425TIP3    H125239   3.840   4.194   5.152 -3.1172  1.0600 -0.1399
 8425TIP3    H225240   3.874   4.261   5.020  0.7443 -0.4098 -0.0010
 8426TIP3   OH225241   3.189   0.501   1.453  0.1231 -0.1656 -0.2838
 8426TIP3    H125242   3.141   0.468   1.528 -0.4936 -0.7962 -0.9367
 8426TIP3    H225243   3.212   0.423   1.403 -0.5879  0.3063 -1.3921
 8427TIP3   OH225244   5.029   0.332   0.855 -0.1040  0.6310 -0.0887
 8427TIP3    H125245   4.940   0.302   0.836  0.2520 -0.9875  0.6404
 8427TIP3    H225246   5.031   0.422   0.823 -1.6129  0.2918 -1.2471
 8428TIP3   OH225247   4.705   5.714   2.169  0.1061 -0.1307  0.3313
 8428TIP3    H125248   4.665   5.705   2.083 -0.3774 -1.2004  0.6574
 8428TIP3    H225249   4.771   5.783   2.158 -0.0783 -0.1318 -0.8403
 8429TIP3   OH225250   4.503   2.639   3.527 -0.1139  0.1875  0.4900
 8429TIP3    H125251   4.469   2.645   3.438  0.9644  0.1001  0.0558
 8429TIP3    H225252   4.428   2.658   3.583 -1.0365 -0.6533 -0.4098
 8430TIP3   OH225253   1.614   3.022   0.168 -0.2877  0.0031  0.1664
 8430TIP3    H125254   1.582   2.935   0.144  0.0825 -0.5176  1.4693
 8430TIP3    H225255   1.644   3.060   0.086 -1.9012 -0.4713 -0.6799
 8431TIP3   OH225256   5.048   1.385   5.404  0.2477  0.3126 -0.2589
 8431TIP3    H125257   5.131   1.432   5.393  1.4937 -1.2279  1.7716
 8431TIP3    H225258   5.042   1.329   5.326  1.9061 -0.6075  0.2159
 8432TIP3   OH225259   7.083   4.940   2.855 -0.2655 -0.3869 -0.6732
 8432TIP3    H125260   7.023   5.014   2.844  2.4663  2.0235 -0.5225
 8432TIP3    H225261   7.148   4.950   2.786  1.8533 -0.8350  1.1096
 8433TIP3   OH225262   2.011   2.789   0.135  0.0735  0.2212 -0.1048
 8433TIP3    H125263   1.958   2.722   0.091 -0.3913 -0.6200  1.6550
 8433TIP3    H225264   2.062   2.741   0.199  1.7047  1.2645 -0.5759
 8434TIP3   OH225265   1.587   3.821   1.326 -0.4547  0.1720 -0.7268
 8434TIP3    H125266   1.676   3.855   1.311 -0.2914 -0.1611 -0.5075
 8434TIP3    H225267   1.582   3.807   1.420  0.1113 -2.1463 -0.9888
 8435TIP3   OH225268   5.326   3.588   4.354 -0.3331  0.7147 -1.0806
 8435TIP3    H125269   5.316   3.605   4.260 -1.6047  2.1151 -0.7177
 8435TIP3    H225270   5.412   3.623   4.376  0.1659 -0.0260 -1.7950
 8436TIP3   OH225271   3.117   1.415   4.930 -0.0156  0.4972 -0.2310
 8436TIP3    H125272   3.069   1.415   4.847 -1.7683 -1.6253  0.6756
 8436TIP3    H225273   3.157   1.328   4.935 -0.9361  0.1215  1.6306
 8437TIP3   OH225274   5.409   4.808   0.411 -0.0525  0.4543 -0.5018
 8437TIP3    H125275   5.341   4.748   0.380  0.1955  0.1463 -0.4577
 8437TIP3    H225276   5.392   4.816   0.505  3.2463 -4.1277  0.8428
 8438TIP3   OH225277   6.521   3.187   5.232 -0.6584  0.2467  0.3718
 8438TIP3    H125278   6.448   3.141   5.273  0.0670  0.1169  1.5647
 8438TIP3    H225279   6.586   3.196   5.301  0.4248  0.4583 -0.6322
 8439TIP3   OH225280   6.869   2.233   1.243  0.6822 -0.1744  0.4530
 8439TIP3    H125281   6.787   2.192   1.216  0.0429  0.3575  1.5123
 8439TIP3    H225282   6.901   2.278   1.164 -0.5988  0.4798  0.2860
 8440TIP3   OH225283   5.947   0.961   4.118 -0.3141 -0.1170 -0.2263
 8440TIP3    H125284   6.006   1.034   4.137 -2.7209  1.6457  1.0551
 8440TIP3    H225285   5.961   0.900   4.190  1.3712 -0.7359 -1.0427
 8441TIP3   OH225286   5.995   3.959   5.187  0.4507  0.1894 -0.6700
 8441TIP3    H125287   6.044   3.926   5.112  0.3776  0.0568 -0.6590
 8441TIP3    H225288   5.931   4.020   5.150  1.9762  1.9815 -0.5127
 8442TIP3   OH225289   4.580   6.301   4.708  0.2978  0.5138 -0.5634
 8442TIP3    H125290   4.653   6.241   4.698  1.3639  1.8067 -0.8564
 8442TIP3    H225291   4.621   6.387   4.715 -1.1083  1.1006  1.0820
 8443TIP3   OH225292   5.749   3.216   3.170  0.1920 -0.0120  0.1209
 8443TIP3    H125293   5.681   3.273   3.136 -0.0347 -0.6975 -0.6100
 8443TIP3    H225294   5.708   3.173   3.246 -0.1425 -0.3045 -0.2206
 8444TIP3   OH225295   5.761   0.592   0.528  0.2712  0.2123  0.1663
 8444TIP3    H125296   5.810   0.655   0.474 -1.8532  1.4997 -0.3789
 8444TIP3    H225297   5.671   0.597   0.495 -0.3199 -1.8517  1.2974
 8445TIP3   OH225298   6.905   5.173   2.774 -0.3057 -0.4395  0.1005
 8445TIP3    H125299   6.979   5.230   2.753  0.3471 -0.7454  1.4475
 8445TIP3    H225300   6.831   5.212   2.728  0.4883  0.4514 -0.4647
 8446TIP3   OH225301   2.832   4.436   4.296  0.2132  0.0237 -0.1115
 8446TIP3    H125302   2.830   4.447   4.201 -0.1054 -0.2430 -0.1374
 8446TIP3    H225303   2.879   4.513   4.328 -0.4499  0.5650 -0.4171
 8447TIP3   OH225304   6.780   0.619   5.173 -0.2407  0.0073  0.3070
 8447TIP3    H125305   6.776   0.531   5.136 -0.9197 -0.0805  0.5900
 8447TIP3    H225306   6.752   0.676   5.101  0.5978  0.0396 -0.0088
 8448TIP3   OH225307   6.639   2.072   0.749  0.1192 -0.5493  0.4438
 8448TIP3    H125308   6.720   2.060   0.699  0.9852 -1.9319  2.0695
 8448TIP3    H225309   6.609   1.982   0.766 -0.3131 -0.1255  2.0905
 8449TIP3   OH225310   3.064   4.039   0.318  0.5284  0.6928 -0.1951
 8449TIP3    H125311   2.994   3.977   0.336  0.8034  0.1968 -0.8136
 8449TIP3    H225312   3.019   4.118   0.289  0.2619 -0.1404 -2.1400
 8450TIP3   OH225313   7.059   1.327   2.560  0.4990  0.2473  0.5989
 8450TIP3    H125314   6.972   1.293   2.541  0.5278  0.4102  0.1540
 8450TIP3    H225315   7.101   1.335   2.474  0.9360  0.2130  0.8040
 8451TIP3   OH225316   5.910   4.255   2.701 -0.4164 -0.1541  0.1501
 8451TIP3    H125317   5.999   4.246   2.668 -0.6733 -1.1542 -0.2913
 8451TIP3    H225318   5.879   4.338   2.662  0.3340  0.2392  0.3701
 8452TIP3   OH225319   4.957   6.229   5.468 -1.0347 -0.0919 -0.2835
 8452TIP3    H125320   4.945   6.203   5.560 -0.4419 -0.8419 -0.4061
 8452TIP3    H225321   4.982   6.148   5.423 -0.1701  0.4876 -0.8892
 8453TIP3   OH225322   3.322   4.725   4.833  0.3556  0.3473  0.3681
 8453TIP3    H125323   3.319   4.734   4.928 -1.2131  2.7221  0.1725
 8453TIP3    H225324   3.233   4.701   4.808  0.8831 -0.8171 -0.4932
 8454TIP3   OH225325   4.703   3.684   1.618  0.2461 -0.3703 -0.2168
 8454TIP3    H125326   4.732   3.708   1.530  0.0016 -0.4660 -0.3237
 8454TIP3    H225327   4.710   3.765   1.668  0.8501 -0.4281 -0.1993
 8455TIP3   OH225328   6.423   6.353   0.537  0.7814 -0.4164 -0.5097
 8455TIP3    H125329   6.468   6.332   0.619 -0.7116 -0.9335  0.2205
 8455TIP3    H225330   6.435   6.276   0.483  1.6789 -0.1181 -0.7483
 8456TIP3   OH225331   5.999   6.243   0.045 -0.0855 -0.2683  0.3860
 8456TIP3    H125332   6.049   6.190  -0.016  0.5672  0.8524 -0.0920
 8456TIP3    H225333   5.935   6.289  -0.009 -2.1809 -2.2004  1.0670
 8457TIP3   OH225334   5.015   4.848   2.378 -0.4555  0.4261  0.3204
 8457TIP3    H125335   5.060   4.922   2.420  2.6162 -1.9532  1.6585
 8457TIP3    H225336   4.935   4.838   2.429  0.8479  0.6548  2.6012
 8458TIP3   OH225337   2.194   1.220   2.255 -0.0551  0.1893 -0.1144
 8458TIP3    H125338   2.139   1.257   2.185  0.8835  1.3924 -0.2538
 8458TIP3    H225339   2.263   1.285   2.268 -0.6103  0.3769  2.4688
 8459TIP3   OH225340   5.281   2.108   1.826 -0.5956 -0.1978  0.7662
 8459TIP3    H125341   5.249   2.052   1.897  0.1442 -1.1093  0.4084
 8459TIP3    H225342   5.202   2.149   1.791 -1.4546 -2.4479 -0.1393
 8460TIP3   OH225343   6.908   3.841   0.300  0.0028  0.2705 -0.0367
 8460TIP3    H125344   6.886   3.777   0.369 -0.9491  0.3142 -0.2870
 8460TIP3    H225345   6.901   3.791   0.219  2.0594 -0.0295 -0.0670
 8461TIP3   OH225346   3.818   5.003   5.011 -0.8068  0.3463  0.2574
 8461TIP3    H125347   3.780   4.960   4.935 -0.0962  0.9623 -0.4625
 8461TIP3    H225348   3.795   5.096   5.000 -0.9363  0.4024  0.9391
 8462TIP3   OH225349   3.722   1.942   2.990  0.0213  0.9475  0.0103
 8462TIP3    H125350   3.803   1.985   2.965  0.7764 -0.1644  0.4766
 8462TIP3    H225351   3.729   1.854   2.955 -0.2421  0.3149  1.4421
 8463TIP3   OH225352   5.582   6.545   1.074  0.6639  0.2043 -0.2089
 8463TIP3    H125353   5.594   6.640   1.079 -1.7532  0.6231 -0.8830
 8463TIP3    H225354   5.548   6.521   1.160  2.1772 -0.2574  0.2926
 8464TIP3   OH225355   0.836   3.122   0.998  0.4905 -0.2173 -0.1818
 8464TIP3    H125356   0.877   3.207   0.980 -1.3357  0.3411 -2.2092
 8464TIP3    H225357   0.845   3.073   0.916 -1.4616 -0.6207 -0.2083
 8465TIP3   OH225358   6.848   1.247   2.831 -0.2139 -0.6307 -0.4509
 8465TIP3    H125359   6.933   1.270   2.868 -0.1947  0.1914 -0.9741
 8465TIP3    H225360   6.786   1.265   2.902 -0.1666  0.8110 -0.7443
 8466TIP3   OH225361   3.967   3.688   5.679  0.4495 -0.2743 -0.8045
 8466TIP3    H125362   3.915   3.764   5.652  1.0214  0.6955  0.6744
 8466TIP3    H225363   4.049   3.696   5.630  0.6952  0.3648 -0.3179
 8467TIP3   OH225364   0.575   3.157   1.724  0.0068 -0.5723 -0.2872
 8467TIP3    H125365   0.634   3.190   1.792  1.4502 -1.7733 -0.8993
 8467TIP3    H225366   0.540   3.235   1.681 -0.9457  0.2226  1.7880
 8468TIP3   OH225367   0.318   4.035   4.563 -0.0397  0.2501  0.3232
 8468TIP3    H125368   0.373   4.055   4.639 -2.1611  0.3934  1.9131
 8468TIP3    H225369   0.322   4.114   4.509 -0.3884  1.1301  1.5310
 8469TIP3   OH225370   4.345   5.034   2.252  0.2424  0.6418  0.4587
 8469TIP3    H125371   4.274   5.067   2.308 -1.1591 -0.7603 -0.3964
 8469TIP3    H225372   4.407   5.107   2.247  0.2013  0.9908  3.3953
 8470TIP3   OH225373   2.163   2.757   4.080  0.1744  0.0202  0.1286
 8470TIP3    H125374   2.204   2.694   4.139 -2.1024 -1.1350  0.5773
 8470TIP3    H225375   2.166   2.715   3.994  1.2980  0.6402 -0.1577
 8471TIP3   OH225376   6.177   6.677   0.605  0.0175  0.3204  0.1159
 8471TIP3    H125377   6.144   6.595   0.640  0.3726  0.5299  0.9590
 8471TIP3    H225378   6.111   6.705   0.541  0.5671 -1.3214 -1.2214
 8472TIP3   OH225379   6.373   1.770   4.722  0.1053  0.1007 -0.1098
 8472TIP3    H125380   6.429   1.843   4.696 -0.5630  0.7558  0.2562
 8472TIP3    H225381   6.323   1.748   4.643  0.8048 -0.4333 -0.4151
 8473TIP3   OH225382   0.372   3.837   2.249  0.1152 -0.0957 -0.6722
 8473TIP3    H125383   0.363   3.762   2.308  2.9615 -0.2130 -0.2628
 8473TIP3    H225384   0.374   3.913   2.306 -0.7371  0.1366 -0.9372
 8474TIP3   OH225385   5.109   0.076   1.466 -0.2106 -0.0160  0.6287
 8474TIP3    H125386   5.116  -0.017   1.444  1.0306 -0.0188  1.0020
 8474TIP3    H225387   5.160   0.121   1.399  0.2422  0.2919  1.1733
 8475TIP3   OH225388   3.578   1.199   0.219  0.0550 -0.2543 -0.3216
 8475TIP3    H125389   3.593   1.163   0.131  0.6771  0.4732 -0.5198
 8475TIP3    H225390   3.585   1.123   0.277 -1.8588 -1.0297 -1.0143
 8476TIP3   OH225391   4.003   0.850   2.363 -0.1457 -0.2486  0.1728
 8476TIP3    H125392   3.967   0.833   2.276  1.1926 -2.7943  0.0199
 8476TIP3    H225393   3.928   0.846   2.421 -0.6995 -1.2750 -0.5822
 8477TIP3   OH225394   1.651   3.858   2.202  0.2816 -0.2170  0.3941
 8477TIP3    H125395   1.702   3.934   2.177 -1.6604  1.1419  0.3425
 8477TIP3    H225396   1.643   3.864   2.298 -0.6165  0.1591  0.3024
 8478TIP3   OH225397   3.026   5.784   2.938  0.0851 -0.3748  0.1933
 8478TIP3    H125398   3.030   5.720   3.010  1.0485 -0.0604  0.4302
 8478TIP3    H225399   3.021   5.869   2.982  1.0362 -0.1568 -0.0937
 8479TIP3   OH225400   3.551   3.551   1.612 -0.8378  0.1110 -0.2040
 8479TIP3    H125401   3.502   3.469   1.604  0.5720 -0.9366  1.2092
 8479TIP3    H225402   3.594   3.545   1.698 -0.5535  2.2600 -0.1436
 8480TIP3   OH225403   4.396   6.661   4.213 -0.1839 -0.0407  0.1886
 8480TIP3    H125404   4.456   6.588   4.196 -1.5068 -1.1959  0.2799
 8480TIP3    H225405   4.348   6.672   4.132 -1.8144 -1.0658  0.9579
 8481TIP3   OH225406   7.139   5.987   1.925 -0.3079 -0.0996 -0.8849
 8481TIP3    H125407   7.216   5.931   1.926  0.3505  0.7260 -2.5850
 8481TIP3    H225408   7.147   6.039   2.006 -0.6769 -2.0265  0.4599
 8482TIP3   OH225409   0.139   4.835   1.911  0.2747 -0.0459  0.1780
 8482TIP3    H125410   0.084   4.913   1.910 -0.3171 -0.4517 -0.9741
 8482TIP3    H225411   0.083   4.766   1.946 -0.0542 -0.4980 -1.1545
 8483TIP3   OH225412   5.143   2.909   0.652  0.0337  0.3281 -0.3281
 8483TIP3    H125413   5.230   2.944   0.672  0.4117 -1.4278  1.4306
 8483TIP3    H225414   5.083   2.958   0.707  0.4053 -0.8202  1.1680
 8484TIP3   OH225415   2.491   6.131   0.645 -0.5970 -0.1025  0.2641
 8484TIP3    H125416   2.427   6.062   0.667 -4.2552  2.5946 -0.9562
 8484TIP3    H225417   2.479   6.197   0.713 -0.8473  1.4742 -1.2523
 8485TIP3   OH225418   0.796   3.169   0.331  0.1720  0.4372 -0.1097
 8485TIP3    H125419   0.807   3.262   0.347  3.2458  0.1666 -0.0636
 8485TIP3    H225420   0.751   3.136   0.409  1.8965  1.4391  1.3995
 8486TIP3   OH225421   1.506   5.338   3.651  0.1886  0.0633  0.3566
 8486TIP3    H125422   1.416   5.362   3.628  0.1439 -0.1693  0.2864
 8486TIP3    H225423   1.552   5.421   3.657  0.6487  0.1094 -2.3516
 8487TIP3   OH225424   3.066   4.288   1.214 -0.0248  0.1373 -1.0219
 8487TIP3    H125425   3.127   4.218   1.190  1.8027  0.9605  0.8258
 8487TIP3    H225426   3.049   4.334   1.133  2.3421  0.2095 -1.5562
 8488TIP3   OH225427   3.952   6.189   1.749  0.1545  0.2038 -0.1681
 8488TIP3    H125428   3.950   6.133   1.827  0.3330  1.3265  0.6736
 8488TIP3    H225429   4.037   6.234   1.754 -1.7967  4.2092  1.9349
 8489TIP3   OH225430   1.098   5.890   3.320  1.0682 -0.7475  0.1337
 8489TIP3    H125431   1.077   5.961   3.381  0.7234  0.7034 -1.5845
 8489TIP3    H225432   1.138   5.822   3.374 -0.7072 -0.2325  2.2392
 8490TIP3   OH225433   3.998   6.181   0.716 -0.7073 -0.1594  0.5163
 8490TIP3    H125434   3.982   6.168   0.809  1.0296 -1.1337  0.7312
 8490TIP3    H225435   4.071   6.122   0.696 -0.7703  0.3350 -1.3691
 8491TIP3   OH225436   4.642   5.797   1.574  0.1063 -0.4790 -0.1497
 8491TIP3    H125437   4.736   5.815   1.563  0.2827 -1.5364 -0.4690
 8491TIP3    H225438   4.610   5.871   1.626  0.9707  0.2594 -0.6357
 8492TIP3   OH225439   7.104   4.167   4.275 -0.1789 -0.2477 -0.0825
 8492TIP3    H125440   7.072   4.158   4.364 -1.1163  0.5109 -0.3351
 8492TIP3    H225441   7.069   4.091   4.228  0.4432 -0.7304  0.2143
 8493TIP3   OH225442   4.403   3.932   4.422  0.0583  0.4558  0.7218
 8493TIP3    H125443   4.334   3.925   4.488 -2.3617  1.2625 -1.5690
 8493TIP3    H225444   4.408   3.845   4.383 -1.1622  0.8820 -0.4561
 8494TIP3   OH225445   3.844   1.811   3.317 -0.1255 -0.0163 -0.6601
 8494TIP3    H125446   3.917   1.761   3.354 -0.4689 -1.4896 -1.8847
 8494TIP3    H225447   3.773   1.748   3.309 -1.3533  1.2530 -0.0676
 8495TIP3   OH225448   3.707   4.708   5.316  0.0256  0.1397  0.5103
 8495TIP3    H125449   3.775   4.775   5.329  1.0670 -0.3112 -2.0252
 8495TIP3    H225450   3.695   4.669   5.402 -0.4985  3.3966  2.0829
 8496TIP3   OH225451   2.435   0.946   0.785  0.1929  0.4179  0.3029
 8496TIP3    H125452   2.364   1.009   0.780 -1.7337 -1.6738 -0.5691
 8496TIP3    H225453   2.439   0.908   0.697  1.8691 -0.0890  0.5641
 8497TIP3   OH225454   0.471   5.300   3.315 -0.0287  0.0390 -0.6961
 8497TIP3    H125455   0.520   5.269   3.239 -0.7287  0.1999 -1.2281
 8497TIP3    H225456   0.493   5.393   3.322 -0.3981  0.1558 -1.0508
 8498TIP3   OH225457   6.802   1.561   5.669  0.0674  0.5521 -0.2097
 8498TIP3    H125458   6.897   1.556   5.674  0.0181  0.1230  0.4102
 8498TIP3    H225459   6.776   1.479   5.626 -0.1368 -0.2734  1.4144
 8499TIP3   OH225460   2.811   5.371   1.410  0.0644  0.2768 -0.0328
 8499TIP3    H125461   2.872   5.433   1.371 -0.3477  0.9833  0.4132
 8499TIP3    H225462   2.769   5.421   1.481  1.4873 -1.2385  1.9922
 8500TIP3   OH225463   3.640   3.990   4.969 -0.4416 -0.0712 -0.2672
 8500TIP3    H125464   3.650   3.945   4.885 -0.1956 -0.5018 -0.0143
 8500TIP3    H225465   3.711   4.054   4.971  0.0732 -0.6450 -0.0252
 8501TIP3   OH225466   4.050   4.701   2.089 -0.7336  0.1977  0.2285
 8501TIP3    H125467   3.989   4.642   2.045 -2.3717  1.5925  0.5175
 8501TIP3    H225468   4.054   4.778   2.032  2.4131 -0.6060 -0.8425
 8502TIP3   OH225469   1.505   4.267   2.105  0.0170 -0.1855 -0.1571
 8502TIP3    H125470   1.496   4.187   2.053  1.2726  0.9263 -2.2567
 8502TIP3    H225471   1.433   4.323   2.075  0.9268  0.5779 -0.9921
 8503TIP3   OH225472   1.904   1.931   0.073 -0.5778  0.0075 -0.2328
 8503TIP3    H125473   1.958   1.852   0.068 -0.7378 -0.3288  2.3073
 8503TIP3    H225474   1.823   1.907   0.029  0.2351 -0.4069 -1.5931
 8504TIP3   OH225475   6.842   0.075   2.410 -0.6055 -0.4800  0.5014
 8504TIP3    H125476   6.818   0.078   2.502 -1.0542  0.1081  0.3712
 8504TIP3    H225477   6.789   0.004   2.373 -0.7456 -0.4296  0.6072
 8505TIP3   OH225478   5.697   5.119   0.550  0.2006  0.2547  0.1616
 8505TIP3    H125479   5.754   5.067   0.607 -0.6230  0.7852  1.5038
 8505TIP3    H225480   5.689   5.203   0.594  0.0842  0.9271 -1.0960
 8506TIP3   OH225481   2.065   2.893   1.813 -0.3293 -0.3544  0.0665
 8506TIP3    H125482   1.991   2.875   1.755  1.1709 -0.1337 -1.9937
 8506TIP3    H225483   2.114   2.962   1.769  1.8687 -1.4497  0.6725
 8507TIP3   OH225484   6.720   5.382   3.738 -0.6559  0.0959 -0.3112
 8507TIP3    H125485   6.706   5.396   3.832 -1.9945 -1.5196 -0.2165
 8507TIP3    H225486   6.721   5.470   3.700  0.6207  0.8190  1.2853
 8508TIP3   OH225487   6.156   1.810   2.179 -0.4545  0.3182 -0.2515
 8508TIP3    H125488   6.082   1.868   2.196  1.2350  2.3460  0.6031
 8508TIP3    H225489   6.222   1.866   2.139  0.9123 -1.2631 -0.3423
 8509TIP3   OH225490   4.617   2.207   4.876 -0.5141 -0.4401  0.3575
 8509TIP3    H125491   4.599   2.277   4.814 -0.8373 -0.7761  0.0726
 8509TIP3    H225492   4.556   2.222   4.948 -0.9530 -0.7385  0.0508
 8510TIP3   OH225493   5.667   4.836   0.219  0.0852  0.2579  0.4051
 8510TIP3    H125494   5.615   4.755   0.225  0.4256 -0.0731 -0.7989
 8510TIP3    H225495   5.704   4.847   0.306  0.4107 -1.1538  0.4723
 8511TIP3   OH225496   6.179   0.399   4.169  0.1423  0.0696  0.1540
 8511TIP3    H125497   6.247   0.348   4.214 -1.8559 -2.5733  0.3771
 8511TIP3    H225498   6.134   0.446   4.240 -0.0139 -0.3601  0.3405
 8512TIP3   OH225499   3.868   3.898   0.635 -0.4433  0.1576 -0.3480
 8512TIP3    H125500   3.943   3.847   0.668 -0.3968  1.6091  2.0502
 8512TIP3    H225501   3.797   3.834   0.627 -0.8618 -0.2469  4.1005
 8513TIP3   OH225502   3.305   6.499   0.044 -0.3280 -0.1776  0.2914
 8513TIP3    H125503   3.284   6.569  -0.018 -0.7914 -0.0231  0.6255
 8513TIP3    H225504   3.236   6.434   0.031  0.7380 -1.1389 -0.8580
 8514TIP3   OH225505   4.213   1.747   4.048  0.1327  0.0959 -0.4082
 8514TIP3    H125506   4.151   1.811   4.083  0.8886  0.0902  0.9915
 8514TIP3    H225507   4.299   1.778   4.077  0.6443 -0.7422 -0.9967
 8515TIP3   OH225508   4.213   0.714   0.621  0.7003 -0.3192 -0.2522
 8515TIP3    H125509   4.286   0.750   0.673  0.6901  0.6814 -0.9060
 8515TIP3    H225510   4.158   0.790   0.602 -0.9515 -1.1762  0.8892
 8516TIP3   OH225511   5.422   0.241   0.655 -0.0835  1.0072 -0.4386
 8516TIP3    H125512   5.412   0.290   0.737 -0.6526  0.2200 -0.0317
 8516TIP3    H225513   5.481   0.296   0.603  1.0962  1.0565  0.8683
 8517TIP3   OH225514   1.951   6.009   1.943 -0.0362  0.6298 -0.5872
 8517TIP3    H125515   1.940   6.093   1.899  0.8539 -0.0898 -2.2997
 8517TIP3    H225516   2.034   6.018   1.990 -0.9354  1.3650  0.9116
 8518TIP3   OH225517   5.847   5.134   3.954  0.4941 -0.5524 -0.0393
 8518TIP3    H125518   5.849   5.108   3.862  1.5351  0.5483 -0.3391
 8518TIP3    H225519   5.755   5.154   3.971  0.5347  0.8870 -1.3331
 8519TIP3   OH225520   0.884   5.927   5.600  0.1910 -1.2005  0.0546
 8519TIP3    H125521   0.904   5.902   5.509  0.9173 -1.6700  0.3325
 8519TIP3    H225522   0.911   6.019   5.606  0.9174 -1.4046  0.0153
 8520TIP3   OH225523   6.842   4.277   2.511 -0.0325 -0.1082  0.2491
 8520TIP3    H125524   6.909   4.308   2.573  0.9526 -1.4129 -0.1267
 8520TIP3    H225525   6.799   4.205   2.556 -1.4266  0.8969  0.5965
 8521TIP3   OH225526   6.207   1.533   5.335 -0.0172 -0.4163  0.3425
 8521TIP3    H125527   6.208   1.545   5.430  1.4502 -0.5089  0.3576
 8521TIP3    H225528   6.232   1.442   5.322  1.5385  0.0495 -0.1600
 8522TIP3   OH225529   6.046   2.716   1.084  0.2600  0.8322 -0.2383
 8522TIP3    H125530   6.131   2.704   1.042  0.1716 -1.8631  0.2050
 8522TIP3    H225531   5.983   2.694   1.015 -0.0626  1.5228 -0.1733
 8523TIP3   OH225532   4.838   4.737   4.428 -0.5544 -0.5448  0.7581
 8523TIP3    H125533   4.791   4.762   4.508 -1.2733 -1.0000  0.4905
 8523TIP3    H225534   4.881   4.818   4.399 -3.7654  0.8135 -0.7378
 8524TIP3   OH225535   4.694   3.832   2.331 -0.0776  0.0321 -0.1836
 8524TIP3    H125536   4.767   3.864   2.278  1.0288  1.2796  1.9668
 8524TIP3    H225537   4.694   3.888   2.408 -1.3390 -1.9572  1.3550
 8525TIP3   OH225538   4.648   0.978   4.517  0.8729 -0.1867  0.5129
 8525TIP3    H125539   4.613   1.059   4.553  0.7647  0.3359 -0.7269
 8525TIP3    H225540   4.670   0.925   4.594  1.6243  1.2932  1.3515
 8526TIP3   OH225541   6.372   6.679   3.430 -0.2118 -0.1396 -0.0875
 8526TIP3    H125542   6.429   6.692   3.354  0.1649  0.7531  0.3283
 8526TIP3    H225543   6.418   6.614   3.484 -1.0046 -1.5971 -1.1162
 8527TIP3   OH225544   2.541   3.780   1.538 -0.3144  0.4549 -0.2364
 8527TIP3    H125545   2.612   3.836   1.567 -0.6890  0.4983  0.6230
 8527TIP3    H225546   2.530   3.716   1.608  0.8319 -1.4064 -1.6838
 8528TIP3   OH225547   1.914   2.404   0.765  0.6192 -0.0629  0.5143
 8528TIP3    H125548   1.913   2.311   0.787 -0.7789 -0.2710 -0.3064
 8528TIP3    H225549   1.947   2.407   0.675 -2.1776 -0.1343 -0.6413
 8529TIP3   OH225550   1.463   1.730   3.087 -0.1047 -0.4618  0.4378
 8529TIP3    H125551   1.433   1.821   3.095  0.9000 -0.1656  0.9762
 8529TIP3    H225552   1.432   1.688   3.167  0.3418 -0.3242  0.6835
 8530TIP3   OH225553   5.105   6.224   4.130  0.2484 -0.1476  0.4323
 8530TIP3    H125554   5.012   6.218   4.105  0.6092  0.9649 -1.3856
 8530TIP3    H225555   5.150   6.243   4.048  2.1692 -1.0974  1.2020
 8531TIP3   OH225556   3.582   1.173   2.863  0.7285  0.6046 -0.3274
 8531TIP3    H125557   3.662   1.123   2.877  1.2353  1.6933  0.8777
 8531TIP3    H225558   3.604   1.234   2.792  1.0534  1.0564  0.1564
 8532TIP3   OH225559   4.174   0.972   5.225 -0.0706  0.5535  0.2022
 8532TIP3    H125560   4.209   1.043   5.279  1.6755  0.5923 -0.8714
 8532TIP3    H225561   4.093   0.946   5.269 -0.3811  2.6840  1.0446
 8533TIP3   OH225562   6.064   1.468   2.981  0.1221  0.0293  0.2518
 8533TIP3    H125563   6.006   1.392   2.978 -2.3699  1.8359 -0.0827
 8533TIP3    H225564   6.142   1.441   2.931 -1.3270 -1.7897 -1.1602
 8534TIP3   OH225565   1.514   0.099   2.841 -0.3203  0.3687 -0.8010
 8534TIP3    H125566   1.605   0.092   2.870 -0.3977 -0.0214 -0.6490
 8534TIP3    H225567   1.466   0.125   2.919 -0.3734  0.3427 -0.8253
 8535TIP3   OH225568   7.135   2.072   5.368  0.3048  0.7012  0.1795
 8535TIP3    H125569   7.222   2.048   5.336 -0.7665 -2.1439 -0.9667
 8535TIP3    H225570   7.139   2.055   5.462  0.4520 -1.5927 -0.1831
 8536TIP3   OH225571   2.378   1.093   1.975 -1.0668 -0.0362 -1.2728
 8536TIP3    H125572   2.397   1.184   1.953  0.3917 -0.2710 -1.0696
 8536TIP3    H225573   2.454   1.063   2.025 -1.6241 -1.3067 -1.1282
 8537TIP3   OH225574   6.187   0.164   3.422  0.2672  0.1383  0.1255
 8537TIP3    H125575   6.118   0.197   3.364  1.8479 -0.0682 -1.9881
 8537TIP3    H225576   6.156   0.077   3.449 -0.8431  0.5555  0.2378
 8538TIP3   OH225577   0.450   2.757   0.576  0.4880  0.3030  0.3149
 8538TIP3    H125578   0.410   2.834   0.535  2.6882  2.4207  1.8950
 8538TIP3    H225579   0.399   2.741   0.655  0.1065  0.1925  0.0483
 8539TIP3   OH225580   0.961   3.692   0.138  0.1558  0.2542 -0.0196
 8539TIP3    H125581   0.981   3.685   0.231 -1.3118  1.0811  0.4066
 8539TIP3    H225582   1.041   3.727   0.098  0.1980  1.7026  1.2580
 8540TIP3   OH225583   0.369   2.368   3.648  0.1337  0.1346 -0.6127
 8540TIP3    H125584   0.348   2.460   3.661  1.5426  0.4158 -0.1788
 8540TIP3    H225585   0.430   2.367   3.574  0.5040 -0.4060 -0.3069
 8541TIP3   OH225586   6.057   2.585   1.673 -0.0322 -0.4475 -0.0957
 8541TIP3    H125587   6.056   2.674   1.639 -0.6782 -0.0186  0.9931
 8541TIP3    H225588   5.980   2.581   1.730 -0.8259 -2.1337 -1.2089
 8542TIP3   OH225589   0.332   2.987   5.712 -0.5370  0.1779  0.2226
 8542TIP3    H125590   0.391   2.917   5.740  1.0330  1.8542  1.3856
 8542TIP3    H225591   0.273   2.999   5.786  0.1448  1.0159  0.6531
 8543TIP3   OH225592   3.922   2.563   1.187  0.0090  0.1745 -0.0259
 8543TIP3    H125593   3.855   2.503   1.221 -2.1143  0.9538 -2.4816
 8543TIP3    H225594   3.985   2.506   1.144 -0.2758 -0.4713  0.3929
 8544TIP3   OH225595   1.041   6.156   1.098  0.2940  0.0630  0.0772
 8544TIP3    H125596   0.982   6.225   1.069 -2.0667 -1.0455  1.9508
 8544TIP3    H225597   1.124   6.201   1.114 -1.0117  2.3792  0.7456
 8545TIP3   OH225598   7.181   1.958   4.201 -0.3723  0.0725  0.2447
 8545TIP3    H125599   7.140   1.879   4.236 -1.1267  0.6279  0.6248
 8545TIP3    H225600   7.272   1.952   4.232 -0.0707 -1.2659 -0.7838
 8546TIP3   OH225601   5.816   3.510   4.475 -0.3099  0.1116  0.3537
 8546TIP3    H125602   5.898   3.548   4.505 -0.0524  0.9449 -1.2944
 8546TIP3    H225603   5.837   3.469   4.391 -1.1848 -1.3234  0.7950
 8547TIP3   OH225604   7.042   0.822   2.103 -0.2570  0.2222 -0.3504
 8547TIP3    H125605   7.109   0.819   2.172 -0.8416 -0.4240  0.2104
 8547TIP3    H225606   7.072   0.758   2.038  1.3277  2.2262 -1.7229
 8548TIP3   OH225607   0.810   6.309   3.192 -0.2780 -0.1051 -0.1211
 8548TIP3    H125608   0.836   6.229   3.236  0.6452 -0.7096 -1.6857
 8548TIP3    H225609   0.732   6.284   3.141 -0.5195  0.2333  0.0746
 8549TIP3   OH225610   0.645   1.329   3.239 -0.1765  0.4250  0.2121
 8549TIP3    H125611   0.652   1.424   3.244 -0.8129  0.5469 -0.9850
 8549TIP3    H225612   0.698   1.304   3.163  0.1193 -0.1942  0.6120
 8550TIP3   OH225613   3.444   3.880   5.365 -0.3217 -0.7098 -0.6162
 8550TIP3    H125614   3.469   3.835   5.446 -1.0993  0.5657  0.3878
 8550TIP3    H225615   3.528   3.899   5.322  0.2324 -0.0957  0.6590
 8551TIP3   OH225616   6.147   6.593   1.827 -0.4954 -1.1065  0.0621
 8551TIP3    H125617   6.126   6.612   1.735  0.4804  2.2244  0.3920
 8551TIP3    H225618   6.062   6.593   1.871 -0.8005 -0.1270 -0.4914
 8552TIP3   OH225619   5.928   1.756   3.036 -0.2190 -0.0277 -0.3259
 8552TIP3    H125620   5.907   1.677   3.085 -1.9039 -0.5887 -1.8728
 8552TIP3    H225621   6.017   1.741   3.003 -0.1758 -0.8659  0.1477
 8553TIP3   OH225622   3.943   0.244   0.764 -0.0095 -0.0598 -0.8578
 8553TIP3    H125623   4.014   0.287   0.716  1.4906 -1.5833 -0.1094
 8553TIP3    H225624   3.863   0.284   0.729  1.1309  0.7294 -2.7331
 8554TIP3   OH225625   3.932   1.658   0.129  0.4073 -0.3004 -0.4751
 8554TIP3    H125626   3.958   1.640   0.039 -0.6797 -1.7522 -0.5329
 8554TIP3    H225627   3.996   1.721   0.160  1.9842 -1.2672 -1.6179
 8555TIP3   OH225628   0.362   1.718   0.610 -0.0857 -0.0215 -0.0053
 8555TIP3    H125629   0.371   1.625   0.630 -0.5660 -0.0358  0.1693
 8555TIP3    H225630   0.331   1.757   0.691 -0.3299  0.2135 -0.2095
 8556TIP3   OH225631   0.692   4.111   5.179 -0.3175  0.6436  0.5072
 8556TIP3    H125632   0.744   4.032   5.194  0.5657  0.9798 -0.6818
 8556TIP3    H225633   0.709   4.166   5.255 -0.2220  0.0850  0.8981
 8557TIP3   OH225634   0.838   5.416   3.410  0.0159  0.0381  0.4738
 8557TIP3    H125635   0.806   5.492   3.459  0.2048  0.2527  0.2665
 8557TIP3    H225636   0.809   5.432   3.320  1.1997  0.5238  0.1622
 8558TIP3   OH225637   3.553   6.099   2.708 -0.5744 -0.4285 -0.2630
 8558TIP3    H125638   3.531   6.029   2.646 -0.6916 -0.6667  0.0446
 8558TIP3    H225639   3.637   6.072   2.746  1.2253  1.3397 -2.7191
 8559TIP3   OH225640   3.632   3.130   1.919 -0.0453  0.2953 -0.1483
 8559TIP3    H125641   3.561   3.156   1.978  1.2274  0.2020  1.4871
 8559TIP3    H225642   3.692   3.204   1.920  0.2700  0.0500 -0.8866
 8560TIP3   OH225643   0.821   3.647   5.750 -0.8239 -0.6195 -0.7706
 8560TIP3    H125644   0.749   3.592   5.779 -0.8093 -0.9908 -1.3987
 8560TIP3    H225645   0.811   3.651   5.655 -0.0615 -0.6210 -0.8610
 8561TIP3   OH225646   6.046   2.059   3.084 -0.4211  0.0957  0.2794
 8561TIP3    H125647   6.012   2.013   3.008 -1.0838  0.5503  0.2975
 8561TIP3    H225648   6.058   2.150   3.055 -0.8761  0.3174  0.7716
 8562TIP3   OH225649   1.130   0.503   4.205  0.3579 -0.3308  0.5800
 8562TIP3    H125650   1.210   0.524   4.253  0.6385  1.4213 -0.5469
 8562TIP3    H225651   1.059   0.532   4.263  0.6957  1.8953 -0.0259
 8563TIP3   OH225652   5.137   6.576   3.898  0.6425  0.2264  0.2720
 8563TIP3    H125653   5.108   6.668   3.896  1.6351  0.5771  1.2096
 8563TIP3    H225654   5.059   6.527   3.922  0.0407  0.7966 -0.4713
 8564TIP3   OH225655   0.937   6.393   4.640  0.4184 -0.0697 -0.3560
 8564TIP3    H125656   0.962   6.310   4.679  1.1932  0.3286  0.0228
 8564TIP3    H225657   0.910   6.370   4.551 -0.0460 -0.8051 -0.0364
 8565TIP3   OH225658   0.313   2.095   2.429  0.0927  0.1203 -1.0340
 8565TIP3    H125659   0.259   2.173   2.435 -1.3236 -0.9105  1.2453
 8565TIP3    H225660   0.292   2.057   2.344 -1.1314  0.8903 -1.0891
 8566TIP3   OH225661   2.467   4.631   5.691  0.8740 -0.0222  0.7166
 8566TIP3    H125662   2.444   4.553   5.741 -0.3846  0.3248  0.7022
 8566TIP3    H225663   2.560   4.646   5.711  1.0127 -1.2644  1.0495
 8567TIP3   OH225664   5.341   6.078   4.894 -0.3098 -0.0089  0.0578
 8567TIP3    H125665   5.359   5.992   4.856 -1.2797 -0.4275  0.5150
 8567TIP3    H225666   5.245   6.084   4.895 -0.2628  1.4445 -0.7767
 8568TIP3   OH225667   5.144   1.710   4.992  0.3383  0.1397 -0.1424
 8568TIP3    H125668   5.236   1.704   5.017  0.0520  1.1830  1.3053
 8568TIP3    H225669   5.142   1.775   4.921  0.7362  0.0009 -0.2794
 8569TIP3   OH225670   0.002   1.541   0.926  0.0581 -0.8380 -0.6863
 8569TIP3    H125671   0.064   1.605   0.893 -0.5158 -0.7607 -1.6393
 8569TIP3    H225672  -0.061   1.593   0.977  0.0659 -0.7541 -0.7627
 8570TIP3   OH225673   1.711   5.399   1.991  0.3509  0.1094  0.4895
 8570TIP3    H125674   1.729   5.469   1.929  0.2536 -0.0927  0.2348
 8570TIP3    H225675   1.664   5.333   1.941  1.9695 -0.9346  0.2614
 8571TIP3   OH225676   0.617   2.131   2.809 -0.1744 -0.1268 -0.3961
 8571TIP3    H125677   0.707   2.101   2.797 -0.1393  0.1568 -0.8453
 8571TIP3    H225678   0.565   2.078   2.748 -0.3226 -0.3115 -0.1164
 8572TIP3   OH225679   0.695   4.799   4.038 -0.1844  0.5161 -0.0493
 8572TIP3    H125680   0.624   4.814   3.975  0.4953  1.0056 -0.7134
 8572TIP3    H225681   0.661   4.833   4.121 -0.4076  1.5424 -0.5494
 8573TIP3   OH225682   3.436   6.613   2.200 -0.1121  0.6228  0.1736
 8573TIP3    H125683   3.410   6.611   2.292 -0.3149  0.2808  0.1110
 8573TIP3    H225684   3.416   6.702   2.171  0.3986  0.8787  0.5851
 8574TIP3   OH225685   5.013   2.090   3.200 -0.3605 -0.5274 -0.5389
 8574TIP3    H125686   4.928   2.055   3.174 -0.7111  1.0663 -1.6204
 8574TIP3    H225687   5.074   2.058   3.134 -0.3671 -0.4925 -0.5616
 8575TIP3   OH225688   1.055   3.826   2.560 -0.4033  0.3745  0.0808
 8575TIP3    H125689   1.054   3.917   2.531  1.5688 -0.5402 -3.4251
 8575TIP3    H225690   1.102   3.827   2.644  1.3185  2.4053 -0.8373
 8576TIP3   OH225691   2.359   6.017   5.509  0.3945  0.5618 -0.2021
 8576TIP3    H125692   2.361   6.094   5.451  0.1809 -0.6268 -1.8453
 8576TIP3    H225693   2.354   5.942   5.449 -1.2425 -0.6650  1.3899
 8577TIP3   OH225694   3.243   3.361   0.788 -0.2442 -0.0617  0.2591
 8577TIP3    H125695   3.166   3.418   0.790 -0.9611 -1.0087  0.9736
 8577TIP3    H225696   3.233   3.306   0.866  0.2864 -1.3331 -0.5524
 8578TIP3   OH225697   0.640   5.162   3.114  0.6881 -0.0370  0.0107
 8578TIP3    H125698   0.576   5.161   3.043  1.6746 -0.1536 -0.9134
 8578TIP3    H225699   0.688   5.080   3.104  0.5391 -0.2772  1.1173
 8579TIP3   OH225700   5.961   3.353   3.285  0.1874  0.0786 -0.5781
 8579TIP3    H125701   5.898   3.301   3.236  1.1830 -0.9604 -0.7914
 8579TIP3    H225702   5.936   3.444   3.266  1.1501 -0.2076 -3.9369
 8580TIP3   OH225703   4.738   3.225   2.516  0.0067  0.1896 -0.6290
 8580TIP3    H125704   4.657   3.276   2.509  0.0766  0.1404 -1.9049
 8580TIP3    H225705   4.756   3.195   2.427  1.3434  0.0637 -0.3350
 8581TIP3   OH225706   2.574   4.020   2.102 -0.4085  0.2677  0.3217
 8581TIP3    H125707   2.536   3.998   2.187 -0.4295 -0.6495  0.0853
 8581TIP3    H225708   2.627   3.944   2.078 -0.4097  0.5059 -0.4871
 8582TIP3   OH225709   1.292   1.115   3.042 -0.8321  0.6796  0.2855
 8582TIP3    H125710   1.364   1.085   2.987 -2.8460  0.3464 -2.3399
 8582TIP3    H225711   1.217   1.063   3.014 -2.3913  1.8574  2.0589
 8583TIP3   OH225712   4.057   2.663   3.461 -0.7413 -0.2808  0.0871
 8583TIP3    H125713   4.039   2.754   3.437 -1.7052  0.0647  1.9069
 8583TIP3    H225714   3.970   2.622   3.464 -0.4802 -0.7891  0.9779
 8584TIP3   OH225715   1.359   4.540   0.063  0.2990  0.3509 -0.3057
 8584TIP3    H125716   1.266   4.531   0.041 -0.3233  3.1425  0.7612
 8584TIP3    H225717   1.361   4.539   0.159  1.6919 -1.6730 -0.2857
 8585TIP3   OH225718   0.147   4.801   3.149 -0.4638  0.2420  0.6338
 8585TIP3    H125719   0.138   4.749   3.229  0.9279  1.7968  1.9060
 8585TIP3    H225720   0.117   4.889   3.175  0.7185  0.9568 -0.3149
 8586TIP3   OH225721   2.935   6.577   2.040 -0.2343  0.1006  0.3830
 8586TIP3    H125722   3.011   6.556   1.985 -0.1868  0.4133  0.3295
 8586TIP3    H225723   2.875   6.622   1.981 -0.1016  0.6131  0.6364
 8587TIP3   OH225724   5.440   1.367   2.415  0.4562  0.0550  0.3671
 8587TIP3    H125725   5.441   1.282   2.370 -3.4173 -0.3614  0.7124
 8587TIP3    H225726   5.414   1.429   2.348  0.0946  0.4037  0.8262
 8588TIP3   OH225727   6.915   1.846   2.044  0.3133  0.1403 -0.2709
 8588TIP3    H125728   6.972   1.771   2.026  1.1614  0.1365  2.1301
 8588TIP3    H225729   6.967   1.922   2.018  0.3059  0.0253 -0.6404
 8589TIP3   OH225730   5.576   2.972   5.319 -0.0405  0.3458  0.1648
 8589TIP3    H125731   5.618   2.969   5.405  0.8387  2.3384 -0.1379
 8589TIP3    H225732   5.496   3.023   5.332 -0.2249  0.1224 -0.0742
 8590TIP3   OH225733   3.270   5.043   2.557 -0.0529 -0.3978 -0.2373
 8590TIP3    H125734   3.186   4.999   2.564  0.8753 -2.1812  0.5418
 8590TIP3    H225735   3.285   5.079   2.644  0.8127 -1.7810  0.2243
 8591TIP3   OH225736   4.461   1.327   4.307 -0.5029  0.1379 -0.6812
 8591TIP3    H125737   4.441   1.324   4.401 -1.2672 -3.6381 -0.8030
 8591TIP3    H225738   4.557   1.332   4.303 -0.5154  3.5252  0.1187
 8592TIP3   OH225739   3.442   2.304   1.911 -0.3961 -0.4923 -0.0748
 8592TIP3    H125740   3.492   2.255   1.846 -0.5838  0.7778 -1.2317
 8592TIP3    H225741   3.351   2.277   1.897 -0.8854  1.9270 -2.4991
 8593TIP3   OH225742   5.432   3.021   4.128 -0.0636 -0.4028 -0.3847
 8593TIP3    H125743   5.470   3.035   4.215 -1.8810  0.0295  0.3849
 8593TIP3    H225744   5.460   2.933   4.104  1.4087 -0.1004  0.1111
 8594TIP3   OH225745   0.865   3.042   4.621  0.3549 -0.2257 -0.0321
 8594TIP3    H125746   0.864   3.129   4.660  0.8034  0.4038 -1.3758
 8594TIP3    H225747   0.952   3.008   4.638  0.8984  0.4575 -1.2899
 8595TIP3   OH225748   4.399   1.289   0.197  0.3322 -0.3626  0.1681
 8595TIP3    H125749   4.413   1.197   0.176  0.8356  0.0405 -1.4040
 8595TIP3    H225750   4.364   1.327   0.116  2.1001  1.2437  0.0805
 8596TIP3   OH225751   0.359   2.322   0.256 -0.6177  0.0519 -0.2956
 8596TIP3    H125752   0.326   2.376   0.328  1.0910 -1.2866  1.5994
 8596TIP3    H225753   0.432   2.372   0.220 -1.4197  0.6848 -1.0693
 8597TIP3   OH225754   5.192   2.042   4.482 -0.0402  0.1169  0.5105
 8597TIP3    H125755   5.126   1.985   4.522 -0.1030 -0.3748 -0.2794
 8597TIP3    H225756   5.169   2.045   4.390  1.6797 -0.9817 -0.0107
 8598TIP3   OH225757   7.114   6.161   2.170 -0.0522  0.1323  0.3801
 8598TIP3    H125758   7.062   6.120   2.238 -0.8523  0.9201  0.2642
 8598TIP3    H225759   7.118   6.253   2.195 -0.0606  0.3686 -0.4426
 8599TIP3   OH225760   0.147   2.469   1.374 -0.8731 -0.0795 -0.0912
 8599TIP3    H125761   0.226   2.524   1.375  0.7771 -2.2471 -1.4896
 8599TIP3    H225762   0.082   2.522   1.327  0.8572  0.4889 -1.9707
 8600TIP3   OH225763   0.283   3.760   4.885  0.0077  0.0454  0.1580
 8600TIP3    H125764   0.252   3.671   4.868  1.6744 -0.4374 -0.5982
 8600TIP3    H225765   0.245   3.784   4.969  1.7873 -2.5143  1.8384
 8601TIP3   OH225766   4.808   1.529   2.844  0.4134 -0.5276 -0.4469
 8601TIP3    H125767   4.896   1.504   2.814  0.7429  0.4590 -0.3344
 8601TIP3    H225768   4.824   1.574   2.927 -0.2811 -1.0973  0.0012
 8602TIP3   OH225769   3.848   2.085   5.725 -0.2514  0.0232  0.0383
 8602TIP3    H125770   3.770   2.126   5.687  0.7100  0.7579 -1.2716
 8602TIP3    H225771   3.815   2.007   5.770 -1.9913  1.5062  1.4772
 8603TIP3   OH225772   5.853   6.408   4.807  0.7255  0.1134  0.2463
 8603TIP3    H125773   5.793   6.347   4.764  0.6271 -0.0058  0.5477
 8603TIP3    H225774   5.934   6.404   4.755  0.2011  0.9038 -0.6551
 8604TIP3   OH225775   6.703   3.230   2.801 -0.4433 -0.1171  0.1376
 8604TIP3    H125776   6.767   3.184   2.747  2.7006  0.0443  3.3478
 8604TIP3    H225777   6.640   3.163   2.827 -0.9473 -0.5781 -2.0039
 8605TIP3   OH225778   3.579   1.477   4.531  0.0516 -0.2676  0.1264
 8605TIP3    H125779   3.661   1.525   4.536 -0.7833  1.2225  0.2300
 8605TIP3    H225780   3.584   1.427   4.450  0.7211  0.4469 -0.2760
 8606TIP3   OH225781   1.497   0.853   3.794 -0.7919 -0.5693 -0.4156
 8606TIP3    H125782   1.561   0.814   3.735 -1.5262 -0.2241 -1.4831
 8606TIP3    H225783   1.492   0.793   3.868  1.6529  0.0250  0.3106
 8607TIP3   OH225784   0.818   3.517   5.245  0.0115 -0.3457 -0.0962
 8607TIP3    H125785   0.910   3.538   5.259  0.5023 -2.0374 -0.5026
 8607TIP3    H225786   0.787   3.585   5.185  0.3851  1.4877  1.6743
 8608TIP3   OH225787   2.626   2.332   1.012  0.3192 -0.2538  0.1981
 8608TIP3    H125788   2.636   2.419   1.049 -0.6280  1.0757 -2.3677
 8608TIP3    H225789   2.531   2.318   1.008  0.3695 -0.4063 -1.3748
 8609TIP3   OH225790   5.189   3.568   4.915 -0.2170  0.2023  0.0273
 8609TIP3    H125791   5.132   3.608   4.981 -1.6302  0.5419 -1.3290
 8609TIP3    H225792   5.206   3.638   4.852 -0.8090 -0.6887 -1.1640
 8610TIP3   OH225793   5.681   1.883   3.092 -0.2919  0.3257  0.1165
 8610TIP3    H125794   5.699   1.973   3.120  0.2238  0.8799 -1.8188
 8610TIP3    H225795   5.763   1.853   3.052 -1.0393 -0.2628 -1.0655
 8611TIP3   OH225796   2.808   6.210   5.039 -0.4399 -0.0274  0.1504
 8611TIP3    H125797   2.896   6.242   5.060  0.7500 -1.1166 -2.6860
 8611TIP3    H225798   2.822   6.140   4.975 -3.3389 -1.1212  0.5345
 8612TIP3   OH225799   7.176   4.319   2.626 -0.2360  0.5866  0.5164
 8612TIP3    H125800   7.119   4.352   2.696 -0.8589  0.9402 -0.1449
 8612TIP3    H225801   7.243   4.386   2.616 -0.5512  0.8697  0.2978
 8613TIP3   OH225802   6.051   1.194   5.218 -0.0241 -0.5540  0.1770
 8613TIP3    H125803   6.068   1.117   5.164 -1.0638 -0.9627  0.4006
 8613TIP3    H225804   6.096   1.176   5.301 -0.4114 -1.0102  0.2930
 8614TIP3   OH225805   4.761   0.456   2.883 -0.0967  0.2588 -0.7228
 8614TIP3    H125806   4.777   0.550   2.873 -1.2849  0.4288 -1.1480
 8614TIP3    H225807   4.692   0.436   2.820 -1.2849 -0.4913  0.7478
 8615TIP3   OH225808   3.386   0.649   3.335 -0.3718 -0.0481  0.3542
 8615TIP3    H125809   3.478   0.635   3.315 -0.8107 -1.4281 -0.8631
 8615TIP3    H225810   3.373   0.609   3.421  0.3158  0.8821  0.9121
 8616TIP3   OH225811   3.126   6.577   0.528  0.0217 -0.4553 -0.4299
 8616TIP3    H125812   3.191   6.517   0.566  0.0833  0.1387  0.4261
 8616TIP3    H225813   3.044   6.556   0.574  0.3249  0.9861  0.8231
 8617TIP3   OH225814   3.681   0.069   4.773  0.4022 -0.5444  0.2418
 8617TIP3    H125815   3.681   0.165   4.766  0.0128 -0.6234 -1.3174
 8617TIP3    H225816   3.745   0.049   4.841  0.7508  0.8061  0.3310
 8618TIP3   OH225817   1.653   4.608   2.954  0.5393 -0.4855  0.2838
 8618TIP3    H125818   1.677   4.591   3.046  0.9799 -0.7918  0.1184
 8618TIP3    H225819   1.737   4.629   2.912  0.3983 -0.7726 -0.1405
 8619TIP3   OH225820   1.894   1.040   0.587 -0.0369 -0.2620 -0.2127
 8619TIP3    H125821   1.917   1.132   0.600 -0.0269 -0.3939  0.7735
 8619TIP3    H225822   1.924   1.020   0.498 -0.3376  0.7736 -0.5634
 8620TIP3   OH225823   6.334   2.582   1.493 -0.0382  0.2542  0.2941
 8620TIP3    H125824   6.252   2.608   1.451  0.3128 -0.8290 -1.1430
 8620TIP3    H225825   6.388   2.661   1.490 -1.3131  1.2769  2.1472
 8621TIP3   OH225826   2.168   3.714   4.302 -0.2753 -0.5758 -1.0380
 8621TIP3    H125827   2.195   3.765   4.379 -2.9444 -0.1930 -0.2653
 8621TIP3    H225828   2.151   3.626   4.336 -1.0767 -0.5117 -1.2646
 8622TIP3   OH225829   5.422   1.656   2.459  0.0647 -0.0077  0.0383
 8622TIP3    H125830   5.436   1.629   2.369 -1.0782  0.0982 -0.1748
 8622TIP3    H225831   5.477   1.596   2.511  1.7608  0.7548 -0.7786
 8623TIP3   OH225832   1.187   5.501   1.339 -0.0715 -0.0997 -0.3904
 8623TIP3    H125833   1.280   5.521   1.348 -0.0967 -0.6179  1.6511
 8623TIP3    H225834   1.153   5.506   1.429 -2.1345  0.6271 -1.1546
 8624TIP3   OH225835   6.501   3.209   0.446 -0.3241 -0.2978  0.2063
 8624TIP3    H125836   6.502   3.267   0.370 -0.8400  0.0290  0.4395
 8624TIP3    H225837   6.505   3.268   0.521 -3.4466 -0.3403  0.5319
 8625TIP3   OH225838   2.383   5.801   5.337  0.0135 -0.2079 -0.5466
 8625TIP3    H125839   2.324   5.750   5.282 -0.1765 -0.1387 -0.4091
 8625TIP3    H225840   2.471   5.776   5.308 -0.0814 -0.4142 -0.6580
 8626TIP3   OH225841   4.110   4.064   1.186 -0.1710  0.6302 -0.2411
 8626TIP3    H125842   4.052   3.993   1.158  0.9772 -1.7618  2.9033
 8626TIP3    H225843   4.051   4.129   1.225 -1.0367  0.2740 -0.9262
 8627TIP3   OH225844   1.562   1.244   5.025 -0.0101 -0.1345 -0.0714
 8627TIP3    H125845   1.493   1.178   5.025 -0.1501 -0.0069 -0.9848
 8627TIP3    H225846   1.535   1.307   4.957  0.2220  0.7550  0.6426
 8628TIP3   OH225847   4.117   5.673   0.280  0.1892  0.1878 -0.2712
 8628TIP3    H125848   4.129   5.767   0.269  0.8751 -0.0548 -1.7661
 8628TIP3    H225849   4.205   5.638   0.284 -0.0658 -0.4214  0.1416
 8629TIP3   OH225850   5.670   1.357   0.933 -0.1694  0.4760  0.3490
 8629TIP3    H125851   5.592   1.312   0.899  0.9547  1.2526 -3.7486
 8629TIP3    H225852   5.725   1.287   0.967 -1.0469 -0.5105 -0.1961
 8630TIP3   OH225853   5.685   2.897   3.609 -0.3000 -0.5211 -0.0486
 8630TIP3    H125854   5.633   2.940   3.676  2.1318  2.6780  0.0225
 8630TIP3    H225855   5.766   2.872   3.653  0.5747 -0.0843 -1.3489
 8631TIP3   OH225856   6.870   1.791   3.169  0.0542 -0.0303 -0.6634
 8631TIP3    H125857   6.869   1.880   3.204  3.6221  0.0760 -0.4822
 8631TIP3    H225858   6.832   1.738   3.239  1.4292  0.9275  0.8834
 8632TIP3   OH225859   1.747   3.481   1.803  0.2186  0.5286  0.3356
 8632TIP3    H125860   1.797   3.548   1.757 -0.0426 -0.5017 -1.5498
 8632TIP3    H225861   1.768   3.400   1.757 -1.5165 -0.2633  0.8619
 8633TIP3   OH225862   0.720   0.463   5.631 -0.0571  0.2167 -0.3446
 8633TIP3    H125863   0.727   0.374   5.595 -0.5549  0.7498 -1.8421
 8633TIP3    H225864   0.809   0.483   5.660  0.3082 -0.3873 -0.9961
 8634TIP3   OH225865   4.311   0.679   3.262 -0.1124 -0.0494 -0.3408
 8634TIP3    H125866   4.292   0.591   3.230 -0.0367 -1.0036  2.0270
 8634TIP3    H225867   4.369   0.717   3.196 -0.8452 -1.4223 -1.8460
 8635TIP3   OH225868   6.569   3.182   3.537 -0.4184  0.3872 -0.3576
 8635TIP3    H125869   6.616   3.266   3.536 -0.3432  0.3561  0.4665
 8635TIP3    H225870   6.637   3.116   3.524 -0.2057  0.3393  0.8715
 8636TIP3   OH225871   6.683   1.504   1.306  0.3416 -0.3319 -0.6255
 8636TIP3    H125872   6.595   1.525   1.274  0.0490 -0.3880  0.1266
 8636TIP3    H225873   6.699   1.415   1.277  1.0663  0.4259 -2.7140
 8637TIP3   OH225874   2.133   0.251   5.322 -0.2027 -0.2626 -0.0988
 8637TIP3    H125875   2.057   0.212   5.364 -0.8227  0.3208 -0.6577
 8637TIP3    H225876   2.100   0.332   5.282  0.4350 -0.6158 -1.3918
 8638TIP3   OH225877   3.196   6.159   4.858  0.0016 -0.5449  0.0510
 8638TIP3    H125878   3.278   6.174   4.906 -0.4961 -1.7354  1.3310
 8638TIP3    H225879   3.146   6.099   4.914 -1.1600 -0.9530 -1.3699
 8639TIP3   OH225880   3.676   3.556   5.129 -0.1283  0.2260  0.3370
 8639TIP3    H125881   3.585   3.582   5.148 -0.7477 -1.1739 -0.5670
 8639TIP3    H225882   3.714   3.538   5.215 -1.1148 -0.4489  0.6446
 8640TIP3   OH225883   6.344   2.843   1.244  0.1708  0.1864 -0.4843
 8640TIP3    H125884   6.261   2.888   1.256 -0.6346 -1.8029  2.3789
 8640TIP3    H225885   6.340   2.808   1.155 -2.3293 -0.2852 -0.2539
 8641TIP3   OH225886   0.584   0.030   3.843 -0.1055  0.8188 -0.6031
 8641TIP3    H125887   0.500   0.012   3.800 -2.3245 -0.8860  3.7663
 8641TIP3    H225888   0.594   0.125   3.834 -1.9089  0.9331 -2.2392
 8642TIP3   OH225889   4.083   0.554   2.619  0.0664 -0.2490  0.4845
 8642TIP3    H125890   4.151   0.596   2.672 -1.7540  3.0210  0.4501
 8642TIP3    H225891   4.107   0.576   2.528 -0.3732 -0.1416  0.3935
 8643TIP3   OH225892   2.891   0.824   3.197 -0.1403 -0.3367 -0.1865
 8643TIP3    H125893   2.926   0.758   3.257  0.1086  0.7615  0.9377
 8643TIP3    H225894   2.959   0.891   3.194  0.0999 -0.6313 -2.1869
 8644TIP3   OH225895   7.011   0.212   4.430 -0.2008  0.4035 -0.2353
 8644TIP3    H125896   7.042   0.128   4.397  0.0743  0.7890 -0.9774
 8644TIP3    H225897   7.085   0.272   4.417 -0.3172  0.7239  0.4771
 8645TIP3   OH225898   5.291   4.418   1.142 -0.1390 -0.2716  0.0642
 8645TIP3    H125899   5.213   4.408   1.087 -0.0809 -1.2281  0.1302
 8645TIP3    H225900   5.364   4.394   1.085  0.0481 -0.0358  0.2001
 8646TIP3   OH225901   6.352   6.384   2.633 -0.0913  0.2806 -0.0704
 8646TIP3    H125902   6.303   6.461   2.604 -0.1083  0.6908  1.0057
 8646TIP3    H225903   6.444   6.407   2.622 -0.1106  0.0735 -0.6856
 8647TIP3   OH225904   7.094   4.570   3.806  0.1068 -0.1939 -0.7576
 8647TIP3    H125905   7.024   4.507   3.787 -1.5094  1.2217  0.2150
 8647TIP3    H225906   7.117   4.554   3.897 -0.1024  0.4147 -0.5950
 8648TIP3   OH225907   5.835   0.993   5.511  0.4115  0.6663 -0.0974
 8648TIP3    H125908   5.910   1.032   5.556  1.1748 -0.4682 -0.3448
 8648TIP3    H225909   5.789   0.944   5.579  1.1491 -0.4411 -0.3773
 8649TIP3   OH225910   6.318   5.253   0.675  0.0535 -0.8832  0.3488
 8649TIP3    H125911   6.349   5.343   0.678  0.7866 -1.1420  0.6856
 8649TIP3    H225912   6.239   5.253   0.730 -0.9216 -0.0994 -0.9772
 8650TIP3   OH225913   0.538   5.116   1.152 -0.0829 -0.7260  0.1248
 8650TIP3    H125914   0.629   5.114   1.123 -0.0666 -1.7682  0.2006
 8650TIP3    H225915   0.496   5.047   1.102 -0.5921 -0.9515  0.8532
 8651TIP3   OH225916   4.604   0.331   2.446 -0.1037  0.4413  0.2282
 8651TIP3    H125917   4.508   0.341   2.446 -0.0593  0.9977  1.5863
 8651TIP3    H225918   4.637   0.417   2.423  0.0939  0.1095 -0.8226
 8652TIP3   OH225919   0.858   0.934   2.636  0.3581  0.1171 -0.2966
 8652TIP3    H125920   0.822   0.922   2.724  1.8301 -1.7138  0.1391
 8652TIP3    H225921   0.951   0.913   2.646  0.1982 -2.3042 -2.6377
 8653TIP3   OH225922   0.184   1.770   5.192  0.5344  0.3615  0.1712
 8653TIP3    H125923   0.141   1.715   5.257  1.3237 -2.9633 -1.8733
 8653TIP3    H225924   0.274   1.779   5.224  0.8711 -1.1064 -0.2727
 8654TIP3   OH225925   1.652   6.549   5.686  0.2714  0.0493 -0.7657
 8654TIP3    H125926   1.673   6.588   5.602 -0.5803  2.8209  0.2094
 8654TIP3    H225927   1.729   6.564   5.740 -0.7093  2.1853  0.1543
 8655TIP3   OH225928   6.675   5.685   3.414 -0.1658 -0.2887 -0.0684
 8655TIP3    H125929   6.658   5.673   3.508 -0.1263  0.1019 -0.0102
 8655TIP3    H225930   6.661   5.779   3.399  0.8665 -0.1525 -0.2426
 8656TIP3   OH225931   5.488   6.135   1.561 -0.1991 -0.1976  0.3306
 8656TIP3    H125932   5.476   6.137   1.466  2.1230  0.1691 -0.0015
 8656TIP3    H225933   5.569   6.086   1.574 -0.2844  0.0813  2.1102
 8657TIP3   OH225934   2.113   5.752   3.136 -0.3440  0.1060  0.1654
 8657TIP3    H125935   2.059   5.753   3.057 -0.8792 -1.0659  0.5083
 8657TIP3    H225936   2.202   5.737   3.103 -0.5115 -0.0253 -0.2380
 8658TIP3   OH225937   0.430   0.458   1.043 -0.1918  0.2036 -0.3573
 8658TIP3    H125938   0.444   0.474   0.950  1.8595 -0.3515 -0.2034
 8658TIP3    H225939   0.516   0.430   1.075 -1.2041 -1.1121  1.3866
 8659TIP3   OH225940   6.257   2.942   0.079  0.0278  0.2569  0.4177
 8659TIP3    H125941   6.235   2.997   0.003 -0.3316 -0.6824 -0.1704
 8659TIP3    H225942   6.238   2.998   0.154 -2.5969  0.1730 -0.0888
 8660TIP3   OH225943   5.725   5.533   2.078 -0.0981  0.0714 -0.0888
 8660TIP3    H125944   5.797   5.551   2.017 -0.1998  2.3038  0.3850
 8660TIP3    H225945   5.661   5.486   2.024  1.2896 -1.1932 -0.7433
 8661TIP3   OH225946   6.031   1.109   3.349  0.2840 -0.3226  0.3831
 8661TIP3    H125947   6.040   1.194   3.391  1.2899 -0.2968  0.1501
 8661TIP3    H225948   5.938   1.102   3.326  0.2709  0.8766  0.0475
 8662TIP3   OH225949   5.695   0.680   5.345  0.0418  0.4591  0.1312
 8662TIP3    H125950   5.712   0.678   5.439 -0.5851  1.7876  0.2902
 8662TIP3    H225951   5.731   0.598   5.313  0.8691  0.2911  1.4236
 8663TIP3   OH225952   1.881   4.726   3.151  0.7169 -0.1903  0.1687
 8663TIP3    H125953   1.902   4.633   3.164  0.2528 -0.3697 -0.2920
 8663TIP3    H225954   1.896   4.740   3.058  0.8223  0.2098  0.2471
 8664TIP3   OH225955   1.310   0.127   1.767  0.7705 -0.2883 -1.1208
 8664TIP3    H125956   1.223   0.095   1.791  0.6356  0.1703 -0.9848
 8664TIP3    H225957   1.339   0.175   1.844  1.6470 -1.4323 -0.7151
 8665TIP3   OH225958   4.363   4.392   1.341 -0.2103 -0.3799  0.1470
 8665TIP3    H125959   4.302   4.332   1.384 -1.2612 -0.1709 -0.9804
 8665TIP3    H225960   4.371   4.465   1.402  0.8214 -1.4717  1.3807
 8666TIP3   OH225961   1.275   6.104   0.571 -1.0771  0.3583 -0.6808
 8666TIP3    H125962   1.208   6.053   0.525 -0.3659 -1.0827 -0.1627
 8666TIP3    H225963   1.226   6.175   0.612 -2.2948 -0.6162 -0.3809
 8667TIP3   OH225964   0.582   4.566   4.046  0.2959  0.3207 -0.3989
 8667TIP3    H125965   0.528   4.559   3.967  0.3289 -0.6183 -0.3523
 8667TIP3    H225966   0.628   4.649   4.036  1.4730 -0.4697 -2.1173
 8668TIP3   OH225967   3.184   5.521   2.958 -0.8313  0.4289 -0.0384
 8668TIP3    H125968   3.128   5.479   3.023  1.1056 -2.0829  0.1773
 8668TIP3    H225969   3.133   5.520   2.877 -1.6020 -0.5778  0.4364
 8669TIP3   OH225970   5.384   4.554   2.164  0.4965 -0.0081  0.1457
 8669TIP3    H125971   5.455   4.577   2.105  0.9095  0.4295  0.8029
 8669TIP3    H225972   5.423   4.495   2.228  0.5884  1.1774  1.2260
 8670TIP3   OH225973   2.233   4.115   3.140 -0.1497 -0.4697 -0.4383
 8670TIP3    H125974   2.214   4.088   3.230 -1.0111 -0.9857 -0.7593
 8670TIP3    H225975   2.273   4.037   3.100 -1.5248 -0.9261 -1.0212
 8671TIP3   OH225976   6.401   3.288   1.184 -0.0575  0.3189  0.4240
 8671TIP3    H125977   6.437   3.361   1.234 -1.6487  0.1428  1.9253
 8671TIP3    H225978   6.311   3.278   1.217 -0.5543 -1.0104 -1.1845
 8672TIP3   OH225979   4.504   5.939   2.100  0.0974 -0.2969  0.2100
 8672TIP3    H125980   4.434   5.994   2.134  0.3335  2.1488 -2.8345
 8672TIP3    H225981   4.581   5.965   2.151  0.6396  3.9023 -2.2446
 8673TIP3   OH225982   0.966   1.499   1.016  0.4006  1.0243  0.7219
 8673TIP3    H125983   0.988   1.451   0.936  0.0709  1.0229  0.6296
 8673TIP3    H225984   0.951   1.431   1.082 -2.5265  0.8331 -0.0146
 8674TIP3   OH225985   6.143   1.764   0.402  0.6028 -0.5715 -0.2187
 8674TIP3    H125986   6.140   1.779   0.496  0.8427  0.5169 -0.3655
 8674TIP3    H225987   6.224   1.717   0.387  1.2451  0.4334 -0.0090
 8675TIP3   OH225988   3.708   6.531   2.288 -0.0343 -0.3938  0.6640
 8675TIP3    H125989   3.622   6.564   2.259 -1.2643 -3.8089 -0.1010
 8675TIP3    H225990   3.764   6.540   2.211 -0.5797 -0.7774  0.2089
 8676TIP3   OH225991   3.343   5.376   1.537 -0.6345 -0.2578 -0.4016
 8676TIP3    H125992   3.416   5.429   1.504 -1.0063  0.2904 -0.3559
 8676TIP3    H225993   3.269   5.401   1.482 -1.0741  0.0825  0.3345
 8677TIP3   OH225994   2.711   6.615   1.368 -0.1170 -0.0705  0.3265
 8677TIP3    H125995   2.750   6.534   1.335  0.5520  0.3479  0.0670
 8677TIP3    H225996   2.623   6.616   1.329  0.0380 -0.4446 -0.0473
 8678TIP3   OH225997   6.778   5.556   3.178  0.1008 -0.2099  0.1726
 8678TIP3    H125998   6.820   5.479   3.215  0.5323  0.4177  1.0163
 8678TIP3    H225999   6.735   5.598   3.252 -1.7984 -0.6707 -0.6124
 8679TIP3   OH226000   4.092   4.830   3.602 -0.4089  0.1430 -0.3866
 8679TIP3    H126001   4.128   4.848   3.516  0.3644  0.6982  0.0465
 8679TIP3    H226002   4.085   4.916   3.644 -0.6792 -0.1297  0.1421
 8680TIP3   OH226003   3.284   4.126   5.454  0.1515  0.2618 -0.2601
 8680TIP3    H126004   3.320   4.114   5.543 -1.5622  0.0547  0.4434
 8680TIP3    H226005   3.335   4.065   5.400  2.2642  1.4823  0.2470
 8681TIP3   OH226006   3.875   5.464   5.794 -0.2317  0.0882 -0.3608
 8681TIP3    H126007   3.850   5.517   5.870 -1.2538  1.9166 -1.8874
 8681TIP3    H226008   3.794   5.421   5.766 -0.1380  0.3858 -1.1185
 8682TIP3   OH226009   2.565   2.627   1.813  0.5420  0.1315  0.1671
 8682TIP3    H126010   2.569   2.587   1.726 -1.0413  1.2212 -0.4519
 8682TIP3    H226011   2.530   2.558   1.869 -1.2669  0.2888 -0.6955
 8683TIP3   OH226012   1.704   1.281   0.264  0.2438 -0.4542 -0.3773
 8683TIP3    H126013   1.724   1.371   0.291  1.0282 -1.0297  1.1109
 8683TIP3    H226014   1.646   1.291   0.189  0.1400  1.2954 -0.1216
 8684TIP3   OH226015   4.403   3.834   0.374  0.5518  0.6570  0.2001
 8684TIP3    H126016   4.322   3.816   0.422  0.7856 -0.6239  0.1574
 8684TIP3    H226017   4.418   3.754   0.323  1.5715  1.0835 -0.1836
 8685TIP3   OH226018   6.927   3.467   2.871  0.2948 -0.0186  0.1103
 8685TIP3    H126019   6.903   3.380   2.840 -0.4131 -0.5794  2.0750
 8685TIP3    H226020   6.945   3.517   2.791  3.0239 -2.5569 -1.0689
 8686TIP3   OH226021   4.426   4.310   5.239 -0.5027  0.5186 -0.4710
 8686TIP3    H126022   4.466   4.223   5.246 -0.3593  0.6914  1.1350
 8686TIP3    H226023   4.488   4.361   5.187  0.2602  0.1372  0.0517
 8687TIP3   OH226024   3.201   1.295   4.158 -0.1875  0.3931 -0.2204
 8687TIP3    H126025   3.186   1.215   4.106  0.3056  0.3203 -0.2539
 8687TIP3    H226026   3.120   1.345   4.148 -1.0382 -0.7073  0.8991
 8688TIP3   OH226027   5.330   1.898   3.478 -0.2365 -0.2986 -0.4064
 8688TIP3    H126028   5.336   1.985   3.517  2.1934 -1.0438  1.1052
 8688TIP3    H226029   5.355   1.911   3.386  2.8904  0.3194  0.4238
 8689TIP3   OH226030   2.419   4.638   3.929 -0.5241  0.3112  0.2155
 8689TIP3    H126031   2.374   4.717   3.959 -0.4267  0.0572  1.0563
 8689TIP3    H226032   2.414   4.578   4.003 -1.6041 -0.9211 -0.8160
 8690TIP3   OH226033   4.325   1.110   4.171 -1.0411 -0.6336  1.0347
 8690TIP3    H126034   4.278   1.191   4.193 -1.2963 -0.8971  1.4858
 8690TIP3    H226035   4.305   1.051   4.244 -1.1193 -1.2113  0.5462
 8691TIP3   OH226036   4.235   6.604   2.916 -0.2636  0.7450  0.1483
 8691TIP3    H126037   4.144   6.582   2.894  0.3946 -0.0785 -1.9839
 8691TIP3    H226038   4.235   6.614   3.011 -2.3230 -0.4636  0.3297
 8692TIP3   OH226039   2.922   0.023   1.691 -0.3664 -0.1051  0.0395
 8692TIP3    H126040   2.845  -0.016   1.650 -0.8689  1.5657 -0.7141
 8692TIP3    H226041   2.888   0.070   1.767  0.3512 -1.8097  1.4881
 8693TIP3   OH226042   2.946   2.803   3.931 -0.7824  0.1447 -0.1743
 8693TIP3    H126043   2.902   2.878   3.969 -1.5689 -0.4948  0.2156
 8693TIP3    H226044   2.980   2.835   3.847 -1.4140  0.8405 -0.1792
 8694TIP3   OH226045   5.284   6.543   1.991 -0.0794 -0.1589 -0.3167
 8694TIP3    H126046   5.194   6.566   1.968 -0.1474 -0.1442 -0.0381
 8694TIP3    H226047   5.275   6.468   2.050  0.0049  0.9425  1.1522
 8695TIP3   OH226048   4.248   2.020   3.783 -0.4350 -0.5765  0.1408
 8695TIP3    H126049   4.279   1.993   3.697  0.3937  0.8043 -0.0330
 8695TIP3    H226050   4.191   1.949   3.812 -1.5364 -0.6222 -1.9628
 8696TIP3   OH226051   2.552   3.718   1.105  0.4730  0.3116  0.3005
 8696TIP3    H126052   2.628   3.661   1.115 -0.1209 -0.3550  1.1427
 8696TIP3    H226053   2.506   3.711   1.188 -1.6478 -0.9684 -0.8841
 8697TIP3   OH226054   2.620   3.428   0.230 -0.8228  0.0301  0.2996
 8697TIP3    H126055   2.531   3.463   0.222 -0.6783  0.8422  1.7914
 8697TIP3    H226056   2.651   3.462   0.315  0.7488 -0.5853  0.0001
 8698TIP3   OH226057   3.220   3.488   4.259 -0.1602 -0.0861 -0.0482
 8698TIP3    H126058   3.154   3.429   4.223  0.3078 -1.0244  0.5576
 8698TIP3    H226059   3.272   3.515   4.184 -0.7170 -0.0056 -0.4131
 8699TIP3   OH226060   1.786   1.902   5.392 -0.5113  0.1593  0.3117
 8699TIP3    H126061   1.732   1.892   5.314 -2.5236  2.6118  1.2646
 8699TIP3    H226062   1.724   1.905   5.465  1.0761  0.8198  1.7081
 8700TIP3   OH226063   4.089   3.069   4.085 -0.1434 -0.2644  0.0302
 8700TIP3    H126064   4.146   3.144   4.103 -1.3880  1.1504 -1.5755
 8700TIP3    H226065   4.149   2.994   4.081  1.5977  1.0922 -1.1649
 8701TIP3   OH226066   5.587   3.825   0.247 -0.4780 -0.2609 -0.0698
 8701TIP3    H126067   5.596   3.909   0.292 -0.7816 -0.2772  0.0233
 8701TIP3    H226068   5.498   3.827   0.211 -1.1486 -1.2835  1.4543
 8702TIP3   OH226069   7.075   0.894   4.207 -0.0952 -0.6067 -0.2455
 8702TIP3    H126070   7.139   0.950   4.163  0.7669 -0.1447  1.4949
 8702TIP3    H226071   7.013   0.954   4.247  0.5238 -0.8559  1.1720
 8703TIP3   OH226072   2.083   6.444   3.448  0.3204 -0.1117  0.5555
 8703TIP3    H126073   2.008   6.426   3.504  0.3162 -0.2685  0.4992
 8703TIP3    H226074   2.144   6.492   3.505  0.0181  0.3508  0.4907
 8704TIP3   OH226075   3.617   1.502   5.564 -0.3815  0.0259  0.1292
 8704TIP3    H126076   3.571   1.527   5.644 -0.6018 -0.6860  0.2242
 8704TIP3    H226077   3.581   1.417   5.540  1.0019 -0.6376  0.2953
 8705TIP3   OH226078   2.962   6.565   4.890 -0.3293 -0.4760 -0.2952
 8705TIP3    H126079   2.975   6.483   4.841  1.9572  0.6576 -1.8150
 8705TIP3    H226080   2.900   6.615   4.836 -1.1124 -0.8748  0.2216
 8706TIP3   OH226081   3.748   0.190   0.284 -0.0628 -0.1521 -0.3872
 8706TIP3    H126082   3.660   0.200   0.248 -0.8742 -0.1358  1.4570
 8706TIP3    H226083   3.737   0.126   0.355  0.8831  1.6670  1.4881
 8707TIP3   OH226084   0.483   4.291   5.355 -0.1424 -0.1508 -0.4209
 8707TIP3    H126085   0.442   4.304   5.440 -1.1328  3.0627 -1.2616
 8707TIP3    H226086   0.412   4.261   5.298  0.2946 -1.2780 -0.4117
 8708TIP3   OH226087   6.437   2.562   0.843 -0.0860 -0.0157  0.6312
 8708TIP3    H126088   6.368   2.502   0.815 -0.2538 -0.3054  1.6117
 8708TIP3    H226089   6.471   2.523   0.924  1.4562 -0.0557 -0.0030
 8709TIP3   OH226090   4.182   0.152   3.881 -0.1354  0.1334 -0.2726
 8709TIP3    H126091   4.174   0.231   3.935 -0.0137 -0.1971  0.2362
 8709TIP3    H226092   4.114   0.093   3.914  0.5135 -0.4134  0.1289
 8710TIP3   OH226093   5.402   4.444   3.633 -0.3216 -0.0130 -1.0103
 8710TIP3    H126094   5.486   4.419   3.672 -0.8638  0.5467  0.6267
 8710TIP3    H226095   5.344   4.371   3.652 -1.3195  1.3530  1.8251
 8711TIP3   OH226096   2.971   3.769   0.769 -0.2922  0.1882 -0.4597
 8711TIP3    H126097   2.906   3.780   0.838  0.5314 -1.2221  0.6063
 8711TIP3    H226098   2.928   3.800   0.689 -1.2480  1.9412  0.6727
 8712TIP3   OH226099   5.726   1.673   1.931  0.8211  0.0497 -0.1297
 8712TIP3    H126100   5.738   1.658   1.837 -2.1887  0.4677 -0.6846
 8712TIP3    H226101   5.725   1.768   1.941  0.5536  0.0167  0.1981
 8713TIP3   OH226102   4.849   4.708   4.744 -0.3024  0.6212 -0.0818
 8713TIP3    H126103   4.927   4.730   4.695 -0.3833  2.7138  0.6343
 8713TIP3    H226104   4.808   4.637   4.695  1.8031 -0.2390 -0.6814
 8714TIP3   OH226105   0.481   0.026   0.203  0.2320  0.5936 -0.1482
 8714TIP3    H126106   0.396   0.042   0.163  0.1918 -0.8257 -0.6934
 8714TIP3    H226107   0.540   0.089   0.161 -0.2742  0.6597 -0.7604
 8715TIP3   OH226108   3.980   0.429   1.117  0.1710  0.3346 -0.7324
 8715TIP3    H126109   3.921   0.480   1.172  0.8440 -0.2792  0.6062
 8715TIP3    H226110   4.013   0.491   1.052 -0.0176  1.2793  0.0617
 8716TIP3   OH226111   6.639   3.751   3.672  0.2589  0.3877 -0.1405
 8716TIP3    H126112   6.618   3.842   3.650  3.3728  0.8014 -1.9962
 8716TIP3    H226113   6.729   3.754   3.705  0.5240 -2.0370 -0.4441
 8717TIP3   OH226114   0.225   3.486   1.220 -0.1086 -0.2922 -0.2233
 8717TIP3    H126115   0.265   3.547   1.158 -1.1831 -0.5434 -1.1934
 8717TIP3    H226116   0.279   3.407   1.213  0.7451  0.2244  0.3759
 8718TIP3   OH226117   0.928   0.396   4.947 -0.5480 -0.0869 -0.7205
 8718TIP3    H126118   0.851   0.453   4.951 -0.1291  0.4608 -0.0430
 8718TIP3    H226119   1.003   0.457   4.951 -0.0906 -0.6572 -0.3626
 8719TIP3   OH226120   5.631   3.882   1.474 -0.0427 -0.9209 -0.1438
 8719TIP3    H126121   5.676   3.876   1.558  0.0534  2.1195  0.1383
 8719TIP3    H226122   5.701   3.872   1.409  0.7079  1.1924  0.2646
 8720TIP3   OH226123   2.449   4.383   0.412  0.4466  0.6401  0.4980
 8720TIP3    H126124   2.516   4.424   0.357 -0.0239  1.0976  0.2680
 8720TIP3    H226125   2.386   4.346   0.350  0.5447  0.1045  0.7124
 8721TIP3   OH226126   1.828   1.213   1.258 -0.1979 -0.6695 -0.5569
 8721TIP3    H126127   1.902   1.260   1.295 -0.7884 -0.0781 -0.1099
 8721TIP3    H226128   1.823   1.132   1.308 -0.4689 -0.2564  0.0959
 8722TIP3   OH226129   1.440   3.891   5.766  0.3373 -0.2382 -0.2886
 8722TIP3    H126130   1.405   3.931   5.686  0.0875 -0.3830 -0.2556
 8722TIP3    H226131   1.364   3.886   5.824  0.7999  1.1132  0.4725
 8723TIP3   OH226132   0.922   6.601   5.822  0.3104  0.2797  0.1412
 8723TIP3    H126133   1.001   6.562   5.785 -0.0029 -0.2234 -0.0067
 8723TIP3    H226134   0.853   6.537   5.805 -0.5576  1.5559 -1.5478
 8724TIP3   OH226135   1.102   2.153   4.216 -0.3114 -0.4404 -0.2556
 8724TIP3    H126136   1.123   2.199   4.298  0.6772 -0.1200 -0.6740
 8724TIP3    H226137   1.184   2.108   4.193 -0.1618  0.5536 -1.7660
 8725TIP3   OH226138   5.345   2.055   4.949  0.0618 -0.0084  0.4929
 8725TIP3    H126139   5.396   2.076   5.027 -2.8780 -0.5028  2.7648
 8725TIP3    H226140   5.356   1.960   4.939  1.0898  0.1784 -0.2273
 8726TIP3   OH226141   4.662   1.654   1.945  0.4793  0.1554 -0.3564
 8726TIP3    H126142   4.667   1.559   1.959 -0.5096  0.0502 -0.6158
 8726TIP3    H226143   4.700   1.692   2.024  1.8137 -0.4447 -0.6713
 8727TIP3   OH226144   2.148   0.578   4.663 -0.2096  0.0332 -0.8202
 8727TIP3    H126145   2.120   0.650   4.719 -1.4664 -1.0302 -0.0172
 8727TIP3    H226146   2.070   0.522   4.655  0.5509 -0.9194 -1.9271
 8728TIP3   OH226147   1.540   1.267   2.135 -0.5299 -0.2263 -0.2274
 8728TIP3    H126148   1.619   1.321   2.124 -1.6252  1.7671  1.1547
 8728TIP3    H226149   1.468   1.323   2.105 -1.5732 -1.5835 -0.3768
 8729TIP3   OH226150   5.788   1.108   4.915 -0.0197 -0.0184  0.4485
 8729TIP3    H126151   5.778   1.193   4.956  0.8339  0.2279  0.1756
 8729TIP3    H226152   5.876   1.110   4.876  0.2168 -1.2055  0.8739
 8730TIP3   OH226153   0.745   6.738   0.013  0.3772 -0.3286 -0.1941
 8730TIP3    H126154   0.709   6.667  -0.039 -1.6416  0.5422 -0.0825
 8730TIP3    H226155   0.739   6.708   0.104 -0.7375  0.0725 -0.1263
 8731TIP3   OH226156   5.028   5.681   4.799 -0.1390  0.1234  0.3906
 8731TIP3    H126157   5.013   5.625   4.723  1.7943 -0.0160  0.0496
 8731TIP3    H226158   5.051   5.621   4.869 -2.3337  0.2180  1.2585
 8732TIP3   OH226159   2.180   3.968   1.746  0.5226 -0.1670  0.3530
 8732TIP3    H126160   2.202   3.895   1.804 -2.3510 -0.2491  1.4804
 8732TIP3    H226161   2.194   4.046   1.799  0.8323 -0.0399  0.0926
 8733TIP3   OH226162   1.451   0.926   4.203 -0.5461  0.1444  0.3426
 8733TIP3    H126163   1.512   0.946   4.273 -0.8461 -1.5604  1.1395
 8733TIP3    H226164   1.365   0.925   4.245 -0.5929 -2.3399  0.3523
 8734TIP3   OH226165   4.368   1.628   1.327 -0.0215 -0.4786 -0.0464
 8734TIP3    H126166   4.398   1.628   1.417  1.1976  3.3296 -0.2704
 8734TIP3    H226167   4.272   1.628   1.334  0.0079  1.8760  1.4407
 8735TIP3   OH226168   6.115   6.153   5.364  0.0650  0.0398 -0.1207
 8735TIP3    H126169   6.192   6.102   5.338  0.3421 -0.6038  1.7507
 8735TIP3    H226170   6.142   6.197   5.445 -1.8332 -1.0906  1.2203
 8736TIP3   OH226171   2.613   2.892   4.716 -0.3683 -0.0996  0.3680
 8736TIP3    H126172   2.530   2.867   4.755 -0.7594 -0.3940 -0.6166
 8736TIP3    H226173   2.678   2.836   4.758 -0.9034 -1.0619 -0.0623
 8737TIP3   OH226174   0.584   2.607   0.363 -0.2555 -0.0191 -0.1048
 8737TIP3    H126175   0.641   2.684   0.357 -1.8338  1.2375  0.4413
 8737TIP3    H226176   0.527   2.625   0.437 -0.9861 -1.5171 -0.2740
 8738TIP3   OH226177   5.385   5.416   0.231  0.0364 -0.0999 -0.0092
 8738TIP3    H126178   5.320   5.458   0.174  0.1115  0.7702  0.5180
 8738TIP3    H226179   5.417   5.342   0.181  0.5011  0.9607 -1.3315
 8739TIP3   OH226180   2.688   5.140   3.891  0.3151 -0.1677  0.5291
 8739TIP3    H126181   2.618   5.084   3.926 -0.5814  1.0916  0.8368
 8739TIP3    H226182   2.678   5.223   3.938  2.1494 -0.0164  0.6954
 8740TIP3   OH226183   1.345   4.855   5.186 -0.2555  0.0978  0.1763
 8740TIP3    H126184   1.255   4.879   5.210 -1.4156 -0.4956 -3.0505
 8740TIP3    H226185   1.353   4.763   5.210 -0.9329 -0.1629 -0.5887
 8741TIP3   OH226186   4.321   2.471   0.601 -0.6105 -0.3913 -0.1906
 8741TIP3    H126187   4.405   2.428   0.616 -0.2142  0.5539  0.4251
 8741TIP3    H226188   4.306   2.522   0.682 -0.5058  1.5089 -1.3004
 8742TIP3   OH226189   2.784   5.843   0.552  0.0776 -0.1214  0.6863
 8742TIP3    H126190   2.762   5.822   0.642  0.0381  2.4493  1.3522
 8742TIP3    H226191   2.876   5.869   0.555 -0.4730  2.0107  0.4301
 8743TIP3   OH226192   2.733   5.500   0.636 -0.3990 -0.0204  0.3073
 8743TIP3    H126193   2.792   5.549   0.579 -0.8585 -2.6701 -2.7049
 8743TIP3    H226194   2.786   5.427   0.668 -0.9727 -0.1799  0.9067
 8744TIP3   OH226195   3.305   2.613   3.099 -0.5750  0.3336  0.7504
 8744TIP3    H126196   3.263   2.529   3.117 -0.7092 -0.4314 -2.5239
 8744TIP3    H226197   3.398   2.592   3.087 -0.4432  0.8119  0.9072
 8745TIP3   OH226198   0.456   1.992   3.926  0.0209  0.2247  0.6000
 8745TIP3    H126199   0.497   1.974   4.011 -0.9565  0.2774  1.0956
 8745TIP3    H226200   0.473   2.085   3.911  0.2691  0.1964  0.7020
 8746TIP3   OH226201   2.203   4.213   1.194  0.3716  0.2567 -0.1669
 8746TIP3    H126202   2.221   4.233   1.102  2.0759 -1.6264 -0.2969
 8746TIP3    H226203   2.289   4.206   1.235 -0.2107 -2.1673  0.8108
 8747TIP3   OH226204   0.338   4.695   2.749 -0.5796  0.2614  0.2285
 8747TIP3    H126205   0.322   4.757   2.820 -0.3870  0.1336  0.3857
 8747TIP3    H226206   0.395   4.628   2.788 -1.0026 -0.1562  0.1333
 8748TIP3   OH226207   1.816   2.701   3.152 -0.1411 -0.1494  0.4784
 8748TIP3    H126208   1.892   2.754   3.176  0.1159 -0.8033  1.1523
 8748TIP3    H226209   1.750   2.723   3.218 -0.1509 -0.4089  0.5559
 8749TIP3   OH226210   7.183   0.829   3.177 -0.4145 -0.3795  0.3739
 8749TIP3    H126211   7.133   0.897   3.133 -2.4846 -2.4342 -0.6729
 8749TIP3    H226212   7.249   0.802   3.113  0.3644  0.5411  0.7653
 8750TIP3   OH226213   1.708   1.890   2.708  0.1305 -0.1747 -0.2359
 8750TIP3    H126214   1.730   1.798   2.722 -2.4933 -1.0133 -1.0240
 8750TIP3    H226215   1.756   1.937   2.776  2.3365 -1.9781 -0.4449
 8751TIP3   OH226216   2.256   6.677   0.789  0.1592 -0.1407 -0.1689
 8751TIP3    H126217   2.182   6.696   0.846  0.3994  1.0430 -0.2383
 8751TIP3    H226218   2.321   6.636   0.846 -0.3003 -0.6324  0.0135
 8752TIP3   OH226219   3.485   4.953   4.802  0.4735  0.1800  0.0631
 8752TIP3    H126220   3.423   5.007   4.850 -1.4460 -0.2590 -1.7928
 8752TIP3    H226221   3.443   4.868   4.794  0.4187  0.3760 -2.7909
 8753TIP3   OH226222   3.580   0.836   4.349  0.7907  0.1936  0.4113
 8753TIP3    H126223   3.628   0.755   4.363 -0.8632 -0.6644  1.5072
 8753TIP3    H226224   3.502   0.810   4.300  0.4063  1.1817  0.4639
 8754TIP3   OH226225   7.159   5.049   1.960  0.5044  0.3434  0.1484
 8754TIP3    H126226   7.110   5.032   1.880  1.1540  0.0328 -0.1888
 8754TIP3    H226227   7.160   5.145   1.967  1.1738  0.4103 -0.6803
 8755TIP3   OH226228   3.990   2.578   4.130 -0.0127  0.0381  0.4014
 8755TIP3    H126229   3.999   2.563   4.036  0.6270  1.5141  0.2072
 8755TIP3    H226230   3.906   2.536   4.153 -0.8925  0.8861 -1.1045
 8756TIP3   OH226231   0.892   6.077   0.709 -0.6471 -0.1953 -0.4292
 8756TIP3    H126232   0.922   5.987   0.723 -1.1613 -0.3422 -0.2641
 8756TIP3    H226233   0.814   6.085   0.763  0.3914  0.9114  0.9998
 8757TIP3   OH226234   0.832   1.161   2.131 -0.2689 -0.2315  0.4215
 8757TIP3    H126235   0.897   1.120   2.188  0.8663 -1.1748 -1.4720
 8757TIP3    H226236   0.856   1.253   2.130  0.2544 -0.3602  0.7443
 8758TIP3   OH226237   3.360   6.438   3.791 -0.1732 -0.1846 -0.2313
 8758TIP3    H126238   3.452   6.464   3.803  0.1632 -1.0796 -0.7608
 8758TIP3    H226239   3.349   6.434   3.696 -0.6374 -0.4868 -0.1664
 8759TIP3   OH226240   4.963   6.620   3.085 -0.2322  0.1993  0.2877
 8759TIP3    H126241   4.948   6.611   2.991  0.3990 -0.9517  0.2726
 8759TIP3    H226242   4.896   6.564   3.125  0.1985 -0.1947  0.4672
 8760TIP3   OH226243   1.997   3.215   0.520 -0.2541 -0.1520 -0.0868
 8760TIP3    H126244   2.067   3.158   0.488 -0.6452 -1.4660  1.3090
 8760TIP3    H226245   2.004   3.212   0.615 -1.4868  0.6279  0.0547
 8761TIP3   OH226246   4.536   0.734   2.608  0.2923  0.7022  0.2595
 8761TIP3    H126247   4.464   0.719   2.547  1.0899  2.2154 -1.1377
 8761TIP3    H226248   4.613   0.697   2.564  0.4315 -0.8823  1.7208
 8762TIP3   OH226249   0.431   3.262   5.175  0.1511  0.0183 -0.0477
 8762TIP3    H126250   0.501   3.290   5.234  0.0878  1.5994 -0.6632
 8762TIP3    H226251   0.476   3.238   5.094  0.0166  0.8340 -0.3733
 8763TIP3   OH226252   3.875   3.998   5.688  0.3634  0.3413 -0.1848
 8763TIP3    H126253   3.807   4.047   5.736  2.6286  1.7735  1.7956
 8763TIP3    H226254   3.828   3.957   5.616 -2.6235  1.1577  1.1192
 8764TIP3   OH226255   0.886   3.957   4.781  0.2318  0.1809  0.0795
 8764TIP3    H126256   0.834   3.912   4.714 -0.5110 -0.0798  0.8166
 8764TIP3    H226257   0.975   3.958   4.746  0.0712 -0.9987 -0.3797
 8765TIP3   OH226258   0.475   0.421   3.294  0.1497  0.2676  0.5021
 8765TIP3    H126259   0.486   0.335   3.254 -0.0710 -0.7312  2.4665
 8765TIP3    H226260   0.408   0.464   3.240  1.3707 -0.1585 -1.4272
 8766TIP3   OH226261   3.784   0.616   2.376 -0.0161 -0.6647  0.5826
 8766TIP3    H126262   3.706   0.577   2.337 -1.5846  0.6928  2.1685
 8766TIP3    H226263   3.753   0.698   2.415  2.2259 -0.0570  1.2407
 8767TIP3   OH226264   5.549   3.592   1.542 -0.4933 -0.0257  0.0877
 8767TIP3    H126265   5.551   3.654   1.470  1.4569  0.3044  0.3860
 8767TIP3    H226266   5.586   3.641   1.616 -0.0994 -1.1534  0.6466
 8768TIP3   OH226267   4.797   2.513   2.569  0.7340 -0.6454 -0.5336
 8768TIP3    H126268   4.737   2.567   2.518  1.7956 -0.9303 -2.1764
 8768TIP3    H226269   4.757   2.427   2.570  0.3451 -0.4620 -0.2513
 8769TIP3   OH226270   1.239   4.431   1.195 -0.2164  0.4589  0.0670
 8769TIP3    H126271   1.196   4.495   1.253  2.5429  1.4031  1.2185
 8769TIP3    H226272   1.305   4.482   1.149  1.5795 -1.3834  0.4568
 8770TIP3   OH226273   3.930   4.454   5.155  0.2349  0.1028 -0.0915
 8770TIP3    H126274   3.997   4.479   5.091  0.8074 -3.6006 -1.2078
 8770TIP3    H226275   3.975   4.458   5.239  1.1189  0.0457 -0.5428
 8771TIP3   OH226276   5.952   4.076   1.529  0.1281  0.1608  0.1801
 8771TIP3    H126277   5.935   4.124   1.610  0.4168  1.7770 -0.6878
 8771TIP3    H226278   5.925   4.135   1.459 -0.4147 -1.3333 -0.9233
 8772TIP3   OH226279   4.589   1.540   3.172  0.0499  0.0279  0.1249
 8772TIP3    H126280   4.653   1.474   3.144 -0.5926 -1.0692  1.1686
 8772TIP3    H226281   4.558   1.579   3.090 -0.6689 -2.0405 -0.6492
 8773TIP3   OH226282   5.823   0.134   1.126 -0.0709 -0.0355 -0.0680
 8773TIP3    H126283   5.911   0.159   1.098 -0.8413 -0.8453 -3.7349
 8773TIP3    H226284   5.780   0.216   1.149  0.7726  0.7266 -1.1281
 8774TIP3   OH226285   6.444   6.139   4.147 -0.3021  0.2827  0.1820
 8774TIP3    H126286   6.349   6.128   4.156 -0.1843 -0.4657  0.6783
 8774TIP3    H226287   6.475   6.143   4.238  0.1572  0.3829  0.0192
 8775TIP3   OH226288   1.400   6.187   5.235  0.1274  0.1027 -0.9013
 8775TIP3    H126289   1.373   6.104   5.196 -1.3322  0.6197 -1.0717
 8775TIP3    H226290   1.319   6.225   5.268  0.9896  0.7680  0.5509
 8776TIP3   OH226291   1.081   6.129   4.647  0.3447 -0.3082 -0.2268
 8776TIP3    H126292   1.117   6.161   4.730  1.7495  0.1079 -0.9647
 8776TIP3    H226293   0.995   6.093   4.670 -0.1816  1.6074  1.0946
 8777TIP3   OH226294   5.335   2.598   5.530 -0.3142 -0.1503 -0.4629
 8777TIP3    H126295   5.430   2.615   5.529 -0.4773  1.0713  1.4695
 8777TIP3    H226296   5.318   2.559   5.444  2.0290 -0.9674 -0.6435
 8778TIP3   OH226297   3.048   4.569   1.250 -0.1512 -0.3865 -0.3740
 8778TIP3    H126298   2.998   4.527   1.320  1.4288  0.1640  1.1470
 8778TIP3    H226299   3.055   4.503   1.182 -3.8761 -0.1521 -1.2134
 8779TIP3   OH226300   0.746   2.236   4.009  0.0524 -0.2642 -0.3661
 8779TIP3    H126301   0.651   2.223   4.006 -0.2814  1.9158 -0.8152
 8779TIP3    H226302   0.760   2.296   4.082  1.0175 -0.1455 -0.6337
 8780TIP3   OH226303   7.102   5.038   4.396 -0.6196  0.1729 -0.1603
 8780TIP3    H126304   7.073   5.126   4.372 -0.6044  0.4249  0.7289
 8780TIP3    H226305   7.142   5.048   4.482 -0.5089 -0.6868 -0.1021
 8781TIP3   OH226306   3.775   5.546   3.909  0.7323  0.0973  0.0321
 8781TIP3    H126307   3.766   5.531   3.815  1.7480 -0.3975  0.0032
 8781TIP3    H226308   3.809   5.636   3.915 -1.6608  1.0775  0.0545
 8782TIP3   OH226309   0.056   1.878   3.901 -0.5911 -0.0729  0.3010
 8782TIP3    H126310   0.136   1.841   3.866 -0.7281  1.1294 -1.4634
 8782TIP3    H226311   0.084   1.932   3.975  0.6114  2.0794 -1.5937
 8783TIP3   OH226312   2.542   0.617   0.788 -0.4296 -0.3625 -0.0483
 8783TIP3    H126313   2.586   0.616   0.874  0.2139  1.0722 -0.3440
 8783TIP3    H226314   2.451   0.593   0.808  0.1069 -1.9294  0.7658
 8784TIP3   OH226315   0.060   1.997   4.538  0.1625 -0.3229  0.4338
 8784TIP3    H126316   0.069   1.901   4.543  1.3901 -0.3161 -0.8285
 8784TIP3    H226317   0.021   2.022   4.622  0.5290 -1.8511  1.1016
 8785TIP3   OH226318   3.326   4.201   2.648 -0.0122  0.2128 -0.5080
 8785TIP3    H126319   3.322   4.291   2.615 -2.3282  0.1853 -0.4572
 8785TIP3    H226320   3.249   4.193   2.704  2.5482 -0.4144  3.2846
 8786TIP3   OH226321   3.452   3.512   4.710 -0.0700  0.2244  0.6392
 8786TIP3    H126322   3.436   3.498   4.617 -0.1833 -1.1889  0.8497
 8786TIP3    H226323   3.510   3.588   4.714 -0.3864  0.5384 -0.5541
 8787TIP3   OH226324   4.900   2.803   1.100 -0.4422 -0.2210 -0.3900
 8787TIP3    H126325   4.984   2.800   1.055 -0.4037  0.3756 -0.3684
 8787TIP3    H226326   4.912   2.745   1.175 -0.3700 -0.8869 -0.9098
 8788TIP3   OH226327   6.397   3.838   1.658  0.5535 -0.6581  0.0386
 8788TIP3    H126328   6.388   3.743   1.659 -2.1294 -0.5247 -2.0691
 8788TIP3    H226329   6.440   3.857   1.574  1.5236  0.0071  0.6622
 8789TIP3   OH226330   3.266   6.813   1.368  0.4673 -0.5437 -0.3533
 8789TIP3    H126331   3.324   6.825   1.292  0.8282 -2.0670 -0.3590
 8789TIP3    H226332   3.320   6.765   1.431 -0.3650 -0.7609  0.2022
 8790TIP3   OH226333   3.489   6.760   5.694 -0.5901 -0.1067 -0.0098
 8790TIP3    H126334   3.431   6.805   5.632  1.0118  1.5401 -0.4021
 8790TIP3    H226335   3.449   6.775   5.779 -1.1875  0.2501 -0.3450
 8791TIP3   OH226336   1.342   0.520   3.177  0.6951 -0.7164  0.4681
 8791TIP3    H126337   1.359   0.530   3.270 -0.3455  0.4413  0.5601
 8791TIP3    H226338   1.278   0.448   3.172 -2.5144  1.8470  1.1070
 8792TIP3   OH226339   7.036   3.783   3.978 -0.3752  0.3720 -0.0716
 8792TIP3    H126340   7.029   3.815   4.068 -1.0084 -1.2636  0.5039
 8792TIP3    H226341   7.125   3.749   3.971 -0.8145 -0.9935  0.5127
 8793TIP3   OH226342   3.969   2.347   4.765 -0.6012  0.5202 -0.2365
 8793TIP3    H126343   3.998   2.402   4.838  1.4148 -1.2992  0.4343
 8793TIP3    H226344   3.921   2.276   4.808  3.1194 -2.2446 -0.1457
 8794TIP3   OH226345   6.494   1.714   3.154  0.6215 -0.0934  0.7052
 8794TIP3    H126346   6.537   1.671   3.080  0.1317 -0.1917  0.4740
 8794TIP3    H226347   6.409   1.671   3.161 -0.3918  1.6595 -0.3110
 8795TIP3   OH226348   2.126   3.465   2.606  0.4495  0.5377 -0.5928
 8795TIP3    H126349   2.106   3.380   2.643  1.7233  0.9252  1.1685
 8795TIP3    H226350   2.041   3.507   2.593 -0.1284 -0.4250 -0.0386
 8796TIP3   OH226351   6.169   3.797   0.742  0.1320 -0.2669  0.6826
 8796TIP3    H126352   6.209   3.821   0.658  0.0568 -0.7109  0.5168
 8796TIP3    H226353   6.215   3.850   0.807  0.1654  0.1067  0.3557
 8797TIP3   OH226354   1.431   6.597   1.091  0.0189  0.0603  0.1911
 8797TIP3    H126355   1.455   6.592   0.999  0.8511 -1.3969  0.4584
 8797TIP3    H226356   1.472   6.520   1.131 -0.1950  0.7374  1.8042
 8798TIP3   OH226357   3.784   3.642   1.137  0.3814 -0.1635  0.1749
 8798TIP3    H126358   3.693   3.643   1.165  0.7036  1.5526  1.3217
 8798TIP3    H226359   3.782   3.605   1.049 -1.3328 -0.7383  0.4203
 8799TIP3   OH226360   5.333   3.321   2.267  0.2650 -0.2543  0.1035
 8799TIP3    H126361   5.352   3.317   2.360  0.6644 -0.2265  0.0263
 8799TIP3    H226362   5.345   3.413   2.243 -0.6793 -0.1033  0.1953
 8800TIP3   OH226363   3.693   6.588   3.148 -0.8140 -0.1514  0.0091
 8800TIP3    H126364   3.685   6.500   3.113 -0.5016  0.7139 -2.4145
 8800TIP3    H226365   3.778   6.589   3.193 -0.2077 -0.7330 -1.0978
 8801TIP3   OH226366   1.563   2.991   5.314  0.5942 -0.2517  0.3950
 8801TIP3    H126367   1.636   3.050   5.334  0.3443  0.2126 -0.0235
 8801TIP3    H226368   1.519   2.977   5.398 -1.8267  3.4959  0.0164
 8802TIP3   OH226369   3.388   0.168   4.492 -0.2457  0.4472 -0.4813
 8802TIP3    H126370   3.469   0.118   4.504 -0.8634 -0.7195 -0.9569
 8802TIP3    H226371   3.412   0.237   4.430  0.4187  0.1934 -0.5177
 8803TIP3   OH226372   7.108   0.736   1.712 -0.2463 -0.0244 -0.3532
 8803TIP3    H126373   7.098   0.675   1.786  0.8951  1.3972  1.0424
 8803TIP3    H226374   7.200   0.729   1.688 -0.5623 -0.3246 -1.5702
 8804TIP3   OH226375   5.530   2.040   3.981  0.6929 -0.6284  0.4181
 8804TIP3    H126376   5.477   1.968   3.949  0.7979 -0.1752 -0.8229
 8804TIP3    H226377   5.471   2.116   3.981  1.3570 -0.0646 -1.2162
 8805TIP3   OH226378   3.265   4.114   4.762  0.7246  0.8470  0.5675
 8805TIP3    H126379   3.178   4.081   4.738  0.5011  0.5087  1.7577
 8805TIP3    H226380   3.326   4.050   4.725  0.7016  2.6459 -2.9229
 8806TIP3   OH226381   6.671   4.148   1.345 -0.4064 -0.1326 -0.3188
 8806TIP3    H126382   6.699   4.097   1.422  0.1399  0.3769 -0.1691
 8806TIP3    H226383   6.579   4.125   1.333 -0.9058  0.8191  1.3464
 8807TIP3   OH226384   1.971   0.822   0.959  0.0720 -0.3816  0.2953
 8807TIP3    H126385   2.057   0.821   1.002 -1.2530 -1.6739  3.1825
 8807TIP3    H226386   1.970   0.741   0.907  0.4705 -0.5512  0.5475
 8808TIP3   OH226387   3.054   5.255   4.302  0.0135 -0.0196 -0.3180
 8808TIP3    H126388   3.144   5.251   4.334  0.9498 -0.0907 -2.7875
 8808TIP3    H226389   3.035   5.348   4.294 -0.4889  0.0201  0.9917
 8809TIP3   OH226390   3.548   2.680   3.687  0.1181  0.2412  0.7305
 8809TIP3    H126391   3.547   2.707   3.595 -0.6192  0.3088  0.7552
 8809TIP3    H226392   3.639   2.654   3.703 -0.0457 -1.2271 -0.4398
 8810TIP3   OH226393   1.143   5.583   0.096 -0.0944  0.0353  0.0760
 8810TIP3    H126394   1.198   5.505   0.102  1.5421  1.1228 -0.0823
 8810TIP3    H226395   1.069   5.565   0.155  1.5514 -0.6194  2.0624
 8811TIP3   OH226396   6.667   2.265   3.245  0.1526  0.0591  0.2411
 8811TIP3    H126397   6.704   2.280   3.158 -0.5281  0.5937  0.0316
 8811TIP3    H226398   6.623   2.347   3.266 -2.0798 -0.9829 -0.1132
 8812TIP3   OH226399   6.028   5.269   4.907 -0.0432 -0.3323  0.7347
 8812TIP3    H126400   6.076   5.352   4.915 -0.5829  0.1702 -0.8859
 8812TIP3    H226401   5.987   5.273   4.821 -0.8277 -1.9110  0.9978
 8813TIP3   OH226402   0.133   4.086   1.095 -0.0181  0.0881 -0.0841
 8813TIP3    H126403   0.102   4.052   1.011 -1.1904  0.2753  0.2471
 8813TIP3    H226404   0.221   4.118   1.077  0.0963 -0.7081 -1.0232
 8814TIP3   OH226405   5.649   4.834   1.997  0.1329 -0.4203  1.4392
 8814TIP3    H126406   5.678   4.912   1.950 -0.3385 -1.3026 -0.4124
 8814TIP3    H226407   5.630   4.865   2.085 -0.2755  1.6163  0.6906
 8815TIP3   OH226408   1.415   2.355   1.028 -0.8116  0.3946  0.2600
 8815TIP3    H126409   1.327   2.390   1.045 -0.5762  2.0288 -1.5301
 8815TIP3    H226410   1.471   2.400   1.090 -1.2025 -0.6460  1.4038
 8816TIP3   OH226411   3.829   2.207   1.396 -0.1025 -0.2863  0.4915
 8816TIP3    H126412   3.822   2.137   1.332  1.0082  0.1204 -0.0994
 8816TIP3    H226413   3.881   2.170   1.467 -0.0368 -0.2556  0.4595
 8817TIP3   OH226414   0.162   1.194   2.476 -0.6126 -0.3084  0.5859
 8817TIP3    H126415   0.215   1.191   2.397  0.0112  1.1656  0.9316
 8817TIP3    H226416   0.074   1.218   2.445  0.0009  1.9694  0.4741
 8818TIP3   OH226417   6.964   3.054   2.980 -0.3590 -0.1612  0.0455
 8818TIP3    H126418   6.887   3.067   3.036 -0.2769 -0.8066  0.3089
 8818TIP3    H226419   7.038   3.056   3.040 -0.1390  0.6777 -0.2344
 8819TIP3   OH226420   0.641   3.845   3.320 -0.1417 -0.3551  0.0228
 8819TIP3    H126421   0.585   3.783   3.366 -0.6937  0.7652  0.9244
 8819TIP3    H226422   0.713   3.792   3.286 -0.3712 -1.4141  1.1295
 8820TIP3   OH226423   6.552   3.300   4.734  0.2353  0.1619 -0.1510
 8820TIP3    H126424   6.519   3.382   4.696 -1.1382 -0.0272  0.5499
 8820TIP3    H226425   6.620   3.271   4.674 -0.2301  1.0999 -1.1620
 8821TIP3   OH226426   5.581   2.375   3.736  0.4814  0.1815  1.0762
 8821TIP3    H126427   5.623   2.289   3.742 -0.9449 -0.6339 -0.0793
 8821TIP3    H226428   5.625   2.418   3.663  1.2034  0.4473  1.6614
 8822TIP3   OH226429   5.611   0.718   1.592  0.6380  0.8153  0.3255
 8822TIP3    H126430   5.664   0.759   1.660 -0.1152  0.9570  0.8344
 8822TIP3    H226431   5.555   0.656   1.639  0.5880  0.4167 -0.2464
 8823TIP3   OH226432   1.018   0.407   3.038 -0.2312 -0.7832  0.3469
 8823TIP3    H126433   0.940   0.362   3.008 -0.2635 -1.1920  1.0208
 8823TIP3    H226434   1.088   0.343   3.030  0.0702 -0.3792 -0.3751
 8824TIP3   OH226435   2.418   6.331   0.314 -0.7812  0.2011  0.0090
 8824TIP3    H126436   2.435   6.242   0.345 -0.9161  0.5678  1.1968
 8824TIP3    H226437   2.452   6.387   0.384 -1.0211  1.0738 -0.5658
 8825TIP3   OH226438   6.543   2.758   1.397 -0.2976  0.7103 -0.3181
 8825TIP3    H126439   6.568   2.834   1.448 -3.6400  1.2796  0.7107
 8825TIP3    H226440   6.468   2.787   1.344 -0.8287 -1.4840 -0.8998
 8826TIP3   OH226441   4.911   3.145   5.512  0.3528  0.5259  0.1485
 8826TIP3    H126442   4.972   3.074   5.495 -0.8391 -0.2546 -1.0929
 8826TIP3    H226443   4.914   3.199   5.432 -3.2397 -1.6091 -1.6718
 8827TIP3   OH226444   0.143   4.657   0.743 -0.0215 -0.0295  0.2243
 8827TIP3    H126445   0.196   4.653   0.822  2.8594 -1.3235 -1.6019
 8827TIP3    H226446   0.154   4.572   0.701 -0.9988  0.7707 -1.8375
 8828TIP3   OH226447   4.226   3.061   0.822  0.4453 -0.6747 -0.7598
 8828TIP3    H126448   4.168   3.031   0.892 -0.4445  0.7958 -0.8126
 8828TIP3    H226449   4.314   3.043   0.854  0.0302 -0.6219  0.4590
 8829TIP3   OH226450   6.616   1.986   2.839  0.2134  0.2151 -0.6641
 8829TIP3    H126451   6.596   1.928   2.765 -1.1116  0.1605 -0.2861
 8829TIP3    H226452   6.698   1.952   2.875 -0.7339 -1.7242 -0.1943
 8830TIP3   OH226453   3.726   3.098   5.663 -0.3377 -0.0484 -0.6439
 8830TIP3    H126454   3.778   3.050   5.727  0.9013  3.0375  0.9015
 8830TIP3    H226455   3.653   3.040   5.642  1.1609 -2.6306  0.7979
 8831TIP3   OH226456   3.352   1.278   5.017  0.0397 -0.3521 -0.6722
 8831TIP3    H126457   3.367   1.355   4.963  3.9167 -0.2614  0.2002
 8831TIP3    H226458   3.359   1.310   5.107 -0.5719 -1.3882 -0.2326
 8832TIP3   OH226459   5.487   1.726   4.737 -0.2408  0.1110  0.4653
 8832TIP3    H126460   5.564   1.689   4.778  1.0362  0.9925 -1.0145
 8832TIP3    H226461   5.518   1.808   4.697 -1.6382 -0.1215 -1.2108
 8833TIP3   OH226462   5.276   2.513   2.346 -0.2739  0.0931  0.4796
 8833TIP3    H126463   5.194   2.485   2.387 -0.1305  0.0384  0.7321
 8833TIP3    H226464   5.286   2.456   2.270  0.2159 -0.8231  1.2069
 8834TIP3   OH226465   0.037   3.383   0.548 -0.5446  0.1385 -0.2310
 8834TIP3    H126466  -0.050   3.423   0.551 -0.1525  1.3245 -2.2904
 8834TIP3    H226467   0.096   3.453   0.577 -0.1991 -0.4045  0.4033
 8835TIP3   OH226468   1.244   2.741   5.195 -0.7052 -0.3332  0.4713
 8835TIP3    H126469   1.312   2.675   5.210  0.2960  0.6850  0.5669
 8835TIP3    H226470   1.184   2.730   5.269  0.2185 -0.2023  1.2622
 8836TIP3   OH226471   2.879   3.184   5.835 -0.3860  0.4009  0.5949
 8836TIP3    H126472   2.946   3.148   5.893  0.2988  1.0993  0.2578
 8836TIP3    H226473   2.907   3.274   5.818 -1.7620  0.9321  0.9664
 8837TIP3   OH226474   6.634   0.907   5.719  0.1804 -0.9486 -0.3282
 8837TIP3    H126475   6.662   0.817   5.736 -1.3902 -1.2561  0.8487
 8837TIP3    H226476   6.650   0.953   5.801  0.2947 -0.3326 -0.6950
 8838TIP3   OH226477   2.196   1.895   0.394  0.0969 -0.4756 -0.6478
 8838TIP3    H126478   2.231   1.816   0.436 -1.5921 -1.0705 -0.2561
 8838TIP3    H226479   2.147   1.862   0.319 -3.1752 -0.2209  1.1540
 8839TIP3   OH226480   5.788   4.540   3.190  0.0109  0.1069  0.3944
 8839TIP3    H126481   5.796   4.497   3.275  1.1426  0.8583  0.6995
 8839TIP3    H226482   5.833   4.481   3.130 -0.1997 -0.1032  0.4420
 8840TIP3   OH226483   2.353   1.758   4.369  0.3672  0.2420 -0.3723
 8840TIP3    H126484   2.285   1.691   4.366  0.4277  0.0426  1.5922
 8840TIP3    H226485   2.435   1.711   4.354  0.1970  0.3664 -1.9305
 8841TIP3   OH226486   1.363   3.448   0.035 -0.3113  0.0473  0.4155
 8841TIP3    H126487   1.451   3.471   0.067  0.4615 -1.9955 -0.1127
 8841TIP3    H226488   1.371   3.451  -0.060 -0.5146 -1.0989  0.3481
 8842TIP3   OH226489   5.914   2.250   3.670 -0.0522  0.0259 -0.4476
 8842TIP3    H126490   5.979   2.293   3.727 -0.1405 -0.7908  0.2976
 8842TIP3    H226491   5.958   2.244   3.585 -0.2985  2.1955 -0.7950
 8843TIP3   OH226492   6.960   3.770   1.714 -0.6675  0.7820  0.0316
 8843TIP3    H126493   7.018   3.815   1.775 -1.2354 -0.7174  1.7973
 8843TIP3    H226494   6.888   3.739   1.769 -1.2603 -0.5742 -1.4299
 8844TIP3   OH226495   6.847   2.151   5.701  0.7789 -0.6590 -0.7556
 8844TIP3    H126496   6.836   2.202   5.620  1.7765  0.5553 -0.1574
 8844TIP3    H226497   6.788   2.192   5.763  1.0491 -0.6939 -0.4760
 8845TIP3   OH226498   1.574   0.524   4.352 -0.0819 -0.3493 -0.4094
 8845TIP3    H126499   1.526   0.482   4.280 -0.4264 -1.1724  0.2918
 8845TIP3    H226500   1.638   0.459   4.380 -0.2707 -0.2125  0.3526
 8846TIP3   OH226501   4.704   5.301   2.928 -0.2512 -0.3835  0.2302
 8846TIP3    H126502   4.650   5.223   2.944  0.0911 -0.4677  1.0402
 8846TIP3    H226503   4.794   5.269   2.934 -0.1015 -0.2059 -0.9189
 8847TIP3   OH226504   1.498   3.126   1.076  0.4830  0.6238  0.3426
 8847TIP3    H126505   1.591   3.125   1.053  0.1781 -1.5148 -1.0860
 8847TIP3    H226506   1.478   3.035   1.099 -0.8938  1.3733  2.3374
 8848TIP3   OH226507   0.258   0.756   4.613 -0.2480  0.3136 -0.1145
 8848TIP3    H126508   0.290   0.835   4.656 -2.0005  0.3599  1.2121
 8848TIP3    H226509   0.205   0.712   4.679 -1.0664 -0.8707 -1.4953
 8849TIP3   OH226510   1.315   5.080   2.162 -0.6398 -0.5751 -0.1064
 8849TIP3    H126511   1.375   5.135   2.211 -0.8145  1.2177 -1.7992
 8849TIP3    H226512   1.365   5.001   2.141  0.9069  0.5469 -0.8196
 8850TIP3   OH226513   6.022   5.011   4.253 -0.2356 -0.5349 -0.5888
 8850TIP3    H126514   6.027   5.086   4.194  2.2187 -0.6886 -0.6601
 8850TIP3    H226515   6.018   4.935   4.195 -0.0171 -0.5833 -0.5403
 8851TIP3   OH226516   7.003   2.156   3.730  0.4269 -1.0024  0.5337
 8851TIP3    H126517   7.034   2.086   3.672 -1.3116 -0.1081 -1.6206
 8851TIP3    H226518   7.063   2.229   3.714  0.0413 -0.8078 -0.0766
 8852TIP3   OH226519   4.957   1.804   2.380 -0.1870  0.2808 -0.9644
 8852TIP3    H126520   4.982   1.861   2.453  2.1000  0.6684 -1.9635
 8852TIP3    H226521   4.983   1.716   2.408 -0.4973  0.2384 -0.8074
 8853TIP3   OH226522   0.043   5.214   2.742  0.2066  0.1619  0.5512
 8853TIP3    H126523   0.064   5.185   2.831  1.1636  0.4717  0.4372
 8853TIP3    H226524   0.040   5.310   2.748  0.8838  0.2154  0.1272
 8854TIP3   OH226525   2.990   1.008   1.242  0.0317 -0.4618  0.3361
 8854TIP3    H126526   3.017   1.098   1.224 -1.2875  0.3014  1.9173
 8854TIP3    H226527   3.069   0.966   1.277  0.2065  0.6109  1.2780
 8855TIP3   OH226528   4.291   4.106   0.155  0.4760  0.2510  0.2936
 8855TIP3    H126529   4.313   4.014   0.173  0.9758  0.2459 -0.3203
 8855TIP3    H226530   4.328   4.123   0.069  0.5382  1.0848  0.4788
 8856TIP3   OH226531   5.472   2.683   0.629  0.5157  0.5376  0.2871
 8856TIP3    H126532   5.514   2.647   0.551 -1.3147  0.2093 -0.6091
 8856TIP3    H226533   5.536   2.745   0.665  2.4257 -1.1735  0.0090
 8857TIP3   OH226534   0.391   3.113   4.368 -0.5947 -0.3475 -0.0238
 8857TIP3    H126535   0.312   3.107   4.421 -0.8015 -1.3352 -0.4154
 8857TIP3    H226536   0.463   3.115   4.431 -0.9495  1.6520  0.3755
 8858TIP3   OH226537   4.251   3.873   3.082  0.3777 -0.5511 -0.1575
 8858TIP3    H126538   4.299   3.865   3.000 -0.0034  0.4890 -0.5033
 8858TIP3    H226539   4.163   3.841   3.062  0.4114 -0.7226 -0.0327
 8859TIP3   OH226540   3.994   4.110   4.048  0.2245 -0.1276 -0.2536
 8859TIP3    H126541   4.080   4.136   4.082  0.3951  0.2945 -0.9860
 8859TIP3    H226542   3.987   4.154   3.964 -1.1551  0.7248  0.2553
 8860TIP3   OH226543   2.997   0.575   1.204 -0.1697  0.1450  0.0341
 8860TIP3    H126544   3.067   0.589   1.140 -0.2121 -0.0931 -0.0652
 8860TIP3    H226545   3.035   0.602   1.288  0.5065 -1.2801  0.2091
 8861TIP3   OH226546   2.347   4.416   3.229 -0.4270 -0.2453  0.3195
 8861TIP3    H126547   2.345   4.406   3.324  1.0531  1.7618  0.6256
 8861TIP3    H226548   2.306   4.336   3.196 -1.3130 -0.8312  2.6278
 8862TIP3   OH226549   2.527   2.974   1.979 -0.0357  0.1708 -0.1939
 8862TIP3    H126550   2.538   2.899   2.038  0.2202 -0.0176 -0.4763
 8862TIP3    H226551   2.614   3.014   1.975  0.4679 -0.9721 -1.9729
 8863TIP3   OH226552   6.569   2.839   0.145  0.2636 -0.3416  0.5934
 8863TIP3    H126553   6.596   2.906   0.081 -0.6573 -1.1364 -0.6751
 8863TIP3    H226554   6.526   2.888   0.215  0.9841  0.5179  0.4582
 8864TIP3   OH226555   0.781   4.690   2.506  0.1415  0.0172 -0.2132
 8864TIP3    H126556   0.816   4.742   2.434  0.2760  0.4536  0.1717
 8864TIP3    H226557   0.768   4.752   2.577 -2.7289  0.1851 -0.7637
 8865TIP3   OH226558   0.802   4.519   1.012  0.3754 -0.2477 -0.0472
 8865TIP3    H126559   0.805   4.581   1.084  1.0463 -0.4588  0.1161
 8865TIP3    H226560   0.894   4.503   0.989  0.1671  0.3008 -1.3785
 8866TIP3   OH226561   5.970   3.741   2.939 -0.0324 -0.2100 -0.4391
 8866TIP3    H126562   5.913   3.666   2.923  0.3010 -0.3335 -1.0540
 8866TIP3    H226563   5.924   3.792   3.006 -0.4452 -0.7568 -0.3008
 8867TIP3   OH226564   6.983   6.587   4.761  0.0265 -0.8394  0.0207
 8867TIP3    H126565   6.941   6.624   4.838 -1.7599 -1.0522 -0.7841
 8867TIP3    H226566   7.064   6.548   4.793 -0.5386 -0.6776  1.7251
 8868TIP3   OH226567   4.967   5.115   1.838  0.1346  0.2411  0.2436
 8868TIP3    H126568   5.060   5.112   1.863 -0.3080  0.6318  2.1116
 8868TIP3    H226569   4.957   5.041   1.777  1.7273  0.4049 -0.2714
 8869TIP3   OH226570   3.317   6.339   1.585 -0.1420  0.2857 -0.8228
 8869TIP3    H126571   3.223   6.338   1.605 -0.4131  4.1213 -1.1912
 8869TIP3    H226572   3.359   6.305   1.664 -1.7573 -0.1615 -0.1132
 8870TIP3   OH226573   7.244   5.177   3.011 -0.3996  0.6199  0.1446
 8870TIP3    H126574   7.161   5.217   3.035 -0.3328  0.0179  1.4728
 8870TIP3    H226575   7.234   5.084   3.033 -0.0059  0.1713 -1.4148
 8871TIP3   OH226576   0.459   0.394   0.767  0.0042 -0.4239  0.2422
 8871TIP3    H126577   0.518   0.331   0.808 -0.1121  0.2078  1.4164
 8871TIP3    H226578   0.517   0.460   0.729  0.0821 -0.4740  0.2737
 8872TIP3   OH226579  -0.019   4.768   5.383  0.1916 -0.6218  0.0169
 8872TIP3    H126580  -0.009   4.760   5.478  0.9408 -0.4635 -0.0477
 8872TIP3    H226581   0.047   4.709   5.347 -0.7481 -1.4442 -0.4148
 8873TIP3   OH226582   6.196   2.825   2.672 -0.5059  0.9027 -0.3199
 8873TIP3    H126583   6.214   2.732   2.659 -0.0821  0.8479  0.5952
 8873TIP3    H226584   6.101   2.830   2.683 -0.6200  0.6824 -1.1522
 8874TIP3   OH226585   3.888   4.303   4.461 -0.7678 -0.2862  0.3377
 8874TIP3    H126586   3.954   4.239   4.436  0.6532  1.9773 -2.2897
 8874TIP3    H226587   3.805   4.267   4.430 -0.4763 -2.0650  1.5001
 8875TIP3   OH226588   3.077   3.698   3.155 -0.3630  0.2486 -0.3434
 8875TIP3    H126589   3.119   3.622   3.115 -2.3821  0.1084 -2.3594
 8875TIP3    H226590   2.991   3.666   3.182  0.2124  0.8592  2.4957
 8876TIP3   OH226591   2.842   3.037   3.992  0.6922  0.3662  0.6717
 8876TIP3    H126592   2.831   3.116   3.939  0.7969  1.3631  2.0605
 8876TIP3    H226593   2.848   3.070   4.082  0.4403 -1.2589  1.3164
 8877TIP3   OH226594   5.244   0.714   1.585 -0.2057 -0.1661 -0.2038
 8877TIP3    H126595   5.280   0.802   1.575 -1.6737  0.3600 -1.2566
 8877TIP3    H226596   5.194   0.700   1.504 -0.6878 -1.6282  0.3224
 8878TIP3   OH226597   4.812   1.098   3.302  0.7587 -0.1510 -0.4075
 8878TIP3    H126598   4.878   1.084   3.370  0.1990 -0.3575  0.1007
 8878TIP3    H226599   4.824   1.025   3.241  0.9623 -0.2171 -0.2886
 8879TIP3   OH226600   3.046   3.575   5.920 -0.8624 -0.4164 -0.1283
 8879TIP3    H126601   3.084   3.661   5.901 -2.0913  0.2621  0.3803
 8879TIP3    H226602   3.024   3.539   5.834 -2.1152  0.6313 -0.2762
 8880TIP3   OH226603   1.952   4.936   4.614 -0.4095 -0.1267  0.1939
 8880TIP3    H126604   1.867   4.917   4.575  0.4873 -0.8125 -1.5008
 8880TIP3    H226605   1.969   4.860   4.671 -0.6132 -0.3150  0.0053
 8881TIP3   OH226606   2.574   6.609   4.713 -0.0917 -0.1489  0.1596
 8881TIP3    H126607   2.508   6.587   4.648 -0.2629  1.0480 -0.0986
 8881TIP3    H226608   2.527   6.606   4.797 -0.6580  1.3045 -0.0793
 8882TIP3   OH226609   2.838   1.410   2.876  0.2283  0.3095 -0.2578
 8882TIP3    H126610   2.873   1.431   2.962  1.4514 -1.4876 -0.2741
 8882TIP3    H226611   2.820   1.316   2.879  1.1097  0.0233 -2.2242
 8883TIP3   OH226612   1.061   3.060   3.572 -0.1237  0.8689  0.4568
 8883TIP3    H126613   1.119   3.001   3.620 -0.0035  0.5168 -0.1077
 8883TIP3    H226614   1.118   3.100   3.507 -0.6367  0.0145 -0.5517
 8884TIP3   OH226615   2.664   5.543   1.562 -0.1802 -0.1075  0.0460
 8884TIP3    H126616   2.689   5.527   1.653 -0.8192  0.9958  0.4343
 8884TIP3    H226617   2.657   5.638   1.555 -0.0270 -0.1676 -1.1940
 8885TIP3   OH226618   4.445   0.630   4.605 -0.3108 -0.4744  0.2044
 8885TIP3    H126619   4.464   0.661   4.694  0.2071 -1.3310  0.4052
 8885TIP3    H226620   4.359   0.666   4.585  0.8859  2.4410 -0.2259
 8886TIP3   OH226621   2.875   2.910   5.698 -0.2354  0.2135 -0.6057
 8886TIP3    H126622   2.867   2.995   5.740  0.5549  0.5858 -1.1994
 8886TIP3    H226623   2.826   2.918   5.616  0.8962  0.5067 -1.2643
 8887TIP3   OH226624   3.821   0.107   3.846  0.2181  0.5630  0.0613
 8887TIP3    H126625   3.874   0.099   3.925  0.4097  1.1382 -0.0025
 8887TIP3    H226626   3.831   0.199   3.820  1.3362  0.0571 -1.4558
 8888TIP3   OH226627   2.098   1.996   3.052 -0.0557  0.3202 -0.4011
 8888TIP3    H126628   2.172   1.966   2.999  0.3286  1.1296 -0.3301
 8888TIP3    H226629   2.077   1.921   3.108  1.3498  0.4008  0.2781
 8889TIP3   OH226630   5.300   4.674   2.994 -0.0291 -0.4462  0.3560
 8889TIP3    H126631   5.332   4.755   3.032 -0.4677 -0.3183  0.4607
 8889TIP3    H226632   5.378   4.620   2.983  0.3176  0.1183 -0.0449
 8890TIP3   OH226633   5.336   4.519   0.703 -0.1685 -0.0664  0.0679
 8890TIP3    H126634   5.254   4.527   0.752  1.4827  1.3927  2.8269
 8890TIP3    H226635   5.311   4.536   0.612 -3.1591 -1.4453  0.5099
 8891TIP3   OH226636   5.965   0.536   4.848  0.0719  0.1805 -0.2711
 8891TIP3    H126637   6.012   0.468   4.897 -0.1084  0.3802  0.1783
 8891TIP3    H226638   5.961   0.611   4.908 -1.6594 -0.1442  0.0603
 8892TIP3   OH226639   1.896   0.059   5.369 -0.1890  0.3775 -0.2570
 8892TIP3    H126640   1.974   0.006   5.388  0.1373  0.7776 -0.4675
 8892TIP3    H226641   1.828   0.023   5.427  0.1160 -0.0558 -0.1641
 8893TIP3   OH226642   0.924   2.534   3.920  0.5293  0.0445 -0.5635
 8893TIP3    H126643   0.836   2.562   3.945  0.7177  1.3422 -1.2783
 8893TIP3    H226644   0.934   2.448   3.961 -0.3083  0.7366  1.1934
 8894TIP3   OH226645   3.592   5.584   4.556 -0.4330  0.1419 -0.2665
 8894TIP3    H126646   3.627   5.615   4.639 -2.1804 -0.7330  0.8503
 8894TIP3    H226647   3.533   5.513   4.580 -0.9503 -0.1610 -2.2675
 8895TIP3   OH226648   3.769   2.737   2.295 -0.1312 -0.1375 -0.0165
 8895TIP3    H126649   3.691   2.750   2.241 -0.1053  1.6724  0.3306
 8895TIP3    H226650   3.740   2.678   2.364 -0.4063 -1.7575 -1.4299
 8896TIP3   OH226651   5.232   6.171   0.841  0.0983  0.1168  0.1281
 8896TIP3    H126652   5.198   6.249   0.797  1.0324  0.0871 -0.6917
 8896TIP3    H226653   5.327   6.183   0.842  0.1216  0.1248  2.2204
 8897TIP3   OH226654   6.479   1.978   5.226  0.0545  0.6573  0.3647
 8897TIP3    H126655   6.439   1.912   5.170  0.6440 -0.2422  0.9840
 8897TIP3    H226656   6.411   1.999   5.290 -0.5402  1.5230 -0.5287
 8898TIP3   OH226657   5.179   0.238   3.836 -0.4909  0.5125  0.6172
 8898TIP3    H126658   5.139   0.323   3.819  0.1335  0.4705 -1.2404
 8898TIP3    H226659   5.273   0.255   3.833 -0.3650 -0.2191  0.3381
 8899TIP3   OH226660   3.194   1.196   4.685  0.2066  0.3400 -0.5411
 8899TIP3    H126661   3.163   1.287   4.682 -1.7509 -0.3139 -2.4651
 8899TIP3    H226662   3.237   1.183   4.600  0.9488 -0.3942 -0.0676
 8900TIP3   OH226663   2.365   0.975   2.362 -0.6405  0.3759  0.0149
 8900TIP3    H126664   2.359   1.021   2.445  0.7055  3.0677 -1.2801
 8900TIP3    H226665   2.292   1.009   2.310 -0.7548 -0.3911 -0.3525
 8901TIP3   OH226666   6.194   6.398   3.708  0.0704 -0.1921  0.4950
 8901TIP3    H126667   6.246   6.470   3.744 -0.2293  0.2433  0.0580
 8901TIP3    H226668   6.203   6.407   3.613 -2.2834  1.0105  0.3148
 8902TIP3   OH226669   3.097   4.268   3.652  0.1787 -0.0733  0.0879
 8902TIP3    H126670   3.008   4.267   3.686 -0.0092  2.1588 -0.1869
 8902TIP3    H226671   3.152   4.241   3.727 -0.5397  0.8890  0.9819
 8903TIP3   OH226672   4.705   6.534   4.679  0.1920 -0.0994 -0.7551
 8903TIP3    H126673   4.797   6.551   4.662  0.0759  2.7458  0.8905
 8903TIP3    H226674   4.670   6.618   4.709 -3.2481 -0.7357 -2.4558
 8904TIP3   OH226675   6.139   0.711   0.546  0.4537  0.2355 -0.1394
 8904TIP3    H126676   6.214   0.770   0.557  1.2148 -0.7887  0.2828
 8904TIP3    H226677   6.151   0.674   0.458  0.2533  0.3185 -0.2027
 8905TIP3   OH226678   2.423   3.012   4.345  0.3086 -0.6435 -0.0214
 8905TIP3    H126679   2.410   3.101   4.377  0.9911 -1.1182  1.7475
 8905TIP3    H226680   2.446   3.022   4.253  0.8794  1.0474  0.2664
 8906TIP3   OH226681   0.015   6.398   2.593 -0.0832 -0.0995 -0.4980
 8906TIP3    H126682   0.020   6.400   2.689  0.2321  1.4382 -0.5220
 8906TIP3    H226683   0.106   6.401   2.564 -0.2139  1.2092 -0.8356
 8907TIP3   OH226684   2.021   3.047   0.101 -0.5700 -0.1049  0.2572
 8907TIP3    H126685   1.960   3.047   0.028  1.6369 -0.6243 -1.7133
 8907TIP3    H226686   2.018   2.957   0.135  0.1666 -0.5541 -0.8216
 8908TIP3   OH226687   0.260   0.045   0.478  0.1405  0.2818 -0.5679
 8908TIP3    H126688   0.301   0.131   0.479 -0.1835  0.5217 -2.5411
 8908TIP3    H226689   0.182   0.057   0.424 -0.8088 -0.8853  0.5039
 8909TIP3   OH226690   2.601   1.423   3.360 -0.0082  0.4837  0.3732
 8909TIP3    H126691   2.627   1.484   3.428 -1.8247  0.5692  1.0580
 8909TIP3    H226692   2.580   1.479   3.285 -0.5481  0.6313  0.6245
 8910TIP3   OH226693   0.367   5.354   0.381 -0.1332  0.4819  0.1182
 8910TIP3    H126694   0.449   5.316   0.350  0.5713  0.0245  2.3462
 8910TIP3    H226695   0.349   5.426   0.320  1.8308  0.4858 -0.5155
 8911TIP3   OH226696   4.065   5.555   3.212  0.3677  0.0857  0.2724
 8911TIP3    H126697   4.118   5.634   3.215  0.4079  0.1059 -0.7241
 8911TIP3    H226698   4.126   5.486   3.184  0.1872 -0.1753  0.5118
 8912TIP3   OH226699   2.797   4.289   4.670 -0.1736  0.0879  0.1587
 8912TIP3    H126700   2.776   4.196   4.659  0.0906  0.1003 -0.4876
 8912TIP3    H226701   2.892   4.294   4.661  0.1599  0.0782  2.7533
 8913TIP3   OH226702   4.971   0.696   3.181 -0.3013  0.0573 -0.5576
 8913TIP3    H126703   4.912   0.642   3.234  1.1430  0.7128  1.8652
 8913TIP3    H226704   4.914   0.761   3.139 -1.6073 -1.0868 -0.6366
 8914TIP3   OH226705   1.814   5.764   1.215 -0.2550  0.0448  0.3773
 8914TIP3    H126706   1.736   5.814   1.238 -0.5292 -0.9877  1.8478
 8914TIP3    H226707   1.786   5.707   1.143  0.1105  2.0395 -1.4369
 8915TIP3   OH226708   0.285   0.530   2.253 -0.0720  0.1914  0.2595
 8915TIP3    H126709   0.283   0.575   2.169 -1.4305  0.0773  0.2168
 8915TIP3    H226710   0.348   0.579   2.305 -0.5915  1.3851 -0.2099
 8916TIP3   OH226711   4.508   5.726   2.750 -0.2857  0.0213 -0.6067
 8916TIP3    H126712   4.471   5.666   2.685 -0.7583  0.9894 -1.2536
 8916TIP3    H226713   4.460   5.808   2.738  2.4445  1.5857 -1.9467
 8917TIP3   OH226714   3.108   0.129   1.518 -0.5117 -0.4283 -0.1094
 8917TIP3    H126715   3.042   0.086   1.572  0.3167 -0.6313  0.7735
 8917TIP3    H226716   3.191   0.093   1.550 -0.0072 -0.6020 -1.5712
 8918TIP3   OH226717   4.012   4.756   2.951  0.2564  0.3815  0.1111
 8918TIP3    H126718   4.059   4.813   3.012  1.3187  0.9580 -1.2017
 8918TIP3    H226719   4.056   4.671   2.959  0.8168  0.6262 -0.2985
 8919TIP3   OH226720   0.408   0.262   0.525 -0.3037  0.4015  0.0526
 8919TIP3    H126721   0.491   0.217   0.539 -0.9404 -0.5051  1.0626
 8919TIP3    H226722   0.407   0.332   0.590  0.6592  1.9268 -1.4779
 8920TIP3   OH226723   0.586   4.325   1.987  0.1278  0.1049 -0.1467
 8920TIP3    H126724   0.630   4.242   2.004  1.9113  1.0733  0.2104
 8920TIP3    H226725   0.589   4.372   2.070  0.0020  0.9053 -0.5790
 8921TIP3   OH226726   6.414   3.400   2.442 -0.4533 -0.3245 -0.1299
 8921TIP3    H126727   6.430   3.468   2.377  1.1379 -0.7032 -0.1832
 8921TIP3    H226728   6.468   3.425   2.516  0.9104 -1.9778 -0.5076
 8922TIP3   OH226729   6.966   5.345   1.779  0.0305 -0.3187 -0.4235
 8922TIP3    H126730   6.971   5.436   1.751 -0.8970  0.3222  1.3218
 8922TIP3    H226731   6.872   5.324   1.773 -0.5223  0.3515  3.3535
 8923TIP3   OH226732   2.177   0.944   3.510  0.1126  0.0315  0.2964
 8923TIP3    H126733   2.204   0.939   3.418 -0.8483  1.7882 -0.1491
 8923TIP3    H226734   2.247   0.993   3.553  0.9316 -1.4439  0.7035
 8924TIP3   OH226735   3.283   5.303   2.723  0.0743  0.3312  0.2157
 8924TIP3    H126736   3.280   5.302   2.627 -1.8197 -0.0836  0.2262
 8924TIP3    H226737   3.222   5.372   2.748 -0.9979 -0.8699  1.0966
 8925TIP3   OH226738   0.226   0.507   2.529 -0.5386 -0.3317  0.6145
 8925TIP3    H126739   0.307   0.457   2.535 -0.3952 -0.1344  0.3319
 8925TIP3    H226740   0.215   0.525   2.436 -1.0538 -0.5951  0.6172
 8926TIP3   OH226741   2.202   1.672   1.422 -0.0720  0.3617  0.2318
 8926TIP3    H126742   2.250   1.735   1.368 -1.1172  0.8927 -0.1187
 8926TIP3    H226743   2.232   1.586   1.391  0.9950  0.6805  0.3653
 8927TIP3   OH226744   4.520   2.960   5.422 -0.5029  0.9651  0.2984
 8927TIP3    H126745   4.447   2.980   5.365 -1.2139 -2.0664 -0.0305
 8927TIP3    H226746   4.586   2.920   5.365 -0.4827 -0.4481  1.2536
 8928TIP3   OH226747   2.472   4.200   1.342  0.3092 -0.0964  0.4707
 8928TIP3    H126748   2.504   4.151   1.267 -1.3391  0.1405 -0.4385
 8928TIP3    H226749   2.448   4.133   1.406 -0.8472 -0.4616 -0.3145
 8929TIP3   OH226750   3.571   1.793   2.694  0.1636  0.0764  0.4512
 8929TIP3    H126751   3.596   1.707   2.659  3.3119  0.3762  1.5672
 8929TIP3    H226752   3.628   1.855   2.649 -1.0306  1.4056  0.7119
 8930TIP3   OH226753   0.986   3.689   2.337  0.6070  0.6513 -0.1296
 8930TIP3    H126754   1.063   3.680   2.281  0.1252  1.9018 -1.0293
 8930TIP3    H226755   1.017   3.737   2.413  0.4386  2.4615 -1.1612
 8931TIP3   OH226756   5.072   6.043   1.618  0.1935  0.0244 -0.1778
 8931TIP3    H126757   5.147   5.995   1.653 -0.0317 -0.1127  0.1259
 8931TIP3    H226758   5.104   6.083   1.537  0.5658 -0.1078 -0.0968
 8932TIP3   OH226759   1.503   5.502   1.744  0.0675  0.3155 -0.0948
 8932TIP3    H126760   1.550   5.441   1.687  1.0077  0.1015  0.8778
 8932TIP3    H226761   1.566   5.525   1.811 -0.7684  1.1916  0.4109
 8933TIP3   OH226762   5.549   6.310   0.284 -0.2241  0.0927  0.1389
 8933TIP3    H126763   5.557   6.220   0.252 -0.4207  0.3534 -0.6718
 8933TIP3    H226764   5.639   6.338   0.300 -0.2269 -0.9697  2.5646
 8934TIP3   OH226765   4.337   6.675   2.257  0.1919  0.1414  0.2766
 8934TIP3    H126766   4.390   6.665   2.178  0.0708 -0.7260  0.3001
 8934TIP3    H226767   4.333   6.587   2.294 -1.1264  0.2208  0.3610
 8935TIP3   OH226768   4.816   4.137   2.728  0.0117  0.2186  0.5931
 8935TIP3    H126769   4.869   4.195   2.782 -0.1646 -1.2192  2.4093
 8935TIP3    H226770   4.862   4.053   2.729 -1.6071 -0.7249  1.1952
 8936TIP3   OH226771   1.431   1.434   1.526  0.4068 -0.1528 -0.0213
 8936TIP3    H126772   1.347   1.391   1.511 -0.3388  0.7794  1.2389
 8936TIP3    H226773   1.474   1.382   1.594 -0.0439  0.4735  0.7619
 8937TIP3   OH226774   0.351   2.865   1.802 -0.1455 -0.0277  0.4686
 8937TIP3    H126775   0.296   2.876   1.725 -0.3715  1.4228  0.8181
 8937TIP3    H226776   0.393   2.950   1.814  0.1825 -0.3479  1.7086
 8938TIP3   OH226777   2.398   6.324   2.901  0.5958 -0.7334 -0.1631
 8938TIP3    H126778   2.476   6.311   2.955  1.4726  0.5376 -1.0409
 8938TIP3    H226779   2.432   6.357   2.818 -0.9224  0.8674 -0.2212
 8939TIP3   OH226780   6.778   3.311   2.488 -0.1117  0.4535 -0.7604
 8939TIP3    H126781   6.725   3.232   2.499 -1.3091  0.9082 -2.7329
 8939TIP3    H226782   6.727   3.380   2.530 -1.1365  0.8664 -2.5475
 8940TIP3   OH226783   6.383   0.237   1.595 -0.1973 -0.0720  0.3512
 8940TIP3    H126784   6.333   0.313   1.627 -1.2302  0.3989 -2.1580
 8940TIP3    H226785   6.363   0.233   1.501  0.8365 -2.7150  0.1616
 8941TIP3   OH226786   5.835   2.960   0.216  0.4876 -0.0579  0.0041
 8941TIP3    H126787   5.896   2.930   0.149 -0.2692  1.0205 -1.2153
 8941TIP3    H226788   5.862   2.914   0.296  2.5217 -0.0062 -0.6150
 8942TIP3   OH226789   2.828   2.243   1.545 -0.2450 -0.2634 -0.0564
 8942TIP3    H126790   2.905   2.208   1.590 -0.0887  1.6312  1.2529
 8942TIP3    H226791   2.771   2.167   1.534  2.1249 -1.9237 -1.9383
 8943TIP3   OH226792   1.008   1.298   5.803  0.2099 -0.5619  0.1791
 8943TIP3    H126793   1.101   1.321   5.813  0.0396  0.7459 -0.8611
 8943TIP3    H226794   1.008   1.225   5.742  0.6108 -1.4790  1.2426
 8944TIP3   OH226795   3.773   0.965   3.460  0.1303 -0.1845  0.4013
 8944TIP3    H126796   3.702   0.919   3.504  0.2358 -0.8631 -0.1118
 8944TIP3    H226797   3.847   0.958   3.521 -0.1486  0.2501  0.7959
 8945TIP3   OH226798   0.276   1.176   1.953 -0.0602 -0.3448  0.9018
 8945TIP3    H126799   0.321   1.213   1.877  1.5098  0.7401  2.2769
 8945TIP3    H226800   0.340   1.117   1.993 -1.2408 -1.7494  0.8235
 8946TIP3   OH226801   5.148   0.112   5.716  0.7150 -0.1698  0.0706
 8946TIP3    H126802   5.091   0.162   5.774 -1.2850 -0.2041 -1.7491
 8946TIP3    H226803   5.091   0.045   5.678  2.1135 -0.6280 -1.3529
 8947TIP3   OH226804   0.416   1.072   5.373 -0.4667 -0.1966  0.4594
 8947TIP3    H126805   0.429   1.086   5.280  1.4680  1.3502  0.8938
 8947TIP3    H226806   0.474   1.136   5.416 -0.8427 -1.2460  2.7109
 8948TIP3   OH226807   6.983   0.553   5.851  0.6568 -0.9077  0.3280
 8948TIP3    H126808   7.014   0.641   5.873  1.5656 -1.3101  0.7411
 8948TIP3    H226809   6.892   0.552   5.878  0.1946  0.3744 -1.0485
 8949TIP3   OH226810   5.777   0.845   1.769  0.2692 -0.1299 -0.5153
 8949TIP3    H126811   5.784   0.822   1.861 -1.1112  0.5197 -0.2187
 8949TIP3    H226812   5.746   0.936   1.768  0.7418  0.0441 -1.6196
 8950TIP3   OH226813   3.968   5.582   2.214 -0.4420  0.0642  0.3267
 8950TIP3    H126814   4.004   5.508   2.165 -2.2080  0.3418 -1.4939
 8950TIP3    H226815   4.025   5.589   2.291  1.1860 -1.6874 -0.6288
 8951TIP3   OH226816   4.732   1.785   4.051  0.5369 -0.4141 -0.2132
 8951TIP3    H126817   4.756   1.872   4.018 -0.8874 -0.0195 -0.2647
 8951TIP3    H226818   4.797   1.765   4.118  0.0645  1.3181  0.8015
 8952TIP3   OH226819   0.873   2.749   5.190 -0.4155  0.2216  0.0809
 8952TIP3    H126820   0.825   2.785   5.264 -0.0517 -0.6767  0.7699
 8952TIP3    H226821   0.960   2.730   5.224 -0.8561 -2.2279  0.0782
 8953TIP3   OH226822   6.482   6.254   5.203 -0.3547 -0.0682  0.0933
 8953TIP3    H126823   6.387   6.253   5.187 -0.8213 -0.9656  2.4408
 8953TIP3    H226824   6.492   6.301   5.286  0.9497 -2.0198  1.1326
 8954TIP3   OH226825   6.377   2.395   0.436  0.4901 -0.4066  0.3310
 8954TIP3    H126826   6.364   2.308   0.398  1.3741 -1.3533  2.0782
 8954TIP3    H226827   6.289   2.432   0.444  0.1355 -0.9497 -0.7876
 8955TIP3   OH226828   5.047   0.827   5.052  0.3943  0.0115  0.6117
 8955TIP3    H126829   5.001   0.743   5.042 -1.0706  0.6666  1.4763
 8955TIP3    H226830   5.038   0.869   4.967 -1.3596  0.4585  0.9821
 8956TIP3   OH226831   6.041   4.454   1.870 -0.1742 -0.1237 -0.3616
 8956TIP3    H126832   5.994   4.517   1.814  0.6033  0.4535 -0.3704
 8956TIP3    H226833   6.128   4.491   1.880 -0.9844  1.1756  3.3974
 8957TIP3   OH226834   1.070   6.203   5.845  0.0650 -0.2595  0.2843
 8957TIP3    H126835   1.101   6.171   5.760  0.3262 -0.6612  0.5293
 8957TIP3    H226836   1.141   6.183   5.905  1.3002  2.9014  0.0504
 8958TIP3   OH226837   2.686   0.529   5.363  0.3681  0.6415 -0.0336
 8958TIP3    H126838   2.771   0.573   5.364  0.6875  0.2268 -2.4414
 8958TIP3    H226839   2.665   0.519   5.270 -1.6691 -0.5268  0.4815
 8959TIP3   OH226840   4.079   4.893   4.913  0.8176 -0.0281 -0.6333
 8959TIP3    H126841   4.133   4.968   4.891  1.2700  0.4294  1.8150
 8959TIP3    H226842   3.994   4.931   4.936  0.0777 -0.5642 -2.3496
 8960TIP3   OH226843   4.717   0.879   4.802 -0.4507 -0.0372 -0.6085
 8960TIP3    H126844   4.704   0.952   4.862 -1.3234 -1.1378  0.5912
 8960TIP3    H226845   4.796   0.835   4.833  0.8434  1.0835 -2.1135
 8961TIP3   OH226846   2.771   6.764   3.889 -0.1754 -0.4405  0.5630
 8961TIP3    H126847   2.790   6.855   3.909  1.4373 -0.4861 -0.6596
 8961TIP3    H226848   2.684   6.749   3.928 -0.6264  1.6864  0.4806
 8962TIP3   OH226849   3.736   1.089   4.819  0.6060  0.4277 -0.2898
 8962TIP3    H126850   3.762   1.181   4.830 -0.4621  0.6101  0.9242
 8962TIP3    H226851   3.651   1.093   4.776  0.4817  0.0143 -0.0888
 8963TIP3   OH226852   6.173   1.441   4.866 -0.9013 -0.3603  0.1563
 8963TIP3    H126853   6.085   1.448   4.902 -0.4663 -1.1718  1.4633
 8963TIP3    H226854   6.167   1.371   4.802 -1.3687  0.0946 -0.3036
 8964TIP3   OH226855   3.869   1.223   3.717  0.4274  0.3766  0.0415
 8964TIP3    H126856   3.789   1.173   3.730  0.0854  0.5025 -1.4905
 8964TIP3    H226857   3.934   1.179   3.773 -0.5741  0.0118  0.9480
 8965TIP3   OH226858   3.246   0.772   3.806 -0.4160  0.3807  0.3800
 8965TIP3    H126859   3.167   0.722   3.826  0.4056 -0.5311  1.5413
 8965TIP3    H226860   3.310   0.705   3.780 -0.0970  1.1292 -0.8076
 8966TIP3   OH226861   5.728   5.323   5.047 -0.3154 -0.3976  0.2514
 8966TIP3    H126862   5.785   5.269   4.993 -0.5210 -0.5305  0.1704
 8966TIP3    H226863   5.693   5.263   5.113  0.3797 -0.1217  0.8837
 8967TIP3   OH226864   0.102   4.958   2.366 -0.5403  0.0542  0.2589
 8967TIP3    H126865   0.169   4.927   2.426 -1.1663  0.3084  1.1087
 8967TIP3    H226866   0.146   5.025   2.313  0.2994 -0.9132 -0.3022
 8968TIP3   OH226867   3.183   2.251   2.709 -0.7327  0.0163  0.1652
 8968TIP3    H126868   3.167   2.305   2.632 -0.0556 -0.9215 -0.6768
 8968TIP3    H226869   3.269   2.212   2.692  0.4579  1.4605  2.4179
 8969TIP3   OH226870   4.973   5.699   0.129  0.5526 -0.0811 -0.5355
 8969TIP3    H126871   4.940   5.679   0.217  0.9215  3.0708  0.4858
 8969TIP3    H226872   4.954   5.622   0.077 -1.9972 -1.1169  1.7059
 8970TIP3   OH226873   5.995   1.840   1.860  0.1193 -0.2007 -0.4750
 8970TIP3    H126874   6.049   1.919   1.864  0.8002 -0.6444 -0.7966
 8970TIP3    H226875   5.966   1.836   1.768  1.0027 -0.9245 -0.7311
 8971TIP3   OH226876   2.130   3.094   2.422  0.4613 -0.3512 -0.4263
 8971TIP3    H126877   2.181   3.048   2.355  0.0731 -0.7439 -0.4559
 8971TIP3    H226878   2.060   3.137   2.374  1.4279  1.1879 -0.5387
 8972TIP3   OH226879   7.012   1.967   5.142  0.2846 -0.2905  0.1528
 8972TIP3    H126880   6.931   1.921   5.161 -0.0667  0.1679 -0.2254
 8972TIP3    H226881   7.040   2.003   5.226 -0.2285  0.0743  0.1711
 8973TIP3   OH226882   6.239   2.560   4.835  0.1685 -0.4103  0.5233
 8973TIP3    H126883   6.246   2.650   4.805  1.0624 -0.5062  0.4194
 8973TIP3    H226884   6.248   2.507   4.756  1.5100 -0.6352  0.8004
 8974TIP3   OH226885   4.920   2.354   4.999 -0.0158  0.4465  0.3744
 8974TIP3    H126886   4.852   2.366   5.065  0.4970  0.7783  0.8469
 8974TIP3    H226887   4.931   2.260   4.992 -0.9472  0.3575 -0.1498
 8975TIP3   OH226888   2.446   3.536   2.846 -0.4030 -0.2185 -0.4689
 8975TIP3    H126889   2.385   3.561   2.916 -0.4835 -0.4743 -0.4466
 8975TIP3    H226890   2.401   3.466   2.799 -0.1844 -0.3150 -0.5358
 8976TIP3   OH226891   0.837   3.696   5.038 -0.7578  0.0284 -0.0257
 8976TIP3    H126892   0.779   3.770   5.018  0.0561  0.8277  0.5201
 8976TIP3    H226893   0.886   3.681   4.957 -0.4758  0.5012  0.0555
 8977TIP3   OH226894   5.530   1.140   1.627 -0.1916 -0.2444  0.3005
 8977TIP3    H126895   5.521   1.233   1.648 -0.4430  0.0688 -1.1053
 8977TIP3    H226896   5.480   1.095   1.695 -1.1845  0.7227  0.2355
 8978TIP3   OH226897   0.647   6.785   0.538  0.9042 -0.2707  0.0520
 8978TIP3    H126898   0.663   6.691   0.530  1.6694 -0.0909 -0.6790
 8978TIP3    H226899   0.718   6.817   0.593  0.8255 -0.0674  0.0388
 8979TIP3   OH226900   2.971   0.614   5.358  0.2962  0.5990 -0.0408
 8979TIP3    H126901   2.954   0.706   5.375  0.8051  0.8287 -0.7137
 8979TIP3    H226902   3.042   0.614   5.294 -0.2772 -0.2331 -0.7060
 8980TIP3   OH226903   3.523   0.874   5.773 -0.1973  0.2670 -0.6091
 8980TIP3    H126904   3.444   0.885   5.827  0.1400 -1.8124  0.3943
 8980TIP3    H226905   3.501   0.803   5.713  0.9354 -0.4055 -0.2469
 8981TIP3   OH226906   3.328   1.093   2.856  0.4681  0.1826 -0.2672
 8981TIP3    H126907   3.352   1.032   2.786  0.7704 -0.4628  0.3761
 8981TIP3    H226908   3.410   1.136   2.879  0.6486 -0.5791  0.5830
 8982TIP3   OH226909   6.573   6.509   3.624  0.2362 -0.8342 -0.0547
 8982TIP3    H126910   6.649   6.551   3.585 -1.4820  1.5372 -1.0848
 8982TIP3    H226911   6.552   6.436   3.564  0.4466 -0.1683 -0.9614
 8983TIP3   OH226912   1.416   1.584   5.070 -0.1859  0.0059  0.5869
 8983TIP3    H126913   1.460   1.539   4.999 -0.1024 -0.8474  1.1686
 8983TIP3    H226914   1.415   1.521   5.142  0.4944  1.1533  1.6317
 8984TIP3   OH226915   1.542   3.929   3.154  0.1300  0.7589  0.0203
 8984TIP3    H126916   1.554   3.901   3.245  0.2770 -0.3461 -0.3230
 8984TIP3    H226917   1.575   3.856   3.102 -0.0856  1.3194 -0.9265
 8985TIP3   OH226918   3.524   2.936   3.893  0.0191  0.0933  0.7480
 8985TIP3    H126919   3.558   3.004   3.951  0.4119  3.2193 -2.7682
 8985TIP3    H226920   3.430   2.934   3.909 -0.0566  1.8335  0.6790
 8986TIP3   OH226921   4.867   5.234   1.072 -0.5816 -0.0867 -0.2038
 8986TIP3    H126922   4.867   5.306   1.136  1.8858  0.2056 -0.4147
 8986TIP3    H226923   4.935   5.174   1.104 -0.7846 -0.9962 -1.4238
 8987TIP3   OH226924   0.856   1.765   0.826  0.4198  0.1423 -0.7936
 8987TIP3    H126925   0.926   1.734   0.883  0.1783  0.4343 -0.3369
 8987TIP3    H226926   0.872   1.859   0.817 -1.2082  0.6855  1.1874
 8988TIP3   OH226927   1.791   5.997   3.373 -0.3943 -0.2274 -0.1104
 8988TIP3    H126928   1.882   5.972   3.355 -0.8769 -1.4398 -1.0012
 8988TIP3    H226929   1.792   6.027   3.464  0.8616 -0.3894 -0.0467
 8989TIP3   OH226930   0.679   5.361   2.018 -0.0683 -0.3262 -0.1138
 8989TIP3    H126931   0.610   5.347   1.953  0.6102 -1.6921 -0.5692
 8989TIP3    H226932   0.660   5.296   2.086 -1.4255  1.7977  1.6784
 8990TIP3   OH226933   2.121   2.822   0.801 -0.4914 -0.6470 -0.3758
 8990TIP3    H126934   2.083   2.748   0.849  0.0741  0.1261  1.3447
 8990TIP3    H226935   2.075   2.822   0.717 -1.8819 -1.7603  0.3367
 8991TIP3   OH226936   7.146   3.098   2.255  0.7893  0.8343 -0.3233
 8991TIP3    H126937   7.189   3.179   2.282 -0.5892  1.8402 -1.0081
 8991TIP3    H226938   7.115   3.116   2.166 -0.1265 -0.1942 -0.2346
 8992TIP3   OH226939   3.466   3.215   1.300  0.5906  0.0583 -0.3330
 8992TIP3    H126940   3.384   3.261   1.319  0.7960  0.1078  0.4863
 8992TIP3    H226941   3.530   3.254   1.360  1.2534  0.1243 -1.0664
 8993TIP3   OH226942   2.643   4.570   3.777  0.7520 -0.1777  0.1483
 8993TIP3    H126943   2.617   4.653   3.737 -1.1889 -1.2628 -1.0090
 8993TIP3    H226944   2.592   4.564   3.858 -0.8524 -1.1654 -0.8674
 8994TIP3   OH226945   4.581   2.723   1.153  0.3326  0.6953 -0.0542
 8994TIP3    H126946   4.583   2.766   1.067  0.3118 -1.0013 -0.9475
 8994TIP3    H226947   4.543   2.789   1.211  1.9930  2.5558 -0.9256
 8995TIP3   OH226948   1.723   0.841   1.037  0.3509 -0.1214  0.6189
 8995TIP3    H126949   1.694   0.932   1.032  1.8837  0.3972  0.3689
 8995TIP3    H226950   1.819   0.847   1.032  0.4973 -1.7226  1.0523
 8996TIP3   OH226951   4.131   0.558   1.435 -0.2679  0.7761 -0.6839
 8996TIP3    H126952   4.164   0.518   1.515  1.6224  0.0519 -1.7475
 8996TIP3    H226953   4.050   0.601   1.461 -0.1170 -0.0936  1.4318
 8997TIP3   OH226954   5.220   1.789   2.288  0.7793 -0.1450  0.3447
 8997TIP3    H126955   5.255   1.710   2.247  0.7668  0.9001 -1.8566
 8997TIP3    H226956   5.126   1.784   2.273  0.3280 -1.1902  3.0396
 8998TIP3   OH226957   1.749   5.543   3.611 -0.0976 -0.2653 -0.0615
 8998TIP3    H126958   1.823   5.599   3.587  0.6700 -0.3446  1.9201
 8998TIP3    H226959   1.674   5.602   3.608  0.5225  0.6179  0.8193
 8999TIP3   OH226960   1.935   2.823   3.394  0.2235  0.1998 -0.4547
 8999TIP3    H126961   1.931   2.898   3.335  0.2680 -0.3994 -1.2313
 8999TIP3    H226962   2.027   2.818   3.419  0.8860 -1.4954 -2.9437
 9000TIP3   OH226963   0.385   4.528   4.246 -0.4446 -0.4468  0.3473
 9000TIP3    H126964   0.436   4.520   4.166  1.8819  3.5618  1.1299
 9000TIP3    H226965   0.300   4.561   4.217  0.2443  0.6153 -0.5760
 9001TIP3   OH226966   2.432   6.062   5.127  0.5479  0.4431  0.4422
 9001TIP3    H126967   2.432   6.049   5.032 -0.7230 -1.0794  0.6105
 9001TIP3    H226968   2.343   6.039   5.154  0.5253  2.0493  1.8679
 9002TIP3   OH226969   4.322   5.943   2.860  0.2693  0.4758 -0.2718
 9002TIP3    H126970   4.236   5.902   2.872  0.3785  0.1628 -0.5376
 9002TIP3    H226971   4.318   6.024   2.911  0.0962  0.0695  0.3720
 9003TIP3   OH226972   3.525   3.593   3.849 -0.2209  0.0681 -0.3805
 9003TIP3    H126973   3.529   3.520   3.788  0.4243 -1.2117  1.1014
 9003TIP3    H226974   3.616   3.618   3.862 -0.2410 -0.4135  0.8462
 9004TIP3   OH226975   1.973   1.755   3.157 -0.3885  0.2818  0.0223
 9004TIP3    H126976   2.016   1.677   3.192  1.0041  1.4859  1.1474
 9004TIP3    H226977   1.882   1.728   3.143  0.0322 -1.5032  0.4383
 9005TIP3   OH226978   4.391   1.962   3.420  0.7067  0.8848 -0.4139
 9005TIP3    H126979   4.444   2.014   3.480 -2.1932  2.9748  0.5271
 9005TIP3    H226980   4.301   1.990   3.436 -0.8732 -2.9344 -1.4313
 9006TIP3   OH226981   6.044   1.497   1.553 -0.4382  0.0130 -0.2601
 9006TIP3    H126982   6.013   1.560   1.488  0.1677 -0.4869 -1.0413
 9006TIP3    H226983   6.065   1.418   1.503 -2.1174 -1.1927  0.8051
 9007TIP3   OH226984   5.353   6.075   5.236  0.7407  0.1070 -0.3772
 9007TIP3    H126985   5.316   6.002   5.187 -0.6421  0.4873  0.0571
 9007TIP3    H226986   5.331   6.056   5.327  0.2040  1.1335 -0.2761
 9008TIP3   OH226987   6.853   5.004   5.817 -0.4879 -0.1479 -0.2789
 9008TIP3    H126988   6.865   4.935   5.752  0.9732 -1.1967  1.0515
 9008TIP3    H226989   6.894   4.970   5.897 -1.2655  1.5476  0.9034
 9009TIP3   OH226990   7.056   0.192   5.768  0.4340  0.4213  0.3537
 9009TIP3    H126991   6.979   0.229   5.724  0.4325  0.1567  0.1333
 9009TIP3    H226992   7.079   0.257   5.835  0.9891  1.2777 -0.6335
 9010TIP3   OH226993   5.863   5.005   3.720 -0.2815 -0.5837 -0.4816
 9010TIP3    H126994   5.785   4.981   3.670  0.4444 -2.9389 -0.6248
 9010TIP3    H226995   5.936   4.992   3.660  0.2595  2.0143 -0.4867
 9011TIP3   OH226996   0.187   0.930   0.446 -0.7192 -0.2554  0.0790
 9011TIP3    H126997   0.277   0.919   0.476  0.0186 -1.6767 -2.3117
 9011TIP3    H226998   0.174   1.025   0.444  0.6399 -0.0280  0.7278
 9012TIP3   OH226999   4.995   4.770   2.683 -0.3421  0.2868  0.3263
 9012TIP3    H127000   5.033   4.854   2.711 -1.1576  0.5056  0.8148
 9012TIP3    H227001   4.993   4.717   2.763 -0.8002  0.1807  0.2456
 9013TIP3   OH227002   4.615   5.440   0.527 -0.4379  0.1161 -0.2721
 9013TIP3    H127003   4.676   5.469   0.595  0.2102 -3.3371  0.8261
 9013TIP3    H227004   4.672   5.404   0.458 -1.1857  0.0950 -0.8850
 9014TIP3   OH227005   1.106   2.036   3.783  0.5532 -0.3339 -0.1784
 9014TIP3    H127006   1.146   1.950   3.799 -0.2662 -0.9922 -1.5148
 9014TIP3    H227007   1.021   2.032   3.826  0.8824  0.1588  0.5374
 9015TIP3   OH227008   5.009   5.758   2.074 -0.1121  0.8202  0.6844
 9015TIP3    H127009   4.937   5.771   2.012  0.2183  3.3343  0.6972
 9015TIP3    H227010   5.078   5.818   2.044  0.6220  1.0370  2.6190
 9016TIP3   OH227011   5.500   2.103   5.537  0.0946  0.4775 -0.4149
 9016TIP3    H127012   5.539   2.140   5.458  0.5423  0.4545 -0.2089
 9016TIP3    H227013   5.566   2.118   5.605 -0.3442  0.6224 -0.0167
 9017TIP3   OH227014   6.106   6.627   1.539 -0.2782 -0.0023 -0.8841
 9017TIP3    H127015   6.132   6.535   1.541 -1.1008 -0.2203  0.6211
 9017TIP3    H227016   6.032   6.630   1.478 -0.9120 -0.5382 -0.1601
 9018TIP3   OH227017   2.252   3.293   5.187 -0.2646 -0.1628 -0.1015
 9018TIP3    H127018   2.229   3.234   5.116  1.4289 -0.5444 -0.3663
 9018TIP3    H227019   2.265   3.235   5.263 -0.0828  0.0202  0.0092
 9019TIP3   OH227020   2.464   6.638   1.257 -0.2870 -0.0529  0.1325
 9019TIP3    H127021   2.401   6.644   1.328 -0.9244 -0.6517 -0.3697
 9019TIP3    H227022   2.474   6.729   1.226  2.1211  0.7160  2.7337
 9020TIP3   OH227023   3.838   3.167   3.817 -0.4721 -0.4478  0.1263
 9020TIP3    H127024   3.867   3.076   3.819 -0.7686 -0.5356  0.7174
 9020TIP3    H227025   3.844   3.193   3.725 -1.7978 -1.5169 -0.2812
 9021TIP3   OH227026   2.593   1.686   0.898 -0.0483 -0.0241 -0.7886
 9021TIP3    H127027   2.629   1.640   0.974 -1.2929  0.9585  0.4492
 9021TIP3    H227028   2.651   1.761   0.886 -0.8044  0.7608  0.2943
 9022TIP3   OH227029   0.899   5.695   4.308  0.0425  0.6712  0.0667
 9022TIP3    H127030   0.838   5.634   4.268 -0.5827  0.3363  1.4614
 9022TIP3    H227031   0.922   5.756   4.238 -0.1721 -0.4945 -1.0626
 9023TIP3   OH227032   1.597   4.175   5.101  0.3870  0.2451  0.1269
 9023TIP3    H127033   1.629   4.263   5.082  0.1260  0.3804  0.2908
 9023TIP3    H227034   1.503   4.187   5.116 -0.0897 -0.3941 -2.0244
 9024TIP3   OH227035   5.121   5.241   2.244  0.3591 -0.0050  0.2738
 9024TIP3    H127036   5.059   5.187   2.194  1.0344 -2.4971  1.9432
 9024TIP3    H227037   5.175   5.283   2.177 -1.7563  0.5927 -1.1625
 9025TIP3   OH227038   5.041   2.322   0.739  0.7218 -0.3482  0.2178
 9025TIP3    H127039   5.056   2.279   0.823 -1.7869  0.7013  1.3219
 9025TIP3    H227040   5.038   2.416   0.761 -0.8267 -0.1174 -0.8632
 9026TIP3   OH227041   6.498   6.675   3.168  0.1456  0.4021 -0.0806
 9026TIP3    H127042   6.576   6.695   3.219  0.3093  2.3847 -1.0015
 9026TIP3    H227043   6.493   6.746   3.103 -0.8006 -1.2529 -1.9254
 9027TIP3   OH227044   1.148   2.190   2.934  0.3382 -0.4563  0.3745
 9027TIP3    H127045   1.135   2.212   2.842  0.8813  0.7347  0.5568
 9027TIP3    H227046   1.234   2.225   2.955 -0.6672  1.2782  1.8956
 9028TIP3   OH227047   0.178   0.561   5.821  0.2368 -0.5015  0.5704
 9028TIP3    H127048   0.215   0.569   5.733  1.3584  0.8287  1.1410
 9028TIP3    H227049   0.199   0.471   5.847  1.8298 -0.2158  0.3240
 9029TIP3   OH227050   1.611   2.504   3.308 -0.3161  0.0626 -0.6932
 9029TIP3    H127051   1.704   2.487   3.294 -0.4783 -1.8048  0.1680
 9029TIP3    H227052   1.590   2.575   3.248  1.6276  0.4518 -0.9881
 9030TIP3   OH227053   7.173   5.771   4.776 -0.1577  0.0187 -0.3276
 9030TIP3    H127054   7.095   5.736   4.732 -0.6113 -0.1781  0.6010
 9030TIP3    H227055   7.188   5.711   4.849  0.6286  0.2868 -0.2629
 9031TIP3   OH227056   5.128   6.655   5.332 -0.4332 -0.1144 -0.1104
 9031TIP3    H127057   5.178   6.677   5.411  0.4775 -0.5431 -0.5559
 9031TIP3    H227058   5.048   6.706   5.340  0.1796  0.7897  0.4977
 9032TIP3   OH227059   2.039   6.805   1.834 -0.1794 -0.0064  0.0063
 9032TIP3    H127060   1.985   6.732   1.865  0.0441 -0.6435 -1.0321
 9032TIP3    H227061   2.124   6.765   1.816  0.5866  0.9361  1.3782
 9033TIP3   OH227062   0.464   4.105   2.206  0.2590 -0.3296 -0.5629
 9033TIP3    H127063   0.433   4.075   2.120 -0.1931 -1.2741 -0.0851
 9033TIP3    H227064   0.418   4.188   2.221  0.4590 -0.0770 -1.2897
 9034TIP3   OH227065   0.896   1.909   1.154 -0.3489  0.3936 -0.2404
 9034TIP3    H127066   0.980   1.917   1.109 -0.4785 -1.6286 -0.9147
 9034TIP3    H227067   0.912   1.845   1.224 -1.0880  0.7271  0.2507
 9035TIP3   OH227068   7.050   1.746   4.708 -0.0362 -0.0798 -0.1837
 9035TIP3    H127069   7.090   1.778   4.790 -2.4083 -0.0307  1.0274
 9035TIP3    H227070   7.077   1.809   4.642  1.5281  0.1610  0.6262
 9036TIP3   OH227071   6.499   1.015   5.101  0.3591  0.0690  0.1409
 9036TIP3    H127072   6.486   0.969   5.184  0.0054  0.3580  0.2459
 9036TIP3    H227073   6.484   1.107   5.122  0.5205  0.1712 -0.1892
 9037TIP3   OH227074   2.837   5.002   3.680  0.0173 -0.2369  0.2423
 9037TIP3    H127075   2.785   5.041   3.752 -0.7783 -2.5849  1.0405
 9037TIP3    H227076   2.773   4.986   3.611  0.6691  1.4238 -0.7926
 9038TIP3   OH227077   6.936   6.345   0.807 -0.1056 -0.2327 -0.4201
 9038TIP3    H127078   6.952   6.251   0.820 -0.2516  0.0693  2.9557
 9038TIP3    H227079   7.020   6.386   0.825 -0.3154  0.3566 -0.7620
 9039TIP3   OH227080   4.167   5.162   4.629 -0.5562  0.1262 -0.5351
 9039TIP3    H127081   4.203   5.078   4.599  1.4224  1.3144 -1.7239
 9039TIP3    H227082   4.155   5.151   4.723  2.5864 -0.5754 -0.0948
 9040TIP3   OH227083   6.380   2.580   5.075 -0.0042 -0.2251  0.2410
 9040TIP3    H127084   6.376   2.494   5.117  1.5785 -1.0184 -1.1193
 9040TIP3    H227085   6.316   2.575   5.005 -0.6892  0.1221  0.8265
 9041TIP3   OH227086   3.913   3.040   5.340  0.2310  0.6740  0.0623
 9041TIP3    H127087   3.897   2.998   5.255 -0.2567 -0.5583  0.7361
 9041TIP3    H227088   4.008   3.050   5.345  0.2262  1.3950 -0.8998
 9042TIP3   OH227089   6.559   3.358   4.994  0.3603 -0.0664 -0.0695
 9042TIP3    H127090   6.549   3.311   4.911  0.8592 -0.1337 -0.0967
 9042TIP3    H227091   6.501   3.312   5.054 -2.1216  1.6594 -1.0257
 9043TIP3   OH227092   4.004   6.654   2.497  0.4161  0.0587 -0.2540
 9043TIP3    H127093   3.945   6.728   2.514 -0.5665 -0.6724 -0.4015
 9043TIP3    H227094   4.004   6.646   2.401 -0.9634 -1.2770 -0.1733
 9044TIP3   OH227095   4.591   3.251   2.281  0.1176 -0.5443  0.4463
 9044TIP3    H127096   4.630   3.338   2.283  1.3481 -1.0598 -0.0296
 9044TIP3    H227097   4.635   3.207   2.208 -1.4088 -1.1514 -0.1435
 9045TIP3   OH227098   6.138   4.130   0.022 -0.5493  0.1359  0.0631
 9045TIP3    H127099   6.073   4.102   0.086  0.5024 -1.0909  0.6514
 9045TIP3    H227100   6.088   4.175  -0.045 -2.4027 -2.9625 -0.8208
 9046TIP3   OH227101   3.478   1.765   3.503  0.0803 -0.3368 -0.1241
 9046TIP3    H127102   3.386   1.764   3.476  0.6933 -1.3052 -2.4640
 9046TIP3    H227103   3.504   1.857   3.497 -0.7137 -0.0575  0.5469
 9047TIP3   OH227104   2.246   0.862   2.044  0.5603  0.5635  0.4469
 9047TIP3    H127105   2.291   0.946   2.041  1.1490  0.2170 -1.0378
 9047TIP3    H227106   2.279   0.814   1.968 -0.5882 -0.5868  0.6449
 9048TIP3   OH227107   1.139   6.470   5.760  0.4583 -0.1984 -0.0731
 9048TIP3    H127108   1.234   6.483   5.763  0.2677  1.2280  1.0509
 9048TIP3    H227109   1.127   6.379   5.787  1.4742 -0.2674  0.2092
 9049TIP3   OH227110   1.566   5.033   5.152 -0.3447 -0.6448  0.0382
 9049TIP3    H127111   1.504   4.965   5.177  1.8070 -2.9324 -0.4544
 9049TIP3    H227112   1.626   5.039   5.227 -0.0190  0.1290 -0.2732
 9050TIP3   OH227113   5.418   0.110   5.816  0.5364  0.4561  0.0341
 9050TIP3    H127114   5.474   0.188   5.813 -0.9132  1.5676  0.7218
 9050TIP3    H227115   5.336   0.138   5.775  0.1731 -0.8643 -0.1676
 9051TIP3   OH227116   5.436   6.128   1.279  0.2875  0.2963  0.1209
 9051TIP3    H127117   5.528   6.119   1.254  0.3257  0.2453  0.2774
 9051TIP3    H227118   5.397   6.180   1.209  0.9496  2.3591  1.1786
 9052TIP3   OH227119   1.746   0.356   2.152  0.0624  0.3553  0.2166
 9052TIP3    H127120   1.798   0.411   2.094  2.1072  0.9802  2.5130
 9052TIP3    H227121   1.691   0.417   2.201 -0.3289  0.0035  0.2262
 9053TIP3   OH227122   2.814   4.568   4.061 -0.4504  0.0659  1.3955
 9053TIP3    H127123   2.797   4.662   4.057  0.0650  0.1367  0.8069
 9053TIP3    H227124   2.736   4.528   4.023  0.4727  0.3780 -0.9711
 9054TIP3   OH227125   3.282   5.333   3.544 -0.2076 -0.1520 -0.5323
 9054TIP3    H127126   3.236   5.249   3.540  2.0583 -1.6975  2.2888
 9054TIP3    H227127   3.271   5.362   3.634  2.8332  0.2196 -0.1876
 9055TIP3   OH227128   3.803   5.344   2.378 -0.0115  0.1015 -0.6923
 9055TIP3    H127129   3.824   5.253   2.398  2.8676  0.9039  0.4831
 9055TIP3    H227130   3.735   5.367   2.441  0.8680 -0.6397  0.5881
 9056TIP3   OH227131   5.379   4.015   1.141  0.1487 -0.8272  0.6291
 9056TIP3    H127132   5.445   4.080   1.116 -0.1633 -1.5156 -2.4658
 9056TIP3    H227133   5.413   3.932   1.105 -0.7640 -1.8597  2.0533
 9057TIP3   OH227134   4.487   3.903   5.031  0.3467 -0.1865 -0.4053
 9057TIP3    H127135   4.514   3.994   5.042  2.6192 -0.8955  0.4489
 9057TIP3    H227136   4.483   3.891   4.936  0.0237  0.7841 -0.5283
 9058TIP3   OH227137   2.803   0.204   5.406 -0.0044  0.1144 -0.4484
 9058TIP3    H127138   2.741   0.252   5.461  0.5515 -0.4035  0.6844
 9058TIP3    H227139   2.830   0.266   5.339  0.3450  1.2326  0.6969
 9059TIP3   OH227140   1.505   0.590   5.847 -0.0559 -0.0873  0.0442
 9059TIP3    H127141   1.468   0.528   5.785 -1.5916  0.7160  0.1082
 9059TIP3    H227142   1.556   0.536   5.907 -0.6201 -1.1738 -0.4206
 9060TIP3   OH227143   5.534   5.001   1.442 -0.5338 -0.3489 -0.3521
 9060TIP3    H127144   5.485   5.066   1.391 -0.7503  0.2791  0.6226
 9060TIP3    H227145   5.467   4.939   1.473 -0.4768 -0.4408 -0.4126
 9061TIP3   OH227146   2.533   5.907   4.622  0.1530  0.9041  0.1248
 9061TIP3    H127147   2.602   5.934   4.561  0.6376 -0.2969  0.0943
 9061TIP3    H227148   2.485   5.839   4.574  0.5029 -0.0126  1.0398
 9062TIP3   OH227149   6.240   1.927   3.733 -0.5023 -0.2897  0.1107
 9062TIP3    H127150   6.285   2.011   3.725 -0.2111 -0.3590  0.9426
 9062TIP3    H227151   6.305   1.862   3.708 -0.6355 -0.2967 -0.2340
 9063TIP3   OH227152   6.296   5.067   0.480  0.2157  0.7837 -0.1909
 9063TIP3    H127153   6.371   5.055   0.422 -0.3780 -0.9218 -0.6631
 9063TIP3    H227154   6.317   5.146   0.530  2.3238  0.3664 -0.3054
 9064TIP3   OH227155   6.489   4.754   3.030  0.7308  0.1566 -0.3504
 9064TIP3    H127156   6.416   4.792   2.982 -1.4622 -1.0112  1.8673
 9064TIP3    H227157   6.531   4.829   3.073 -0.6038  0.6148  0.1942
 9065TIP3   OH227158   4.148   4.696   3.969  0.5098 -0.2009 -0.2700
 9065TIP3    H127159   4.127   4.637   4.042  0.8019  0.2369  0.1810
 9065TIP3    H227160   4.097   4.775   3.987  1.5761  0.4159  0.1884
 9066TIP3   OH227161   6.877   6.471   1.815  0.0160  0.0684  0.6508
 9066TIP3    H127162   6.792   6.512   1.797 -0.9269 -1.2512  1.8854
 9066TIP3    H227163   6.889   6.409   1.743  0.6154  1.2058 -0.2658
 9067TIP3   OH227164   7.038   1.566   2.130 -0.3061 -0.3309 -0.3370
 9067TIP3    H127165   7.018   1.486   2.081  1.0415  0.3837 -2.1544
 9067TIP3    H227166   7.132   1.577   2.121 -0.3442  1.0275  0.5890
 9068TIP3   OH227167   1.942   3.398   5.602 -0.0790 -0.7311 -0.8439
 9068TIP3    H127168   1.906   3.372   5.688 -1.5205  1.4045 -0.7308
 9068TIP3    H227169   1.872   3.376   5.540 -0.1856  0.2523 -1.0881
 9069TIP3   OH227170   0.373   4.753   1.228  0.0470  0.0628 -0.0589
 9069TIP3    H127171   0.388   4.819   1.160 -0.4693  1.7827  1.4133
 9069TIP3    H227172   0.460   4.726   1.255  0.3468  1.6509  0.6759
 9070TIP3   OH227173   6.594   5.279   5.654 -0.3307 -0.3517  0.0138
 9070TIP3    H127174   6.502   5.266   5.676 -0.6651  0.8623 -0.5705
 9070TIP3    H227175   6.594   5.353   5.594  1.0084 -0.5153 -0.2214
 9071TIP3   OH227176   1.681   2.293   2.359 -0.0631  0.1940 -0.3530
 9071TIP3    H127177   1.737   2.283   2.282  0.2639 -0.6453 -0.0172
 9071TIP3    H227178   1.739   2.323   2.428 -0.0788 -0.3576 -0.0906
 9072TIP3   OH227179   0.879   5.041   3.335  0.0316  0.4990 -0.6427
 9072TIP3    H127180   0.803   5.066   3.388  0.3875  1.4068 -0.5361
 9072TIP3    H227181   0.842   5.012   3.252 -0.5006 -0.3727 -0.1115
 9073TIP3   OH227182   2.991   2.721   4.779 -0.1743 -0.4277 -0.7048
 9073TIP3    H127183   3.021   2.793   4.834 -1.8947  0.0162 -0.2871
 9073TIP3    H227184   3.020   2.642   4.825  1.5683 -0.0407 -1.0769
 9074TIP3   OH227185   3.567   4.839   5.578 -0.1243  0.1964  0.3365
 9074TIP3    H127186   3.626   4.915   5.584 -0.4141  0.3364  1.6967
 9074TIP3    H227187   3.542   4.822   5.668  0.8790 -2.2854  0.2199
 9075TIP3   OH227188   3.409   3.298   0.574  0.1669 -0.1199  0.0981
 9075TIP3    H127189   3.360   3.272   0.652 -0.0884 -0.2855 -0.1142
 9075TIP3    H227190   3.488   3.245   0.576  0.7670  0.7693  0.9089
 9076TIP3   OH227191   4.662   2.172   5.256  0.0117 -0.3924  0.1929
 9076TIP3    H127192   4.600   2.210   5.318 -0.9697 -0.3275 -0.7988
 9076TIP3    H227193   4.632   2.082   5.244  0.6250 -0.6207  0.3564
 9077TIP3   OH227194   1.680   5.954   5.711 -0.0096  0.1055 -0.0165
 9077TIP3    H127195   1.602   5.963   5.765 -0.2676 -0.3156 -0.3112
 9077TIP3    H227196   1.706   6.044   5.692 -0.0337  0.2530  0.6345
 9078TIP3   OH227197   7.167   5.351   0.703  0.9260 -0.6112 -0.1227
 9078TIP3    H127198   7.238   5.352   0.639  0.0339  1.2816 -1.1677
 9078TIP3    H227199   7.165   5.440   0.737 -1.6888 -0.2397 -1.0205
 9079TIP3   OH227200   4.288   4.268   1.784 -0.0716  0.6598  0.2382
 9079TIP3    H127201   4.243   4.343   1.746  2.8071  2.2335 -0.3833
 9079TIP3    H227202   4.330   4.224   1.710 -1.9493 -1.8644  0.5446
 9080TIP3   OH227203   5.272   1.005   3.745  0.0078 -0.2794  0.0649
 9080TIP3    H127204   5.223   0.943   3.692 -0.0516 -1.4341  1.3849
 9080TIP3    H227205   5.354   0.959   3.766  0.8139  0.8537 -0.5061
 9081TIP3   OH227206   3.362   1.773   0.621 -0.8217 -0.0735  0.4050
 9081TIP3    H127207   3.290   1.776   0.558 -1.1837 -0.9807  0.7574
 9081TIP3    H227208   3.441   1.783   0.567 -1.1570 -0.2609 -0.1312
 9082TIP3   OH227209   1.213   3.225   0.037 -0.6536 -0.3014 -0.0602
 9082TIP3    H127210   1.275   3.298   0.031 -2.3279  1.2271  0.0050
 9082TIP3    H227211   1.159   3.234  -0.042 -0.5715 -1.8167 -0.3149
 9083TIP3   OH227212   5.924   4.947   0.671 -0.6395  0.2989 -0.3453
 9083TIP3    H127213   5.904   4.912   0.584 -0.6416 -0.3766 -0.0791
 9083TIP3    H227214   5.868   4.896   0.731 -0.5175  0.6451  0.0661
 9084TIP3   OH227215   4.760   3.512   2.806 -0.3851  0.4218  0.3739
 9084TIP3    H127216   4.720   3.563   2.735  0.4223 -0.8731 -1.0626
 9084TIP3    H227217   4.781   3.577   2.872  1.7469  2.2245 -1.8937
 9085TIP3   OH227218   1.517   1.997   2.860  0.1022  0.2881 -0.3362
 9085TIP3    H127219   1.544   1.943   2.786  1.5113  0.1841  0.2235
 9085TIP3    H227220   1.589   1.991   2.922 -0.9976  0.4588  1.0228
 9086TIP3   OH227221   3.148   0.833   1.950 -0.3935  0.9734  0.0833
 9086TIP3    H127222   3.172   0.926   1.952  1.8081  0.5004 -0.9222
 9086TIP3    H227223   3.226   0.789   1.917 -0.7413 -1.4570  2.1360
 9087TIP3   OH227224   4.453   0.431   5.923  0.0238  0.2287 -0.7864
 9087TIP3    H127225   4.486   0.358   5.871 -0.0235  0.0105 -0.5161
 9087TIP3    H227226   4.465   0.508   5.868  2.0096  0.3364 -0.2888
 9088TIP3   OH227227   1.343   3.225   5.467  0.0474 -0.3593  0.5057
 9088TIP3    H127228   1.369   3.150   5.521 -0.1040 -1.5330 -0.9827
 9088TIP3    H227229   1.293   3.282   5.526  1.4116 -0.6987  2.0357
 9089TIP3   OH227230   2.506   0.535   5.097 -0.3602  0.3601 -0.2688
 9089TIP3    H127231   2.430   0.543   5.038 -0.0268  0.4983 -0.6887
 9089TIP3    H227232   2.497   0.609   5.157 -1.7138 -0.8210  1.0627
 9090TIP3   OH227233   1.590   4.014   1.839  0.6948 -0.8109 -0.2242
 9090TIP3    H127234   1.518   3.990   1.898  1.1388 -3.0286 -0.5103
 9090TIP3    H227235   1.645   4.073   1.891 -0.7722  0.1313  0.3289
 9091TIP3   OH227236   3.634   5.088   0.353 -0.4522  0.2984 -0.0380
 9091TIP3    H127237   3.612   5.123   0.439 -0.6200  0.2919 -0.0776
 9091TIP3    H227238   3.617   4.994   0.359 -1.9329  0.5127 -0.5308
 9092TIP3   OH227239   2.596   4.212   2.649 -0.3315 -0.3096  0.1626
 9092TIP3    H127240   2.611   4.120   2.627  0.2465  0.0113 -0.8807
 9092TIP3    H227241   2.628   4.221   2.739  0.4535 -0.9401 -0.0394
 9093TIP3   OH227242   4.651   1.807   0.639  0.6062  0.1892  0.5939
 9093TIP3    H127243   4.707   1.730   0.643  0.4242 -0.0060 -0.3062
 9093TIP3    H227244   4.709   1.880   0.659  0.8391 -0.1490  1.1886
 9094TIP3   OH227245   0.263   0.035   3.203  0.6559  0.2293  0.1481
 9094TIP3    H127246   0.198  -0.027   3.169  0.1025  1.1106 -0.4399
 9094TIP3    H227247   0.335   0.031   3.141  0.8957 -0.2710  0.4498
 9095TIP3   OH227248   3.219   6.229   5.748 -0.0100  0.2613  0.1262
 9095TIP3    H127249   3.206   6.251   5.840  1.1772  0.3138  0.2956
 9095TIP3    H227250   3.305   6.185   5.746 -1.0244 -1.8200 -0.6069
 9096TIP3   OH227251   4.919   4.389   4.834 -0.3423 -0.3681 -0.7191
 9096TIP3    H127252   4.935   4.439   4.754 -0.2777  0.5549 -0.1454
 9096TIP3    H227253   4.931   4.452   4.905  0.8945 -1.4600  0.1049
 9097TIP3   OH227254   2.760   3.548   1.143  0.6259  0.0612  0.1456
 9097TIP3    H127255   2.777   3.507   1.228 -1.0372 -1.0307  0.0090
 9097TIP3    H227256   2.767   3.476   1.081 -0.4413  0.3585 -0.3434
 9098TIP3   OH227257   5.641   5.757   1.850 -0.0130 -0.6460  0.7562
 9098TIP3    H127258   5.573   5.688   1.849  0.3275 -0.9847  0.4488
 9098TIP3    H227259   5.724   5.708   1.851  0.2272 -0.2316  1.3053
 9099TIP3   OH227260   0.340   5.355   1.488 -0.0751  0.3751  0.4818
 9099TIP3    H127261   0.372   5.348   1.398  1.8560 -0.6363  1.1858
 9099TIP3    H227262   0.282   5.279   1.499  0.4244 -0.0266  0.3606
 9100TIP3   OH227263   3.133   6.121   5.242  0.1564  0.1144  0.1972
 9100TIP3    H127264   3.128   6.052   5.176 -0.6207 -1.2405  1.6041
 9100TIP3    H227265   3.227   6.137   5.253  0.3194 -0.2603 -0.6156
 9101TIP3   OH227266   3.885   4.769   0.781 -0.0420 -0.0832  0.4307
 9101TIP3    H127267   3.855   4.736   0.865 -1.7991 -1.1285 -0.5572
 9101TIP3    H227268   3.808   4.809   0.742 -0.2015 -2.5144 -2.0313
 9102TIP3   OH227269   1.066   6.377   4.969 -0.3169 -0.3724  0.0434
 9102TIP3    H127270   1.040   6.448   5.028 -0.3987 -0.2367 -0.1565
 9102TIP3    H227271   0.983   6.340   4.939 -0.3167  0.7143 -1.3929
 9103TIP3   OH227272   2.871   6.231   5.317 -0.3729  0.3328 -0.1410
 9103TIP3    H127273   2.812   6.219   5.242 -1.5155 -1.6075  0.9738
 9103TIP3    H227274   2.952   6.187   5.292  0.1134  1.7011 -1.0929
 9104TIP3   OH227275   0.133   2.408   4.158  0.1818 -0.7585  0.1659
 9104TIP3    H127276   0.213   2.371   4.118  0.5296 -0.0919  0.2331
 9104TIP3    H227277   0.062   2.356   4.120  0.7222 -2.2703  1.1156
 9105TIP3   OH227278   5.238   2.731   3.054 -0.0439 -0.3587  0.1457
 9105TIP3    H127279   5.175   2.701   2.989 -0.5528  0.8515  0.0555
 9105TIP3    H227280   5.241   2.826   3.043  1.3207 -0.3282  0.5799
 9106TIP3   OH227281   3.854   1.384   4.003  0.3600  0.2803  0.3125
 9106TIP3    H127282   3.909   1.447   3.956 -1.7910  0.1115 -2.6967
 9106TIP3    H227283   3.888   1.299   3.976 -1.4197  0.1702 -1.8252
 9107TIP3   OH227284   1.284   6.296   3.392 -0.0879  0.0135 -0.0055
 9107TIP3    H127285   1.374   6.321   3.370 -0.3883  0.9077 -0.2452
 9107TIP3    H227286   1.293   6.248   3.474  0.4974  1.1182  0.6089
 9108TIP3   OH227287   5.589   2.370   4.705 -0.0617  0.2696  0.4457
 9108TIP3    H127288   5.658   2.363   4.772  1.8305  0.5088 -1.3813
 9108TIP3    H227289   5.533   2.294   4.721  1.6036 -0.9159  0.9591
 9109TIP3   OH227290   2.976   3.727   1.169  0.4642  0.2961  0.7221
 9109TIP3    H127291   2.964   3.641   1.128 -0.8118  0.0886  1.4932
 9109TIP3    H227292   2.911   3.783   1.127  0.4688  0.5769  1.0817
 9110TIP3   OH227293   2.488   2.224   4.413  0.4612 -0.8300 -0.0835
 9110TIP3    H127294   2.445   2.272   4.483 -1.8433 -0.2954 -1.7697
 9110TIP3    H227295   2.581   2.245   4.422  0.1444 -0.2900  2.3805
 9111TIP3   OH227296   3.812   0.724   0.325  0.0533  0.2901 -0.2444
 9111TIP3    H127297   3.786   0.632   0.328 -0.9482  0.5667 -0.0106
 9111TIP3    H227298   3.903   0.725   0.356 -0.7994 -0.2901  2.5523
 9112TIP3   OH227299   4.320   5.085   1.946 -0.5352 -0.0412 -0.1864
 9112TIP3    H127300   4.293   5.064   2.036 -1.1139 -0.8710 -0.5357
 9112TIP3    H227301   4.335   5.179   1.947  2.7539 -0.4324  1.6119
 9113TIP3   OH227302   4.731   5.867   2.513  0.0441  0.0744 -0.6594
 9113TIP3    H127303   4.658   5.909   2.466 -0.7545  0.1751  0.6204
 9113TIP3    H227304   4.688   5.814   2.581  1.1766  0.4881  0.4115
 9114TIP3   OH227305   1.625   1.154   5.751 -0.2354 -0.3219 -0.1829
 9114TIP3    H127306   1.562   1.107   5.806  0.2745  1.0984  1.7491
 9114TIP3    H227307   1.594   1.244   5.752  1.3893  0.2660  0.2204
 9115TIP3   OH227308   4.480   1.068   4.880  0.0691  0.3995 -0.0717
 9115TIP3    H127309   4.521   1.044   4.963 -3.6320 -0.0343  1.8734
 9115TIP3    H227310   4.467   1.162   4.887 -1.3333  0.1946  0.4962
 9116TIP3   OH227311   0.816   2.022   4.206 -0.1989  0.4755 -0.1820
 9116TIP3    H127312   0.853   2.104   4.173 -1.5354  1.1182 -0.1540
 9116TIP3    H227313   0.836   2.023   4.300 -0.3004  0.8212 -0.1621
 9117TIP3   OH227314   5.184   3.860   3.579  0.4375  0.4736 -0.1340
 9117TIP3    H127315   5.108   3.912   3.602 -0.5169  0.0883 -2.2067
 9117TIP3    H227316   5.242   3.866   3.656 -0.9208  2.1265  0.8148
 9118TIP3   OH227317   6.285   3.312   3.629 -0.7134 -0.2142 -0.0288
 9118TIP3    H127318   6.378   3.331   3.642 -1.4870  2.2609  3.2285
 9118TIP3    H227319   6.260   3.362   3.552  0.5240 -0.4753 -0.6203
 9119TIP3   OH227320   1.916   3.737   0.590 -0.2690  0.3021  0.7614
 9119TIP3    H127321   1.950   3.660   0.635 -1.8217 -0.1696  1.1895
 9119TIP3    H227322   1.875   3.788   0.660 -2.0158 -0.0431  0.0210
 9120TIP3   OH227323   2.750   2.572   3.919  0.3043 -0.3809  0.5130
 9120TIP3    H127324   2.720   2.617   3.997 -1.8888 -1.4805  0.3851
 9120TIP3    H227325   2.827   2.523   3.948  0.1641  0.0663  1.7078
 9121TIP3   OH227326   4.765   5.055   0.457 -0.5096  0.3770 -0.3345
 9121TIP3    H127327   4.795   5.067   0.547 -1.2900  1.6188 -0.2107
 9121TIP3    H227328   4.778   5.140   0.416 -2.5221  0.5910 -0.6438
 9122TIP3   OH227329   2.546   6.131   4.271  0.1026  0.3742  0.0288
 9122TIP3    H127330   2.563   6.044   4.234  0.8764  0.4924  0.0914
 9122TIP3    H227331   2.609   6.189   4.227  1.0818  0.5119  1.5494
 9123TIP3   OH227332   3.615   3.294   5.428 -0.5742 -0.8268 -0.2852
 9123TIP3    H127333   3.535   3.270   5.475 -1.0329  1.2430  0.0761
 9123TIP3    H227334   3.686   3.260   5.483 -1.1295  0.4987  1.3569
 9124TIP3   OH227335   5.325   5.330   5.212 -0.0076 -0.2227  0.1389
 9124TIP3    H127336   5.402   5.385   5.191  0.5744 -0.3531  1.7991
 9124TIP3    H227337   5.250   5.385   5.189  0.5763  0.7697  0.5340
 9125TIP3   OH227338   6.333   0.292   2.666  0.5963 -0.3675 -0.1508
 9125TIP3    H127339   6.389   0.217   2.686  1.3491 -0.3660 -2.0430
 9125TIP3    H227340   6.261   0.286   2.729  1.7552 -1.4374  1.1193
 9126TIP3   OH227341   4.341   4.701   2.953 -0.3271  0.6727 -0.2423
 9126TIP3    H127342   4.308   4.787   2.979 -0.8579  0.4054 -0.0097
 9126TIP3    H227343   4.357   4.709   2.859  0.2631  1.2236 -0.0988
 9127TIP3   OH227344   6.633   0.953   2.602 -0.8339  0.0997 -0.0638
 9127TIP3    H127345   6.667   0.889   2.665  2.4052  0.4151 -1.2636
 9127TIP3    H227346   6.616   0.903   2.523 -0.2122  0.3778 -0.3858
 9128TIP3   OH227347   0.465   4.429   1.247  0.3828 -0.4060 -0.6197
 9128TIP3    H127348   0.370   4.435   1.250  0.2738 -1.4134 -1.4056
 9128TIP3    H227349   0.495   4.488   1.316 -0.8750 -1.4471  0.9077
 9129TIP3   OH227350   1.201   0.859   4.303  0.2237 -0.1637 -0.1131
 9129TIP3    H127351   1.160   0.915   4.369 -1.1474  0.2951 -1.2990
 9129TIP3    H227352   1.132   0.844   4.238  1.6351 -0.2541 -1.6602
 9130TIP3   OH227353   5.045   1.173   4.661  0.2883  0.5559 -0.3232
 9130TIP3    H127354   5.072   1.242   4.721 -1.7996  2.1483 -1.0909
 9130TIP3    H227355   5.111   1.175   4.592  2.1386 -0.6069  1.3148
 9131TIP3   OH227356   4.333   0.893   1.826 -0.7722  0.1587  0.6338
 9131TIP3    H127357   4.323   0.825   1.893 -0.0971  1.4752  2.1297
 9131TIP3    H227358   4.421   0.879   1.791 -1.0766 -0.4467  0.0749
 9132TIP3   OH227359   3.704   2.897   0.651 -0.2434  0.2261  0.0084
 9132TIP3    H127360   3.684   2.985   0.684 -0.5710  0.4296 -0.7115
 9132TIP3    H227361   3.620   2.851   0.654 -0.1435  0.0492  0.0585
 9133TIP3   OH227362   0.818   0.863   5.291 -0.6348 -0.1419  0.4565
 9133TIP3    H127363   0.806   0.908   5.207  1.7748  1.5871  0.9301
 9133TIP3    H227364   0.872   0.787   5.269 -1.4425 -0.6671  0.2311
 9134TIP3   OH227365   1.264   3.072   0.684  0.2815 -0.0187  0.4462
 9134TIP3    H127366   1.358   3.057   0.697  0.0836 -0.7215  1.1332
 9134TIP3    H227367   1.222   3.023   0.754 -0.5954  0.5468  0.3259
 9135TIP3   OH227368   4.342   2.591   5.738 -0.0418  0.4662 -0.0476
 9135TIP3    H127369   4.400   2.524   5.701 -2.2678 -1.7092  0.1745
 9135TIP3    H227370   4.394   2.631   5.808  1.7404 -0.2127 -0.9081
 9136TIP3   OH227371   2.528   5.238   4.280  0.1314  0.3894  0.4610
 9136TIP3    H127372   2.483   5.202   4.204  0.6137  0.7844 -0.0173
 9136TIP3    H227373   2.473   5.212   4.354  0.8169 -1.8858  0.2216
 9137TIP3   OH227374   5.814   4.730   3.527 -0.0493 -0.3785  0.0091
 9137TIP3    H127375   5.832   4.808   3.475 -1.9182 -0.8261 -1.4118
 9137TIP3    H227376   5.900   4.703   3.561  0.8832  1.2590 -0.9442
 9138TIP3   OH227377   3.994   4.559   1.740  0.3710  0.2035 -0.0829
 9138TIP3    H127378   3.938   4.633   1.718  0.7138  1.3631  2.6055
 9138TIP3    H227379   3.937   4.498   1.786  0.6359 -0.1092 -0.1599
 9139TIP3   OH227380   1.320   3.686   0.896 -0.2878  0.1564  0.1142
 9139TIP3    H127381   1.370   3.688   0.978 -1.3440 -0.4159  0.8091
 9139TIP3    H227382   1.339   3.600   0.858 -1.3341 -0.4013  0.7959
 9140TIP3   OH227383   0.424   6.618   4.350  0.2604 -0.5646  0.0173
 9140TIP3    H127384   0.472   6.537   4.369  0.5939 -0.9193 -2.1034
 9140TIP3    H227385   0.352   6.618   4.414  0.2577 -2.5342  0.0951
 9141TIP3   OH227386   1.593   5.242   1.046 -0.0302  0.1009 -0.1090
 9141TIP3    H127387   1.598   5.279   1.134  1.4224 -0.9339  0.2872
 9141TIP3    H227388   1.659   5.291   0.996  0.1951 -0.3035 -0.2154
 9142TIP3   OH227389   0.114   6.159   3.003 -0.2354  0.1153 -0.0029
 9142TIP3    H127390   0.063   6.142   2.924 -1.4948 -0.8269  0.9782
 9142TIP3    H227391   0.124   6.073   3.045  0.6446  0.5518  0.7339
 9143TIP3   OH227392   6.636   0.199   0.041 -0.0014  0.5012  0.0518
 9143TIP3    H127393   6.600   0.273  -0.007 -0.3101  1.3156  1.4960
 9143TIP3    H227394   6.717   0.177  -0.006  0.3023  1.9888 -0.1628
 9144TIP3   OH227395   6.600   6.468   2.531  0.6068 -0.0016 -0.0368
 9144TIP3    H127396   6.569   6.478   2.441  1.5267  1.5268 -0.2163
 9144TIP3    H227397   6.696   6.468   2.524  0.7062 -2.0792  0.7451
 9145TIP3   OH227398   2.521   3.015   4.101 -0.0736 -0.3581 -0.4736
 9145TIP3    H127399   2.502   2.961   4.024 -0.8263 -0.4040 -0.2608
 9145TIP3    H227400   2.492   3.103   4.077  0.6516 -0.1520 -0.6189
 9146TIP3   OH227401   3.537   3.139   3.708 -0.5654 -0.1082 -0.3732
 9146TIP3    H127402   3.530   3.092   3.792  1.4106  1.7263  0.9422
 9146TIP3    H227403   3.590   3.081   3.653  0.4493 -0.2136  0.6469
 9147TIP3   OH227404   3.907   4.512   0.096 -0.8503 -0.3274  0.1863
 9147TIP3    H127405   3.899   4.585   0.159 -0.7831 -0.2707  0.1289
 9147TIP3    H227406   3.987   4.467   0.121  0.0284  0.6271 -0.8284
 9148TIP3   OH227407   2.161   4.022   3.902 -0.0151 -0.2762 -0.0872
 9148TIP3    H127408   2.086   4.081   3.907  1.6381  1.9598  0.1185
 9148TIP3    H227409   2.206   4.034   3.986  0.8145 -1.2397 -0.3715
 9149TIP3   OH227410   1.992   5.981   0.146 -0.0201 -0.7886  0.5234
 9149TIP3    H127411   2.022   5.944   0.229  0.9305  0.7279  0.9019
 9149TIP3    H227412   2.063   5.962   0.085 -0.6320 -1.7305  0.0810
 9150TIP3   OH227413   2.917   0.669   1.483 -0.3954  0.1697  0.3262
 9150TIP3    H127414   2.928   0.690   1.576 -0.8329  0.8551  0.2317
 9150TIP3    H227415   2.854   0.597   1.482 -0.4897  0.2474  0.5538
 9151TIP3   OH227416   1.935   3.299   0.766  0.1396 -0.2470  0.5422
 9151TIP3    H127417   1.944   3.324   0.858 -0.1871  0.4492  0.3894
 9151TIP3    H227418   1.860   3.350   0.735  1.3198  0.8581 -0.5810
 9152TIP3   OH227419   6.629   5.413   5.099  0.1639  0.0722 -0.3419
 9152TIP3    H127420   6.538   5.386   5.089 -0.3384  1.2742  0.6729
 9152TIP3    H227421   6.631   5.503   5.067  0.9808  0.0832 -0.2912
 9153TIP3   OH227422   3.432   0.261   3.176  0.7288  0.3531  0.2142
 9153TIP3    H127423   3.458   0.257   3.268  0.6009  1.1507  0.2978
 9153TIP3    H227424   3.349   0.214   3.172  0.5026  0.7067  0.6018
 9154TIP3   OH227425   2.590   5.810   3.491 -0.8543  0.7146  0.5808
 9154TIP3    H127426   2.537   5.760   3.553  0.5984 -0.2404  1.1231
 9154TIP3    H227427   2.674   5.822   3.535  0.0642  0.4270 -0.9962
 9155TIP3   OH227428   5.555   2.007   2.642  0.1386  0.4483 -0.1217
 9155TIP3    H127429   5.483   2.057   2.603 -2.4450 -3.5355 -1.1031
 9155TIP3    H227430   5.610   1.983   2.567  0.1269  0.0592 -0.0082
 9156TIP3   OH227431   1.697   5.810   2.962  0.0381 -0.0665  0.1524
 9156TIP3    H127432   1.616   5.766   2.935  0.6551 -0.0153 -2.0256
 9156TIP3    H227433   1.677   5.845   3.048 -1.2808 -2.5305  0.9748
 9157TIP3   OH227434   1.234   5.131   4.512  0.1982 -0.0458  0.0314
 9157TIP3    H127435   1.183   5.194   4.561  0.8165 -0.0358  0.6768
 9157TIP3    H227436   1.169   5.072   4.473 -0.3938  1.1102 -0.7729
 9158TIP3   OH227437   4.676   2.312   5.548 -0.2527 -0.0555  0.1047
 9158TIP3    H127438   4.717   2.297   5.633 -0.6120 -0.7650  0.1614
 9158TIP3    H227439   4.744   2.352   5.495  0.0969  0.0198  0.6043
 9159TIP3   OH227440   0.009   6.449   3.551  0.0099 -0.2161  0.3849
 9159TIP3    H127441   0.039   6.387   3.617 -2.2439  0.6439  2.3688
 9159TIP3    H227442   0.089   6.474   3.504  1.5494 -1.6968  2.0419
 9160TIP3   OH227443   1.711   0.540   3.935  0.3057 -0.1496  0.2930
 9160TIP3    H127444   1.657   0.616   3.961 -0.6986 -0.2195 -1.4765
 9160TIP3    H227445   1.706   0.481   4.010  0.1872  1.0347  1.2551
 9161TIP3   OH227446   0.390   3.114   3.464  0.1996  0.3489  0.0488
 9161TIP3    H127447   0.340   3.196   3.472 -0.4540 -0.0956  0.6881
 9161TIP3    H227448   0.476   3.142   3.434  0.0360  1.2980  0.4032
 9162TIP3   OH227449   2.787   3.109   3.443 -0.2102 -0.5069  0.1974
 9162TIP3    H127450   2.744   3.111   3.357 -1.0338 -0.8508  0.5835
 9162TIP3    H227451   2.714   3.099   3.505  0.3096  0.5090  0.9909
 9163TIP3   OH227452   7.243   6.168   5.238  0.0436 -0.2642  0.0047
 9163TIP3    H127453   7.161   6.205   5.207 -0.4354 -0.6062  0.8367
 9163TIP3    H227454   7.230   6.154   5.332  1.2349  0.1621  0.2549
 9164TIP3   OH227455   5.238   1.188   4.476  0.6176 -0.0005 -0.1976
 9164TIP3    H127456   5.212   1.256   4.414 -1.9465 -1.1160 -0.4380
 9164TIP3    H227457   5.260   1.113   4.421 -1.3466 -0.8897  0.1762
 9165TIP3   OH227458   5.830   4.289   1.059 -0.1844  0.1532 -0.0611
 9165TIP3    H127459   5.917   4.324   1.037 -0.3327  0.4117 -0.2479
 9165TIP3    H227460   5.788   4.277   0.974 -0.6578  0.8740  0.0653
 9166TIP3   OH227461   6.482   2.310   5.417 -0.3391  0.2753 -0.5627
 9166TIP3    H127462   6.496   2.222   5.451 -1.9078  0.3861  0.4880
 9166TIP3    H227463   6.548   2.363   5.463 -0.0891 -0.1807 -0.3880
 9167TIP3   OH227464   0.186   2.249   3.515 -0.3490  0.1374 -0.3129
 9167TIP3    H127465   0.250   2.234   3.445 -0.3689  1.4691 -0.6439
 9167TIP3    H227466   0.238   2.284   3.588 -0.4371 -0.5512  0.0890
 9168TIP3   OH227467   3.425   3.212   4.836  0.2208 -0.3728  0.2054
 9168TIP3    H127468   3.508   3.169   4.856 -0.7441 -2.5506 -0.2187
 9168TIP3    H227469   3.451   3.296   4.798  2.2378 -1.0434 -0.0416
 9169TIP3   OH227470   5.161   6.661   2.839  0.8768 -0.1642  0.3460
 9169TIP3    H127471   5.215   6.685   2.764  1.4811 -0.5672  0.6457
 9169TIP3    H227472   5.145   6.567   2.828  1.6360 -0.3972  1.1353
 9170TIP3   OH227473   1.386   0.176   2.016 -0.0697 -0.3572 -0.1128
 9170TIP3    H127474   1.436   0.156   2.095 -0.0287  0.1780 -0.0012
 9170TIP3    H227475   1.342   0.259   2.036  0.4455  0.1174 -0.8802
 9171TIP3   OH227476   0.600   5.489   5.498  0.0266  0.3209 -0.2453
 9171TIP3    H127477   0.589   5.574   5.457 -1.3673  0.8986  1.2037
 9171TIP3    H227478   0.566   5.426   5.435  0.3173  0.9025 -0.9947
 9172TIP3   OH227479   4.442   5.110   3.640 -0.0520 -0.1886 -0.8647
 9172TIP3    H127480   4.526   5.155   3.645 -1.0308  1.5974  0.4871
 9172TIP3    H227481   4.431   5.070   3.726 -1.2497  0.9134 -0.4718
 9173TIP3   OH227482   1.506   3.768   5.047  0.6268 -1.0070 -0.2118
 9173TIP3    H127483   1.491   3.740   4.957 -0.9601 -1.5333  0.1846
 9173TIP3    H227484   1.572   3.707   5.080  0.4730 -1.4504 -0.7157
 9174TIP3   OH227485   6.488   0.713   1.055 -0.0555 -0.1727  0.2848
 9174TIP3    H127486   6.579   0.684   1.059  0.1716  0.4622 -0.1958
 9174TIP3    H227487   6.456   0.706   1.145  0.5967  0.0196  0.5335
 9175TIP3   OH227488   3.061   2.231   0.074 -0.0539 -0.2622 -0.5239
 9175TIP3    H127489   3.043   2.196   0.161  0.1643 -0.1021 -0.4122
 9175TIP3    H227490   2.977   2.228   0.028 -0.2417 -0.0357 -0.1937
 9176TIP3   OH227491   5.058   4.153   4.702 -0.1810 -0.4226 -0.0632
 9176TIP3    H127492   5.048   4.236   4.748  1.1839 -1.0114  1.4221
 9176TIP3    H227493   5.122   4.105   4.755 -0.2669 -2.0589 -1.3785
 9177TIP3   OH227494   6.190   0.710   2.883 -0.6390 -0.1031 -0.0858
 9177TIP3    H127495   6.168   0.790   2.836 -1.3925 -0.3488 -0.1711
 9177TIP3    H227496   6.285   0.708   2.885 -0.6130  0.5122 -0.5672
 9178TIP3   OH227497   4.680   1.285   2.569  0.0160 -0.5474 -0.2129
 9178TIP3    H127498   4.713   1.236   2.644 -2.2069 -1.8711  0.0166
 9178TIP3    H227499   4.596   1.320   2.599 -0.9443 -1.1309 -2.0560
 9179TIP3   OH227500   5.682   5.394   0.331 -0.6632 -0.4688 -0.5562
 9179TIP3    H127501   5.749   5.331   0.308  0.0951 -0.0060  0.3113
 9179TIP3    H227502   5.600   5.345   0.329 -0.0947 -1.4675  0.0687
 9180TIP3   OH227503   1.401   6.783   1.613  0.0882  0.0821  0.7169
 9180TIP3    H127504   1.459   6.721   1.569  1.7189  2.0733 -0.0930
 9180TIP3    H227505   1.323   6.786   1.558  0.4819 -0.3770  0.1152
 9181TIP3   OH227506   3.515   2.696   2.157 -0.0097  0.0414 -0.1840
 9181TIP3    H127507   3.455   2.728   2.225 -0.9903 -1.6317 -0.2023
 9181TIP3    H227508   3.470   2.620   2.120  2.0284 -1.1400 -0.3543
 9182TIP3   OH227509   4.107   0.574   5.276  0.5821  0.2997  0.5516
 9182TIP3    H127510   4.067   0.553   5.361  0.7007 -1.1619  0.2657
 9182TIP3    H227511   4.190   0.616   5.299  1.7718 -2.2027  1.2620
 9183TIP3   OH227512   0.267   0.805   1.331  0.6731  0.5951 -0.3826
 9183TIP3    H127513   0.171   0.804   1.332  0.6581 -0.2880  1.7413
 9183TIP3    H227514   0.290   0.898   1.334 -0.1540  0.7744  0.8407
 9184TIP3   OH227515   3.733   5.605   1.497  0.0948  0.5130 -0.6242
 9184TIP3    H127516   3.668   5.670   1.524 -1.0528 -0.7167 -0.3511
 9184TIP3    H227517   3.783   5.649   1.429 -1.9675  1.0122 -1.9009
 9185TIP3   OH227518   6.108   5.916   4.725  0.1526 -0.1550 -0.1333
 9185TIP3    H127519   6.065   5.999   4.703  0.5889  0.4586  1.2109
 9185TIP3    H227520   6.082   5.856   4.655 -1.4325  0.6729 -0.3012
 9186TIP3   OH227521   6.796   4.312   1.150  0.4904 -0.0960 -0.0533
 9186TIP3    H127522   6.768   4.254   1.221 -0.6453  1.9820  1.3055
 9186TIP3    H227523   6.834   4.388   1.194  0.9420  0.6892 -1.7162
 9187TIP3   OH227524   4.028   1.052   1.212  0.0743 -0.6162 -0.0721
 9187TIP3    H127525   4.007   0.962   1.237  2.2936 -1.0557  0.4802
 9187TIP3    H227526   4.087   1.043   1.137 -1.0897  0.4824 -1.1641
 9188TIP3   OH227527   6.515   2.364   3.829  0.0428  0.7418  0.2406
 9188TIP3    H127528   6.465   2.389   3.908 -0.4695  2.0216 -0.4533
 9188TIP3    H227529   6.504   2.438   3.770  0.6318 -0.0959 -0.9536
 9189TIP3   OH227530   1.362   2.529   2.710  0.8812  0.0614 -0.4062
 9189TIP3    H127531   1.365   2.624   2.720  0.0019 -0.0207  0.8331
 9189TIP3    H227532   1.432   2.509   2.648  1.9515  1.3780  0.3319
 9190TIP3   OH227533   6.780   0.430   3.905 -0.0621  0.4814 -0.5774
 9190TIP3    H127534   6.758   0.504   3.848 -1.1055  1.3218  0.8625
 9190TIP3    H227535   6.861   0.458   3.948 -0.4286  0.7790 -0.0714
 9191TIP3   OH227536   2.406   4.848   3.109  0.0575 -0.0824  0.4022
 9191TIP3    H127537   2.370   4.812   3.028  0.7048  0.1727 -0.0021
 9191TIP3    H227538   2.422   4.771   3.164  1.2091 -0.4140 -0.3636
 9192TIP3   OH227539   1.879   1.861   1.260 -1.0287  0.4761  0.1926
 9192TIP3    H127540   1.816   1.932   1.270  0.2204  2.1919 -2.8634
 9192TIP3    H227541   1.931   1.864   1.340 -2.1934  1.7636  0.9485
 9193TIP3   OH227542   6.438   5.668   5.785  0.0449  0.1333 -0.1423
 9193TIP3    H127543   6.435   5.660   5.880 -1.2587  0.0093 -0.1761
 9193TIP3    H227544   6.520   5.714   5.767  0.3502  0.0767  1.0289
 9194TIP3   OH227545   1.167   5.137   2.570 -0.3125  0.0668 -0.3638
 9194TIP3    H127546   1.077   5.141   2.537  0.1043 -0.6222 -1.6865
 9194TIP3    H227547   1.159   5.100   2.657 -1.3147  0.0850 -0.4303
 9195TIP3   OH227548   3.675   3.128   4.440  0.3243 -0.0281  0.1254
 9195TIP3    H127549   3.727   3.190   4.491 -0.2149 -0.3037  1.0349
 9195TIP3    H227550   3.736   3.093   4.375  0.9972  0.4226  0.5030
 9196TIP3   OH227551   1.934   6.050   4.278  0.2487 -0.0734  0.1978
 9196TIP3    H127552   1.887   6.038   4.360  0.0585 -0.4658  0.0332
 9196TIP3    H227553   1.953   5.961   4.247  1.1868  0.0781  0.3108
 9197TIP3   OH227554   3.252   4.615   0.710  0.4740 -0.6514  0.2242
 9197TIP3    H127555   3.328   4.633   0.655 -0.7279  0.6391 -1.0889
 9197TIP3    H227556   3.188   4.576   0.651  0.6767 -3.4307  1.6772
 9198TIP3   OH227557   6.858   6.619   3.936 -0.2759  0.5338 -0.1412
 9198TIP3    H127558   6.902   6.563   3.873  1.7777  1.0315  0.7598
 9198TIP3    H227559   6.841   6.701   3.889  0.3194  0.5373 -0.3575
 9199TIP3   OH227560   4.767   4.324   0.604  0.1496  0.1810  0.0792
 9199TIP3    H127561   4.811   4.356   0.525 -2.8251  1.5084 -1.2008
 9199TIP3    H227562   4.776   4.229   0.600  0.5283  0.2590 -1.5716
 9200TIP3   OH227563   0.400   2.961   3.903  0.1468 -0.2044  0.2431
 9200TIP3    H127564   0.430   2.947   3.993  0.2091  1.3524  0.4901
 9200TIP3    H227565   0.305   2.965   3.909 -0.0988 -3.0200 -0.2363
 9201TIP3   OH227566   6.259   4.075   3.374  0.0048  0.5048  0.0205
 9201TIP3    H127567   6.259   4.160   3.329  1.6027  0.9888  0.8797
 9201TIP3    H227568   6.330   4.026   3.333  0.3891  0.3335  0.8802
 9202TIP3   OH227569   1.801   2.485   5.852 -0.3198 -0.3325  0.4303
 9202TIP3    H127570   1.874   2.542   5.875 -0.7130  0.0625  0.7332
 9202TIP3    H227571   1.840   2.399   5.840 -0.0434 -0.4909  2.2668
 9203TIP3   OH227572   3.968   4.386   5.890  0.1246 -0.2122  0.0857
 9203TIP3    H127573   3.950   4.470   5.933  1.1264  0.0726 -0.0097
 9203TIP3    H227574   3.916   4.389   5.809  0.0664  0.2765  0.1369
 9204TIP3   OH227575   4.734   6.515   3.438  0.1364 -0.4174 -0.2624
 9204TIP3    H127576   4.757   6.600   3.400  0.2840 -1.0263 -1.6108
 9204TIP3    H227577   4.805   6.495   3.498  0.8971 -0.2774 -1.0985
 9205TIP3   OH227578   4.492   2.479   0.011  0.0735 -0.3486 -0.1804
 9205TIP3    H127579   4.421   2.542  -0.005  0.3072 -0.2686 -0.9223
 9205TIP3    H227580   4.467   2.437   0.094 -0.1137  0.6669  0.3014
 9206TIP3   OH227581   1.964   5.769   2.922 -0.1425  0.1423 -0.0804
 9206TIP3    H127582   1.963   5.816   2.838 -0.0952  0.9867  0.3869
 9206TIP3    H227583   1.878   5.786   2.960 -0.3236 -0.5994 -0.1437
 9207TIP3   OH227584   6.733   3.410   3.560  0.3596  1.0326 -0.0139
 9207TIP3    H127585   6.806   3.358   3.595  0.7375  2.5749  1.6502
 9207TIP3    H227586   6.775   3.478   3.507  0.1091  1.5705  0.4698
 9208TIP3   OH227587   6.420   3.223   1.724  0.0632  0.4102  0.1321
 9208TIP3    H127588   6.355   3.247   1.658  0.4019  1.4872  0.1723
 9208TIP3    H227589   6.369   3.198   1.801 -0.3115  0.3186 -0.1434
 9209TIP3   OH227590   4.510   0.262   3.061 -0.4841 -0.0171 -0.7397
 9209TIP3    H127591   4.503   0.345   3.108  0.3857 -0.5382  0.3704
 9209TIP3    H227592   4.458   0.201   3.114  0.6922 -0.6644 -0.2835
 9210TIP3   OH227593   5.613   4.904   5.380  0.4345  0.8211 -0.4113
 9210TIP3    H127594   5.673   4.832   5.360 -0.4846  0.2598 -1.2231
 9210TIP3    H227595   5.572   4.926   5.296 -1.3675  0.3818  0.3059
 9211TIP3   OH227596   2.097   5.652   5.860  0.6132 -0.6265 -0.2766
 9211TIP3    H127597   2.192   5.668   5.863  0.5483 -0.4104  0.9694
 9211TIP3    H227598   2.068   5.697   5.780  1.2039  1.3839  0.5766
 9212TIP3   OH227599   6.870   1.717   1.283 -0.3071  0.0673 -0.2632
 9212TIP3    H127600   6.861   1.796   1.336 -0.2960 -0.1582  0.0722
 9212TIP3    H227601   6.785   1.674   1.291  0.3148 -0.9556  1.1417
 9213TIP3   OH227602   1.927   5.822   2.535  0.5579 -0.0909 -0.3591
 9213TIP3    H127603   1.847   5.774   2.515  0.4467  0.7801 -2.1426
 9213TIP3    H227604   1.903   5.878   2.609  0.0544 -1.1188  0.2778
 9214TIP3   OH227605   6.162   3.147   0.466 -0.0132  0.2722  0.3330
 9214TIP3    H127606   6.216   3.211   0.511  0.3972  1.0759 -1.2285
 9214TIP3    H227607   6.221   3.072   0.452  0.1549  0.4169  0.2604
 9215TIP3   OH227608   6.259   0.636   4.898  0.2302  0.3886 -0.3709
 9215TIP3    H127609   6.228   0.635   4.989  0.6173  1.6649 -0.2034
 9215TIP3    H227610   6.299   0.722   4.887  0.6012  0.0835 -1.6258
 9216TIP3   OH227611   1.891   4.761   1.960  0.1434  0.4557 -0.0626
 9216TIP3    H127612   1.949   4.691   1.991 -0.7481 -0.3690 -0.1932
 9216TIP3    H227613   1.872   4.812   2.039 -0.1824 -0.1993  0.3029
 9217TIP3   OH227614   4.554   5.575   1.955 -0.4867 -0.0967 -0.5087
 9217TIP3    H127615   4.488   5.641   1.933  1.4425  1.4429 -2.0068
 9217TIP3    H227616   4.614   5.575   1.880  2.3085 -0.0182  1.5770
 9218TIP3   OH227617   5.700   2.617   0.419  0.2845 -0.2997 -0.1640
 9218TIP3    H127618   5.739   2.596   0.334 -0.7107  0.8523 -0.9320
 9218TIP3    H227619   5.664   2.705   0.408 -0.5721 -0.4537  1.2069
 9219TIP3   OH227620   6.091   3.638   1.821 -0.0222 -0.0054 -0.0839
 9219TIP3    H127621   6.102   3.658   1.915 -2.1051 -0.2102  0.2542
 9219TIP3    H227622   6.058   3.719   1.783 -0.6358 -0.3658 -0.3341
 9220TIP3   OH227623   3.646   0.345   3.565  0.5771 -0.3508 -0.1503
 9220TIP3    H127624   3.723   0.348   3.622  1.2501 -0.4050 -1.0382
 9220TIP3    H227625   3.588   0.412   3.600  0.1934 -1.5745  1.6786
 9221TIP3   OH227626   2.886   0.197   1.358 -0.8121 -0.3317 -0.1824
 9221TIP3    H127627   2.966   0.174   1.406 -0.0755 -0.5799 -1.5028
 9221TIP3    H227628   2.829   0.121   1.368 -1.0109 -0.0676  0.9469
 9222TIP3   OH227629   0.116   5.354   5.261 -0.3558  0.2369  0.0183
 9222TIP3    H127630   0.198   5.305   5.271 -0.1561  0.6205  0.3096
 9222TIP3    H227631   0.144   5.441   5.234 -0.4498  1.1848  2.6408
 9223TIP3   OH227632  -0.020   5.035   3.534  0.8709  0.3727 -0.1059
 9223TIP3    H127633  -0.048   4.978   3.605 -1.1454  0.9653 -0.3756
 9223TIP3    H227634   0.075   5.021   3.529  0.6987 -1.5851  0.9850
 9224TIP3   OH227635   5.241   5.884   1.995  0.2535 -0.1746 -0.4685
 9224TIP3    H127636   5.258   5.978   1.986 -0.3704  0.0221  0.3047
 9224TIP3    H227637   5.270   5.863   2.084  0.0619 -0.6370 -0.5121
 9225TIP3   OH227638   6.168   3.723   1.167  0.1507  0.3215 -0.5103
 9225TIP3    H127639   6.253   3.712   1.123 -0.0329 -0.2203 -0.7310
 9225TIP3    H227640   6.188   3.778   1.243  1.0457 -1.2236  0.4251
 9226TIP3   OH227641   3.186   1.906   1.943  0.3850 -0.0419  0.0223
 9226TIP3    H127642   3.183   2.000   1.964  2.0347  0.0444  0.0086
 9226TIP3    H227643   3.117   1.894   1.878 -1.8608  0.5566  2.1537
 9227TIP3   OH227644   0.178   2.929   0.075 -0.1924 -0.3735 -0.1379
 9227TIP3    H127645   0.134   2.978   0.144 -0.1453 -0.8542  0.2429
 9227TIP3    H227646   0.187   2.991   0.003 -1.7742 -0.3467 -0.3492
 9228TIP3   OH227647   2.522   3.678   5.155  0.2875  0.4443  0.4125
 9228TIP3    H127648   2.544   3.735   5.081 -0.9834  0.6632  0.1786
 9228TIP3    H227649   2.538   3.732   5.232 -3.2453  2.1625  0.1747
 9229TIP3   OH227650   4.690   3.790   3.376  0.1639 -0.1320 -0.3138
 9229TIP3    H127651   4.638   3.831   3.445 -0.1014  0.6225 -0.9336
 9229TIP3    H227652   4.744   3.862   3.342  0.5407 -0.5705 -0.6536
 9230TIP3   OH227653   5.345   6.490   0.224  0.6234 -0.0910 -0.0587
 9230TIP3    H127654   5.268   6.494   0.281  0.7285  1.2357  0.0139
 9230TIP3    H227655   5.394   6.414   0.255  1.0733  1.0378  2.1582
 9231TIP3   OH227656   1.467   2.636   4.179  0.5894  0.3139  0.0828
 9231TIP3    H127657   1.410   2.579   4.127 -1.5851  0.7902  1.7803
 9231TIP3    H227658   1.516   2.577   4.236  0.9342 -0.0374 -0.5674
 9232TIP3   OH227659   4.074   0.747   0.382  0.1151 -0.2599 -0.1293
 9232TIP3    H127660   4.123   0.685   0.436  0.1951  0.3102  0.4660
 9232TIP3    H227661   4.136   0.774   0.314 -0.0717 -1.1908 -0.7026
 9233TIP3   OH227662   5.896   3.979   4.126  0.4718  0.2729  0.1930
 9233TIP3    H127663   5.857   3.915   4.186 -1.7257  1.9398  0.6289
 9233TIP3    H227664   5.865   3.953   4.040 -0.2324  0.6103  0.3429
 9234TIP3   OH227665   3.492   6.368   1.370 -0.3912  0.0418  0.5444
 9234TIP3    H127666   3.444   6.350   1.451 -0.0409 -0.6210  0.6071
 9234TIP3    H227667   3.578   6.398   1.398 -0.5393  0.6149  0.4185
 9235TIP3   OH227668   5.447   3.338   5.165  0.1596 -0.7806 -0.6151
 9235TIP3    H127669   5.389   3.290   5.225 -0.4187 -1.3097 -1.5689
 9235TIP3    H227670   5.481   3.271   5.107  0.8718 -0.3000 -0.7600
 9236TIP3   OH227671   5.101   5.065   2.525 -0.0382 -0.2643 -0.1087
 9236TIP3    H127672   5.111   5.122   2.449 -2.0170 -0.1255 -0.3274
 9236TIP3    H227673   5.178   5.082   2.579 -0.7464  2.9475  0.0469
 9237TIP3   OH227674   5.584   5.107   3.138 -0.5847  0.7047 -0.1299
 9237TIP3    H127675   5.632   5.182   3.173 -0.4321  1.3945 -1.7559
 9237TIP3    H227676   5.506   5.102   3.193 -0.4662  1.8889  0.1849
 9238TIP3   OH227677   1.053   5.845   0.763  0.0406  0.0212  0.4725
 9238TIP3    H127678   1.076   5.800   0.682  0.1670 -0.6056  0.8473
 9238TIP3    H227679   1.134   5.891   0.788  0.3407 -0.6757  0.8131
 9239TIP3   OH227680   1.959   4.396   1.991  0.5404 -0.2139  0.2574
 9239TIP3    H127681   2.024   4.464   1.972  0.5682 -0.5075 -0.7489
 9239TIP3    H227682   1.904   4.434   2.059 -0.2268  1.3401 -1.1679
 9240TIP3   OH227683   3.392   2.270   4.893  0.0239  0.1676 -0.3218
 9240TIP3    H127684   3.360   2.359   4.877 -0.6780  0.5300  2.5316
 9240TIP3    H227685   3.315   2.215   4.881  0.1501  0.0984 -0.8251
 9241TIP3   OH227686   0.441   5.366   1.223 -0.4555  0.2099 -0.2361
 9241TIP3    H127687   0.459   5.279   1.187 -2.1640  0.6762 -2.3829
 9241TIP3    H227688   0.525   5.412   1.216  0.0147 -0.6900 -0.7504
 9242TIP3   OH227689   3.809   5.245   1.280 -0.3797 -0.2971  0.2870
 9242TIP3    H127690   3.891   5.232   1.327 -0.2218 -0.1170  0.0628
 9242TIP3    H227691   3.812   5.336   1.250 -1.1320  0.0440  1.1744
 9243TIP3   OH227692   4.829   6.483   2.887  0.2075 -0.1897  0.4330
 9243TIP3    H127693   4.763   6.510   2.824  0.2937  0.5640  0.6537
 9243TIP3    H227694   4.783   6.423   2.946 -0.6254  1.2605  1.3165
 9244TIP3   OH227695   1.702   3.471   1.172 -0.3111  0.1922  0.2369
 9244TIP3    H127696   1.654   3.465   1.254  0.0840  0.0115  0.4626
 9244TIP3    H227697   1.792   3.447   1.196 -0.4112 -0.9453 -0.4509
 9245TIP3   OH227698   5.315   6.274   1.078  0.4298 -0.1485  0.2700
 9245TIP3    H127699   5.277   6.220   1.009 -0.4359  0.4459  0.2819
 9245TIP3    H227700   5.253   6.345   1.091  0.6820 -0.1291  1.5116
 9246TIP3   OH227701   6.737   5.332   5.347  0.0935  0.2872 -0.3672
 9246TIP3    H127702   6.737   5.411   5.402 -0.2228  0.0489 -0.0215
 9246TIP3    H227703   6.692   5.359   5.267 -1.0618  0.1527  0.2131
 9247TIP3   OH227704   1.214   0.563   0.671  0.9745 -0.7251 -0.5441
 9247TIP3    H127705   1.225   0.501   0.744 -0.4968 -1.1353 -0.6464
 9247TIP3    H227706   1.204   0.648   0.714 -1.1826 -1.1330 -0.1608
 9248TIP3   OH227707   1.427   2.116   1.562  0.2001  0.4794 -0.3424
 9248TIP3    H127708   1.346   2.088   1.518 -0.5210 -0.4020  1.4400
 9248TIP3    H227709   1.431   2.210   1.546 -0.4015  0.3129 -1.6578
 9249TIP3   OH227710   6.990   1.010   1.664 -0.7184  0.4214  0.5331
 9249TIP3    H127711   6.925   1.004   1.595 -1.4179  2.0037  1.0079
 9249TIP3    H227712   7.020   0.920   1.677 -2.9481 -0.4009  0.4382
 9250TIP3   OH227713   0.314   6.608   0.517  0.3925 -0.4594 -0.3174
 9250TIP3    H127714   0.380   6.596   0.448  0.7586 -1.6220  0.2136
 9250TIP3    H227715   0.235   6.635   0.470  0.5863 -1.4190 -1.2294
 9251TIP3   OH227716   0.554   0.575   2.598  0.3036 -0.4351  0.4170
 9251TIP3    H127717   0.554   0.562   2.693  0.0086 -0.4421  0.4173
 9251TIP3    H227718   0.641   0.610   2.579 -0.0992  0.8950  0.8819
 9252TIP3   OH227719   2.978   4.844   3.180 -0.1635  0.0889  0.1780
 9252TIP3    H127720   3.044   4.873   3.243  0.7384  0.9153 -1.0925
 9252TIP3    H227721   2.920   4.920   3.169  0.0783  0.1874 -0.4695
 9253TIP3   OH227722   2.870   1.823   5.166  0.0426  0.6464  0.0180
 9253TIP3    H127723   2.836   1.797   5.252  2.0614 -0.7813  0.4623
 9253TIP3    H227724   2.932   1.754   5.143  0.2537  1.4868 -2.1855
 9254TIP3   OH227725   5.493   2.443   1.788 -0.1543  0.4493 -0.9010
 9254TIP3    H127726   5.505   2.435   1.694 -0.3328  0.2256 -0.9056
 9254TIP3    H227727   5.534   2.365   1.824 -0.3504  0.3858 -0.8150
 9255TIP3   OH227728   4.580   3.305   2.891  0.3304 -0.0368 -0.4317
 9255TIP3    H127729   4.495   3.313   2.848 -0.1704 -0.4790  0.4496
 9255TIP3    H227730   4.637   3.365   2.843 -0.5249  0.4201 -0.9018
 9256TIP3   OH227731   1.420   0.318   0.795 -0.4382 -0.9485 -0.6499
 9256TIP3    H127732   1.454   0.400   0.761 -2.4331 -0.2412 -1.0943
 9256TIP3    H227733   1.338   0.342   0.839 -0.5503 -2.5669  0.1164
 9257TIP3   OH227734   3.775   1.198   0.001  0.2892  0.0359 -0.2196
 9257TIP3    H127735   3.714   1.265   0.031 -0.9802 -0.4463 -1.5604
 9257TIP3    H227736   3.772   1.130   0.068  1.2510  1.0741  0.9267
 9258TIP3   OH227737   3.158   3.468   3.744  0.5224  0.4446 -0.2648
 9258TIP3    H127738   3.088   3.510   3.694 -1.2167 -2.3464 -0.3785
 9258TIP3    H227739   3.211   3.423   3.678 -0.2887 -1.1441  0.1068
 9259TIP3   OH227740   2.934   5.336   5.431 -0.5416  0.4756 -0.2618
 9259TIP3    H127741   2.884   5.306   5.507 -1.2503  2.2428  0.0148
 9259TIP3    H227742   2.934   5.261   5.371 -0.5981 -0.7033  1.1435
 9260TIP3   OH227743   0.882   3.592   4.158  0.3186 -0.0441  0.3629
 9260TIP3    H127744   0.959   3.538   4.141 -0.0762 -1.2344  2.1963
 9260TIP3    H227745   0.917   3.678   4.181  1.1530 -0.7312  1.7389
 9261TIP3   OH227746   2.689   2.867   1.254 -0.0819 -0.3169  0.1667
 9261TIP3    H127747   2.735   2.787   1.226 -0.9529 -1.0069  0.6470
 9261TIP3    H227748   2.656   2.905   1.173  0.7939 -0.1399 -0.1229
 9262TIP3   OH227749   2.289   3.859   4.958  0.4929 -0.0902 -0.4038
 9262TIP3    H127750   2.374   3.902   4.963 -0.2017  1.2643  0.0832
 9262TIP3    H227751   2.256   3.860   5.048  0.0738 -0.8440 -0.5409
 9263TIP3   OH227752   7.041   2.826   3.477 -0.2435  0.1411 -0.1823
 9263TIP3    H127753   7.074   2.869   3.556 -0.9722  1.2984 -0.4948
 9263TIP3    H227754   6.947   2.842   3.479 -0.2268  0.4766 -1.4590
 9264TIP3   OH227755   0.426   1.939   5.188 -0.2417 -0.0649 -0.0460
 9264TIP3    H127756   0.517   1.932   5.159 -0.2255  0.1460 -0.0476
 9264TIP3    H227757   0.431   1.937   5.283 -0.0101  2.3424  0.0517
 9265TIP3   OH227758   0.787   4.831   5.874 -0.0237 -0.4072 -0.1553
 9265TIP3    H127759   0.865   4.879   5.846  0.6533  0.1679  2.4396
 9265TIP3    H227760   0.716   4.869   5.823  0.8144  1.9477  0.2969
 9266TIP3   OH227761   6.023   2.364   3.059 -0.1882  0.2504 -0.0099
 9266TIP3    H127762   6.050   2.362   2.967 -0.2467 -1.3318 -0.0062
 9266TIP3    H227763   5.954   2.430   3.062  1.2702  1.8894 -0.6713
 9267TIP3   OH227764   4.066   4.217   4.669 -0.0486  0.2490  0.1989
 9267TIP3    H127765   4.153   4.254   4.653 -1.5407  3.4744 -1.4249
 9267TIP3    H227766   4.044   4.172   4.587 -0.1659  0.0458  0.3436
 9268TIP3   OH227767   3.025   3.510   0.815 -0.2680  0.9049  0.5067
 9268TIP3    H127768   2.982   3.593   0.798  0.4028  1.3577  0.9639
 9268TIP3    H227769   2.970   3.466   0.880 -0.8409  0.8025 -0.0395
 9269TIP3   OH227770   2.836   3.502   2.905  0.1168 -0.4408  0.3095
 9269TIP3    H127771   2.796   3.416   2.893 -1.5458  0.4973 -1.2660
 9269TIP3    H227772   2.843   3.512   3.000 -0.1814 -2.0544  0.5319
 9270TIP3   OH227773   6.469   2.905   5.765 -0.5540 -0.2140 -0.0909
 9270TIP3    H127774   6.374   2.897   5.753 -0.7456 -0.5609  1.3998
 9270TIP3    H227775   6.483   2.999   5.775 -0.5840 -0.0629 -1.2958
 9271TIP3   OH227776   0.204   3.596   2.324 -0.6706 -0.1969  0.2626
 9271TIP3    H127777   0.198   3.627   2.415 -3.6083  1.0291 -0.2486
 9271TIP3    H227778   0.153   3.515   2.323  1.6279 -1.7703  0.1730
 9272TIP3   OH227779   2.489   2.199   3.169  0.0393  0.6843 -0.0226
 9272TIP3    H127780   2.487   2.175   3.076  0.2746 -0.9575  0.3731
 9272TIP3    H227781   2.579   2.180   3.196 -0.2839  0.2700  0.7659
 9273TIP3   OH227782   3.096   0.060   2.617 -0.4424  0.0374 -0.7074
 9273TIP3    H127783   3.065   0.141   2.658  1.7465  1.2182 -1.2509
 9273TIP3    H227784   3.165   0.029   2.674  0.4576 -0.0322 -1.7954
 9274TIP3   OH227785   0.531   4.599   1.927  0.2304  0.3743 -0.3494
 9274TIP3    H127786   0.474   4.558   1.992 -0.5513  2.0947  0.0933
 9274TIP3    H227787   0.620   4.582   1.958 -0.0908 -0.2148  0.2804
 9275TIP3   OH227788   5.548   0.669   0.361  0.4077  0.8689  0.0250
 9275TIP3    H127789   5.539   0.745   0.303  0.1452  1.1077  0.3792
 9275TIP3    H227790   5.509   0.697   0.444  1.4112  0.7627  0.5357
 9276TIP3   OH227791   6.444   0.914   2.953  0.0783  0.1037 -0.4371
 9276TIP3    H127792   6.484   0.835   2.917 -0.1996  0.0186 -0.5647
 9276TIP3    H227793   6.483   0.924   3.040  0.1254 -0.1630 -0.4287
 9277TIP3   OH227794   3.366   6.048   3.511  0.0832 -0.6824  0.1291
 9277TIP3    H127795   3.365   5.990   3.435  0.2547  0.0419 -0.4420
 9277TIP3    H227796   3.327   6.129   3.479  0.8899 -0.1006  0.5902
 9278TIP3   OH227797   5.323   0.436   3.017 -0.0064  0.5063 -0.4633
 9278TIP3    H127798   5.284   0.459   3.102 -0.8454 -2.3574  0.0317
 9278TIP3    H227799   5.406   0.394   3.040  0.2886  0.7038 -1.1448
 9279TIP3   OH227800   4.006   2.576   0.745 -0.3149  0.2035 -0.2776
 9279TIP3    H127801   4.077   2.640   0.747 -1.1634  1.1808  2.4463
 9279TIP3    H227802   4.043   2.498   0.787  0.0273 -0.3555 -1.5759
 9280TIP3   OH227803   3.290   4.102   1.912 -0.7315  0.0841  0.2934
 9280TIP3    H127804   3.276   4.141   1.998 -0.4861 -1.1716  0.9177
 9280TIP3    H227805   3.295   4.177   1.852 -1.4378  0.9430  1.2839
 9281TIP3   OH227806   1.597   2.176   4.869 -0.4784  0.1118 -0.1040
 9281TIP3    H127807   1.617   2.229   4.792  0.1383  0.0035 -0.0231
 9281TIP3    H227808   1.572   2.240   4.936  1.5883  0.4433  0.4074
 9282TIP3   OH227809   4.605   3.301   1.975 -0.3150  0.0149  0.5901
 9282TIP3    H127810   4.615   3.392   1.947  1.5635 -0.0377  0.9568
 9282TIP3    H227811   4.543   3.263   1.912 -0.6327  1.3733  0.0472
 9283TIP3   OH227812   6.103   5.756   1.820  0.1865 -0.9525  0.1161
 9283TIP3    H127813   6.071   5.794   1.738  0.2398  1.1351  1.0152
 9283TIP3    H227814   6.199   5.764   1.814  0.2693 -2.0402 -0.1739
 9284TIP3   OH227815   6.081   6.285   3.950  0.1579 -0.7057 -0.4489
 9284TIP3    H127816   6.117   6.316   4.034  2.4130  1.2177 -1.9924
 9284TIP3    H227817   6.111   6.350   3.886 -0.5172 -2.6996 -2.9256
 9285TIP3   OH227818   0.177   5.926   3.145  0.1141  0.0322  0.1997
 9285TIP3    H127819   0.157   5.834   3.125 -0.3316  0.1955 -0.1246
 9285TIP3    H227820   0.142   5.939   3.232  1.8102 -0.6052  1.0367
 9286TIP3   OH227821   0.810   3.073   5.333 -0.4035  0.2183 -0.0544
 9286TIP3    H127822   0.820   2.993   5.384 -1.9667  1.4297  2.3365
 9286TIP3    H227823   0.885   3.073   5.274  0.2818 -2.3972  0.6934
 9287TIP3   OH227824   5.461   0.043   4.734  0.0451 -0.3777  0.0075
 9287TIP3    H127825   5.488   0.024   4.824  1.7180 -0.4879 -0.4851
 9287TIP3    H227826   5.366   0.053   4.739 -0.2514 -3.1394  1.2953
 9288TIP3   OH227827   1.236   3.249   3.815  0.6602  0.0182 -0.4220
 9288TIP3    H127828   1.220   3.155   3.813 -2.5984  0.3864  1.6497
 9288TIP3    H227829   1.288   3.263   3.894 -0.4381  0.0997  0.3005
 9289TIP3   OH227830   4.709   1.478   2.322  0.5629  0.1365 -0.0388
 9289TIP3    H127831   4.637   1.415   2.330  1.2114 -0.6764 -0.3580
 9289TIP3    H227832   4.711   1.523   2.406 -0.4631  0.3369 -0.1094
 9290TIP3   OH227833   5.783   1.672   2.424 -0.4529  0.1175 -0.5711
 9290TIP3    H127834   5.717   1.699   2.361  0.6951  1.3866 -1.2971
 9290TIP3    H227835   5.769   1.579   2.436 -1.7890  0.1938 -1.3891
 9291TIP3   OH227836   6.873   0.052   5.200  0.5226  0.1618 -0.1578
 9291TIP3    H127837   6.849   0.038   5.109 -0.4325 -1.6828  0.3362
 9291TIP3    H227838   6.914  -0.030   5.227  0.4488  0.5421  1.1760
 9292TIP3   OH227839   5.696   5.954   0.744  0.4055  0.0798 -0.1225
 9292TIP3    H127840   5.629   6.017   0.770 -0.1976 -0.8103  0.5471
 9292TIP3    H227841   5.749   6.000   0.679 -1.5075  0.4553 -1.5113
 9293TIP3   OH227842   3.140   4.801   0.224  0.4420  0.1002  0.0554
 9293TIP3    H127843   3.205   4.871   0.229  0.1592  0.5193 -1.5352
 9293TIP3    H227844   3.057   4.843   0.245  0.2991  0.2290 -0.7162
 9294TIP3   OH227845   3.705   2.163   0.912  0.4181 -0.0871 -0.1887
 9294TIP3    H127846   3.660   2.087   0.874  1.6117 -0.5095 -0.8189
 9294TIP3    H227847   3.635   2.227   0.928 -0.7386 -1.5973  1.1198
 9295TIP3   OH227848   0.028   3.680   0.058  0.2624 -0.0519 -0.8732
 9295TIP3    H127849   0.036   3.704  -0.034 -1.7028  3.4083 -0.3439
 9295TIP3    H227850   0.112   3.639   0.080  2.2919  2.3929 -3.3264
 9296TIP3   OH227851   1.150   0.535   0.037 -0.1064 -0.0139 -0.3298
 9296TIP3    H127852   1.212   0.605   0.055 -0.9850  1.1132 -1.4820
 9296TIP3    H227853   1.205   0.458   0.020  0.8625  0.2558  1.3547
 9297TIP3   OH227854   2.632   6.454   2.343  0.3208 -0.2681  0.3151
 9297TIP3    H127855   2.643   6.539   2.386  0.2114  1.4162 -2.7117
 9297TIP3    H227856   2.543   6.427   2.366  0.4070  0.3405  1.4379
 9298TIP3   OH227857   5.113   3.391   2.702  0.6174  0.3095 -0.1581
 9298TIP3    H127858   5.138   3.299   2.711 -2.9467 -0.7696 -0.0989
 9298TIP3    H227859   5.042   3.403   2.765  0.2281  2.7935 -0.9789
 9299TIP3   OH227860   4.017   1.501   3.136 -0.2891  0.2833 -0.5393
 9299TIP3    H127861   3.996   1.462   3.220  2.6241 -2.5007 -0.8921
 9299TIP3    H227862   4.013   1.428   3.074  2.3032  1.1181 -1.8550
 9300TIP3   OH227863   1.056   0.028   4.258 -0.3756  0.0545 -0.2282
 9300TIP3    H127864   1.024   0.094   4.197  1.1273  0.8899 -0.1499
 9300TIP3    H227865   1.129  -0.014   4.212 -1.6220 -1.9408 -0.4889
 9301TIP3   OH227866   6.436   2.111   3.024 -0.1627  0.1310 -0.0160
 9301TIP3    H127867   6.517   2.077   2.986  1.3399  0.1758  2.8868
 9301TIP3    H227868   6.413   2.046   3.091 -2.0542  0.5982 -0.1701
 9302TIP3   OH227869   1.917   5.925   0.908  0.2252  0.1475  0.1650
 9302TIP3    H127870   1.844   5.932   0.970  0.3272 -1.0358  0.4454
 9302TIP3    H227871   1.987   5.978   0.947 -0.1445  0.4573  0.4124
 9303TIP3   OH227872   6.782   2.687   0.768  0.0386 -0.5267  0.3930
 9303TIP3    H127873   6.827   2.751   0.714  0.2616 -1.3047 -0.3588
 9303TIP3    H227874   6.697   2.727   0.787 -0.2626 -0.4525 -0.9849
 9304TIP3   OH227875   4.756   5.201   2.465  0.3371 -0.1008 -0.2751
 9304TIP3    H127876   4.816   5.266   2.430  1.4998 -1.3271 -0.6473
 9304TIP3    H227877   4.801   5.164   2.541  0.6293 -1.8494 -1.2439
 9305TIP3   OH227878   1.874   3.902   1.294  0.4129  0.3704 -0.3696
 9305TIP3    H127879   1.918   3.899   1.379  0.7625 -2.6425 -0.5327
 9305TIP3    H227880   1.886   3.992   1.263  1.8907  1.0360  1.9142
 9306TIP3   OH227881   0.888   0.595   4.312  0.5228  0.2706 -0.0445
 9306TIP3    H127882   0.894   0.618   4.219  0.1401  0.5151 -0.0126
 9306TIP3    H227883   0.798   0.615   4.336  0.1235 -1.3459 -0.0303
 9307TIP3   OH227884   5.013   4.554   3.675  0.2026  0.1256  0.3283
 9307TIP3    H127885   5.041   4.488   3.738 -0.6621  0.2551  0.8743
 9307TIP3    H227886   4.939   4.597   3.718 -0.8968 -0.2851 -1.0771
 9308TIP3   OH227887   1.629   6.162   0.667 -0.5160 -0.3317  0.0997
 9308TIP3    H127888   1.669   6.129   0.747 -0.1932  0.5212  0.3042
 9308TIP3    H227889   1.547   6.203   0.695 -0.0109  0.7024  0.1328
 9309TIP3   OH227890   0.665   5.810   1.684  0.0592 -0.2525 -0.3614
 9309TIP3    H127891   0.655   5.717   1.666  0.7023 -0.3614 -0.1805
 9309TIP3    H227892   0.717   5.813   1.764 -0.1617  0.2625 -0.2336
 9310TIP3   OH227893   2.290   5.690   5.111 -0.1466 -0.4278  0.4005
 9310TIP3    H127894   2.245   5.606   5.103 -0.6044 -0.0514 -1.6966
 9310TIP3    H227895   2.370   5.678   5.060 -0.2395  0.4097  0.0461
 9311TIP3   OH227896   2.211   3.892   1.009 -0.0320  0.0231  0.1655
 9311TIP3    H127897   2.144   3.833   0.975  2.1935 -1.6443 -1.6622
 9311TIP3    H227898   2.190   3.903   1.101 -3.1997  0.2039 -0.4851
 9312TIP3   OH227899   3.684   1.208   0.773 -0.5664  0.1294 -0.1411
 9312TIP3    H127900   3.757   1.152   0.797  1.2073  1.5383 -1.9270
 9312TIP3    H227901   3.682   1.276   0.841 -0.1027  0.1768 -0.1719
 9313TIP3   OH227902   5.853   1.235   4.271 -0.2607  0.0610  0.0417
 9313TIP3    H127903   5.888   1.206   4.186 -0.7222 -2.1105  0.5392
 9313TIP3    H227904   5.820   1.324   4.254 -1.2259 -0.6610 -2.3324
 9314TIP3   OH227905   4.950   1.771   1.497  0.5143 -0.4837 -0.5163
 9314TIP3    H127906   5.000   1.828   1.555 -0.5706  0.8007 -0.7942
 9314TIP3    H227907   4.893   1.831   1.448 -0.5879 -1.7955 -0.8984
 9315TIP3   OH227908   0.107   5.629   0.570 -0.3533 -0.1451 -0.1384
 9315TIP3    H127909   0.143   5.541   0.579 -1.0709 -0.6643 -1.8934
 9315TIP3    H227910   0.182   5.684   0.550 -0.1331 -0.6707 -0.7805
 9316TIP3   OH227911   3.439   4.804   5.335  0.1479  0.4101 -0.1786
 9316TIP3    H127912   3.460   4.797   5.428  0.5401 -0.5139 -0.3356
 9316TIP3    H227913   3.521   4.787   5.290 -0.3343 -0.5069 -0.7300
 9317TIP3   OH227914   1.441   2.526   4.450  0.2655  0.1986 -0.0762
 9317TIP3    H127915   1.536   2.534   4.452  0.2989 -0.1697 -0.2631
 9317TIP3    H227916   1.411   2.585   4.520  0.6475  0.0260  0.2349
 9318TIP3   OH227917   2.251   4.846   4.065 -0.7460  0.4906  0.1487
 9318TIP3    H127918   2.297   4.842   4.149 -1.1210  1.5340  0.4254
 9318TIP3    H227919   2.159   4.853   4.089 -0.9443 -0.1762 -0.3797
 9319TIP3   OH227920   4.834   4.852   2.960 -0.1883 -0.1159 -0.0344
 9319TIP3    H127921   4.806   4.834   3.050 -1.1128 -0.6508 -0.4129
 9319TIP3    H227922   4.793   4.936   2.938 -3.2451 -1.7604 -1.2303
 9320TIP3   OH227923   0.268   5.315   3.853  0.1857 -0.2776  0.7051
 9320TIP3    H127924   0.254   5.227   3.818 -1.7184  0.5545 -0.8678
 9320TIP3    H227925   0.337   5.352   3.799 -0.9480  0.1043 -0.5399
 9321TIP3   OH227926   3.665   0.524   5.426  0.6203 -0.2104  0.4928
 9321TIP3    H127927   3.616   0.452   5.466 -1.0594  1.2026  1.0950
 9321TIP3    H227928   3.744   0.531   5.480  0.5543 -1.2246  0.7593
 9322TIP3   OH227929   1.614   5.040   3.146  0.6934  0.1694  0.2575
 9322TIP3    H127930   1.669   4.961   3.138  0.1989 -0.1730  0.1935
 9322TIP3    H227931   1.626   5.085   3.062  0.8146  0.0583  0.2128
 9323TIP3   OH227932   7.105   2.291   5.899 -0.0126 -0.5276 -0.2271
 9323TIP3    H127933   7.188   2.339   5.893  2.3543 -4.1798 -0.0754
 9323TIP3    H227934   7.092   2.254   5.812 -2.2892  1.0086 -0.6160
 9324TIP3   OH227935   0.632   2.009   0.853  0.6815  0.1212  0.3221
 9324TIP3    H127936   0.706   1.985   0.797  0.7355  1.4915 -0.2198
 9324TIP3    H227937   0.555   1.971   0.811  0.7200  1.1438 -0.7039
 9325TIP3   OH227938   1.290   2.596   1.568  0.5298 -0.0557 -0.4182
 9325TIP3    H127939   1.326   2.528   1.625  1.1785 -0.1198 -0.8998
 9325TIP3    H227940   1.202   2.565   1.545  1.1197 -1.1219 -1.2856
 9326TIP3   OH227941   4.026   5.897   3.650 -0.5724 -0.6452 -0.1981
 9326TIP3    H127942   3.946   5.851   3.621 -0.5082 -1.8653  1.4376
 9326TIP3    H227943   3.998   5.948   3.726  0.0334 -0.4479 -0.1069
 9327TIP3   OH227944   5.789   0.349   4.610 -0.2432  0.2434  0.0173
 9327TIP3    H127945   5.765   0.366   4.701 -0.0728  1.7453 -0.1917
 9327TIP3    H227946   5.708   0.321   4.568 -0.1475 -1.2745  0.7965
 9328TIP3   OH227947   4.476   4.441   2.442 -0.2547 -0.3266  0.4749
 9328TIP3    H127948   4.480   4.433   2.538 -1.0750 -0.1243  0.5275
 9328TIP3    H227949   4.411   4.509   2.426 -0.3479 -0.5774 -0.2381
 9329TIP3   OH227950   5.627   3.486   3.134 -0.5139  0.7471  0.0773
 9329TIP3    H127951   5.625   3.537   3.053 -0.9820  1.3101  0.4314
 9329TIP3    H227952   5.680   3.539   3.194  0.4183  0.0026 -0.0635
 9330TIP3   OH227953   7.040   5.622   1.160  0.1127  0.1659  0.9121
 9330TIP3    H127954   7.000   5.558   1.100  1.1604  1.6496 -1.5589
 9330TIP3    H227955   6.989   5.615   1.240 -0.7871 -2.6478  0.2177
 9331TIP3   OH227956   3.784   6.334   1.519  0.3280 -0.0773  0.0979
 9331TIP3    H127957   3.847   6.308   1.452  1.6164 -1.4282  1.7557
 9331TIP3    H227958   3.836   6.347   1.598 -1.3270 -0.1062  1.2465
 9332TIP3   OH227959   2.805   4.254   1.277  0.0194  0.4983  0.4759
 9332TIP3    H127960   2.777   4.173   1.235 -1.1886  1.5369 -0.8696
 9332TIP3    H227961   2.899   4.259   1.261  0.1921 -0.8367  0.9837
 9333TIP3   OH227962   6.212   4.711   3.726 -0.0306  0.1621  0.2987
 9333TIP3    H127963   6.157   4.680   3.798  0.0568 -1.0452 -0.1416
 9333TIP3    H227964   6.238   4.632   3.679 -0.6992  0.9540 -1.5024
 9334TIP3   OH227965   2.925   4.766   5.508  0.4961 -0.5753 -0.1415
 9334TIP3    H127966   2.893   4.752   5.419 -0.1201  1.2870 -0.2638
 9334TIP3    H227967   3.019   4.785   5.498  0.2444  0.5312 -0.5145
 9335TIP3   OH227968   6.207   3.042   4.928 -0.6386  0.0274  0.6839
 9335TIP3    H127969   6.204   3.134   4.955 -1.9145  1.0448 -2.4493
 9335TIP3    H227970   6.139   3.035   4.861 -0.3971 -3.1755  0.6382
 9336TIP3   OH227971   4.652   5.085   4.463 -0.5959 -0.5709 -1.2451
 9336TIP3    H127972   4.644   5.156   4.526  2.8176 -0.6138 -0.5704
 9336TIP3    H227973   4.608   5.011   4.504  0.0812 -0.1305  0.3298
 9337TIP3   OH227974   1.050   5.778   5.761  0.1471  0.4080  0.3281
 9337TIP3    H127975   1.016   5.728   5.835 -1.0357 -2.3662 -1.8959
 9337TIP3    H227976   0.993   5.854   5.755 -0.6753 -0.1004  1.3825
 9338TIP3   OH227977   3.896   0.075   2.994 -0.0653  0.0562  0.4693
 9338TIP3    H127978   3.986   0.076   3.026  0.1019  1.2191  0.0225
 9338TIP3    H227979   3.846   0.120   3.063 -0.1490  0.1983  0.3172
 9339TIP3   OH227980   4.447   3.357   4.406  0.4203  0.2311  0.2912
 9339TIP3    H127981   4.525   3.323   4.362  0.0790 -1.1209  0.6825
 9339TIP3    H227982   4.481   3.423   4.468  0.9129  2.0893 -1.8364
 9340TIP3   OH227983   5.695   5.917   2.346  0.6890  0.1048  0.2785
 9340TIP3    H127984   5.776   5.873   2.373  1.1446  0.6988 -0.0650
 9340TIP3    H227985   5.699   6.002   2.390  0.4291  0.2788 -0.0283
 9341TIP3   OH227986   5.872   2.132   4.004 -0.3039 -0.8507 -0.0585
 9341TIP3    H127987   5.887   2.038   4.005 -3.6455 -1.5991 -2.2621
 9341TIP3    H227988   5.811   2.147   4.077  0.5250 -0.2960  0.5318
 9342TIP3   OH227989   1.520   6.395   5.107  0.2581 -0.0760  0.2493
 9342TIP3    H127990   1.477   6.324   5.154 -0.6047  0.5198  0.3829
 9342TIP3    H227991   1.516   6.369   5.015 -1.2216  0.3773  0.1581
 9343TIP3   OH227992   0.859   2.289   5.196  0.0121  0.6540  0.2708
 9343TIP3    H127993   0.772   2.258   5.168 -0.3117  1.6183  0.1899
 9343TIP3    H227994   0.867   2.257   5.286 -0.2809  0.2693  0.1662
 9344TIP3   OH227995   4.955   5.409   5.525  0.2949  0.3377  0.1646
 9344TIP3    H127996   4.972   5.503   5.534  1.0350  0.0889  1.6926
 9344TIP3    H227997   5.002   5.384   5.446  1.1734  1.0218  0.4491
 9345TIP3   OH227998   2.324   2.204   4.969  0.4193 -0.6769 -0.1548
 9345TIP3    H127999   2.367   2.288   4.955  0.5754 -0.6237  0.6328
 9345TIP3    H228000   2.321   2.193   5.064 -1.0192 -0.8260 -0.1917
 9346TIP3   OH228001   2.085   4.488   1.068 -0.5241 -0.0519  0.9133
 9346TIP3    H128002   2.164   4.529   1.105 -0.4606  0.7701 -0.0712
 9346TIP3    H228003   2.117   4.409   1.024 -0.0890  0.7042 -0.1939
 9347TIP3   OH228004   3.367   2.572   1.966 -0.2743  0.3989  0.3950
 9347TIP3    H128005   3.417   2.493   1.947 -0.1517  0.4501  0.5081
 9347TIP3    H228006   3.324   2.594   1.883  2.2612  2.0930 -0.5629
 9348TIP3   OH228007   7.000   4.475   1.223 -0.0522 -0.4462 -0.2585
 9348TIP3    H128008   7.074   4.416   1.208  0.3589  0.3495 -1.5154
 9348TIP3    H228009   6.997   4.486   1.318  0.3000 -1.9106 -0.0564
 9349TIP3   OH228010   1.666   1.516   0.411  0.1597  0.0264  0.4972
 9349TIP3    H128011   1.727   1.575   0.454 -0.1457  0.0097  0.9588
 9349TIP3    H228012   1.598   1.500   0.476  0.3886 -1.0641  0.4733
 9350TIP3   OH228013   3.461   6.180   0.625 -0.0018  0.0533 -0.2857
 9350TIP3    H128014   3.415   6.135   0.554 -0.4692 -0.0062  0.0477
 9350TIP3    H228015   3.548   6.199   0.590  0.2115 -1.1222 -0.4410
 9351TIP3   OH228016   3.153   6.460   1.850  0.2815  0.0502 -0.0038
 9351TIP3    H128017   3.176   6.550   1.828  1.3261 -0.3840 -0.8229
 9351TIP3    H228018   3.214   6.436   1.919  0.4217 -0.2134 -0.2146
 9352TIP3   OH228019   6.196   5.532   3.320  0.1897 -0.1691 -0.0949
 9352TIP3    H128020   6.258   5.525   3.393 -0.9968 -2.3951  0.7868
 9352TIP3    H228021   6.147   5.612   3.339  1.4205  0.5499  0.2453
 9353TIP3   OH228022   1.255   6.382   0.043  0.1192 -1.2828  0.0447
 9353TIP3    H128023   1.276   6.459  -0.011 -0.7920 -1.6565 -0.8618
 9353TIP3    H228024   1.324   6.319   0.022 -0.8024 -1.8231 -1.5263
 9354TIP3   OH228025   6.609   2.857   0.929  0.3087 -0.1314  0.1580
 9354TIP3    H128026   6.652   2.795   0.988  1.6487  0.7639  0.1675
 9354TIP3    H228027   6.584   2.930   0.985 -0.4194 -0.2375 -0.0166
 9355TIP3   OH228028   1.129   0.887   2.678  0.2459 -0.1649  0.1248
 9355TIP3    H128029   1.130   0.794   2.700 -0.4300 -0.2543 -0.2062
 9355TIP3    H228030   1.177   0.893   2.595 -0.8825 -0.4181 -0.5674
 9356TIP3   OH228031   4.534   4.522   4.552  0.0277 -0.0971 -0.0155
 9356TIP3    H128032   4.617   4.488   4.587  0.5037  0.0863 -0.9299
 9356TIP3    H228033   4.482   4.443   4.533  0.2680 -0.2403 -0.0883
 9357TIP3   OH228034   2.070   1.300   4.556  0.0451  0.3559 -0.0951
 9357TIP3    H128035   2.152   1.292   4.605  0.6392  1.1464 -0.9147
 9357TIP3    H228036   2.082   1.242   4.480  0.4076  1.4478 -0.9084
 9358TIP3   OH228037   7.041   5.466   5.207 -0.4087  0.2055 -0.4150
 9358TIP3    H128038   6.999   5.475   5.293  2.4296  0.9743  1.0240
 9358TIP3    H228039   7.127   5.428   5.226  0.6788  1.2292 -2.8060
 9359TIP3   OH228040   6.819   4.290   0.694 -0.1721 -0.0019  0.0441
 9359TIP3    H128041   6.909   4.319   0.708  0.0141 -0.3747 -0.3682
 9359TIP3    H228042   6.806   4.297   0.599 -0.2175 -0.9803 -0.0334
 9360TIP3   OH228043   1.767   1.414   2.782 -0.4725  0.1588 -0.1576
 9360TIP3    H128044   1.752   1.319   2.779 -1.0438  0.2093  0.8608
 9360TIP3    H228045   1.685   1.451   2.750  0.1508  0.3146 -1.6799
 9361TIP3   OH228046   5.352   3.590   2.181 -0.5286  0.3090 -0.4483
 9361TIP3    H128047   5.321   3.644   2.108  1.7012 -0.7303 -2.2681
 9361TIP3    H228048   5.404   3.650   2.235  0.3667  0.4450 -1.4302
 9362TIP3   OH228049   0.261   6.344   4.929  0.6056 -0.1172 -0.1494
 9362TIP3    H128050   0.352   6.345   4.901  0.8659  2.6400  0.4674
 9362TIP3    H228051   0.265   6.351   5.024  0.0616  5.7237 -0.1697
 9363TIP3   OH228052   0.041   4.871   1.605 -0.3048  0.3549 -0.7082
 9363TIP3    H128053  -0.048   4.901   1.624 -0.2881  0.8164 -1.3248
 9363TIP3    H228054   0.032   4.820   1.524  0.0421  0.6858 -0.9560
 9364TIP3   OH228055   0.956   0.431   1.531  0.0100  0.0374  0.3598
 9364TIP3    H128056   1.037   0.425   1.480  1.6170 -1.9550  2.9193
 9364TIP3    H228057   0.929   0.523   1.522  3.0603  1.0229  0.1666
 9365TIP3   OH228058   0.395   2.475   1.995 -0.4415 -0.2133  0.0801
 9365TIP3    H128059   0.441   2.439   2.071 -0.0284  1.2209  0.5388
 9365TIP3    H228060   0.325   2.529   2.032 -1.1779 -0.6695 -0.5970
 9366TIP3   OH228061   6.431   2.269   4.917 -0.0628 -0.2280  0.2061
 9366TIP3    H128062   6.372   2.249   4.989  1.9516 -0.6085  1.8384
 9366TIP3    H228063   6.496   2.198   4.918  0.2725 -0.0228 -1.7262
 9367TIP3   OH228064   5.224   2.369   2.047  0.0179 -0.3445 -0.1591
 9367TIP3    H128065   5.283   2.293   2.045  2.1522  1.2260 -1.0607
 9367TIP3    H228066   5.136   2.331   2.048  0.9997 -2.8095  0.1210
 9368TIP3   OH228067   2.396   0.508   2.226 -0.2654  0.3268  0.0120
 9368TIP3    H128068   2.412   0.472   2.139 -0.6015 -0.3149  0.2010
 9368TIP3    H228069   2.444   0.449   2.285 -0.5663  0.3702  0.3040
 9369TIP3   OH228070   6.371   0.719   2.083  0.0846  0.1272 -0.1920
 9369TIP3    H128071   6.283   0.751   2.100 -0.8977 -1.8506 -1.2808
 9369TIP3    H228072   6.397   0.674   2.163  0.4490  1.3619  0.4066
 9370TIP3   OH228073   1.883   1.969   0.372  0.6865  0.3497 -0.1710
 9370TIP3    H128074   1.883   2.061   0.396  1.6965  0.3260 -0.0485
 9370TIP3    H228075   1.896   1.968   0.278  0.0248  0.3375 -0.2725
 9371TIP3   OH228076   4.481   6.224   0.184 -0.0974 -1.0128 -0.0625
 9371TIP3    H128077   4.565   6.215   0.230 -0.1418 -1.0859  0.0019
 9371TIP3    H228078   4.422   6.260   0.249  0.0239 -0.4340 -0.2541
 9372TIP3   OH228079   6.151   3.013   3.001  0.0898 -0.2021 -0.1209
 9372TIP3    H128080   6.211   2.994   2.929 -0.8509  2.3704 -1.7095
 9372TIP3    H228081   6.205   3.054   3.068  0.5908 -0.6164 -0.2674
 9373TIP3   OH228082   4.538   2.460   0.741  0.5023  0.5824 -0.3797
 9373TIP3    H128083   4.560   2.545   0.702 -0.3447  1.6410  1.3055
 9373TIP3    H228084   4.618   2.431   0.784  0.4680  1.1625  0.0922
 9374TIP3   OH228085   1.134   3.589   5.783 -0.0353 -0.7342  0.1034
 9374TIP3    H128086   1.043   3.603   5.755  0.0874  1.1245  0.5404
 9374TIP3    H228087   1.133   3.610   5.877  1.2373  1.4333 -0.3144
 9375TIP3   OH228088   5.054   1.136   0.082  0.4853 -0.0163 -0.2743
 9375TIP3    H128089   5.101   1.209   0.123 -0.4883  1.1426 -1.1529
 9375TIP3    H228090   4.969   1.173   0.057  0.1071 -1.3518 -1.0704
 9376TIP3   OH228091   6.359   2.392   3.068  0.4703 -0.4083 -0.2356
 9376TIP3    H128092   6.364   2.436   2.983  0.3367 -1.3296 -0.7255
 9376TIP3    H228093   6.373   2.300   3.049  1.0448 -0.5596  0.8198
 9377TIP3   OH228094   3.514   0.857   5.092  0.4526  0.2514 -0.1212
 9377TIP3    H128095   3.448   0.926   5.089  0.2203  0.2230  2.2402
 9377TIP3    H228096   3.489   0.797   5.022 -0.5980  1.4674 -0.8302
 9378TIP3   OH228097   5.300   3.878   4.229 -0.2327  0.2357  0.1123
 9378TIP3    H128098   5.318   3.946   4.164  0.5701  0.4534  0.5403
 9378TIP3    H228099   5.214   3.901   4.264  1.0393  2.6086  2.0719
 9379TIP3   OH228100   1.026   3.805   1.695 -0.2078  0.2324  0.2156
 9379TIP3    H128101   0.953   3.863   1.673  0.8277  2.3839  1.9443
 9379TIP3    H228102   1.104   3.856   1.672  0.7632 -1.3289 -0.0706
 9380TIP3   OH228103   3.707   2.388   2.385 -0.6197  0.6927 -0.4180
 9380TIP3    H128104   3.710   2.466   2.441  0.6471  0.5925 -0.3208
 9380TIP3    H228105   3.691   2.422   2.297 -1.7968  0.9139 -0.1414
 9381TIP3   OH228106   5.435   6.393   4.914 -0.0331 -0.1288  0.1716
 9381TIP3    H128107   5.409   6.407   5.005 -1.7341 -2.2065  0.0770
 9381TIP3    H228108   5.421   6.299   4.899 -1.3039  0.4230 -2.6713
 9382TIP3   OH228109   6.519   2.484   3.296  0.5498  0.0566 -0.1317
 9382TIP3    H128110   6.469   2.467   3.217  0.7542 -2.8572  0.2391
 9382TIP3    H228111   6.460   2.461   3.368  2.1725 -3.4230  0.3182
 9383TIP3   OH228112   5.073   1.897   5.179  0.2524 -0.3923 -0.2987
 9383TIP3    H128113   5.056   1.960   5.109 -1.0447 -0.2121  0.1587
 9383TIP3    H228114   5.068   1.811   5.136 -1.9071 -0.3559 -0.2042
 9384TIP3   OH228115   1.739   3.466   0.655 -0.5172  0.0924  0.6854
 9384TIP3    H128116   1.659   3.514   0.675 -0.2728  0.0369  1.8477
 9384TIP3    H228117   1.721   3.423   0.571 -1.5515  0.4097  0.7374
 9385TIP3   OH228118   6.628   5.722   2.117  0.3374  0.2056 -0.3193
 9385TIP3    H128119   6.710   5.741   2.072  0.6273 -0.8971 -0.2718
 9385TIP3    H228120   6.595   5.808   2.143  1.4371  0.6720 -0.4095
 9386TIP3   OH228121   1.691   0.820   2.269 -0.2357 -0.0324 -0.0753
 9386TIP3    H128122   1.676   0.915   2.271 -0.7059 -0.1059 -0.0938
 9386TIP3    H228123   1.774   0.809   2.316 -1.3938  0.1585  2.1596
 9387TIP3   OH228124   6.623   5.783   0.659 -0.0701  0.5039  0.2524
 9387TIP3    H128125   6.664   5.716   0.714 -0.8134 -1.5130 -1.5144
 9387TIP3    H228126   6.695   5.843   0.638  0.7825 -0.0790  1.3426
 9388TIP3   OH228127   0.317   0.626   2.759  0.3308 -0.2544 -0.5296
 9388TIP3    H128128   0.268   0.593   2.683  0.8359 -0.2545 -0.8586
 9388TIP3    H228129   0.371   0.552   2.787  0.9030  0.0488 -0.8025
 9389TIP3   OH228130   2.694   1.956   3.336  0.4102 -0.7180 -0.0416
 9389TIP3    H128131   2.754   1.890   3.302  0.0339 -0.3091 -1.5411
 9389TIP3    H228132   2.747   2.008   3.396  0.8416 -2.0284  0.7684
 9390TIP3   OH228133   6.636   2.223   5.195  0.1014 -0.2140  0.6924
 9390TIP3    H128134   6.564   2.161   5.183  0.6662 -0.6408 -0.7637
 9390TIP3    H228135   6.609   2.278   5.268 -2.3546  0.5694 -0.7011
 9391TIP3   OH228136   5.774   3.290   5.754  0.0362  0.2545 -0.5871
 9391TIP3    H128137   5.715   3.345   5.806  1.8562  2.5798 -0.8423
 9391TIP3    H228138   5.814   3.230   5.818 -2.5838 -1.5068 -0.4307
 9392TIP3   OH228139   1.664   6.528   4.839  0.1482  0.4113  0.0556
 9392TIP3    H128140   1.688   6.580   4.916 -1.5819 -0.5470  1.3011
 9392TIP3    H228141   1.739   6.536   4.780  1.3634  1.4639  1.6815
 9393TIP3   OH228142   3.759   1.712   3.672 -0.0890 -0.4850 -0.5560
 9393TIP3    H128143   3.849   1.741   3.663 -0.1719 -0.4130 -1.2145
 9393TIP3    H228144   3.715   1.784   3.717  0.5483 -1.2582  1.4242
 9394TIP3   OH228145   4.561   4.859   4.847 -0.2306  0.5207  0.2888
 9394TIP3    H128146   4.608   4.781   4.877 -1.9031 -0.4688  0.4725
 9394TIP3    H228147   4.618   4.932   4.870  0.6810 -0.5487  1.5655
 9395TIP3   OH228148   4.678   1.037   2.392  0.3158  0.5553 -0.7697
 9395TIP3    H128149   4.593   1.030   2.436  1.4319  1.7435  1.7518
 9395TIP3    H228150   4.689   1.130   2.376  0.8761  0.3403 -1.7538
 9396TIP3   OH228151   2.992   1.592   3.344  0.3812 -0.1011 -0.0761
 9396TIP3    H128152   3.087   1.576   3.340  0.9699  2.5513  1.0527
 9396TIP3    H228153   2.972   1.594   3.437 -0.1793  2.0570 -0.1764
 9397TIP3   OH228154   0.300   2.378   5.597  0.6526  0.0548 -0.1934
 9397TIP3    H128155   0.329   2.467   5.578 -0.9000  0.8320  0.8814
 9397TIP3    H228156   0.349   2.353   5.675  1.5636 -0.3125 -0.8601
 9398TIP3   OH228157   1.987   0.346   5.569  0.0943 -0.0840 -0.1598
 9398TIP3    H128158   2.039   0.303   5.637  0.1792  1.9525  1.1605
 9398TIP3    H228159   1.898   0.313   5.581  0.1967 -0.0694  0.6761
 9399TIP3   OH228160   4.196   4.279   5.008  0.5936 -0.1051 -0.2822
 9399TIP3    H128161   4.217   4.265   5.101  0.3079  0.3785 -0.1423
 9399TIP3    H228162   4.100   4.274   5.004  0.4273  1.9517 -0.1746
 9400TIP3   OH228163   3.875   2.422   5.588 -0.2383  0.5134 -0.2324
 9400TIP3    H128164   3.934   2.359   5.630 -0.3504  0.6770  0.1729
 9400TIP3    H228165   3.885   2.405   5.494 -0.0931  0.0498 -0.1353
 9401TIP3   OH228166   3.477   5.024   3.534 -0.5308 -0.3967 -0.3607
 9401TIP3    H128167   3.504   5.027   3.443 -0.4493  0.2970 -0.3187
 9401TIP3    H228168   3.550   4.983   3.580  0.0585  0.5792 -0.3952
 9402TIP3   OH228169   1.169   6.809   1.454 -0.4025 -0.4020 -0.4571
 9402TIP3    H128170   1.085   6.764   1.446 -1.0396  0.6361  0.1793
 9402TIP3    H228171   1.211   6.795   1.369 -0.4498 -2.3934 -0.2045
 9403TIP3   OH228172   0.578   1.696   5.689  0.4703  0.6393  0.5897
 9403TIP3    H128173   0.623   1.773   5.724  0.3728  2.4624 -2.8068
 9403TIP3    H228174   0.485   1.715   5.702  0.4852  0.2601  1.2748
 9404TIP3   OH228175   3.569   6.104   4.069  0.4184 -0.5827 -0.5581
 9404TIP3    H128176   3.483   6.071   4.097  0.2367  1.6028  1.9064
 9404TIP3    H228177   3.553   6.195   4.045  1.6907 -0.8087 -2.4508
 9405TIP3   OH228178   1.633   2.643   3.706  0.0634 -0.2720 -0.0109
 9405TIP3    H128179   1.600   2.582   3.640  1.1306  0.2116 -1.0228
 9405TIP3    H228180   1.639   2.590   3.786 -1.3956 -0.8305 -0.2419
 9406TIP3   OH228181   0.532   1.932   3.658  0.0674  0.0550 -0.0568
 9406TIP3    H128182   0.497   1.979   3.734  0.5882  1.1187 -0.4528
 9406TIP3    H228183   0.455   1.905   3.608 -0.2504  1.6381 -0.4902
 9407TIP3   OH228184   2.163   3.260   0.184  0.7022 -0.4081 -0.2095
 9407TIP3    H128185   2.128   3.175   0.158  0.0152 -0.3759  0.5607
 9407TIP3    H228186   2.103   3.290   0.252  3.1091 -1.0898  2.3845
 9408TIP3   OH228187   5.623   0.117   3.718  0.1795  0.0844 -0.1375
 9408TIP3    H128188   5.685   0.067   3.772  0.6741  1.1636  0.3163
 9408TIP3    H228189   5.546   0.060   3.711  0.4182 -0.4090  1.0343
 9409TIP3   OH228190   2.320   2.732   0.474 -0.4099 -0.3135 -0.1574
 9409TIP3    H128191   2.385   2.732   0.404  0.5011  0.5953  0.6383
 9409TIP3    H228192   2.252   2.671   0.445 -1.6703  2.2717 -3.2597
 9410TIP3   OH228193   3.236   3.421   1.306 -0.1229  0.4090 -0.8248
 9410TIP3    H128194   3.166   3.360   1.330  0.2958  0.0177 -0.5696
 9410TIP3    H228195   3.229   3.493   1.369  1.1463 -0.7420  0.7157
 9411TIP3   OH228196   4.014   0.078   4.083  0.4808 -0.2571  0.1352
 9411TIP3    H128197   4.019   0.144   4.151 -1.2031  0.4305 -0.3449
 9411TIP3    H228198   4.058   0.002   4.120  0.8169  0.5376  1.4371
 9412TIP3   OH228199   6.225   1.769   2.881 -0.0019  0.6314 -0.4959
 9412TIP3    H128200   6.251   1.698   2.939 -3.0415  0.1819  0.4827
 9412TIP3    H228201   6.308   1.812   2.858  1.6474 -1.3049  1.3231
 9413TIP3   OH228202   3.310   1.850   3.770 -0.3898 -0.2673 -0.1963
 9413TIP3    H128203   3.342   1.833   3.858 -0.7115  0.7485  0.1239
 9413TIP3    H228204   3.376   1.811   3.712 -0.1893 -0.9602  0.4786
 9414TIP3   OH228205   0.185   5.150   4.809 -0.0020  0.6960 -0.0885
 9414TIP3    H128206   0.267   5.155   4.760 -0.0763  1.0287 -0.1830
 9414TIP3    H228207   0.206   5.099   4.887 -0.0461 -0.4176 -0.7931
 9415TIP3   OH228208   5.332   5.227   3.665  0.6206 -0.0428 -0.0247
 9415TIP3    H128209   5.396   5.296   3.683 -0.5895  1.1607 -0.1645
 9415TIP3    H228210   5.348   5.204   3.573 -0.0930  1.3429 -0.5357
 9416TIP3   OH228211   6.928   2.150   2.517  0.0396 -0.1085  0.0652
 9416TIP3    H128212   6.874   2.085   2.472 -1.2319  1.3019 -0.5747
 9416TIP3    H228213   6.956   2.210   2.448  0.1242  0.7228  0.7988
 9417TIP3   OH228214   2.575   3.755   2.421  0.0838 -0.3740  0.0196
 9417TIP3    H128215   2.642   3.702   2.378 -0.4272 -1.2612  0.2830
 9417TIP3    H228216   2.496   3.741   2.369 -0.0267  0.2671  0.0033
 9418TIP3   OH228217   5.221   2.324   3.659  0.5628  0.0065  0.2482
 9418TIP3    H128218   5.151   2.270   3.622  0.1121 -0.1815  1.3331
 9418TIP3    H228219   5.297   2.266   3.663  0.4975 -0.0951  0.0065
 9419TIP3   OH228220   7.038   4.932   1.319 -0.5337 -0.1171  0.5608
 9419TIP3    H128221   7.073   4.902   1.235 -0.9665 -0.2827  0.4378
 9419TIP3    H228222   7.082   5.015   1.334  1.1149 -1.0445  1.1779
 9420TIP3   OH228223   0.835   3.150   0.062 -0.4114 -0.1733 -0.5972
 9420TIP3    H128224   0.900   3.082   0.048 -0.5167 -0.2826 -0.5561
 9420TIP3    H228225   0.814   3.146   0.155 -0.7595 -0.3962 -0.6819
 9421TIP3   OH228226   6.527   4.998   2.755  0.3001 -0.6112 -0.0780
 9421TIP3    H128227   6.540   4.903   2.757 -0.5802 -0.7483 -0.4459
 9421TIP3    H228228   6.504   5.017   2.664  0.1580 -0.0884  0.0634
 9422TIP3   OH228229   6.505   6.038   1.900  0.0472 -0.9761  0.3679
 9422TIP3    H128230   6.578   6.093   1.928 -1.3836  0.6827  0.9930
 9422TIP3    H228231   6.484   5.986   1.977  0.1172 -0.9511  0.4043
 9423TIP3   OH228232   2.325   5.245   4.873 -0.0986 -0.4448 -0.5312
 9423TIP3    H128233   2.247   5.196   4.897 -0.1544  0.6947  1.8994
 9423TIP3    H228234   2.396   5.204   4.922  0.1239  0.8910  0.3128
 9424TIP3   OH228235   0.627   6.255   2.713 -0.1670  0.4555  0.1441
 9424TIP3    H128236   0.554   6.311   2.738  1.0310  1.7618  0.8557
 9424TIP3    H228237   0.689   6.314   2.668 -0.7992 -1.1660 -3.2168
 9425TIP3   OH228238   3.173   5.147   3.214 -0.0790  0.4309  0.1326
 9425TIP3    H128239   3.205   5.082   3.277  0.9222  1.6258  0.9170
 9425TIP3    H228240   3.239   5.216   3.216 -0.3082  0.7607 -1.8548
 9426TIP3   OH228241   1.666   6.243   3.907  0.1255 -0.1535  0.3583
 9426TIP3    H128242   1.695   6.176   3.969 -0.5878 -1.2475 -0.4417
 9426TIP3    H228243   1.736   6.247   3.842  0.5188  0.4386  0.8107
 9427TIP3   OH228244   3.600   6.186   3.524 -0.1361  0.4780  0.4075
 9427TIP3    H128245   3.513   6.147   3.513  1.2720 -2.6843 -0.8641
 9427TIP3    H228246   3.622   6.170   3.615 -0.6103  0.6676  0.5586
 9428TIP3   OH228247   3.251   0.257   1.327 -0.7112  0.3433 -0.1448
 9428TIP3    H128248   3.222   0.221   1.410  2.0619  0.9689  1.2047
 9428TIP3    H228249   3.227   0.191   1.262 -0.4068 -1.5178  1.5453
 9429TIP3   OH228250   3.526   3.340   3.348  0.7036  0.0120 -0.2079
 9429TIP3    H128251   3.582   3.417   3.339  0.9104 -0.2973 -1.8055
 9429TIP3    H228252   3.563   3.276   3.287 -2.1610  0.2905 -2.4377
 9430TIP3   OH228253   0.304   0.467   1.303  0.2476 -0.4422  0.3513
 9430TIP3    H128254   0.331   0.443   1.214  1.5080 -0.0584  0.6065
 9430TIP3    H228255   0.295   0.562   1.300 -1.2433 -0.5765  0.2460
 9431TIP3   OH228256   6.813   2.615   3.770  0.2593  0.0270 -0.0658
 9431TIP3    H128257   6.824   2.522   3.787 -0.9524  0.0452  1.0103
 9431TIP3    H228258   6.785   2.621   3.679  0.3817 -0.6521 -0.1489
 9432TIP3   OH228259   3.059   0.555   3.903 -0.1980 -0.2744 -0.3293
 9432TIP3    H128260   2.970   0.550   3.869 -0.3333 -1.8366  0.1624
 9432TIP3    H228261   3.105   0.481   3.862  0.7986  0.3517 -0.3780
 9433TIP3   OH228262   6.485   6.720   5.457 -0.2101  0.2948  0.4259
 9433TIP3    H128263   6.409   6.721   5.516 -1.8196 -0.9629 -1.5340
 9433TIP3    H228264   6.448   6.722   5.369  2.0927  0.8538 -0.6077
 9434TIP3   OH228265   6.200   5.059   4.012  0.1065  0.1107  0.1802
 9434TIP3    H128266   6.250   5.136   4.035 -0.0154  0.6784 -1.3344
 9434TIP3    H228267   6.219   5.045   3.919 -0.7819 -0.9872  0.1436
 9435TIP3   OH228268   5.790   3.287   0.753  0.2898 -0.5803 -0.0167
 9435TIP3    H128269   5.700   3.299   0.721 -0.4558 -2.0232  1.3503
 9435TIP3    H228270   5.841   3.354   0.708 -1.5568  0.5829 -0.4955
 9436TIP3   OH228271   6.273   5.047   3.749 -0.5392  0.3533  0.0885
 9436TIP3    H128272   6.227   4.974   3.707 -0.9887  0.5782  0.1836
 9436TIP3    H228273   6.317   5.092   3.676 -0.4386  0.1176  0.0017
 9437TIP3   OH228274   0.149   5.954   0.287  0.1988  0.3305 -0.3261
 9437TIP3    H128275   0.220   6.012   0.257 -0.2908  1.1053 -0.0295
 9437TIP3    H228276   0.074   6.013   0.297  0.4302  0.2467  2.8283
 9438TIP3   OH228277   6.795   6.101   1.820  0.2994 -0.2111 -0.3032
 9438TIP3    H128278   6.846   6.169   1.775 -0.2843 -1.4228 -3.0029
 9438TIP3    H228279   6.798   6.026   1.760 -1.6517 -1.5219  1.1341
 9439TIP3   OH228280   4.592   2.772   4.243 -0.2644 -0.3313 -0.0809
 9439TIP3    H128281   4.616   2.813   4.160 -0.4225 -0.3036 -0.1137
 9439TIP3    H228282   4.663   2.794   4.302 -0.7402  0.6756  0.1235
 9440TIP3   OH228283   4.423   6.698   1.994  0.3665  0.1095  0.1732
 9440TIP3    H128284   4.444   6.780   1.949  0.4176  1.0268  1.8046
 9440TIP3    H228285   4.367   6.651   1.932  0.5696  1.2396 -0.9111
 9441TIP3   OH228286   2.789   3.171   1.212 -0.4274  0.4114 -0.6297
 9441TIP3    H128287   2.754   3.114   1.280  1.6027  1.7989  1.7396
 9441TIP3    H228288   2.827   3.112   1.147  1.6442 -1.0621  1.7577
 9442TIP3   OH228289   5.784   5.349   4.316  0.5720 -0.1118  0.2429
 9442TIP3    H128290   5.779   5.312   4.403  0.0517 -0.5002  0.0485
 9442TIP3    H228291   5.717   5.303   4.265  0.9581  0.0086 -0.3975
 9443TIP3   OH228292   0.463   5.898   2.450  0.2663 -0.0991  1.0179
 9443TIP3    H128293   0.426   5.815   2.420 -1.5308  1.0221 -0.1095
 9443TIP3    H228294   0.508   5.933   2.373 -1.9629  1.4931  0.3055
 9444TIP3   OH228295   5.913   2.811   2.766  0.2937  0.1754  0.3967
 9444TIP3    H128296   5.844   2.759   2.725  0.9699  0.4212 -1.1311
 9444TIP3    H228297   5.869   2.857   2.838 -1.4291  1.2376 -1.2460
 9445TIP3   OH228298   0.984   1.119   0.945 -0.0308  0.1348 -0.1880
 9445TIP3    H128299   0.932   1.050   0.905 -0.8290  0.5828  0.0576
 9445TIP3    H228300   1.050   1.141   0.879  1.2778 -1.9417  0.3284
 9446TIP3   OH228301   3.367   5.963   3.755  0.5796 -0.8559 -0.4467
 9446TIP3    H128302   3.280   5.996   3.779  0.7502 -1.1159  0.5836
 9446TIP3    H228303   3.380   5.994   3.665  0.0606  0.4744 -0.0932
 9447TIP3   OH228304   4.013   3.436   4.265  0.6019 -0.1699 -0.0605
 9447TIP3    H128305   4.090   3.382   4.247  0.7279  0.2510 -0.7788
 9447TIP3    H228306   4.039   3.525   4.243 -0.9633 -0.3558 -3.1353
 9448TIP3   OH228307   2.293   6.742   1.756  0.2279 -0.6122 -0.5899
 9448TIP3    H128308   2.349   6.790   1.696 -0.5662  2.0578  0.6623
 9448TIP3    H228309   2.345   6.665   1.781  1.9994  0.1087 -1.8574
 9449TIP3   OH228310   6.041   1.878   3.923  0.4279 -0.5250  0.0994
 9449TIP3    H128311   5.960   1.888   3.873  0.0772  1.5241  0.9513
 9449TIP3    H228312   6.111   1.898   3.860 -0.0580  3.3274  0.5355
 9450TIP3   OH228313   2.793   1.214   3.339  0.2050  0.2552  0.2730
 9450TIP3    H128314   2.722   1.269   3.371 -0.5613 -0.6266  0.1554
 9450TIP3    H228315   2.802   1.145   3.406 -0.2329 -0.6076 -0.5299
 9451TIP3   OH228316   6.382   0.265   4.286  0.2325 -0.2521  0.0366
 9451TIP3    H128317   6.475   0.284   4.278  0.0285  0.9415  0.1640
 9451TIP3    H228318   6.374   0.217   4.368  0.6861  0.0926  0.2887
 9452TIP3   OH228319   5.952   0.973   1.246  0.1980 -0.0144  0.4329
 9452TIP3    H128320   5.884   1.027   1.287 -0.6736 -0.0277 -0.9370
 9452TIP3    H228321   5.919   0.883   1.254  0.2439 -0.0592  0.1156
 9453TIP3   OH228322   2.539   2.148   4.746  0.2011  0.2640 -0.5312
 9453TIP3    H128323   2.615   2.184   4.791  1.6136 -0.4315 -2.2052
 9453TIP3    H228324   2.574   2.073   4.696 -1.7049 -0.4570 -0.8757
 9454TIP3   OH228325   1.166   2.726   2.135  0.2149 -0.1779 -0.3430
 9454TIP3    H128326   1.147   2.775   2.215  0.0271  0.1475 -0.5861
 9454TIP3    H228327   1.177   2.636   2.164 -0.8051 -0.2226 -0.0840
 9455TIP3   OH228328   1.631   2.091   5.228  0.4279  0.1901  0.4051
 9455TIP3    H128329   1.606   2.175   5.265 -0.6017  0.4329 -0.7561
 9455TIP3    H228330   1.708   2.109   5.174  2.6537 -0.3689  3.1716
 9456TIP3   OH228331   6.611   0.112   5.315 -0.7127 -0.1822  0.2271
 9456TIP3    H128332   6.690   0.099   5.261 -0.1850 -0.2423  1.0035
 9456TIP3    H228333   6.635   0.078   5.401 -1.4097  0.2913  0.6163
 9457TIP3   OH228334   0.418   2.173   4.276 -0.3426  0.5746 -0.1189
 9457TIP3    H128335   0.504   2.183   4.318  0.7955 -0.4468 -2.1015
 9457TIP3    H228336   0.403   2.258   4.233  0.3890  0.2657 -1.0088
 9458TIP3   OH228337   1.456   4.585   0.504  0.1443 -0.8134 -0.2968
 9458TIP3    H128338   1.531   4.620   0.552 -0.1734  0.8156 -0.9250
 9458TIP3    H228339   1.387   4.651   0.515 -0.8740 -1.8030 -0.5580
 9459TIP3   OH228340   4.753   5.415   0.898  0.3207 -0.0396  0.0234
 9459TIP3    H128341   4.783   5.340   0.950  1.9925  1.0326  0.6647
 9459TIP3    H228342   4.815   5.420   0.825 -0.4526  0.0626 -0.6467
 9460TIP3   OH228343   4.474   2.005   1.279 -0.1965 -0.2769  0.0755
 9460TIP3    H128344   4.406   1.964   1.225 -0.9518  0.8173  0.1610
 9460TIP3    H228345   4.475   1.955   1.360  0.6958 -1.7164 -0.7729
 9461TIP3   OH228346   0.942   0.142   0.105 -0.1900  0.5676  0.2533
 9461TIP3    H128347   0.938   0.226   0.150 -2.0063  0.6737 -0.0311
 9461TIP3    H228348   0.850   0.115   0.095  0.3585 -1.7341  0.8460
 9462TIP3   OH228349   4.211   1.992   0.390  0.5228  0.3928 -0.3218
 9462TIP3    H128350   4.214   2.048   0.313 -0.9226 -2.1424 -2.4101
 9462TIP3    H228351   4.291   1.939   0.384  0.2931  0.0301 -0.2415
 9463TIP3   OH228352   4.976   2.353   2.375  0.3851  0.1250 -0.6700
 9463TIP3    H128353   4.953   2.339   2.467  0.5927 -1.2254 -0.7983
 9463TIP3    H228354   4.892   2.367   2.331  0.3563  1.8384 -0.1398
 9464TIP3   OH228355   1.648   5.027   1.196 -0.1776  0.0218 -0.6785
 9464TIP3    H128356   1.661   5.098   1.133 -0.7086  0.2581 -0.5250
 9464TIP3    H228357   1.570   5.053   1.245  0.4576  0.0325  0.3444
 9465TIP3   OH228358   5.520   4.438   1.772  0.3357 -0.2131  0.5070
 9465TIP3    H128359   5.565   4.469   1.850 -1.5340  0.6690  1.2945
 9465TIP3    H228360   5.447   4.385   1.806  0.0002 -0.5403 -0.6704
 9466TIP3   OH228361   6.612   0.564   1.716  0.2484  0.3499  0.0023
 9466TIP3    H128362   6.537   0.618   1.691  1.2432  1.4402 -0.7280
 9466TIP3    H228363   6.666   0.622   1.770  0.3019 -0.6039  1.0050
 9467TIP3   OH228364   2.281   6.571   4.766  0.5744  0.3664  1.0773
 9467TIP3    H128365   2.323   6.645   4.810 -0.3991  1.3345  0.4465
 9467TIP3    H228366   2.238   6.522   4.836  0.3936  0.9706  1.3945
 9468TIP3   OH228367   1.423   5.266   5.144 -0.4937  0.5040  0.4165
 9468TIP3    H128368   1.476   5.186   5.141  0.3802  1.0940 -0.6391
 9468TIP3    H228369   1.376   5.267   5.061 -2.4468 -0.1475  1.4418
 9469TIP3   OH228370   6.947   4.716   2.692  0.0447 -0.1145 -0.0039
 9469TIP3    H128371   6.884   4.646   2.711 -1.2488  0.4635 -1.7967
 9469TIP3    H228372   6.954   4.765   2.774 -1.4395 -0.5265  0.4103
 9470TIP3   OH228373   5.519   6.672   1.900 -0.2406  0.0978  0.2112
 9470TIP3    H128374   5.430   6.646   1.924 -0.8054  0.7072 -1.1048
 9470TIP3    H228375   5.569   6.591   1.902 -0.8873 -0.2984  0.7335
 9471TIP3   OH228376   1.887   2.294   4.410 -0.2405  0.5257 -0.3602
 9471TIP3    H128377   1.919   2.206   4.428 -0.8414  0.6841  1.7196
 9471TIP3    H228378   1.965   2.347   4.400  0.1386  0.0941  0.2624
 9472TIP3   OH228379   6.821   1.727   4.553  0.7209  0.4369 -0.5372
 9472TIP3    H128380   6.747   1.676   4.586  1.7635 -1.0671 -0.4529
 9472TIP3    H228381   6.877   1.741   4.629  0.0093  2.6180 -0.3321
 9473TIP3   OH228382   0.303   3.100   5.479 -0.3445 -0.1529 -0.0996
 9473TIP3    H128383   0.312   3.053   5.562  0.1727 -0.5996 -0.4024
 9473TIP3    H228384   0.357   3.179   5.491 -1.9982  0.9146  0.7736
 9474TIP3   OH228385   3.438   5.853   3.287  0.6932 -0.1005  0.0815
 9474TIP3    H128386   3.365   5.903   3.250  1.0917  0.7295  0.3952
 9474TIP3    H228387   3.468   5.797   3.215 -0.9640 -1.2954  0.2668
 9475TIP3   OH228388   6.746   0.306   0.410 -0.2174 -0.5024 -0.1753
 9475TIP3    H128389   6.804   0.240   0.371  0.2668  0.2811 -0.7988
 9475TIP3    H228390   6.683   0.327   0.341  0.8953  1.1965 -0.7305
 9476TIP3   OH228391   2.559   4.944   3.598  0.1733 -0.5306 -0.1080
 9476TIP3    H128392   2.514   4.957   3.515 -1.9792  2.8222  1.3491
 9476TIP3    H228393   2.510   4.875   3.642  0.0498 -0.8715 -0.7739
 9477TIP3   OH228394   6.685   3.104   3.829  0.9738 -0.6465 -0.3118
 9477TIP3    H128395   6.703   3.066   3.743  0.0562 -0.1370 -0.7410
 9477TIP3    H228396   6.735   3.186   3.829  1.1220 -0.7372 -0.2883
 9478TIP3   OH228397   2.202   6.201   0.789 -0.0486  0.2478  0.8289
 9478TIP3    H128398   2.131   6.250   0.831 -0.2064 -0.3131  1.2221
 9478TIP3    H228399   2.181   6.202   0.696 -0.4002  0.3601  0.9103
 9479TIP3   OH228400   3.565   4.797   2.989 -0.0256  0.1822  0.1365
 9479TIP3    H128401   3.621   4.846   3.049  0.1696  0.7144 -0.4690
 9479TIP3    H228402   3.591   4.706   3.002  0.2471  0.3218  0.6141
 9480TIP3   OH228403   1.981   5.910   5.669  0.2508 -0.1987  0.1480
 9480TIP3    H128404   1.964   5.970   5.741  1.7623  1.5219 -0.8462
 9480TIP3    H228405   2.076   5.899   5.669  0.2134 -0.7425 -1.1233
 9481TIP3   OH228406   0.268   5.850   0.511 -0.5625  0.6879 -0.0082
 9481TIP3    H128407   0.346   5.852   0.568 -1.1431  0.2285  0.8322
 9481TIP3    H228408   0.291   5.906   0.437  0.4648  0.7855  0.3619
 9482TIP3   OH228409   4.540   6.538   5.654 -0.4493 -0.0187 -0.0351
 9482TIP3    H128410   4.570   6.518   5.743 -0.6599 -1.2137 -0.2120
 9482TIP3    H228411   4.601   6.492   5.597 -0.1753  0.9399 -0.5272
 9483TIP3   OH228412   3.935   5.314   0.454 -0.2717  0.0396 -0.2629
 9483TIP3    H128413   4.029   5.303   0.467 -0.3199 -0.9377 -0.6709
 9483TIP3    H228414   3.927   5.345   0.364 -0.3195  0.5697 -0.0798
 9484TIP3   OH228415   2.948   5.983   0.372 -0.1653  0.0082 -0.4926
 9484TIP3    H128416   2.902   5.971   0.289  1.6209 -0.2500 -1.4984
 9484TIP3    H228417   3.040   5.965   0.351  0.4670  0.8951  1.3287
 9485TIP3   OH228418   4.901   1.855   3.414 -0.5587  0.4680 -0.1824
 9485TIP3    H128419   4.929   1.882   3.327  0.3110  2.8763  0.7630
 9485TIP3    H228420   4.810   1.827   3.403 -0.8204  1.7837 -1.6913
 9486TIP3   OH228421   0.282   3.407   4.921  0.3109 -0.0091  0.2499
 9486TIP3    H128422   0.343   3.401   4.848 -0.2465 -0.0832 -0.2109
 9486TIP3    H228423   0.215   3.342   4.902 -0.6952  1.0771  0.0192
 9487TIP3   OH228424   6.646   0.991   0.189  0.1038  0.2702  0.5380
 9487TIP3    H128425   6.658   0.965   0.280 -2.9488  0.1722  1.0303
 9487TIP3    H228426   6.582   1.063   0.193 -1.1133 -0.5919 -1.5624
 9488TIP3   OH228427   3.300   2.517   4.840 -0.3723  0.1421 -0.3564
 9488TIP3    H128428   3.283   2.549   4.751  0.3052  0.6967 -0.2894
 9488TIP3    H228429   3.315   2.596   4.892 -0.0306 -0.2140  0.0969
 9489TIP3   OH228430   6.025   1.074   5.700 -0.0123 -0.0453 -0.4956
 9489TIP3    H128431   6.118   1.069   5.722 -0.2953 -1.0268  0.5252
 9489TIP3    H228432   5.987   1.129   5.769  0.0752  1.8393 -1.8764
 9490TIP3   OH228433   1.559   4.411   4.532 -0.3296 -0.0651 -0.5373
 9490TIP3    H128434   1.614   4.448   4.463 -0.2645 -0.7470 -0.8556
 9490TIP3    H228435   1.492   4.362   4.485  0.3038 -1.3795 -0.1102
 9491TIP3   OH228436   5.090   2.111   5.359  0.1549 -0.2601 -0.1988
 9491TIP3    H128437   5.097   2.029   5.310  0.3953  0.3707 -1.2654
 9491TIP3    H228438   5.001   2.110   5.395  0.4885 -1.4286  0.6503
 9492TIP3   OH228439   7.212   0.790   1.329 -0.0356  0.4480  0.5397
 9492TIP3    H128440   7.227   0.871   1.378  1.9337  0.2971  0.2783
 9492TIP3    H228441   7.119   0.772   1.341 -0.3710  2.3369  1.2223
 9493TIP3   OH228442   2.089   4.084   0.814 -0.2625 -0.0663  0.0169
 9493TIP3    H128443   2.121   4.040   0.893 -1.0745  0.3445  0.5912
 9493TIP3    H228444   1.994   4.087   0.825 -0.3589  0.2739 -0.8345
 9494TIP3   OH228445   6.800   3.937   1.506  0.2400  0.6797  0.0082
 9494TIP3    H128446   6.828   3.885   1.580  1.8904  1.3879 -0.0883
 9494TIP3    H228447   6.771   3.873   1.441 -0.0530  0.0095  0.7840
 9495TIP3   OH228448   5.133   0.351   5.890 -0.3595  0.7432  0.3269
 9495TIP3    H128449   5.100   0.425   5.838  0.3184  0.3234 -0.7504
 9495TIP3    H228450   5.228   0.362   5.888 -0.2435 -0.2251  0.0301
 9496TIP3   OH228451   6.354   4.281   4.716  0.7120 -0.2061 -0.2562
 9496TIP3    H128452   6.290   4.344   4.684  1.5760  1.0526  0.3963
 9496TIP3    H228453   6.354   4.293   4.811  1.3446 -0.7431 -0.1788
 9497TIP3   OH228454   3.977   6.540   3.527  0.4238 -0.3331  0.1591
 9497TIP3    H128455   4.037   6.614   3.541  0.9600 -0.2048 -2.3143
 9497TIP3    H228456   4.027   6.463   3.554  0.6921 -0.0007  0.6340
 9498TIP3   OH228457   7.044   3.825   2.636  0.0380  0.1738 -0.5729
 9498TIP3    H128458   7.005   3.911   2.622 -0.5549 -0.0074 -0.0779
 9498TIP3    H228459   7.068   3.795   2.549  1.2178  1.2787 -0.6604
 9499TIP3   OH228460   1.635   6.121   2.572 -0.7449  0.1993 -0.1513
 9499TIP3    H128461   1.663   6.043   2.620  0.3932  0.0957 -0.9475
 9499TIP3    H228462   1.563   6.090   2.517 -0.6456 -0.1685 -0.0787
 9500TIP3   OH228463   5.258   1.119   3.171 -0.8855  0.2242 -0.7588
 9500TIP3    H128464   5.340   1.147   3.130 -1.5635  0.6672 -1.8672
 9500TIP3    H228465   5.227   1.047   3.115 -0.4890 -0.9806  0.5412
 9501TIP3   OH228466   5.244   6.647   0.788 -0.4709  0.4241  0.1773
 9501TIP3    H128467   5.164   6.667   0.739 -0.0298  1.1705 -0.2578
 9501TIP3    H228468   5.266   6.728   0.833 -1.0092 -0.3149  1.8794
 9502TIP3   OH228469   1.632   4.340   0.951 -0.4437  0.2088 -0.4788
 9502TIP3    H128470   1.701   4.274   0.948 -1.5189 -1.2018  2.2900
 9502TIP3    H228471   1.679   4.424   0.954  1.0524 -0.5959 -0.4878
 9503TIP3   OH228472   4.244   3.186   2.939 -0.1912  0.0077  0.0948
 9503TIP3    H128473   4.199   3.213   3.019  0.5021  0.0951  0.4575
 9503TIP3    H228474   4.208   3.244   2.871  0.0368  0.7022  0.5520
 9504TIP3   OH228475   5.878   2.854   1.459  0.3761  0.1346  0.4236
 9504TIP3    H128476   5.793   2.814   1.438 -0.1282  1.5330 -0.3479
 9504TIP3    H228477   5.890   2.837   1.553 -0.4348 -0.6605  0.3945
 9505TIP3   OH228478   4.009   6.651   3.837 -0.3095 -0.0673 -0.4682
 9505TIP3    H128479   4.008   6.738   3.796 -1.0547 -0.1295 -0.6030
 9505TIP3    H228480   3.988   6.669   3.929 -1.1326 -0.1622 -0.6321
 9506TIP3   OH228481   1.139   1.402   1.809 -0.3244 -0.1273  0.9196
 9506TIP3    H128482   1.149   1.471   1.743 -0.6204  0.1296  1.1395
 9506TIP3    H228483   1.224   1.357   1.809 -0.1247  0.2403  0.7790
 9507TIP3   OH228484   0.275   4.831   4.053 -0.0305 -0.4032 -0.5437
 9507TIP3    H128485   0.285   4.882   4.133 -0.6920 -0.7257 -0.2530
 9507TIP3    H228486   0.220   4.757   4.078 -0.6312 -0.2652 -1.4064
 9508TIP3   OH228487   6.861   6.359   2.578  0.1039  0.0797  0.6331
 9508TIP3    H128488   6.884   6.412   2.653  2.5901  0.3696 -0.2441
 9508TIP3    H228489   6.881   6.269   2.605 -0.1591  0.0424  0.7101
 9509TIP3   OH228490   1.850   5.639   2.277  0.9184  0.5453  0.5335
 9509TIP3    H128491   1.833   5.724   2.238  0.2793  0.6388  0.9945
 9509TIP3    H228492   1.767   5.614   2.317  0.0265 -1.8478 -2.4667
 9510TIP3   OH228493   0.153   5.654   5.808 -0.4931  0.0387  0.0843
 9510TIP3    H128494   0.060   5.642   5.826 -0.5924  0.2640 -0.2697
 9510TIP3    H228495   0.191   5.682   5.891 -0.8679  0.6684  0.0412
 9511TIP3   OH228496   3.497   5.225   2.867 -0.3934  0.1727  0.3925
 9511TIP3    H128497   3.480   5.131   2.858  0.8062  0.0764 -1.3117
 9511TIP3    H228498   3.422   5.267   2.825 -0.5334 -0.0381  0.4273
 9512TIP3   OH228499   0.076   1.690   0.484  0.1468 -0.3866 -0.2939
 9512TIP3    H128500   0.100   1.675   0.393  1.1924 -2.9625  0.3276
 9512TIP3    H228501   0.159   1.695   0.531 -0.3110 -2.6345  0.9449
 9513TIP3   OH228502   5.097   6.618   4.266 -0.0723  0.2810 -0.2120
 9513TIP3    H128503   5.088   6.614   4.361  1.2781  0.3797 -0.0708
 9513TIP3    H228504   5.162   6.685   4.250  0.0851 -0.0793 -1.1882
 9514TIP3   OH228505   5.907   6.655   1.970 -0.5351  0.1325 -0.0947
 9514TIP3    H128506   5.843   6.585   1.977 -1.8645  1.2312 -0.7473
 9514TIP3    H228507   5.872   6.714   1.903  2.4231 -0.4778 -2.3737
 9515TIP3   OH228508   2.972   5.450   4.885  0.5513 -0.0539  0.0941
 9515TIP3    H128509   2.923   5.532   4.873  1.7574  0.5467 -0.9495
 9515TIP3    H228510   2.974   5.437   4.980  0.1938  1.0398  0.2654
 9516TIP3   OH228511   3.129   6.672   4.519  0.0590  0.0227  0.3252
 9516TIP3    H128512   3.068   6.599   4.527 -1.9066  1.3130 -1.5265
 9516TIP3    H228513   3.101   6.734   4.586  0.9689 -0.3920  1.1115
 9517TIP3   OH228514   4.136   4.372   0.138  0.0135 -0.3450 -0.3282
 9517TIP3    H128515   4.157   4.286   0.102 -1.8612 -0.7491 -0.5307
 9517TIP3    H228516   4.148   4.362   0.232  0.7638 -0.5195 -0.4343
 9518TIP3   OH228517   4.538   1.834   4.973  0.0649 -0.0060 -0.1370
 9518TIP3    H128518   4.482   1.905   4.943  1.1985  0.9582 -0.0696
 9518TIP3    H228519   4.500   1.807   5.057  2.0395  3.6246  2.1650
 9519TIP3   OH228520   2.286   4.096   1.987  0.6232 -0.5627  0.4408
 9519TIP3    H128521   2.347   4.157   1.944  0.3291 -0.4816  0.1284
 9519TIP3    H228522   2.330   4.012   1.983  1.3472 -0.2411  1.5241
 9520TIP3   OH228523   0.806   6.200   5.570 -0.3233 -0.2817  0.5284
 9520TIP3    H128524   0.756   6.257   5.628 -1.7404  0.6061 -1.4446
 9520TIP3    H228525   0.886   6.250   5.550  0.0519 -0.4855  1.4447
 9521TIP3   OH228526   5.547   5.133   5.544 -0.5060  0.2108 -0.5278
 9521TIP3    H128527   5.568   5.117   5.636 -0.8091  0.3891 -0.4254
 9521TIP3    H228528   5.564   5.050   5.500  0.3721  0.3381 -0.4451
 9522TIP3   OH228529   6.542   1.600   3.846  0.0648 -0.1703 -0.4871
 9522TIP3    H128530   6.623   1.583   3.798 -0.5388 -1.7382 -1.0411
 9522TIP3    H228531   6.568   1.595   3.938  0.7393  0.1272 -0.6520
 9523TIP3   OH228532   2.214   4.602   5.092 -0.3146 -0.3395 -0.0222
 9523TIP3    H128533   2.149   4.671   5.080 -0.6440 -0.8463 -1.4986
 9523TIP3    H228534   2.162   4.524   5.112  0.0471 -0.1926  1.5437
 9524TIP3   OH228535   2.786   0.806   5.485 -0.3149 -0.0647 -0.0813
 9524TIP3    H128536   2.879   0.829   5.487 -0.6754  1.4719  0.0667
 9524TIP3    H228537   2.766   0.780   5.575  0.0522 -0.8174 -0.2071
 9525TIP3   OH228538   2.373   5.727   4.479  0.3072 -0.8172 -0.2415
 9525TIP3    H128539   2.415   5.642   4.471  0.9007 -0.4173 -2.0007
 9525TIP3    H228540   2.280   5.708   4.489  0.4877 -1.6715 -0.1850
 9526TIP3   OH228541   2.424   5.503   4.243  0.0101  0.2263 -0.0634
 9526TIP3    H128542   2.491   5.435   4.243 -0.8997 -0.7595  2.1565
 9526TIP3    H228543   2.345   5.459   4.213  0.1485  1.2299 -2.0698
 9527TIP3   OH228544   6.063   2.982   1.259 -0.3495 -0.4745  0.1630
 9527TIP3    H128545   5.995   2.964   1.324 -1.8024  2.1602 -0.4509
 9527TIP3    H228546   6.035   2.934   1.181 -1.5614  0.5122 -0.0583
 9528TIP3   OH228547   4.680   5.590   0.063  0.2948 -0.3487 -0.6463
 9528TIP3    H128548   4.722   5.506   0.082  0.0885 -0.3160 -0.0224
 9528TIP3    H228549   4.679   5.595  -0.032  3.8908  0.7412 -0.7629
 9529TIP3   OH228550   1.667   3.664   4.651 -0.1883  0.0945 -0.0458
 9529TIP3    H128551   1.671   3.735   4.587 -0.0105  2.2076  2.1557
 9529TIP3    H228552   1.757   3.635   4.661 -0.1219  0.2252 -0.2590
 9530TIP3   OH228553   5.121   3.763   2.352 -0.5719  0.3865 -0.1899
 9530TIP3    H128554   5.047   3.823   2.341 -0.9669 -0.2322 -1.0099
 9530TIP3    H228555   5.197   3.813   2.321 -0.8814  0.5046 -0.7699
 9531TIP3   OH228556   0.334   2.257   1.096  0.0415 -0.2081  0.5211
 9531TIP3    H128557   0.254   2.309   1.088  0.5804  0.5728 -0.0133
 9531TIP3    H228558   0.398   2.318   1.134  1.1644  0.0943 -1.6551
 9532TIP3   OH228559   1.510   1.076   3.958  0.1447 -0.1098  0.2451
 9532TIP3    H128560   1.479   1.024   4.032 -1.6687 -0.3908 -0.6574
 9532TIP3    H228561   1.516   1.014   3.886  0.8585  0.3647 -0.1118
 9533TIP3   OH228562   5.416   0.647   0.848  0.1723 -0.7066  0.1382
 9533TIP3    H128563   5.359   0.712   0.888 -0.1362  0.5222 -2.1538
 9533TIP3    H228564   5.499   0.656   0.895 -0.0969  0.8059  0.3772
 9534TIP3   OH228565   4.118   4.854   1.265  0.2087 -0.0174  0.2817
 9534TIP3    H128566   4.129   4.862   1.171  1.7970 -1.5645  0.3004
 9534TIP3    H228567   4.182   4.916   1.302  0.3608 -0.2149  0.3493
 9535TIP3   OH228568   5.427   3.969   4.460  0.0666  0.2489 -0.3346
 9535TIP3    H128569   5.522   3.982   4.452  0.2402  1.3520  2.4959
 9535TIP3    H228570   5.402   3.930   4.376  2.8822  0.5896 -1.4677
 9536TIP3   OH228571   6.573   5.567   4.165  0.5687 -0.0601  0.4615
 9536TIP3    H128572   6.591   5.659   4.148 -0.8628  0.0310 -0.7696
 9536TIP3    H228573   6.493   5.567   4.217 -0.5474 -0.5944 -1.1545
 9537TIP3   OH228574   2.717   6.288   1.936 -0.3131  0.0388  0.0077
 9537TIP3    H128575   2.707   6.289   1.841  1.4792 -0.4104 -0.2236
 9537TIP3    H228576   2.772   6.364   1.955  0.4656 -0.6407  0.5196
 9538TIP3   OH228577   2.725   0.212   4.056 -0.0210 -0.1700  0.1627
 9538TIP3    H128578   2.806   0.219   4.107  0.1113 -0.5375  0.0065
 9538TIP3    H228579   2.690   0.126   4.080 -1.0417  0.5067  1.2244
 9539TIP3   OH228580   0.567   4.317   0.264  0.2354  0.2224  0.3243
 9539TIP3    H128581   0.592   4.408   0.250  0.6281  0.5518  2.6624
 9539TIP3    H228582   0.474   4.321   0.288 -0.4313 -0.3057 -1.9435
 9540TIP3   OH228583   2.688   2.562   4.764 -0.1212 -0.1021 -0.3388
 9540TIP3    H128584   2.756   2.520   4.711 -0.3948 -1.7768  0.5614
 9540TIP3    H228585   2.714   2.544   4.854 -0.7695  0.8957  0.0610
 9541TIP3   OH228586   3.012   1.310   2.235  0.2670  0.7696 -0.0993
 9541TIP3    H128587   2.980   1.338   2.321 -0.4607 -2.8215  0.9799
 9541TIP3    H228588   3.099   1.274   2.253  1.4848  2.8305 -1.5193
 9542TIP3   OH228589   4.305   6.448   3.927  0.3957  0.4155  0.9827
 9542TIP3    H128590   4.399   6.457   3.910  0.0419 -0.4227 -1.7745
 9542TIP3    H228591   4.272   6.538   3.925  0.7622  0.5492 -0.7770
 9543TIP3   OH228592   5.140   0.381   0.303 -0.3383 -0.3394 -0.4224
 9543TIP3    H128593   5.208   0.387   0.236 -0.4828 -0.6388 -0.5958
 9543TIP3    H228594   5.076   0.448   0.278  0.5269  0.8885  0.4847
 9544TIP3   OH228595   1.408   2.246   2.958 -0.0953 -0.4445  0.7846
 9544TIP3    H128596   1.459   2.301   2.897 -2.1259  0.3441 -0.2839
 9544TIP3    H228597   1.446   2.159   2.948  0.5102 -0.0644 -0.6091
 9545TIP3   OH228598   3.173   1.762   0.400 -0.0332 -0.4195 -0.0165
 9545TIP3    H128599   3.141   1.680   0.438 -0.3680  0.0677  0.7757
 9545TIP3    H228600   3.157   1.752   0.306 -1.4820 -0.6500  0.2326
 9546TIP3   OH228601   0.372   6.019   3.349 -0.4240  0.2315 -0.0121
 9546TIP3    H128602   0.364   6.081   3.276 -0.0149 -0.2984 -0.5218
 9546TIP3    H228603   0.298   6.039   3.406 -2.1285 -0.8385 -1.7167
 9547TIP3   OH228604   7.125   3.371   4.885  1.2803  0.2541  0.0431
 9547TIP3    H128605   7.115   3.464   4.905 -3.0521  0.3432 -1.3258
 9547TIP3    H228606   7.131   3.368   4.790 -0.9499 -0.8184 -0.1366
 9548TIP3   OH228607   4.195   1.603   5.680  0.2730 -0.0327  0.5556
 9548TIP3    H128608   4.110   1.576   5.646  0.6035 -0.5385  0.1252
 9548TIP3    H228609   4.259   1.560   5.624  0.8197  0.8947  0.4449
 9549TIP3   OH228610   0.615   1.464   3.665  0.3067 -0.6669  0.6317
 9549TIP3    H128611   0.672   1.493   3.594 -1.1861  0.4314 -0.1736
 9549TIP3    H228612   0.587   1.376   3.639 -0.6542 -0.0682 -0.4559
 9550TIP3   OH228613   3.759   4.620   4.953  0.4990  0.1948  0.6757
 9550TIP3    H128614   3.843   4.624   4.907  0.5726 -0.9280  0.6903
 9550TIP3    H228615   3.695   4.601   4.885  0.2016  1.3099  0.6232
 9551TIP3   OH228616   6.470   5.463   0.876 -0.2380 -0.2015 -0.3923
 9551TIP3    H128617   6.560   5.457   0.906 -0.0231 -0.4252 -1.0526
 9551TIP3    H228618   6.418   5.429   0.948  0.1170  0.9272  0.4211
 9552TIP3   OH228619   5.946   3.486   1.648  0.2044 -0.6597  0.4546
 9552TIP3    H128620   5.932   3.536   1.568  0.2914 -0.5479  0.5088
 9552TIP3    H228621   5.996   3.545   1.705 -0.8054 -0.3329  1.0180
 9553TIP3   OH228622   2.290   5.928   0.693 -0.2711  0.1685 -0.5560
 9553TIP3    H128623   2.247   6.013   0.682 -1.5199 -0.3309  0.2628
 9553TIP3    H228624   2.219   5.864   0.681  0.4304 -0.7111 -0.0704
 9554TIP3   OH228625   1.683   3.107   2.309  0.1600  0.5154 -0.0939
 9554TIP3    H128626   1.755   3.044   2.305 -1.1181 -0.9684 -0.9755
 9554TIP3    H228627   1.606   3.056   2.285 -1.0006  2.3511 -0.4399
 9555TIP3   OH228628   6.621   3.434   0.607  0.4059  0.2372  0.3446
 9555TIP3    H128629   6.648   3.470   0.523 -0.5669 -1.4269 -0.7537
 9555TIP3    H228630   6.701   3.429   0.659  1.6917 -1.6102 -1.6462
 9556TIP3   OH228631   2.799   1.058   2.351  0.5871 -0.2441  0.3447
 9556TIP3    H128632   2.784   1.146   2.383  1.0583 -0.2272  0.5175
 9556TIP3    H228633   2.873   1.025   2.402  0.5250 -0.6767  0.1654
 9557TIP3   OH228634   2.915   6.610   3.105 -0.5421  0.3787  0.0598
 9557TIP3    H128635   2.831   6.656   3.102 -0.8951 -0.1080  1.7303
 9557TIP3    H228636   2.965   6.654   3.174 -0.9129 -1.7180  1.7572
 9558TIP3   OH228637   5.845   4.925   2.391 -0.1354 -0.5626 -0.7603
 9558TIP3    H128638   5.761   4.906   2.349  0.4472 -1.1982 -1.6731
 9558TIP3    H228639   5.903   4.950   2.319  0.8601 -1.5774 -0.3477
 9559TIP3   OH228640   1.444   2.997   5.584 -0.7544  0.4983 -0.1582
 9559TIP3    H128641   1.454   3.037   5.671 -1.9144  0.3695  0.0605
 9559TIP3    H228642   1.501   2.921   5.586 -1.0429  0.2917  0.6340
 9560TIP3   OH228643   4.193   5.940   0.324 -0.3632  0.2219  0.7083
 9560TIP3    H128644   4.236   6.024   0.341  0.3908  0.7569 -3.0143
 9560TIP3    H228645   4.106   5.963   0.291 -0.0956 -0.3915 -0.5020
 9561TIP3   OH228646   0.627   1.104   4.401 -0.0797  1.0458  0.2396
 9561TIP3    H128647   0.655   1.090   4.311  0.5378 -1.3048  0.7308
 9561TIP3    H228648   0.700   1.152   4.441  0.5952  0.2580 -0.0097
 9562TIP3   OH228649   3.135   4.326   5.369  0.0959 -0.4432  0.2084
 9562TIP3    H128650   3.196   4.264   5.410  1.4100  0.3413 -0.4962
 9562TIP3    H228651   3.176   4.411   5.382 -0.5085  0.0285 -0.9122
 9563TIP3   OH228652   6.755   5.455   2.834 -0.0410  0.1431  0.5663
 9563TIP3    H128653   6.790   5.397   2.766  0.9801 -1.0269  2.0056
 9563TIP3    H228654   6.693   5.400   2.882  0.3551  0.4699  1.4738
 9564TIP3   OH228655   2.895   2.061   5.551  0.1607  0.2400  0.3419
 9564TIP3    H128656   2.863   1.986   5.600 -0.8152  1.2228  1.2645
 9564TIP3    H228657   2.845   2.060   5.469  0.2848 -0.2229  0.2731
 9565TIP3   OH228658   4.992   3.243   1.552 -0.3380 -0.5873  0.4256
 9565TIP3    H128659   5.034   3.241   1.637  0.2690  0.3157  0.1656
 9565TIP3    H228660   5.030   3.169   1.504  0.4823 -0.1657  0.4138
 9566TIP3   OH228661   0.572   4.276   4.110 -0.0444  0.3110 -0.0906
 9566TIP3    H128662   0.592   4.269   4.203 -1.0717 -0.6550  0.0723
 9566TIP3    H228663   0.607   4.361   4.084  0.3606  0.5319  1.1438
 9567TIP3   OH228664   1.809   3.360   2.749  0.7470  0.7002 -0.3592
 9567TIP3    H128665   1.876   3.291   2.743  1.5444  1.2654  1.2993
 9567TIP3    H228666   1.777   3.369   2.660  1.7443 -0.7169 -0.9180
 9568TIP3   OH228667   4.446   6.589   1.483  0.0956 -0.6915  0.0803
 9568TIP3    H128668   4.403   6.554   1.404  0.2460  0.5164 -0.5570
 9568TIP3    H228669   4.386   6.656   1.515  0.4357 -0.5954  0.5176
 9569TIP3   OH228670   6.342   4.933   4.836 -0.1490 -0.4285  0.0259
 9569TIP3    H128671   6.348   4.995   4.764  0.6507 -0.3266  0.1771
 9569TIP3    H228672   6.253   4.897   4.829  0.2336 -1.1237 -1.5725
 9570TIP3   OH228673   1.831   6.566   1.005 -0.1719  0.1654 -0.2000
 9570TIP3    H128674   1.907   6.624   0.997 -0.3414  0.5532  0.9755
 9570TIP3    H228675   1.769   6.598   0.939  0.0091  0.8928 -0.0228
 9571TIP3   OH228676   3.699   3.690   0.617  0.5276 -0.5993  0.1075
 9571TIP3    H128677   3.609   3.659   0.632  1.0809 -1.1473  2.7812
 9571TIP3    H228678   3.727   3.645   0.538 -1.3043 -0.9429 -0.3933
 9572TIP3   OH228679   5.225   5.850   0.355 -0.0853 -0.1294 -0.4818
 9572TIP3    H128680   5.188   5.769   0.390  0.9803 -1.0268 -1.3427
 9572TIP3    H228681   5.175   5.920   0.396 -2.0031 -1.2560 -0.8015
 9573TIP3   OH228682   4.685   6.219   0.419 -0.3073  0.1938 -0.2393
 9573TIP3    H128683   4.642   6.197   0.501  0.4408  0.8369  0.3394
 9573TIP3    H228684   4.742   6.293   0.440 -0.9203  1.1048 -1.5653
 9574TIP3   OH228685   0.586   1.259   5.445 -0.1261  0.0190 -0.3950
 9574TIP3    H128686   0.675   1.223   5.442 -0.2816 -0.3948 -0.1798
 9574TIP3    H228687   0.587   1.316   5.522 -0.3197 -0.7520  0.1955
 9575TIP3   OH228688   0.964   0.131   4.495  0.0345  0.3976 -0.6605
 9575TIP3    H128689   0.910   0.207   4.515  1.1466  0.9683  0.2540
 9575TIP3    H228690   0.985   0.140   4.402 -0.8066  0.5637 -0.8423
 9576TIP3   OH228691   1.401   1.801   4.903  0.3649  0.4535  0.0421
 9576TIP3    H128692   1.420   1.733   4.967 -0.8135  1.0074  1.0200
 9576TIP3    H228693   1.468   1.868   4.920 -0.5318  1.0453  1.4095
 9577TIP3   OH228694   0.463   4.432   0.712 -0.1864 -0.1818 -0.4710
 9577TIP3    H128695   0.459   4.441   0.807 -0.6193 -1.9912 -0.2818
 9577TIP3    H228696   0.512   4.509   0.683 -1.9339  1.6058  0.9803
 9578TIP3   OH228697   4.405   1.162   2.713 -0.1579 -0.0097  0.3059
 9578TIP3    H128698   4.319   1.194   2.684 -0.2341 -0.9062 -0.5022
 9578TIP3    H228699   4.439   1.233   2.768 -1.5890  0.1918  0.9960
 9579TIP3   OH228700   3.376   0.643   4.955 -0.2191  0.1958 -0.7061
 9579TIP3    H128701   3.283   0.620   4.955  0.0891 -1.1520 -0.1802
 9579TIP3    H228702   3.418   0.571   4.908  0.5667  0.8477 -1.0292
 9580TIP3   OH228703   0.961   1.470   3.421  0.3919  0.2201  0.6685
 9580TIP3    H128704   0.991   1.505   3.504  0.8337  2.0629 -0.2280
 9580TIP3    H228705   0.865   1.475   3.425  0.4077  0.1919  1.0909
 9581TIP3   OH228706   1.585   1.329   2.473 -0.2888 -0.2793  0.3521
 9581TIP3    H128707   1.510   1.269   2.466 -0.3284 -0.1523 -0.4289
 9581TIP3    H228708   1.554   1.400   2.529  0.3991 -1.9232  2.9845
 9582TIP3   OH228709   0.440   3.977   3.682 -0.7772 -0.5776 -0.2675
 9582TIP3    H128710   0.364   4.034   3.669 -1.8593 -1.8460  0.3343
 9582TIP3    H228711   0.442   3.960   3.776  1.1798  0.6528 -0.0457
 9583TIP3   OH228712   0.025   3.491   1.978  0.5969  0.5332 -0.8765
 9583TIP3    H128713   0.106   3.484   1.928  0.0286  3.7352 -2.5274
 9583TIP3    H228714   0.020   3.584   2.002 -0.9732 -0.1959  2.1063
 9584TIP3   OH228715   3.628   6.759   0.732  0.5025  0.0831 -0.1895
 9584TIP3    H128716   3.608   6.747   0.639  1.6012 -3.1223 -0.1614
 9584TIP3    H228717   3.578   6.690   0.776  0.3614  1.2508  1.5610
 9585TIP3   OH228718   1.740   3.100   4.201  0.6256  0.2236 -0.0171
 9585TIP3    H128719   1.822   3.150   4.202  0.6265  0.2089  0.9028
 9585TIP3    H228720   1.757   3.024   4.257 -0.4017  0.8649  1.2082
 9586TIP3   OH228721   1.573   4.158   0.335  0.0473  0.4702 -0.1351
 9586TIP3    H128722   1.489   4.121   0.363  0.4435  0.8562  1.6895
 9586TIP3    H228723   1.637   4.120   0.395  1.0254  0.9991 -0.8255
 9587TIP3   OH228724   3.044   4.826   1.341 -0.1288  0.0682 -0.1487
 9587TIP3    H128725   3.044   4.736   1.307  0.1728  0.0250 -0.0388
 9587TIP3    H228726   3.129   4.861   1.315 -0.2002  0.2843 -0.0912
 9588TIP3   OH228727   2.752   5.059   2.263 -0.7878 -0.2945 -0.0943
 9588TIP3    H128728   2.710   5.087   2.182 -1.1077  0.7783  0.4315
 9588TIP3    H228729   2.684   5.013   2.311 -0.4489 -1.4289 -0.6523
 9589TIP3   OH228730   5.360   2.245   3.951  0.2167 -0.3969  0.3253
 9589TIP3    H128731   5.267   2.242   3.975  0.2057 -0.3852  0.2853
 9589TIP3    H228732   5.387   2.334   3.972 -0.0389 -0.0800 -0.6102
 9590TIP3   OH228733   1.011   5.585   5.553 -0.4641  0.1024  0.0215
 9590TIP3    H128734   0.938   5.535   5.591  0.6266 -1.5559  0.0686
 9590TIP3    H228735   1.025   5.657   5.615 -0.5676 -0.8974  1.2601
 9591TIP3   OH228736   2.168   4.364   1.442  0.0672  0.1299  0.1065
 9591TIP3    H128737   2.109   4.369   1.518 -2.2088  0.1710 -1.5672
 9591TIP3    H228738   2.141   4.284   1.397  0.3614  0.8718 -1.4425
 9592TIP3   OH228739   5.337   3.339   3.264  0.3680  0.0611  0.5976
 9592TIP3    H128740   5.360   3.307   3.177 -1.6913 -0.3166  0.1469
 9592TIP3    H228741   5.351   3.434   3.259  2.3313 -0.1947  0.5790
 9593TIP3   OH228742   6.692   0.663   5.428  0.4693 -0.1149 -0.4300
 9593TIP3    H128743   6.723   0.650   5.339  0.9503  4.0656 -1.0690
 9593TIP3    H228744   6.769   0.694   5.476 -0.1803 -0.6158  1.0171
 9594TIP3   OH228745   0.339   0.194   0.967  0.2240  0.0576 -0.3638
 9594TIP3    H128746   0.412   0.253   0.986  0.6849  0.0298 -1.9235
 9594TIP3    H228747   0.376   0.106   0.977  0.6425  0.0364 -1.8616
 9595TIP3   OH228748   6.218   5.225   1.615  0.4056  0.5546  0.2163
 9595TIP3    H128749   6.302   5.269   1.619 -0.5078  2.3460  1.0944
 9595TIP3    H228750   6.234   5.145   1.564  2.4749  1.1315 -0.1045
 9596TIP3   OH228751   6.144   1.428   4.197 -0.1387 -0.4515  1.0110
 9596TIP3    H128752   6.122   1.374   4.121  1.4803 -0.3881  0.4537
 9596TIP3    H228753   6.239   1.428   4.199  0.0192  3.4064  0.2291
 9597TIP3   OH228754   1.100   2.970   0.343  0.1174  0.5965 -0.0958
 9597TIP3    H128755   1.017   2.936   0.378  1.1435 -0.9966  0.8917
 9597TIP3    H228756   1.080   2.990   0.251 -1.6375  1.3101  0.3975
 9598TIP3   OH228757   4.249   6.446   4.496 -0.4110  0.3637 -0.7561
 9598TIP3    H128758   4.304   6.383   4.543  0.0986  0.7332 -0.8443
 9598TIP3    H228759   4.286   6.531   4.519 -0.5754  0.5851 -1.3005
 9599TIP3   OH228760   3.327   5.347   2.446  0.4198  0.1788  0.0911
 9599TIP3    H128761   3.236   5.319   2.435  0.5027  0.3943 -1.4840
 9599TIP3    H228762   3.330   5.435   2.408  1.4359 -0.1534 -0.6546
 9600TIP3   OH228763   4.623   1.803   3.338  0.1887  0.1011  0.3374
 9600TIP3    H128764   4.615   1.708   3.346  1.8047  0.0189  1.7899
 9600TIP3    H228765   4.540   1.837   3.369  0.3618 -0.8296  1.9935
 9601TIP3   OH228766   7.084   4.273   4.692  0.4830  0.1395 -0.3371
 9601TIP3    H128767   7.061   4.207   4.627 -0.1209  0.0549 -0.0418
 9601TIP3    H228768   7.101   4.223   4.772 -1.0643  0.4030  0.1902
 9602TIP3   OH228769   5.286   6.150   1.954  0.0900  0.1865 -0.1971
 9602TIP3    H128770   5.265   6.224   1.898  2.4515  1.2882  0.2725
 9602TIP3    H228771   5.377   6.164   1.979 -0.2755 -1.3496  2.2635
 9603TIP3   OH228772   5.688   3.203   3.636 -0.6918  0.0673  0.0570
 9603TIP3    H128773   5.726   3.258   3.705  2.4334 -1.9010  0.1240
 9603TIP3    H228774   5.626   3.146   3.683 -0.4417  0.3990  0.8152
 9604TIP3   OH228775   4.786   5.064   5.651 -0.4812  0.7927  0.1853
 9604TIP3    H128776   4.769   5.002   5.721  0.8513  1.4693  1.1476
 9604TIP3    H228777   4.736   5.030   5.577 -1.1412 -0.4755  1.1646
 9605TIP3   OH228778   2.273   4.239   4.964  0.2170  0.3331  0.1983
 9605TIP3    H128779   2.199   4.298   4.978 -0.2826  0.1923 -1.5380
 9605TIP3    H228780   2.250   4.159   5.011 -0.6189  0.3942 -0.0839
 9606TIP3   OH228781   5.779   1.858   3.834  0.0390  0.0734  0.1921
 9606TIP3    H128782   5.770   1.793   3.904  0.9282  0.3300  0.5693
 9606TIP3    H228783   5.763   1.810   3.753  0.2095 -0.4998  0.4958
 9607TIP3   OH228784   0.652   0.126   2.443  0.8167  0.1301 -0.4717
 9607TIP3    H128785   0.641   0.052   2.384  0.4823  1.2056 -1.8067
 9607TIP3    H228786   0.736   0.164   2.419  2.2342 -1.2391  1.9210
 9608TIP3   OH228787   0.477   2.124   0.430 -0.2519 -0.3956  0.5719
 9608TIP3    H128788   0.469   2.138   0.336  0.1921  0.8724  0.7121
 9608TIP3    H228789   0.387   2.124   0.462 -0.3321  1.1351  0.4049
 9609TIP3   OH228790   0.626   0.425   5.311 -0.0530 -0.1122 -0.0061
 9609TIP3    H128791   0.598   0.493   5.250 -0.6564  0.2657  0.6825
 9609TIP3    H228792   0.545   0.392   5.350  0.0534 -2.3663 -1.4744
 9610TIP3   OH228793   2.902   4.408   3.374 -0.2888 -0.1071  0.1725
 9610TIP3    H128794   2.874   4.415   3.283 -1.0723 -1.1260  0.3172
 9610TIP3    H228795   2.957   4.485   3.388 -0.3680  0.2007 -1.0808
 9611TIP3   OH228796   2.377   2.093   3.860 -0.1619  0.2756 -0.0865
 9611TIP3    H128797   2.434   2.153   3.907 -0.2346  0.5720 -0.3757
 9611TIP3    H228798   2.331   2.044   3.928 -0.6847  1.0920  0.1539
 9612TIP3   OH228799   4.623   0.850   1.863  0.3682  0.2452 -0.1367
 9612TIP3    H128800   4.667   0.769   1.888 -0.3476  0.1953  0.9872
 9612TIP3    H228801   4.686   0.919   1.885  0.6598  0.0564 -0.3649
 9613TIP3   OH228802   5.134   2.787   3.313 -0.4157  0.1064 -0.7618
 9613TIP3    H128803   5.179   2.871   3.318 -0.7606  0.3778 -1.9566
 9613TIP3    H228804   5.159   2.752   3.227  0.4218 -1.4164  0.0613
 9614TIP3   OH228805   0.706   2.376   4.256 -0.0480  0.7517  0.3736
 9614TIP3    H128806   0.614   2.399   4.239  0.1686  1.3678  0.0287
 9614TIP3    H228807   0.724   2.412   4.343 -0.5087 -0.5113  1.0263
 9615TIP3   OH228808   1.664   3.331   2.449  0.2519 -0.5817  0.1472
 9615TIP3    H128809   1.641   3.405   2.392 -1.5896 -0.7064  0.6591
 9615TIP3    H228810   1.677   3.258   2.389 -0.9949 -0.5496 -0.1975
 9616TIP3   OH228811   6.340   2.590   2.289 -0.0186  0.4503 -0.7083
 9616TIP3    H128812   6.319   2.575   2.197  2.9303  0.3413 -1.4510
 9616TIP3    H228813   6.381   2.677   2.290  2.9241 -0.8305 -0.1248
 9617TIP3   OH228814   3.233   0.418   2.809 -0.3055 -0.2476  0.2782
 9617TIP3    H128815   3.190   0.333   2.820 -1.5646  0.4597  1.1662
 9617TIP3    H228816   3.306   0.415   2.871 -1.8891  0.2287  2.3067
 9618TIP3   OH228817   4.781   2.741   0.857 -0.3742  0.4993 -0.0834
 9618TIP3    H128818   4.808   2.806   0.792 -0.4688  0.4249 -0.1967
 9618TIP3    H228819   4.830   2.765   0.936  1.7342 -0.9120 -0.8635
 9619TIP3   OH228820   3.082   1.490   1.373  0.5159  0.6593  0.3320
 9619TIP3    H128821   3.003   1.541   1.390 -0.9255 -1.3839  0.0865
 9619TIP3    H228822   3.140   1.512   1.446 -0.4743  1.7801  0.8216
 9620TIP3   OH228823   4.550   4.496   5.543  0.0846  0.2339 -0.2578
 9620TIP3    H128824   4.557   4.592   5.536 -0.3511  0.4256  1.5448
 9620TIP3    H228825   4.458   4.478   5.523 -0.5228  0.5163  2.0365
 9621TIP3   OH228826   3.100   0.705   0.211 -0.4904  1.2991 -0.1763
 9621TIP3    H128827   3.012   0.699   0.174 -0.0288  1.5163 -1.3489
 9621TIP3    H228828   3.123   0.798   0.206 -0.2310  1.2568  0.1992
 9622TIP3   OH228829   2.382   4.094   2.338  0.4338 -0.3471  0.3500
 9622TIP3    H128830   2.313   4.156   2.315  0.0685 -1.3035 -1.2509
 9622TIP3    H228831   2.457   4.149   2.361 -0.7368  0.7123  1.9157
 9623TIP3   OH228832   0.794   6.582   5.497 -0.2084  0.1996  0.3876
 9623TIP3    H128833   0.710   6.623   5.518  0.5756  1.4692  1.0848
 9623TIP3    H228834   0.826   6.630   5.421 -0.9954 -1.5686 -1.1509
 9624TIP3   OH228835   6.294   4.124   2.711  0.5971 -0.1979  0.6748
 9624TIP3    H128836   6.218   4.072   2.739  0.4007 -0.0536  0.4182
 9624TIP3    H228837   6.273   4.149   2.621  1.2731 -0.7477  0.3582
 9625TIP3   OH228838   7.104   0.683   0.256 -0.3545  0.5863 -0.7656
 9625TIP3    H128839   7.087   0.738   0.179  2.1819  0.7267 -1.3324
 9625TIP3    H228840   7.149   0.607   0.220 -1.2619 -0.5028  0.3512
 9626TIP3   OH228841   2.966   5.142   1.497  0.2894 -0.2606  0.3199
 9626TIP3    H128842   2.955   5.219   1.442  1.7477 -1.1963 -1.3916
 9626TIP3    H228843   2.902   5.079   1.463  0.3580 -0.4343  0.5128
 9627TIP3   OH228844   3.457   2.848   0.173  0.0656 -0.4699  0.1332
 9627TIP3    H128845   3.380   2.901   0.195  0.3168  0.0946 -0.3258
 9627TIP3    H228846   3.441   2.764   0.216 -1.7152 -1.0286 -1.4548
 9628TIP3   OH228847   0.602   4.283  -0.013  0.1192  0.0449  0.3525
 9628TIP3    H128848   0.565   4.195  -0.022  1.9263 -0.8081  0.7482
 9628TIP3    H228849   0.588   4.306   0.079 -2.6440  1.3139 -0.3023
 9629TIP3   OH228850   2.632   3.082   3.030 -0.2434  0.4501 -0.2459
 9629TIP3    H128851   2.694   3.017   2.997 -0.8906  0.0138 -0.6025
 9629TIP3    H228852   2.578   3.105   2.955 -0.2541  1.1367 -0.0353
 9630TIP3   OH228853   3.057   0.998   0.891  0.1844  0.3130  0.0608
 9630TIP3    H128854   2.975   0.954   0.916  0.3066 -0.7999 -1.3536
 9630TIP3    H228855   3.125   0.950   0.937  0.1142  0.6462  0.5118
 9631TIP3   OH228856   1.500   1.012   2.888  0.1326 -0.0123 -0.0126
 9631TIP3    H128857   1.484   0.990   2.796  0.4935  0.3568 -0.1672
 9631TIP3    H228858   1.476   0.932   2.936 -0.3351 -0.1082 -0.3971
 9632TIP3   OH228859   4.273   6.038   5.319 -0.2013  0.2375  0.5300
 9632TIP3    H128860   4.227   5.968   5.365 -0.8185 -1.1924 -2.0858
 9632TIP3    H228861   4.208   6.108   5.312 -1.3641 -0.9302 -1.2254
 9633TIP3   OH228862   2.629   0.621   3.158 -0.0372 -0.2847  0.4248
 9633TIP3    H128863   2.627   0.605   3.252 -0.5763  0.0512  0.4744
 9633TIP3    H228864   2.706   0.675   3.144 -1.5918  2.3151  1.1224
 9634TIP3   OH228865   0.634   2.558   5.321  0.1353 -0.3890 -0.7895
 9634TIP3    H128866   0.715   2.590   5.283 -0.1069  0.7238 -0.4278
 9634TIP3    H228867   0.650   2.557   5.415 -0.2225 -0.2999 -0.7238
 9635TIP3   OH228868   6.342   4.146   3.630 -0.2467  0.1762  0.0720
 9635TIP3    H128869   6.278   4.132   3.699  0.0869  0.1147  0.3748
 9635TIP3    H228870   6.299   4.115   3.550 -0.4839 -0.1292  0.3169
 9636TIP3   OH228871   4.449   3.383   0.691 -0.6573 -0.0594 -0.3526
 9636TIP3    H128872   4.447   3.360   0.783  1.0879  0.0176 -0.2694
 9636TIP3    H228873   4.365   3.351   0.656 -0.2687 -2.4132  0.7010
 9637TIP3   OH228874   6.778   2.939   5.732 -0.1354 -0.4113 -0.5841
 9637TIP3    H128875   6.803   2.877   5.663 -0.5156 -2.4718  1.0086
 9637TIP3    H228876   6.692   2.972   5.705  0.2924 -0.1659 -1.7068
 9638TIP3   OH228877   2.373   6.267   4.834 -0.3852  0.2713 -0.3525
 9638TIP3    H128878   2.285   6.268   4.874  0.1503 -1.2601  0.9483
 9638TIP3    H228879   2.392   6.175   4.820  0.8688  0.6145 -1.0067
 9639TIP3   OH228880   5.881   1.598   3.592  0.3666 -0.1377  0.3049
 9639TIP3    H128881   5.969   1.635   3.602  0.5049 -0.4890  0.4049
 9639TIP3    H228882   5.872   1.538   3.666 -0.2376  0.4440  0.7109
 9640TIP3   OH228883   6.191   3.480   2.996 -0.1129  0.2310  0.0606
 9640TIP3    H128884   6.096   3.487   2.980  0.4210  1.5958 -3.4234
 9640TIP3    H228885   6.221   3.570   2.999  1.0717 -0.1633  1.9507
 9641TIP3   OH228886   3.541   1.946   1.874 -0.4403  0.2067  0.1147
 9641TIP3    H128887   3.535   1.854   1.902  0.1379  0.1560  0.0982
 9641TIP3    H228888   3.500   1.995   1.945 -0.0289 -0.0115  0.5161
 9642TIP3   OH228889   1.676   5.578   4.014 -0.1526 -0.2062  0.1431
 9642TIP3    H128890   1.586   5.606   4.029  0.1548  0.3454  1.0144
 9642TIP3    H228891   1.704   5.627   3.938  0.1144  1.2928  1.1698
 9643TIP3   OH228892   5.408   6.579   4.712  0.2902  0.0240 -0.2629
 9643TIP3    H128893   5.413   6.505   4.773 -3.9196  0.6631  1.1697
 9643TIP3    H228894   5.448   6.651   4.760  1.2502 -0.4985 -0.2457
 9644TIP3   OH228895   2.184   0.524   5.461  0.4184 -0.9103 -0.7227
 9644TIP3    H128896   2.105   0.493   5.504 -0.1559  1.5097  0.0815
 9644TIP3    H228897   2.165   0.516   5.367 -0.6715 -0.5987 -0.5345
 9645TIP3   OH228898   5.298   3.489   1.621 -0.0025 -0.2585 -0.4074
 9645TIP3    H128899   5.371   3.533   1.578 -0.6652 -0.3459 -1.6874
 9645TIP3    H228900   5.335   3.407   1.654  0.6733  0.1029 -0.2546
 9646TIP3   OH228901   2.730   5.728   0.807 -0.3028 -0.4701  0.5399
 9646TIP3    H128902   2.753   5.636   0.796 -0.6597 -0.5760  0.6702
 9646TIP3    H228903   2.635   5.731   0.800 -0.4298 -0.3317  2.0315
 9647TIP3   OH228904   6.532   0.332   3.549  0.3191  0.0489 -0.0585
 9647TIP3    H128905   6.441   0.352   3.572  0.9179  1.2585  1.4213
 9647TIP3    H228906   6.527   0.298   3.460 -1.4593  1.1831 -0.4468
 9648TIP3   OH228907   6.354   1.220   1.193 -0.1487  0.2927 -0.3266
 9648TIP3    H128908   6.363   1.165   1.271 -0.5400 -0.1739 -0.6071
 9648TIP3    H228909   6.307   1.166   1.130  1.1239  0.2702 -1.2916
 9649TIP3   OH228910   7.157   1.972   1.937  0.0446  0.7051  0.0670
 9649TIP3    H128911   7.239   2.022   1.926  0.5942 -0.1962 -0.0032
 9649TIP3    H228912   7.112   1.982   1.853 -0.0248  1.3799  0.1747
 9650TIP3   OH228913   1.508   5.809   1.812  0.7186 -0.5699 -1.2491
 9650TIP3    H128914   1.569   5.882   1.805 -0.3144  0.3762 -0.8048
 9650TIP3    H228915   1.484   5.806   1.905  0.6044 -1.3491 -1.2960
 9651TIP3   OH228916   5.506   6.209   3.487 -0.5402  0.1656 -0.3858
 9651TIP3    H128917   5.454   6.264   3.546  0.1526 -1.4740  1.8717
 9651TIP3    H228918   5.594   6.212   3.524 -0.4470 -2.2921 -0.2827
 9652TIP3   OH228919   5.948   4.904   5.682  0.4415  0.8142  0.1202
 9652TIP3    H128920   5.994   4.831   5.641  0.4459  0.8507  0.0611
 9652TIP3    H228921   5.957   4.977   5.621  3.2185  1.8287  1.5550
 9653TIP3   OH228922   4.894   3.104   1.206 -0.0694 -0.3687  0.1229
 9653TIP3    H128923   4.899   3.200   1.201  1.5320 -0.4573 -0.5100
 9653TIP3    H228924   4.957   3.073   1.141  0.1294 -1.8569  0.9870
 9654TIP3   OH228925   4.946   0.754   5.496 -0.1610  0.2602 -0.1202
 9654TIP3    H128926   5.009   0.703   5.445  0.0858 -1.2041  1.5326
 9654TIP3    H228927   4.919   0.825   5.438  0.2969 -1.1442 -2.1635
 9655TIP3   OH228928   3.844   4.953   2.857 -0.1363 -0.2064 -0.4212
 9655TIP3    H128929   3.776   4.908   2.808 -2.3922  1.6150  0.8165
 9655TIP3    H228930   3.908   4.885   2.879 -1.7640 -2.0977 -1.2923
 9656TIP3   OH228931   1.941   0.850   3.560 -0.3629 -0.4121 -0.1442
 9656TIP3    H128932   2.028   0.883   3.535  0.0130 -1.0602  0.2669
 9656TIP3    H228933   1.891   0.928   3.584  0.3058 -0.0872  0.2144
 9657TIP3   OH228934   1.502   5.216   0.668 -0.5130 -0.5769  0.1928
 9657TIP3    H128935   1.413   5.237   0.698 -0.4351  0.7025 -0.4051
 9657TIP3    H228936   1.489   5.156   0.594 -0.8506 -0.7830  0.4157
 9658TIP3   OH228937   0.336   3.636   3.320  0.1759  0.1732  0.2197
 9658TIP3    H128938   0.266   3.638   3.385 -0.5676 -1.0171 -0.5131
 9658TIP3    H228939   0.412   3.603   3.368 -0.9443 -2.9894  0.0441
 9659TIP3   OH228940   5.097   4.295   1.700 -0.2213  0.4304  0.4418
 9659TIP3    H128941   5.055   4.283   1.615 -1.2181  1.4194  0.7759
 9659TIP3    H228942   5.131   4.385   1.698  0.0706  0.3350  0.9497
 9660TIP3   OH228943   3.404   4.194   3.026  0.0474  0.2757  0.3915
 9660TIP3    H128944   3.413   4.288   3.041 -1.6275  0.7839 -1.3759
 9660TIP3    H228945   3.320   4.184   2.982  0.7091 -1.9140 -0.5547
 9661TIP3   OH228946   5.149   5.050   1.490 -0.5094  0.0264  0.6248
 9661TIP3    H128947   5.175   5.119   1.552 -0.9582 -0.0807  0.9370
 9661TIP3    H228948   5.064   5.078   1.457 -0.1231  0.2566 -0.2185
 9662TIP3   OH228949   3.158   0.032   3.495  0.8024  0.9783 -0.3425
 9662TIP3    H128950   3.175  -0.062   3.491 -0.8538  0.6289  0.1945
 9662TIP3    H228951   3.245   0.072   3.505  1.5691 -0.4424 -1.0675
 9663TIP3   OH228952   2.491   3.000   0.346 -0.0652 -0.6062  0.3978
 9663TIP3    H128953   2.510   2.943   0.271 -0.5247  1.2574 -1.2334
 9663TIP3    H228954   2.569   3.054   0.356 -0.8777  0.7904 -0.3657
 9664TIP3   OH228955   1.408   4.587   3.352  0.6371 -0.3033  0.1065
 9664TIP3    H128956   1.470   4.660   3.362  2.2027 -1.5344 -0.0911
 9664TIP3    H228957   1.367   4.602   3.267  1.4941 -0.0131 -0.2736
 9665TIP3   OH228958   3.603   6.675   4.583  0.4465 -0.6652 -0.0939
 9665TIP3    H128959   3.529   6.697   4.640 -1.1403 -2.9289 -1.1093
 9665TIP3    H228960   3.575   6.703   4.495  1.7756  0.4554 -0.1993
 9666TIP3   OH228961   5.767   1.871   0.481 -0.4835 -0.1761  0.4282
 9666TIP3    H128962   5.697   1.815   0.449  1.4225 -2.3906 -0.1841
 9666TIP3    H228963   5.782   1.934   0.412 -1.2212 -0.2948  0.1541
 9667TIP3   OH228964   3.020   2.793   3.651 -0.3325  0.6678  0.1674
 9667TIP3    H128965   2.925   2.796   3.642 -0.1747  0.4326 -1.9845
 9667TIP3    H228966   3.045   2.883   3.669 -0.9204  0.8087  0.3085
 9668TIP3   OH228967   6.538   5.964   1.637  0.2804  0.3422 -0.1174
 9668TIP3    H128968   6.528   5.995   1.727 -1.0634 -0.0581 -0.1098
 9668TIP3    H228969   6.501   6.034   1.584 -2.2243 -0.8581 -0.1293
 9669TIP3   OH228970   7.038   0.891   0.653 -0.0949  0.7307  0.6067
 9669TIP3    H128971   7.108   0.835   0.687 -0.2396  0.5421  0.5947
 9669TIP3    H228972   6.959   0.838   0.661  0.1733 -0.2745 -2.1568
 9670TIP3   OH228973   5.607   6.536   0.545 -0.0163  0.0687 -0.2903
 9670TIP3    H128974   5.533   6.595   0.529  0.1949 -0.1649 -2.2980
 9670TIP3    H228975   5.665   6.586   0.603 -0.8087  1.0117 -0.2825
 9671TIP3   OH228976   4.309   1.370   1.014 -0.0706  0.1247 -0.3460
 9671TIP3    H128977   4.302   1.337   1.104 -0.0873  0.6908 -0.1290
 9671TIP3    H228978   4.363   1.306   0.969 -0.4627 -0.4206 -0.0621
 9672TIP3   OH228979   2.119   2.792   2.751 -0.1993 -0.6616  0.9107
 9672TIP3    H128980   2.146   2.713   2.798  0.7162 -1.1629 -0.4007
 9672TIP3    H228981   2.042   2.764   2.701 -0.6792 -0.3504  1.4656
 9673TIP3   OH228982   1.647   3.705   3.047 -0.3493 -0.2307 -0.3562
 9673TIP3    H128983   1.656   3.698   2.952  0.1353  0.1582 -0.3450
 9673TIP3    H228984   1.616   3.619   3.075  0.5352 -0.6908 -0.7506
 9674TIP3   OH228985   2.502   1.814   1.573  0.7070 -0.0747  0.0757
 9674TIP3    H128986   2.478   1.859   1.654  1.0755  0.7445 -0.2598
 9674TIP3    H228987   2.585   1.769   1.594  1.1296  0.6497 -0.0238
 9675TIP3   OH228988   5.062   2.246   3.939 -0.1889  0.0939  0.0947
 9675TIP3    H128989   5.058   2.296   3.858  0.7908  3.1352  1.7129
 9675TIP3    H228990   4.972   2.241   3.969 -0.4143  0.0360 -0.5866
 9676TIP3   OH228991   1.322   6.453   0.643  0.1620 -0.0685 -0.2144
 9676TIP3    H128992   1.233   6.450   0.677  0.1370 -1.5647 -0.3395
 9676TIP3    H228993   1.370   6.507   0.705 -0.5443 -0.3448  0.5905
 9677TIP3   OH228994   5.542   5.570   0.968  0.3170 -0.1794 -0.0885
 9677TIP3    H128995   5.588   5.564   1.051 -0.6138 -2.3193  0.3311
 9677TIP3    H228996   5.608   5.602   0.906  1.0862  1.1790  1.3781
 9678TIP3   OH228997   2.716   6.638   0.731  0.2381 -0.1161 -0.3757
 9678TIP3    H128998   2.771   6.703   0.776 -0.5673  1.9736 -2.2308
 9678TIP3    H228999   2.743   6.644   0.639 -0.6885 -1.5907 -0.7755
 9679TIP3   OH229000   6.365   1.934   2.075  0.1942  0.3621  0.6116
 9679TIP3    H129001   6.316   1.948   1.994 -0.0357 -3.2149 -0.0444
 9679TIP3    H229002   6.441   1.992   2.067 -0.4764  1.0380 -1.5476
 9680TIP3   OH229003   5.178   0.733   3.648  0.2862  0.1451 -0.0315
 9680TIP3    H129004   5.183   0.664   3.714  1.2280 -0.1405 -0.3854
 9680TIP3    H229005   5.090   0.770   3.658 -0.5552 -1.6493 -0.3957
 9681TIP3   OH229006   3.867   5.581   1.941  0.0220  0.4946  0.3977
 9681TIP3    H129007   3.797   5.565   2.005  1.1610 -2.1927  1.1191
 9681TIP3    H229008   3.948   5.572   1.992  0.9360 -0.4457 -1.1553
 9682TIP3   OH229009   4.846   1.340   5.603 -0.0447 -0.1088  0.3643
 9682TIP3    H129010   4.888   1.262   5.640  2.2544 -0.5926 -2.7882
 9682TIP3    H229011   4.900   1.361   5.527 -2.7505  2.3987 -1.0375
 9683TIP3   OH229012   0.581   2.461   2.573 -0.4402  0.1565 -0.1717
 9683TIP3    H129013   0.574   2.397   2.503  0.5091 -0.8605  0.6394
 9683TIP3    H229014   0.545   2.417   2.650  1.3506  0.1036  0.6840
 9684TIP3   OH229015   5.712   6.280   2.154 -0.4197 -0.3046 -0.8032
 9684TIP3    H129016   5.774   6.336   2.107  0.3483 -0.1033  0.3927
 9684TIP3    H229017   5.749   6.192   2.147  0.4707 -0.0669  0.5969
 9685TIP3   OH229018   6.473   0.352   5.323 -0.4508 -0.1635  0.6348
 9685TIP3    H129019   6.530   0.275   5.317 -0.7619 -0.6201  2.7343
 9685TIP3    H229020   6.487   0.398   5.240  2.4217 -0.6280  0.7389
 9686TIP3   OH229021   3.739   6.418   4.127  0.5423  0.0689 -0.2093
 9686TIP3    H129022   3.701   6.437   4.041  3.1403 -0.9073 -1.6503
 9686TIP3    H229023   3.663   6.403   4.183 -1.2500  0.9602 -2.2418
 9687TIP3   OH229024   5.711   1.541   4.489  0.5483  0.5776  0.2680
 9687TIP3    H129025   5.802   1.530   4.513  0.4565 -0.2081  0.2937
 9687TIP3    H229026   5.664   1.478   4.544 -0.0791  1.4299  0.7162
 9688TIP3   OH229027   3.614   2.608   2.551  0.3251 -0.1862 -0.2021
 9688TIP3    H129028   3.583   2.694   2.580  1.0934 -0.0862  0.3542
 9688TIP3    H229029   3.543   2.548   2.575  0.2327  0.1443  0.3780
 9689TIP3   OH229030   5.840   3.749   3.905  0.1869 -0.0248  0.5146
 9689TIP3    H129031   5.920   3.702   3.929  0.3692  0.2699  0.4888
 9689TIP3    H229032   5.776   3.722   3.970  0.7181  0.8881  1.4484
 9690TIP3   OH229033   0.072   0.275   0.538 -0.9750  0.5751 -0.0478
 9690TIP3    H129034  -0.019   0.303   0.529 -0.5788  1.6633 -0.8770
 9690TIP3    H229035   0.121   0.330   0.477  0.3199  0.3612  0.7444
 9691TIP3   OH229036   0.296   3.705   4.194 -0.4336  0.3032 -0.3695
 9691TIP3    H129037   0.321   3.644   4.263  0.3934  0.3589 -0.6150
 9691TIP3    H229038   0.328   3.790   4.224 -0.9654  0.5037 -0.3548
 9692TIP3   OH229039   6.238   2.015   5.384  0.0131 -0.2218 -0.0315
 9692TIP3    H129040   6.150   2.049   5.403  0.3482  0.9136 -0.4346
 9692TIP3    H229041   6.252   1.948   5.452 -0.7095  0.3912  0.7572
 9693TIP3   OH229042   4.086   3.476   3.670  0.6548  0.1951 -0.0373
 9693TIP3    H129043   3.991   3.477   3.660  0.4769  1.1162  1.4832
 9693TIP3    H229044   4.104   3.393   3.714  0.4257  0.5060  0.6566
 9694TIP3   OH229045   0.886   5.830   0.083  0.0302  0.7090  0.4210
 9694TIP3    H129046   0.806   5.831   0.030 -0.1982  2.4504  0.7102
 9694TIP3    H229047   0.957   5.818   0.020 -0.4389 -0.8156  0.1575
 9695TIP3   OH229048   0.495   2.997   0.170 -0.0940  0.0798 -0.1141
 9695TIP3    H129049   0.435   3.010   0.096  0.1824  0.6553 -0.2430
 9695TIP3    H229050   0.465   3.061   0.235 -0.1395 -0.2102  0.1518
 9696TIP3   OH229051   1.099   0.299   3.871 -1.0279 -0.4021  0.0259
 9696TIP3    H129052   1.008   0.327   3.870 -0.6500  0.9208 -0.1113
 9696TIP3    H229053   1.147   0.372   3.831  0.1254 -0.8949  0.4557
 9697TIP3   OH229054   3.635   3.778   3.563 -0.8720  0.2824  0.0939
 9697TIP3    H129055   3.672   3.719   3.628 -0.4154  0.4234 -0.0282
 9697TIP3    H229056   3.648   3.733   3.479 -2.4329 -0.3875  0.1826
 9698TIP3   OH229057   6.773   2.669  -0.001  0.7836 -0.4175  0.0881
 9698TIP3    H129058   6.846   2.699   0.053 -0.1389  1.5942  0.3116
 9698TIP3    H229059   6.697   2.717   0.032 -0.7391 -2.6995  0.0767
 9699TIP3   OH229060   6.076   6.210   2.911  1.0441 -0.2340  0.0295
 9699TIP3    H129061   6.056   6.297   2.877 -1.6765 -1.1691 -1.1043
 9699TIP3    H229062   6.137   6.172   2.848  2.6451  0.9743  0.8033
 9700TIP3   OH229063   1.587   6.173   4.386  0.2584  0.1318  0.8441
 9700TIP3    H129064   1.622   6.151   4.472  0.0538  0.0263  0.9008
 9700TIP3    H229065   1.554   6.091   4.351  0.3774  0.1656  0.6453
 9701TIP3   OH229066   2.191   1.172   5.237  0.0273 -0.4244  0.5975
 9701TIP3    H129067   2.256   1.150   5.170  0.1245  0.2924  0.4501
 9701TIP3    H229068   2.214   1.116   5.311  1.6892  0.7700  1.0516
 9702TIP3   OH229069   5.789   2.363   1.138 -0.1114 -0.2950 -0.5256
 9702TIP3    H129070   5.779   2.394   1.228 -0.5671  0.8569 -0.9527
 9702TIP3    H229071   5.819   2.273   1.147  0.4909  0.0154  0.7722
 9703TIP3   OH229072   0.075   4.342   4.902  0.5568 -0.1192 -0.2892
 9703TIP3    H129073   0.062   4.338   4.807  2.0115  0.9260 -0.5569
 9703TIP3    H229074   0.032   4.423   4.929  0.3366 -0.3045 -0.0717
 9704TIP3   OH229075   1.535   5.609   0.761 -0.0318 -0.2431  0.6954
 9704TIP3    H129076   1.454   5.560   0.750 -1.1455  1.0080  2.7279
 9704TIP3    H229077   1.513   5.699   0.735  0.7399  0.0831  1.1143
 9705TIP3   OH229078   3.132   3.599   1.767 -0.1078  0.3852  0.3776
 9705TIP3    H129079   3.148   3.685   1.807  1.3449  0.8362 -1.0240
 9705TIP3    H229080   3.153   3.536   1.836 -0.5598  1.1355  1.2244
 9706TIP3   OH229081   0.635   6.732   5.822  0.6612 -0.0001 -0.1802
 9706TIP3    H129082   0.714   6.677   5.823  0.9557  0.3916 -1.0015
 9706TIP3    H229083   0.630   6.765   5.732  0.3997  1.1852  0.2522
 9707TIP3   OH229084   6.453   2.757   1.695  0.4681  0.3700  0.1663
 9707TIP3    H129085   6.454   2.794   1.783 -1.2137  2.5563 -0.6407
 9707TIP3    H229086   6.441   2.832   1.637 -2.3354 -1.3174 -1.6754
 9708TIP3   OH229087   2.978   2.188   0.327  0.1487  0.6233  0.0345
 9708TIP3    H129088   2.927   2.267   0.346 -0.3377  0.6630 -1.3202
 9708TIP3    H229089   2.912   2.119   0.319  0.5006  0.2492  0.3710
 9709TIP3   OH229090   1.811   3.801   5.148  0.1018 -0.0564 -0.1728
 9709TIP3    H129091   1.779   3.715   5.173  0.2003  0.0302  0.2618
 9709TIP3    H229092   1.766   3.862   5.206 -0.4484  0.2479 -0.9025
 9710TIP3   OH229093   4.332   6.076   1.789 -1.0834 -0.0405 -0.5209
 9710TIP3    H129094   4.272   6.031   1.849 -1.8710  0.0288 -1.2374
 9710TIP3    H229095   4.289   6.160   1.771  0.4817  1.1752  1.0030
 9711TIP3   OH229096   5.552   6.021   1.999  0.2720  0.0584  0.6715
 9711TIP3    H129097   5.639   6.062   1.999 -0.1412  1.0700 -1.1548
 9711TIP3    H229098   5.570   5.928   1.986  1.0902  0.4229 -1.2110
 9712TIP3   OH229099   3.170   4.016   2.893  0.8140  0.0710 -0.2699
 9712TIP3    H129100   3.080   4.011   2.862  0.1941 -0.6884  1.5363
 9712TIP3    H229101   3.209   3.933   2.869  0.7825  0.0694 -0.3152
 9713TIP3   OH229102   5.590   5.738   3.706  0.1127 -0.2054 -0.2715
 9713TIP3    H129103   5.636   5.821   3.694  0.8998 -0.9126 -2.5341
 9713TIP3    H229104   5.518   5.741   3.643  0.0027 -1.1508 -0.2048
 9714TIP3   OH229105   0.261   3.512   1.858  0.0141  0.5130 -0.6241
 9714TIP3    H129106   0.314   3.587   1.829  0.0315 -0.0086 -2.0202
 9714TIP3    H229107   0.298   3.437   1.811 -0.0325 -0.3805  0.7217
 9715TIP3   OH229108   2.651   5.699   4.202  0.1552  0.4143  0.0431
 9715TIP3    H129109   2.561   5.700   4.170  0.6763 -0.1932 -1.5363
 9715TIP3    H229110   2.668   5.608   4.224  0.5949  0.4106 -0.3032
 9716TIP3   OH229111   2.038   0.532   2.958  0.1838 -0.1396  0.2906
 9716TIP3    H129112   2.019   0.626   2.964 -1.5012 -0.2894 -1.7547
 9716TIP3    H229113   2.084   0.522   2.875  1.3096 -1.0430  0.9810
 9717TIP3   OH229114   0.538   1.341   0.889 -0.1456 -0.2549 -0.1264
 9717TIP3    H129115   0.594   1.415   0.863 -1.0020 -0.1511 -1.8096
 9717TIP3    H229116   0.488   1.374   0.963 -1.7272  1.5158 -1.8761
 9718TIP3   OH229117   3.099   1.847   0.855 -0.3214  0.2741 -0.5419
 9718TIP3    H129118   3.185   1.843   0.896 -1.0410 -0.7248  0.9363
 9718TIP3    H229119   3.096   1.771   0.797 -0.5854 -0.2900  0.2018
 9719TIP3   OH229120   5.422   4.019   3.389  0.4719  0.7758 -0.1432
 9719TIP3    H129121   5.403   3.933   3.427 -0.7891  1.8152  1.7374
 9719TIP3    H229122   5.355   4.030   3.320 -0.1766  0.7599  0.4732
 9720TIP3   OH229123   2.311   1.313   2.605 -1.0391  0.1556  0.3187
 9720TIP3    H129124   2.275   1.360   2.680  2.2207  1.0477  1.4874
 9720TIP3    H229125   2.330   1.381   2.541  1.5498  0.2686  1.0956
 9721TIP3   OH229126   0.320   0.966   4.823 -0.0210 -0.1249 -0.1663
 9721TIP3    H129127   0.277   1.025   4.885 -1.2704  0.2269 -1.3114
 9721TIP3    H229128   0.412   0.994   4.822 -0.3602  1.0453  0.1853
 9722TIP3   OH229129   1.976   1.980   2.443  0.2707  0.0506  0.1523
 9722TIP3    H129130   1.894   1.943   2.410  0.2226  0.7086 -0.4924
 9722TIP3    H229131   2.026   1.904   2.474 -0.3108 -0.4208 -0.0441
 9723TIP3   OH229132   4.513   2.971   4.459 -0.1682  0.3415  0.3724
 9723TIP3    H129133   4.445   3.031   4.489  0.3711  0.1133  2.1322
 9723TIP3    H229134   4.523   2.908   4.530 -0.2801 -1.4907 -1.1623
 9724TIP3   OH229135   0.527   6.039   2.183 -0.3694 -0.1528  0.8858
 9724TIP3    H129136   0.482   6.074   2.106 -0.3063 -0.1616  0.8451
 9724TIP3    H229137   0.592   5.979   2.147 -0.8890 -0.7823  0.9838
 9725TIP3   OH229138   4.658   0.579   2.387  0.1254 -0.2994  0.1846
 9725TIP3    H129139   4.649   0.658   2.333  0.2198 -1.0574 -0.9751
 9725TIP3    H229140   4.753   0.567   2.398  0.1057  0.7992  2.0074
 9726TIP3   OH229141   3.011   5.513   2.765  0.5157 -0.8443  0.5510
 9726TIP3    H129142   3.035   5.538   2.677  0.1844  2.8721  1.3780
 9726TIP3    H229143   2.922   5.476   2.756  0.7799 -1.2266 -0.7003
 9727TIP3   OH229144   6.823   4.836   2.939  0.4022  0.8748  0.3856
 9727TIP3    H129145   6.744   4.890   2.941  1.4766  2.5180  2.2357
 9727TIP3    H229146   6.894   4.898   2.925  1.6203 -0.1476  1.7039
 9728TIP3   OH229147   3.586   4.033   1.411  0.4938  0.4006 -0.0761
 9728TIP3    H129148   3.613   3.950   1.373  0.3510  0.2711  0.1027
 9728TIP3    H229149   3.599   4.021   1.506  0.3949  0.5530 -0.0436
 9729TIP3   OH229150   1.384   0.873   2.164 -0.4411  0.7589 -0.2668
 9729TIP3    H129151   1.448   0.883   2.235 -0.5685 -2.5316  0.4929
 9729TIP3    H229152   1.435   0.838   2.091 -0.9969  0.0188 -0.3164
 9730TIP3   OH229153   6.978   0.488   1.359 -0.7854  0.7807 -0.8307
 9730TIP3    H129154   6.908   0.521   1.415  0.9640  0.9807  1.3833
 9730TIP3    H229155   7.054   0.482   1.417  0.6163 -1.0305 -2.7115
 9731TIP3   OH229156   0.139   5.422   5.685 -0.3281  0.4913 -0.2822
 9731TIP3    H129157   0.163   5.503   5.729  1.1767  0.3425 -0.7701
 9731TIP3    H229158   0.222   5.387   5.651 -0.9155 -1.2870 -0.0247
 9732TIP3   OH229159   5.895   5.062   5.252  0.4651 -0.2345 -0.7053
 9732TIP3    H129160   5.936   5.094   5.333  2.1182  0.7066 -1.8517
 9732TIP3    H229161   5.816   5.115   5.243 -0.3842 -1.1576  0.8594
 9733TIP3   OH229162   1.882   2.949   4.455 -0.0334 -0.0822 -0.0722
 9733TIP3    H129163   1.922   2.871   4.418 -2.2586  0.1064 -3.2082
 9733TIP3    H229164   1.940   3.021   4.429 -0.1895 -0.2518 -0.8959
 9734TIP3   OH229165   4.483   3.808   3.572  0.4901 -0.3901 -0.2943
 9734TIP3    H129166   4.473   3.858   3.492 -0.7835 -3.4808 -2.2408
 9734TIP3    H229167   4.395   3.774   3.591  1.1015 -1.1814  1.3856
 9735TIP3   OH229168   5.894   2.351   5.789  0.5911  0.0564 -0.2381
 9735TIP3    H129169   5.966   2.381   5.734  0.9293 -3.2399 -1.7758
 9735TIP3    H229170   5.935   2.296   5.856 -0.2615  0.4298  0.6262
 9736TIP3   OH229171   6.060   4.512   3.542  0.2083 -1.3126  0.2118
 9736TIP3    H129172   6.020   4.480   3.461  0.0534 -1.0653  0.1866
 9736TIP3    H229173   6.008   4.472   3.612 -0.2318 -0.8170  0.1760
 9737TIP3   OH229174   5.237   2.864   1.346 -0.4495  0.1819  0.2166
 9737TIP3    H129175   5.164   2.922   1.366  0.2485  1.5270 -0.9268
 9737TIP3    H229176   5.314   2.911   1.378  0.1420 -0.0251 -0.8643
 9738TIP3   OH229177   6.599   3.020   0.709  0.0169 -0.6691  0.3493
 9738TIP3    H129178   6.579   2.982   0.794 -0.1421 -2.1656 -0.3342
 9738TIP3    H229179   6.539   3.095   0.702 -1.0340 -1.4202  0.9454
 9739TIP3   OH229180   0.951   0.332   1.780 -0.4494 -0.2441  0.5078
 9739TIP3    H129181   0.960   0.374   1.694 -0.5937  3.0735  1.9753
 9739TIP3    H229182   0.857   0.317   1.789 -0.4447 -0.5052  0.1815
 9740TIP3   OH229183   3.890   5.105   3.634 -0.6625  0.4280 -0.4244
 9740TIP3    H129184   3.978   5.137   3.614 -1.0341  1.3900 -0.5726
 9740TIP3    H229185   3.868   5.048   3.561  0.4928 -1.1916  0.4391
 9741TIP3   OH229186   0.675   2.267   5.781  0.6281  0.1148 -0.1078
 9741TIP3    H129187   0.676   2.240   5.689  0.4948 -1.5192  0.3343
 9741TIP3    H229188   0.757   2.233   5.817 -0.4771 -1.5436  0.9566
 9742TIP3   OH229189   0.041   0.002   5.662  0.4645 -0.8138 -0.2287
 9742TIP3    H129190   0.045  -0.044   5.745  0.9275 -2.2077 -0.9959
 9742TIP3    H229191  -0.020   0.074   5.678  1.9710  0.1230  1.8425
 9743TIP3   OH229192   3.895   3.355   0.945  0.0099 -0.0060 -0.2482
 9743TIP3    H129193   3.870   3.439   0.908  0.0856  0.3897  0.5755
 9743TIP3    H229194   3.812   3.317   0.976  0.1793  0.5802  1.0028
 9744TIP3   OH229195   0.286   0.350   1.609  0.1398  0.0198 -0.1524
 9744TIP3    H129196   0.202   0.377   1.573  0.7790  1.2746 -0.7951
 9744TIP3    H229197   0.326   0.297   1.539 -0.4176 -1.2518  0.4594
 9745TIP3   OH229198   1.569   4.839   3.402 -0.1824  0.1407  0.4314
 9745TIP3    H129199   1.545   4.887   3.482  0.3457 -0.9566  1.2805
 9745TIP3    H229200   1.575   4.907   3.335 -1.2065  1.0255  1.1769
 9746TIP3   OH229201   3.151   5.026   2.983 -0.2580  0.4343 -0.0536
 9746TIP3    H129202   3.165   5.077   3.063 -1.4264 -0.2903  0.6463
 9746TIP3    H229203   3.085   5.075   2.935 -1.5808 -0.4834  0.7449
 9747TIP3   OH229204   5.327   1.604   3.082  0.1115 -0.2944 -0.1287
 9747TIP3    H129205   5.407   1.621   3.131  0.1191  2.2852 -0.8607
 9747TIP3    H229206   5.259   1.599   3.149  0.4639  0.7476  0.3297
 9748TIP3   OH229207   0.002   0.849   1.059  0.4408 -0.1849  0.6481
 9748TIP3    H129208   0.064   0.778   1.046 -0.1741 -0.7588  0.7432
 9748TIP3    H229209  -0.018   0.847   1.153 -0.8188 -0.9765  0.3901
 9749TIP3   OH229210   0.059   3.323   2.334 -0.7714 -0.2348  0.0727
 9749TIP3    H129211   0.125   3.254   2.326 -0.1461  0.3246  0.3501
 9749TIP3    H229212   0.031   3.319   2.426  0.0185  0.5519  0.3577
   7.21557   6.80292   5.89149   0.00000   0.00000  -2.40520   0.00000  -2.40520  -3.40145
